Membrane in water
40167
    1TCq1    O1    1   3.039   3.001  10.418  0.3534  0.2729  0.3890
    1TCq1    C1    2   3.082   2.969  10.540 -0.2914 -0.2799  0.3817
    1TCq1    O2    3   3.199   2.959  10.570 -0.6308 -0.1522 -0.2922
    1TCq1    C2    4   2.983   2.887  10.601  0.5779  0.1859 -0.0706
    1TCq1    C3    5   2.852   2.929  10.597 -0.1757 -0.4249 -0.5592
    1TCq1    C4    6   2.760   2.870  10.678  0.1270  0.5105 -0.2378
    1TCq1    C5    7   2.805   2.776  10.769  0.2253 -0.6694  0.2269
    1TCq1    C6    8   2.933   2.739  10.770 -0.0589 -0.0392 -0.6804
    1TCq1    C7    9   3.024   2.784  10.677 -0.2973 -0.7053  1.0354
    1TCq1    C8   10   2.964   2.657  10.892  0.0638  0.0362  0.4545
    1TCq1    O4   11   2.901   2.685  10.993 -0.0579 -0.5712 -0.0179
    1TCq1    C9   12   2.617   2.885  10.655  0.3133 -0.1225 -0.2890
    1TCq1    O5   13   2.544   2.802  10.715 -0.2345  0.4210 -0.2293
    1TCq1    O6   14   2.582   2.952  10.556  0.2701  0.3457 -0.7097
    1TCq1    H1   15   2.950   2.962  10.409  1.2630 -2.2997  2.5928
    1TCq1    H2   16   2.814   3.011  10.537 -1.6553 -0.0557  0.8988
    1TCq1    H3   17   2.735   2.717  10.827 -1.4081  1.4043  0.4096
    1TCq1    H4   18   3.129   2.757  10.681 -0.0707 -0.0640 -0.8830
    2MPD2     C   19   3.152   2.252  11.155 -0.2135  0.0659 -0.0348
    2MPD2    C1   20   3.038   2.330  11.182  0.5635  0.0786  0.3793
    2MPD2    C2   21   3.006   2.432  11.089 -0.0985 -0.4945  0.1233
    2MPD2    C3   22   3.079   2.452  10.975 -0.0645 -0.2426 -0.0824
    2MPD2    C4   23   3.180   2.357  10.950 -0.2281 -0.3729 -0.0340
    2MPD2    C5   24   3.213   2.267  11.037  0.1492 -0.3535  0.5088
    2MPD2     H   25   2.920   2.495  11.111  0.6774 -0.9278  4.3037
    2MPD2    H1   26   3.229   2.354  10.853  0.1417 -1.1562  0.1757
    2MPD2    H2   27   3.180   2.171  11.222 -0.5942  0.7070  0.8865
    2MPD2    H3   28   3.291   2.197  11.011  0.0169  0.0577 -0.9925
    2MPD2     N   29   3.058   2.557  10.879 -0.1677 -0.4386  0.3900
    2MPD2    H5   30   3.117   2.562  10.796  0.4046  1.0342  0.8788
    2MPD2    N1   31   2.951   2.311  11.293 -0.3728 -0.3117  0.0772
    2MPD2    H7   32   2.882   2.383  11.310 -0.7484 -0.7226  0.3198
    3TCq1    O1   33   2.642   3.155  10.411  0.9346 -0.7201  0.4002
    3TCq1    C1   34   2.613   3.290  10.418  0.1322  0.0202  0.4652
    3TCq1    O2   35   2.667   3.375  10.352 -0.8293  0.8458 -0.2001
    3TCq1    C2   36   2.471   3.289  10.422  0.7265 -0.0403  0.2032
    3TCq1    C3   37   2.405   3.349  10.316 -0.1974  0.7031  0.4348
    3TCq1    C4   38   2.277   3.397  10.331  0.1179  0.5522  0.2443
    3TCq1    C5   39   2.219   3.390  10.452 -0.2299 -0.3878 -0.0323
    3TCq1    C6   40   2.285   3.319  10.547  0.4794 -0.6092  0.0360
    3TCq1    C7   41   2.414   3.278  10.543 -0.1132  0.0762 -1.0623
    3TCq1    C8   42   2.254   3.357  10.685 -0.2791  0.2900  0.1592
    3TCq1    O4   43   2.281   3.273  10.773 -0.3237  0.7887 -0.9383
    3TCq1    C9   44   2.220   3.473  10.222  0.4838 -0.1883 -0.4246
    3TCq1    O5   45   2.146   3.567  10.261 -0.0234  0.0426  0.2456
    3TCq1    O6   46   2.269   3.464  10.104  0.4593  0.4324  0.2110
    3TCq1    H1   47   2.597   3.094  10.474 -0.3328  0.8680  1.0344
    3TCq1    H2   48   2.459   3.362  10.224 -0.4959 -0.3762  0.1024
    3TCq1    H3   49   2.119   3.430  10.461 -0.6003 -1.3462  0.1778
    3TCq1    H4   50   2.465   3.243  10.632 -0.2391  1.2668 -0.5216
    4MPD2     C   51   2.032   3.671  11.030  0.0033 -0.6340 -0.5955
    4MPD2    C1   52   2.063   3.751  10.917 -0.0505 -0.4488 -0.1500
    4MPD2    C2   53   2.120   3.689  10.804 -0.1495  0.0247  0.1750
    4MPD2    C3   54   2.149   3.556  10.806  0.1859 -0.6395 -0.1705
    4MPD2    C4   55   2.122   3.481  10.921  0.0864 -0.2881  0.3999
    4MPD2    C5   56   2.058   3.536  11.024  0.5751 -0.0082  0.5215
    4MPD2     H   57   2.145   3.752  10.720  0.7763 -0.2715  0.2279
    4MPD2    H1   58   2.125   3.372  10.924  2.1882 -0.2734 -1.4455
    4MPD2    H2   59   1.978   3.710  11.116  0.4674  1.5039 -1.2787
    4MPD2    H3   60   2.022   3.473  11.105 -1.0524  1.3344  0.8424
    4MPD2     N   61   2.203   3.488  10.693 -1.0170 -0.1606  0.3328
    4MPD2    H5   62   2.195   3.540  10.606  1.2011  0.5706  0.5812
    4MPD2    N1   63   2.057   3.889  10.927 -0.1092  0.3909 -0.0005
    4MPD2    H7   64   2.101   3.938  10.850  0.5522  1.1237  0.8477
    5TCq1    O1   65   2.775   1.344  10.994 -0.0894 -0.1263 -0.5407
    5TCq1    C1   66   2.778   1.211  10.980  0.6812  0.0158 -0.1454
    5TCq1    O2   67   2.818   1.127  11.063 -0.0953  0.0192  0.1404
    5TCq1    C2   68   2.748   1.168  10.842  0.1159  0.4695 -1.0257
    5TCq1    C3   69   2.671   1.250  10.761  0.2854 -0.4397 -0.0876
    5TCq1    C4   70   2.631   1.193  10.639 -0.0291 -0.0858  0.3848
    5TCq1    C5   71   2.680   1.071  10.604 -1.1571 -0.0184 -0.8688
    5TCq1    C6   72   2.768   1.005  10.675 -0.3046 -0.3523  0.1440
    5TCq1    C7   73   2.806   1.051  10.797  0.0681 -0.5255 -0.1112
    5TCq1    C8   74   2.836   0.885  10.627  0.8557 -0.4415 -0.5186
    5TCq1    O4   75   2.877   0.804  10.710  0.3764  0.3700  0.7324
    5TCq1    C9   76   2.526   1.263  10.570  0.6470 -0.4026 -0.4571
    5TCq1    O5   77   2.483   1.370  10.622  0.2780 -0.9201  0.1779
    5TCq1    O6   78   2.486   1.213  10.462 -0.0243  0.0191 -0.1504
    5TCq1    H1   79   2.776   1.393  10.909 -0.8301  0.6537 -0.1022
    5TCq1    H2   80   2.625   1.337  10.806 -1.1638  0.2892 -2.9877
    5TCq1    H3   81   2.643   1.029  10.511 -0.4556  4.5909 -3.2120
    5TCq1    H4   82   2.873   0.999  10.865  0.4040  3.1566  2.3752
    6MPD2     C   83   2.883   0.762  10.286  0.0316  0.3764 -0.4614
    6MPD2    C1   84   2.877   0.754  10.421  0.0871 -0.0251  0.4786
    6MPD2    C2   85   2.890   0.626  10.483 -0.2757 -0.1955  0.4268
    6MPD2    C3   86   2.910   0.514  10.403 -0.1489  0.3273 -0.0196
    6MPD2    C4   87   2.914   0.524  10.266 -0.0247 -0.4063  0.1091
    6MPD2    C5   88   2.890   0.648  10.207 -0.4819 -0.6193 -1.0838
    6MPD2     H   89   2.886   0.607  10.590  0.7279 -2.5838  0.0362
    6MPD2    H1   90   2.930   0.435  10.205 -1.3796 -1.4898  1.3456
    6MPD2    H2   91   2.865   0.853  10.230  0.2532 -0.9556 -2.7158
    6MPD2    H3   92   2.873   0.641  10.101  0.8211 -0.9028 -1.2805
    6MPD2     N   93   2.915   0.389  10.470  0.1331  0.1155 -0.0234
    6MPD2    H5   94   2.909   0.390  10.571  2.1057 -0.6828  0.1088
    6MPD2    N1   95   2.842   0.872  10.494  0.1874  0.2301  0.8580
    6MPD2    H7   96   2.821   0.947  10.429  1.3011 -1.2524 -1.2072
    7TCq1    O1   97   4.587   0.291  12.949 -0.0566 -0.2481  0.4546
    7TCq1    C1   98   4.655   0.233  13.047 -0.2814  0.1519  0.3304
    7TCq1    O2   99   0.014   0.294  13.119  0.0148 -0.2621  0.1306
    7TCq1    C2  100   4.649   0.090  13.029  0.2376  0.0955 -0.6127
    7TCq1    C3  101   4.558   0.032  12.945  0.1811  0.0172  0.9070
    7TCq1    C4  102   4.554   4.614  12.932  0.3612  0.2572 -0.2754
    7TCq1    C5  103   4.639   4.536  13.008 -0.1819 -0.0646  0.4955
    7TCq1    C6  104   0.025   4.598  13.068  0.4710  0.2875  0.3030
    7TCq1    C7  105   0.037   0.014  13.079 -0.3532 -0.5704 -0.0153
    7TCq1    C8  106   0.121   4.510  13.141  0.0122 -0.1611  0.5374
    7TCq1    O4  107   0.093   4.393  13.140 -0.2785  0.0917 -0.7351
    7TCq1    C9  108   4.452   4.558  12.843 -1.1751  0.0346 -0.0271
    7TCq1    O5  109   4.369   4.637  12.789  0.3065  0.6520 -0.2294
    7TCq1    O6  110   4.442   4.433  12.843  0.0602  0.3883  0.3079
    7TCq1    H1  111   4.535   0.229  12.894  1.5011  0.3255 -1.6769
    7TCq1    H2  112   4.479   0.090  12.899  0.1758 -1.1710 -0.5842
    7TCq1    H3  113   4.645   4.429  12.996  1.4990  0.2570 -1.6042
    7TCq1    H4  114   0.111   0.069  13.137 -0.6946 -1.8965  1.6778
    8MPD2     C  115   0.505   4.376  13.466 -0.1900 -0.1833  0.3167
    8MPD2    C1  116   0.399   4.299  13.411  0.4409  0.3165  0.0421
    8MPD2    C2  117   0.304   4.363  13.334 -0.2618 -0.6400 -0.4079
    8MPD2    C3  118   0.308   4.496  13.300 -0.5432 -0.4064 -0.4724
    8MPD2    C4  119   0.407   4.577  13.366  0.0731  0.0990  0.4709
    8MPD2    C5  120   0.503   4.512  13.444  0.3241 -0.2876 -0.1400
    8MPD2     H  121   0.235   4.292  13.291 -0.0103 -1.0961 -0.0533
    8MPD2    H1  122   0.406   4.686  13.367  0.9141  0.0937  1.1329
    8MPD2    H2  123   0.587   4.346  13.530  1.2506  0.8732 -1.0228
    8MPD2    H3  124   0.576   4.570  13.500  0.6381 -0.9069  0.0839
    8MPD2     N  125   0.229   4.570  13.208 -0.4564  0.2317 -0.2550
    8MPD2    H5  126   0.249   4.669  13.192  1.0584 -0.2809 -1.4764
    8MPD2    N1  127   0.385   4.166  13.442  0.6530  0.3892 -0.1032
    8MPD2    H7  128   0.301   4.121  13.408  2.6301 -3.0574 -0.4616
    9TCq1    O1  129   2.457   4.037  10.793 -0.2338 -0.4862 -0.5536
    9TCq1    C1  130   2.397   3.924  10.839 -0.0645 -0.2968  0.2138
    9TCq1    O2  131   2.388   3.902  10.957  0.3592 -0.2506  0.3741
    9TCq1    C2  132   2.417   3.819  10.735 -0.1596 -0.1015 -0.1342
    9TCq1    C3  133   2.435   3.859  10.601  0.3462 -0.0640 -0.2552
    9TCq1    C4  134   2.498   3.781  10.508  0.5010 -0.5454 -1.0246
    9TCq1    C5  135   2.550   3.662  10.543  0.1526  0.0752  0.2703
    9TCq1    C6  136   2.533   3.625  10.675 -0.6549 -0.2802 -0.3945
    9TCq1    C7  137   2.469   3.699  10.770  0.1650 -0.1631  0.2982
    9TCq1    C8  138   2.606   3.511  10.720  0.2299 -0.5502  0.1818
    9TCq1    O4  139   2.711   3.476  10.667  0.5012 -0.7864  0.5749
    9TCq1    C9  140   2.489   3.824  10.370  0.6170 -0.2591 -0.7378
    9TCq1    O5  141   2.534   3.740  10.286  0.5209 -0.3234 -0.2974
    9TCq1    O6  142   2.435   3.933  10.341  0.3674 -0.4085  0.0466
    9TCq1    H1  143   2.468   4.035  10.696 -1.3839  1.2212 -0.7249
    9TCq1    H2  144   2.393   3.954  10.569 -0.9458 -0.3447  0.6341
    9TCq1    H3  145   2.601   3.602  10.469  0.8092  0.8549  0.0911
    9TCq1    H4  146   2.474   3.674  10.876 -1.4834 -1.1928  0.1360
   10MPD2     C  147   2.696   3.253  10.840  0.4321 -0.3904 -0.2511
   10MPD2    C1  148   2.587   3.326  10.885 -0.8875 -1.3495  0.3980
   10MPD2    C2  149   2.527   3.294  11.009 -0.1679 -0.4271  0.8298
   10MPD2    C3  150   2.582   3.194  11.088 -0.8624 -1.0617  0.1060
   10MPD2    C4  151   2.690   3.118  11.028 -0.2188 -0.7520  0.2720
   10MPD2    C5  152   2.749   3.151  10.910  0.0310 -0.5569  0.5122
   10MPD2     H  153   2.435   3.339  11.044 -1.3966 -1.9945 -0.3489
   10MPD2    H1  154   2.739   3.041  11.087  0.5399 -0.4073  0.0885
   10MPD2    H2  155   2.751   3.269  10.748  0.5212 -0.7098 -0.2536
   10MPD2    H3  156   2.825   3.084  10.869 -0.9700 -2.1772  1.2833
   10MPD2     N  157   2.543   3.170  11.223 -0.7633  0.0243  0.1578
   10MPD2    H5  158   2.619   3.129  11.277  0.8874  2.9925  0.1193
   10MPD2    N1  159   2.543   3.446  10.826  0.1382 -0.3561  0.9890
   10MPD2    H7  160   2.453   3.469  10.867  0.1208  0.3543  0.5448
   11TCq1    O1  161   4.265   3.378  13.863  0.1612  0.6371  0.0683
   11TCq1    C1  162   4.169   3.379  13.771  0.1792  0.9104  0.2730
   11TCq1    O2  163   4.187   3.389  13.653 -0.3975  1.2347  0.1895
   11TCq1    C2  164   4.078   3.283  13.822 -0.1344  0.2480 -0.3038
   11TCq1    C3  165   4.004   3.302  13.934 -0.0078  0.5924  0.2152
   11TCq1    C4  166   3.892   3.221  13.960 -0.2334  0.4272  0.5081
   11TCq1    C5  167   3.853   3.128  13.868  0.2072  0.2694 -0.7165
   11TCq1    C6  168   3.929   3.112  13.754  0.6181  0.0534  0.1087
   11TCq1    C7  169   4.042   3.184  13.733 -0.1738  0.0932  0.1294
   11TCq1    C8  170   3.877   3.029  13.643  0.8361  0.0681  0.5462
   11TCq1    O4  171   3.933   3.029  13.533 -0.3032 -0.6552  0.0282
   11TCq1    C9  172   3.822   3.240  14.080  0.1371  0.1879 -0.9198
   11TCq1    O5  173   3.871   3.340  14.145 -0.1582  0.0721 -0.0910
   11TCq1    O6  174   3.701   3.191  14.087 -0.2164 -0.3255 -0.2837
   11TCq1    H1  175   4.233   3.365  13.955  0.7277  2.1055  0.4632
   11TCq1    H2  176   4.036   3.386  13.996  3.8081 -1.2179  0.7337
   11TCq1    H3  177   3.775   3.066  13.909 -0.4044 -0.4146 -2.9366
   11TCq1    H4  178   4.096   3.170  13.640  0.2246  1.7989  0.0963
   12MPD2     C  179   3.664   2.984  13.460  0.4306 -0.6322  0.2562
   12MPD2    C1  180   3.661   2.942  13.594 -0.0737  0.2430 -0.4100
   12MPD2    C2  181   3.541   2.891  13.643  0.5866  0.2448  0.0238
   12MPD2    C3  182   3.430   2.884  13.571 -0.0682 -0.4283 -0.2696
   12MPD2    C4  183   3.431   2.933  13.443 -0.2745 -0.3114  0.3737
   12MPD2    C5  184   3.551   2.982  13.385  0.2826 -0.1570 -0.2187
   12MPD2     H  185   3.526   2.882  13.750 -0.5981 -0.0523 -0.1723
   12MPD2    H1  186   3.340   2.929  13.384  1.3658  2.8491 -2.3792
   12MPD2    H2  187   3.740   3.051  13.421  0.2848 -0.7465 -0.2277
   12MPD2    H3  188   3.545   3.023  13.285  0.2182 -0.3624 -0.3000
   12MPD2     N  189   3.315   2.820  13.634 -0.8294 -0.0356  0.4779
   12MPD2    H5  190   3.331   2.769  13.720  1.5734 -0.3430 -0.1654
   12MPD2    N1  191   3.762   2.963  13.687 -0.0271 -0.3004 -0.4961
   12MPD2    H7  192   3.741   2.955  13.786 -0.1150  0.9938 -0.4098
   13TCq1    O1  193   2.582   2.816  10.333 -0.1089  0.9358 -0.3633
   13TCq1    C1  194   2.514   2.839  10.219 -0.4663 -0.4435 -0.2242
   13TCq1    O2  195   2.562   2.831  10.105 -0.3040 -0.1457 -0.1507
   13TCq1    C2  196   2.393   2.912  10.246  0.3934 -0.2727 -0.0423
   13TCq1    C3  197   2.352   2.990  10.146 -1.0898 -0.1636  0.6075
   13TCq1    C4  198   2.245   3.074  10.172 -0.0211 -0.0829  0.2243
   13TCq1    C5  199   2.175   3.062  10.289  0.3306  0.1823  0.1395
   13TCq1    C6  200   2.226   2.980  10.392 -0.8106  0.8147  0.0440
   13TCq1    C7  201   2.334   2.905  10.369  0.4199 -0.8469 -0.4363
   13TCq1    C8  202   2.182   2.991  10.528 -0.2685 -0.3526 -0.9459
   13TCq1    O4  203   2.249   2.934  10.614  0.0236  0.2108  0.7312
   13TCq1    C9  204   2.204   3.168  10.074  0.5397 -0.3510  0.5471
   13TCq1    O5  205   2.275   3.195   9.975 -0.3516 -0.1956  0.1702
   13TCq1    O6  206   2.080   3.205  10.080 -0.5913  1.4136  0.4373
   13TCq1    H1  207   2.552   2.859  10.416 -0.5172 -0.1123  0.0364
   13TCq1    H2  208   2.414   3.011  10.060 -1.0388 -0.5640  0.5454
   13TCq1    H3  209   2.089   3.128  10.298 -0.7917 -1.3259  0.4394
   13TCq1    H4  210   2.362   2.830  10.443  0.9979 -2.0930 -1.9232
   14MPD2     C  211   1.856   3.119  10.641 -0.0399  0.5471  0.6332
   14MPD2    C1  212   1.986   3.076  10.655  0.0425 -0.5993  0.0211
   14MPD2    C2  213   2.033   3.047  10.779  0.2079 -0.3771  1.0055
   14MPD2    C3  214   1.953   3.061  10.894 -0.1008 -0.6378  0.0279
   14MPD2    C4  215   1.829   3.116  10.871  0.1038  0.1646 -0.3785
   14MPD2    C5  216   1.782   3.143  10.747  0.6038  0.4615 -1.1761
   14MPD2     H  217   2.139   3.032  10.793  0.5568  0.0159 -1.2648
   14MPD2    H1  218   1.776   3.159  10.955 -2.3224 -1.4551 -1.1067
   14MPD2    H2  219   1.806   3.130  10.545 -0.8014 -0.8047  0.8833
   14MPD2    H3  220   1.688   3.196  10.732  2.3035  3.2029 -2.0238
   14MPD2     N  221   2.002   3.040  11.023 -0.3302  0.4007 -0.1191
   14MPD2    H5  222   2.098   3.063  11.046 -0.8350  0.6914  1.6807
   14MPD2    N1  223   2.062   3.058  10.536  0.6418  0.6883 -0.1995
   14MPD2    H7  224   2.018   3.077  10.447 -1.7500  0.1319  0.8607
   15TCq1    O1  225   4.522   2.057   1.824  0.2230 -0.0379  0.4224
   15TCq1    C1  226   4.513   2.164   1.738 -0.2049  0.3784  0.2815
   15TCq1    O2  227   4.503   2.274   1.789  0.0888  0.5132  0.2955
   15TCq1    C2  228   4.439   2.122   1.624 -0.3991 -0.3865  0.2492
   15TCq1    C3  229   4.352   2.214   1.570 -0.3725 -0.6989 -0.3872
   15TCq1    C4  230   4.287   2.172   1.460 -0.3694  0.5241  0.0138
   15TCq1    C5  231   4.321   2.058   1.396 -0.3466  0.0715 -0.6988
   15TCq1    C6  232   4.416   1.975   1.447 -0.5419  0.1325 -0.6640
   15TCq1    C7  233   4.481   2.006   1.560 -0.4427  0.3013 -0.0948
   15TCq1    C8  234   4.451   1.854   1.382  0.1766  0.4344 -0.2152
   15TCq1    O4  235   4.545   1.792   1.433 -0.0828  0.5529 -0.7069
   15TCq1    C9  236   4.192   2.255   1.393  0.7938 -0.1639 -0.3520
   15TCq1    O5  237   4.127   2.210   1.294  1.2403 -0.0406 -0.0137
   15TCq1    O6  238   4.163   2.357   1.463  0.4314 -0.1497  0.2692
   15TCq1    H1  239   4.500   1.974   1.775 -0.2103 -0.7916  1.9130
   15TCq1    H2  240   4.325   2.307   1.618 -1.0528 -1.5188  0.8039
   15TCq1    H3  241   4.287   2.048   1.294  0.5640  0.3547 -1.0236
   15TCq1    H4  242   4.551   1.943   1.614 -0.7622  1.4098  1.6330
   16MPD2     C  243   4.228   1.662   1.159 -0.0988 -0.5825  0.0028
   16MPD2    C1  244   4.331   1.684   1.243  0.2225 -0.1111 -0.1296
   16MPD2    C2  245   4.423   1.586   1.251  0.0370 -0.0981  0.7028
   16MPD2    C3  246   4.413   1.469   1.186  0.2793 -0.3948  0.0732
   16MPD2    C4  247   4.307   1.441   1.106 -0.6058 -0.1266  0.1239
   16MPD2    C5  248   4.213   1.545   1.094  0.8530  0.6495  0.2227
   16MPD2     H  249   4.495   1.601   1.330 -0.7633  3.5060  0.7549
   16MPD2    H1  250   4.298   1.347   1.054  1.8349  0.6133 -1.6362
   16MPD2    H2  251   4.155   1.737   1.131  2.0096  1.0132 -1.2639
   16MPD2    H3  252   4.131   1.519   1.028  0.0853  0.2312  1.3564
   16MPD2     N  253   4.524   1.379   1.207  0.1437  0.2391  0.0207
   16MPD2    H5  254   4.597   1.423   1.262 -0.5636  0.4052  0.8062
   16MPD2    N1  255   4.349   1.814   1.297  0.0080 -0.5532  0.2839
   16MPD2    H7  256   4.281   1.881   1.263 -0.0058 -0.3986  0.6100
   17TCq1    O1  257   1.607   2.850  10.943 -0.4837  0.2862 -0.1859
   17TCq1    C1  258   1.596   2.797  10.822  0.0411 -0.8161 -0.1953
   17TCq1    O2  259   1.501   2.797  10.741 -0.1969  0.3200  0.1533
   17TCq1    C2  260   1.723   2.761  10.769 -0.5525  0.2462 -0.2347
   17TCq1    C3  261   1.822   2.731  10.858 -0.1341  0.0851  0.3032
   17TCq1    C4  262   1.951   2.718  10.813  0.0304  0.0065  0.4067
   17TCq1    C5  263   1.983   2.731  10.678  0.0600 -0.1907 -0.0478
   17TCq1    C6  264   1.876   2.735  10.589 -0.5601  0.5940 -0.1510
   17TCq1    C7  265   1.745   2.757  10.631 -0.4767 -0.2983 -0.6832
   17TCq1    C8  266   1.897   2.755  10.446  0.0282  0.0558  0.5294
   17TCq1    O4  267   1.806   2.820  10.391  0.4297 -0.1675 -0.1169
   17TCq1    C9  268   2.054   2.699  10.906  0.3905 -0.2136  0.2678
   17TCq1    O5  269   2.027   2.671  11.025  0.0375 -0.1264  0.3891
   17TCq1    O6  270   2.171   2.703  10.864  0.5203  0.2389 -0.7988
   17TCq1    H1  271   1.691   2.872  10.989  0.7371 -0.9991 -1.7756
   17TCq1    H2  272   1.802   2.733  10.964 -2.7975 -0.1947 -0.1989
   17TCq1    H3  273   2.087   2.722  10.649 -0.1786 -0.3628 -0.8679
   17TCq1    H4  274   1.665   2.761  10.558 -1.1532  0.1981  0.0845
   18MPD2     C  275   1.971   2.716  10.157 -0.8029 -0.3786 -0.0071
   18MPD2    C1  276   2.050   2.672  10.261  0.0643 -0.0335  0.1550
   18MPD2    C2  277   2.178   2.625  10.232  0.1827 -0.1294 -0.2527
   18MPD2    C3  278   2.213   2.606  10.102 -0.9160 -0.4611 -0.3133
   18MPD2    C4  279   2.125   2.640  10.002  0.0972 -0.1181 -0.3133
   18MPD2    C5  280   2.007   2.696  10.028 -0.8937  0.0730  0.4011
   18MPD2     H  281   2.244   2.612  10.316 -1.4412 -2.4568  0.6647
   18MPD2    H1  282   2.149   2.636   9.897 -0.7999 -1.3509 -0.4613
   18MPD2    H2  283   1.884   2.780  10.168  0.0657  0.7751  0.2002
   18MPD2    H3  284   1.951   2.747   9.950  0.8065  1.1073 -0.1319
   18MPD2     N  285   2.343   2.562  10.059 -0.0432  0.4796  0.1748
   18MPD2    H5  286   2.366   2.572   9.960  1.3904  0.2096  0.4798
   18MPD2    N1  287   2.010   2.693  10.398 -0.7697  0.0856  0.1042
   18MPD2    H7  288   2.078   2.654  10.463 -0.8291  2.0116  1.3219
   19TMC2    C1  289   4.590   2.861  13.669  0.1211 -0.0469  0.0352
   19TMC2    C2  290   4.598   2.830  13.543  0.2761 -0.1222  0.5759
   19TMC2    C3  291   4.500   2.747  13.494  0.3827  0.5411  0.9858
   19TMC2    C4  292   4.503   2.808  13.755 -0.4993  0.0610  1.0903
   19TMC2    C5  293   4.401   2.732  13.702 -0.0257 -0.8369 -0.0515
   19TMC2    C6  294   4.393   2.699  13.572 -0.1620  0.4500  0.6357
   19TMC2     C  295   0.002   2.918  13.712  0.2343 -0.2885 -0.1925
   19TMC2     O  296   0.048   3.006  13.642 -0.1261 -0.3357  0.6354
   19TMC2     H  297   4.675   2.873  13.479  1.0000 -0.2452  1.3522
   19TMC2    H1  298   4.501   2.827  13.862  0.3679 -2.2734  1.5265
   19TMC2    H2  299   4.308   2.646  13.531  0.7373 -1.3449  1.0865
   19TMC2    C7  300   4.299   2.680  13.795  0.4256  0.4410 -0.1831
   19TMC2    C8  301   4.490   2.739  13.349  0.3168  0.2794  0.3820
   19TMC2    O1  302   4.329   2.648  13.907  0.3363 -0.2640 -0.2647
   19TMC2    O2  303   4.385   2.731  13.284 -0.3082  0.7241 -0.8113
   19TMC2    O5  304   4.604   2.677  13.318 -0.0622 -0.4748 -0.4843
   19TMC2    H5  305   4.664   2.704  13.392  0.1245 -2.1202 -0.0414
   20MPD2     C  306   0.264   2.999  13.834  0.0626  0.5579  1.5288
   20MPD2    C1  307   0.176   2.903  13.890 -0.0487  0.7652 -0.0916
   20MPD2    C2  308   0.223   2.831  14.002 -0.5091 -0.0792 -0.7406
   20MPD2    C3  309   0.341   2.874  14.065  0.6362  0.1853 -0.1782
   20MPD2    C4  310   0.415   2.977  14.010  0.1574  0.5117  0.6504
   20MPD2    C5  311   0.380   3.037  13.891 -0.9783  0.1758 -0.2106
   20MPD2     H  312   0.149   2.764  14.043  0.0550  0.6071  1.3558
   20MPD2    H1  313   0.503   3.008  14.066 -0.9164  2.7340  1.0770
   20MPD2    H2  314   0.237   3.064  13.752  1.5512 -2.0749 -1.0514
   20MPD2    H3  315   0.429   3.126  13.854 -2.5055  1.9880  2.2254
   20MPD2     N  316   0.395   2.819  14.186  0.1163 -0.2344  0.0062
   20MPD2    H5  317   0.471   2.872  14.228  0.8593 -1.7046  0.5352
   20MPD2    N1  318   0.057   2.869  13.830 -0.8353  0.1160 -0.0333
   20MPD2    H7  319   0.006   2.797  13.881 -1.4026 -0.0790 -0.8842
   21MPD2     C  320   2.233   3.757  14.056  0.0617 -0.5901 -1.0941
   21MPD2    C1  321   2.329   3.666  14.023 -0.4911  0.2564 -0.1723
   21MPD2    C2  322   2.290   3.533  14.032  0.4476 -0.2682 -0.7258
   21MPD2    C3  323   2.165   3.496  14.084 -0.1260 -0.4247  0.4690
   21MPD2    C4  324   2.072   3.586  14.109 -0.7370 -0.2503 -0.1659
   21MPD2    C5  325   2.103   3.715  14.082  0.7245 -0.3438  0.4288
   21MPD2     H  326   2.366   3.456  14.017 -0.9944 -1.7918 -0.2622
   21MPD2    H1  327   1.976   3.545  14.138 -0.3506  1.1042  2.9690
   21MPD2    H2  328   2.245   3.864  14.046 -1.7836 -0.1019  1.8734
   21MPD2    H3  329   2.032   3.794  14.103  1.3187 -0.5488  3.1403
   21MPD2     N  330   2.135   3.361  14.120 -0.0239 -0.0128  0.4439
   21MPD2    H5  331   2.046   3.341  14.164  0.1494 -1.3818  0.1497
   21MPD2    N1  332   2.460   3.694  13.975  0.4645 -0.2064  0.3487
   21MPD2    H7  333   2.509   3.608  13.953 -3.5705 -2.5863  0.6441
   22TCq2    C1  334   2.210   3.242  14.093  0.2675  0.0156  0.3315
   22TCq2    O2  335   2.325   3.230  14.055  0.1776 -0.0538 -0.4997
   22TCq2    C2  336   2.151   3.115  14.134  0.1782 -0.7579 -0.2412
   22TCq2    C3  337   2.227   3.009  14.101 -0.0341  0.7890 -0.3760
   22TCq2    C4  338   2.196   2.888  14.150  0.4824 -0.1946 -0.0659
   22TCq2    C5  339   2.096   2.871  14.242 -0.1091  0.1295  0.7828
   22TCq2    C6  340   2.030   2.982  14.284 -0.4629 -1.4481  0.6633
   22TCq2    C7  341   2.052   3.110  14.226  0.5421 -0.4335 -0.2500
   22TCq2    C8  342   1.932   2.959  14.382  0.2007  0.4218 -0.5492
   22TCq2    O4  343   1.949   2.871  14.464  0.0610 -0.8539  0.0013
   22TCq2    C9  344   2.267   2.774  14.096  0.1999  0.1969  0.5635
   22TCq2    O5  345   2.236   2.669  14.156  0.4148  0.2833  0.3783
   22TCq2    O6  346   2.321   2.784  13.979 -0.0177 -0.7491  0.0469
   22TCq2    H2  347   2.317   3.012  14.041 -1.8643  3.4534 -2.9754
   22TCq2    H3  348   2.088   2.777  14.296 -1.6525  1.2249  2.4459
   22TCq2    H4  349   2.018   3.201  14.274  2.1326  0.2107 -0.3357
   23MPD2     C  350   4.084   4.362  14.405  0.5621  0.0474  0.7117
   23MPD2    C1  351   4.007   4.405  14.506  0.5237  0.2521 -0.1245
   23MPD2    C2  352   3.941   4.526  14.496  0.4673  0.4838  0.9085
   23MPD2    C3  353   3.951   4.601  14.378 -0.0472 -0.3103 -0.1911
   23MPD2    C4  354   4.019   4.542  14.273 -0.2140 -0.8237  0.0862
   23MPD2    C5  355   4.095   4.430  14.292  0.4488  0.2818  0.6890
   23MPD2     H  356   3.876   4.551  14.579 -0.6625 -2.3519  0.8612
   23MPD2    H1  357   4.032   4.601  14.183 -0.5531  2.6784  2.3067
   23MPD2    H2  358   4.145   4.272  14.411  1.0144  0.3787  1.1025
   23MPD2    H3  359   4.158   4.400  14.208  1.2974  1.6212  0.8439
   23MPD2     N  360   3.881   0.001  14.365  0.3829 -0.0263  0.0191
   23MPD2    H5  361   3.872   0.031  14.268  0.4176  0.6282  0.2177
   23MPD2    N1  362   3.974   4.330  14.619 -0.3448  0.4661  0.4153
   23MPD2    H7  363   3.907   4.374  14.682 -1.2405  1.5942 -1.3362
   24TCq2    C1  364   3.825   0.067  14.471  0.2197 -0.7985  0.2360
   24TCq2    O2  365   3.861   0.054  14.587 -0.3738  0.1397 -0.2819
   24TCq2    C2  366   3.727   0.168  14.438  0.2550  0.3419 -0.6517
   24TCq2    C3  367   3.692   0.190  14.305 -0.5475  0.9636  0.0863
   24TCq2    C4  368   3.565   0.230  14.284  0.2884  0.4624  0.2379
   24TCq2    C5  369   3.474   0.255  14.383  0.1463  0.2952  0.0865
   24TCq2    C6  370   3.522   0.257  14.512  0.9574 -0.3677  0.1797
   24TCq2    C7  371   3.650   0.213  14.541  0.5113 -0.6216  0.1242
   24TCq2    C8  372   3.418   0.235  14.620  0.6599  0.0376  0.1414
   24TCq2    O4  373   3.462   0.199  14.729 -0.2577  0.6236 -0.7619
   24TCq2    C9  374   3.524   0.251  14.147  0.7825 -0.1570 -0.0466
   24TCq2    O5  375   3.619   0.269  14.070  0.3192  0.1105  0.1011
   24TCq2    O6  376   3.399   0.248  14.124 -0.0337  0.2683  0.1087
   24TCq2    H2  377   3.761   0.184  14.222  0.3622  2.2894  0.7507
   24TCq2    H3  378   3.375   0.286  14.350  1.5395  2.1074 -2.4236
   24TCq2    H4  379   3.676   0.196  14.644  0.6669 -0.8958  0.0391
   25TMC2    C1  380   1.970   2.060  11.115 -0.3439 -0.8081 -0.0774
   25TMC2    C2  381   2.086   2.135  11.105 -0.0551 -0.1221 -0.1455
   25TMC2    C3  382   2.145   2.175  11.222  0.1781 -0.3744  0.1007
   25TMC2    C4  383   1.898   2.055  11.231 -0.3597 -0.3394 -0.5370
   25TMC2    C5  384   1.963   2.093  11.349  0.8733  0.3214  0.1340
   25TMC2    C6  385   2.096   2.142  11.345  0.7834 -0.7698 -0.2504
   25TMC2     C  386   1.930   1.995  10.987  0.0568  0.3700  0.4101
   25TMC2     O  387   1.991   2.015  10.884 -0.0203 -0.4969  0.1298
   25TMC2     H  388   2.135   2.136  11.009 -1.6720 -0.7278 -0.9864
   25TMC2    H1  389   1.796   2.018  11.238 -0.7278  0.5981 -0.8505
   25TMC2    H2  390   2.149   2.188  11.427  0.6569 -1.7036  0.3582
   25TMC2    C7  391   1.900   2.074  11.480 -0.0564  0.4902 -0.2856
   25TMC2    C8  392   2.292   2.166  11.211 -0.2754  0.4067 -0.3268
   25TMC2    O1  393   1.972   2.053  11.576  0.0633 -0.1802  0.5606
   25TMC2    O2  394   2.359   2.129  11.308 -0.3304 -0.1448 -0.0929
   25TMC2    O5  395   2.330   2.265  11.129  0.8212 -0.0009 -0.1789
   25TMC2    H5  396   2.263   2.299  11.066  0.1537 -0.0047  0.5256
   26MPD2     C  397   1.630   1.643  10.729  0.2323 -0.0687  0.0472
   26MPD2    C1  398   1.616   1.627  10.864  0.0206 -0.2917  0.3894
   26MPD2    C2  399   1.677   1.714  10.948 -0.6007  0.7368  0.4833
   26MPD2    C3  400   1.775   1.811  10.910 -0.4757  0.1432  0.0214
   26MPD2    C4  401   1.801   1.823  10.772  0.2141  0.5267  0.2296
   26MPD2    C5  402   1.726   1.740  10.692  0.3606 -0.3876 -0.1551
   26MPD2     H  403   1.655   1.699  11.054 -0.7043 -0.0808  0.3515
   26MPD2    H1  404   1.879   1.885  10.730  0.1279  0.7834  0.4420
   26MPD2    H2  405   1.573   1.590  10.654 -1.3261 -0.7764  1.7350
   26MPD2    H3  406   1.749   1.740  10.586 -2.7698  0.6690 -0.8167
   26MPD2     N  407   1.839   1.894  11.012  0.0466  1.0313  0.0166
   26MPD2    H5  408   1.803   1.892  11.107  1.1838  0.0287  0.4422
   26MPD2    N1  409   1.536   1.522  10.909 -0.3638 -0.0521 -0.8536
   26MPD2    H7  410   1.498   1.459  10.839  0.8597 -0.8891 -0.7826
   27TMC2    C1  411   1.020   3.721  12.080 -0.0316  0.1538 -0.3508
   27TMC2    C2  412   0.955   3.795  11.990 -0.0377  0.5769 -0.2949
   27TMC2    C3  413   0.979   3.931  11.993 -0.0559 -0.1877 -0.3291
   27TMC2    C4  414   1.100   3.775  12.177  0.0428  0.0911  0.1492
   27TMC2    C5  415   1.119   3.914  12.182 -0.4269  0.1772  0.1003
   27TMC2    C6  416   1.053   3.995  12.096  0.3481 -0.1042 -0.3041
   27TMC2     C  417   0.951   3.603  12.140  0.1778 -0.3835 -0.3682
   27TMC2     O  418   0.890   3.533  12.063 -0.3634 -0.2438  0.2077
   27TMC2     H  419   0.885   3.745  11.924  1.3159 -1.3966 -0.2504
   27TMC2    H1  420   1.172   3.714  12.230 -0.0834  0.0633  0.2876
   27TMC2    H2  421   1.048   4.102  12.112 -1.1877 -0.2501  0.1867
   27TMC2    C7  422   1.096   3.965  12.319 -0.0952  0.1164  0.0367
   27TMC2    C8  423   0.878   4.004  11.930  0.2914  0.0212 -0.2459
   27TMC2    O1  424   1.048   3.874  12.385  0.2496  0.4269 -0.2428
   27TMC2    O2  425   0.832   4.104  11.979 -0.1053  0.5469 -0.2297
   27TMC2    O5  426   0.850   3.954  11.809  0.1171 -0.1257 -0.2047
   27TMC2    H5  427   0.909   3.882  11.778  0.2139  0.3120 -1.0458
   28MPD2     C  428   0.561   3.500  12.466  0.0827 -0.2871  0.0645
   28MPD2    C1  429   0.601   3.630  12.476  0.0360  0.5229 -0.4795
   28MPD2    C2  430   0.717   3.674  12.409  0.5664 -0.3737  0.7567
   28MPD2    C3  431   0.794   3.587  12.323 -1.0078  0.1325  0.6647
   28MPD2    C4  432   0.740   3.461  12.294 -0.3732  0.4794 -0.2680
   28MPD2    C5  433   0.628   3.420  12.371  0.7125 -0.1450  0.3902
   28MPD2     H  434   0.750   3.777  12.413 -0.1559 -0.0725 -1.0073
   28MPD2    H1  435   0.782   3.401  12.214 -0.7316 -1.0689  0.6924
   28MPD2    H2  436   0.490   3.446  12.526  0.4543  1.2049  1.8422
   28MPD2    H3  437   0.597   3.317  12.363  1.7305 -0.2121 -2.7938
   28MPD2     N  438   0.904   3.645  12.262  1.2532  0.2457  0.5523
   28MPD2    H5  439   0.932   3.737  12.292 -2.1411  1.5276 -0.2565
   28MPD2    N1  440   0.532   3.703  12.577 -0.3847 -0.2126  0.1752
   28MPD2    H7  441   0.446   3.663  12.612 -0.7774 -0.4450 -1.0622
   29MPD2     C  442   0.464   1.163  14.188  0.2262  0.1279 -0.1810
   29MPD2    C1  443   0.581   1.143  14.265 -0.2300  0.4148  0.4627
   29MPD2    C2  444   0.600   1.245  14.355  0.1053  0.2941  0.1265
   29MPD2    C3  445   0.522   1.355  14.369 -0.3460 -0.1180 -0.1403
   29MPD2    C4  446   0.400   1.367  14.286  1.0726 -0.3499  0.3953
   29MPD2    C5  447   0.375   1.264  14.197  0.3380  0.4710  0.3238
   29MPD2     H  448   0.685   1.238  14.422  0.9526  1.2596 -0.8334
   29MPD2    H1  449   0.340   1.457  14.294 -0.0461 -1.1007  0.3866
   29MPD2    H2  450   0.440   1.094  14.108  1.3943 -1.1732  0.5873
   29MPD2    H3  451   0.296   1.273  14.124  0.7678  1.0906 -0.0595
   29MPD2     N  452   0.539   1.464  14.460 -0.1176  0.4771 -0.0683
   29MPD2    H5  453   0.476   1.543  14.450 -0.6933 -0.1684 -1.5558
   29MPD2    N1  454   0.669   1.036  14.243  0.4615 -0.3401 -0.7806
   29MPD2    H7  455   0.752   1.049  14.300 -0.7885 -0.9615  1.2058
   30TCq2    C1  456   0.625   1.471  14.562  0.1794  0.5007 -0.0942
   30TCq2    O2  457   0.702   1.388  14.607 -0.3396 -0.0391  0.3781
   30TCq2    C2  458   0.622   1.612  14.609  0.3346 -0.1606 -0.3995
   30TCq2    C3  459   0.666   1.643  14.733 -0.5923 -0.1940  0.1893
   30TCq2    C4  460   0.662   1.770  14.779 -0.0484 -0.5401  0.3553
   30TCq2    C5  461   0.633   1.876  14.697  0.2267 -0.4431  0.4252
   30TCq2    C6  462   0.582   1.845  14.573 -0.0590  0.7003  0.3819
   30TCq2    C7  463   0.577   1.716  14.531 -0.4824 -0.1317  0.2192
   30TCq2    C8  464   0.557   1.953  14.477 -1.0196  0.5772  0.7903
   30TCq2    O4  465   0.484   1.925  14.384  0.1161  0.2653  0.5391
   30TCq2    C9  466   0.699   1.797  14.918  0.9091  0.5806  0.4324
   30TCq2    O5  467   0.718   1.916  14.953  0.1833  0.3653 -0.1677
   30TCq2    O6  468   0.744   1.695  14.973 -0.0120  0.0834 -0.4568
   30TCq2    H2  469   0.686   1.559  14.799 -2.7789  0.2733  1.4292
   30TCq2    H3  470   0.628   1.973  14.746 -1.3069 -0.6351  0.6475
   30TCq2    H4  471   0.555   1.704  14.426 -1.2580  0.6200  0.2942
   31MPD2     C  472   3.457   0.626  14.758 -0.4824 -0.1924 -0.3212
   31MPD2    C1  473   3.326   0.658  14.747  0.0626  0.2098  0.0183
   31MPD2    C2  474   3.228   0.604  14.831 -0.1767  0.0789 -0.2028
   31MPD2    C3  475   3.272   0.512  14.919  0.4445 -0.3015  0.2722
   31MPD2    C4  476   3.405   0.480  14.939 -0.0265  0.1858 -0.4099
   31MPD2    C5  477   3.495   0.533  14.852 -0.1121  0.0095  0.3569
   31MPD2     H  478   3.123   0.626  14.819 -0.0352  0.4108 -0.8346
   31MPD2    H1  479   3.432   0.402  15.010 -2.1231  0.8331  1.1082
   31MPD2    H2  480   3.528   0.657  14.682  0.3550  0.5716  0.7796
   31MPD2    H3  481   3.599   0.502  14.845 -0.5983 -1.3113 -0.9694
   31MPD2     N  482   3.191   0.435  15.007  0.4661 -0.6603 -0.6079
   31MPD2    H5  483   3.240   0.366  15.064  0.1405 -1.0183 -0.7623
   31MPD2    N1  484   3.290   0.741  14.637 -0.9696  0.3323 -0.0711
   31MPD2    H7  485   3.357   0.761  14.563 -1.2959 -1.2702 -0.8105
   32TCq2    C1  486   3.056   0.436  15.004  0.1056  0.4412 -0.2712
   32TCq2    O2  487   2.976   0.518  14.967 -0.1537 -0.4428  0.2106
   32TCq2    C2  488   3.003   0.330  15.091 -0.4874 -0.4246 -0.7451
   32TCq2    C3  489   2.870   0.301  15.073 -0.0976  0.2214 -0.2802
   32TCq2    C4  490   2.797   0.254  15.173  0.3412  0.3587  0.3746
   32TCq2    C5  491   2.845   0.230  15.295 -1.1777 -0.4322  0.4991
   32TCq2    C6  492   2.972   0.273  15.323 -0.4180  0.0023  0.0262
   32TCq2    C7  493   3.055   0.309  15.218  0.4177 -0.0244 -0.1960
   32TCq2    C8  494   3.035   0.239  15.450 -0.0831  0.8748 -0.7687
   32TCq2    O4  495   3.155   0.240  15.455 -0.1846  0.2892 -0.2030
   32TCq2    C9  496   2.656   0.234  15.156 -0.8598 -0.3760  0.2326
   32TCq2    O5  497   2.607   0.232  15.038 -0.1274 -0.2602  0.5876
   32TCq2    O6  498   2.593   0.209  15.264 -0.1413  0.3814 -0.0619
   32TCq2    H2  499   2.813   0.340  14.989 -2.0034 -2.6209 -0.3061
   32TCq2    H3  500   2.779   0.193  15.373  0.3308 -1.6499  1.1841
   32TCq2    H4  501   3.150   0.346  15.255  0.0686  0.7064 -0.0297
   33MPD2     C  502   2.484   2.467   9.458  0.4506  0.7451  0.3757
   33MPD2    C1  503   2.603   2.450   9.522 -0.2885 -0.0662 -0.1897
   33MPD2    C2  504   2.721   2.447   9.442  0.1050  0.6816  0.4700
   33MPD2    C3  505   2.716   2.445   9.303  0.6499  1.0830  0.6066
   33MPD2    C4  506   2.590   2.451   9.236  0.3866 -0.1545  0.2984
   33MPD2    C5  507   2.476   2.459   9.317 -0.5958 -0.1313 -0.1167
   33MPD2     H  508   2.818   2.447   9.489  0.2237  0.0876  0.2255
   33MPD2    H1  509   2.569   2.435   9.131  1.9928 -2.4812  0.3462
   33MPD2    H2  510   2.388   2.471   9.508  0.0662  5.4932 -0.6776
   33MPD2    H3  511   2.382   2.464   9.263 -1.4060 -0.7926  1.2288
   33MPD2     N  512   2.831   2.437   9.221  0.3146 -0.0126 -0.6670
   33MPD2    H5  513   2.801   2.453   9.125  2.4798  2.0339 -0.9965
   33MPD2    N1  514   2.603   2.450   9.664 -0.1564  0.4739  0.4972
   33MPD2    H7  515   2.523   2.487   9.713  0.3577 -0.8544  2.3435
   34TCq2    C1  516   2.958   2.446   9.264  1.0921  0.0960  0.9433
   34TCq2    O2  517   3.008   2.453   9.375 -0.2945  0.2589  0.1535
   34TCq2    C2  518   3.049   2.496   9.160 -0.3003 -0.0106 -0.6397
   34TCq2    C3  519   3.041   2.445   9.029  0.2188  0.0889  0.4365
   34TCq2    C4  520   3.150   2.480   8.950  0.6029  0.0988 -0.0201
   34TCq2    C5  521   3.269   2.545   8.991 -0.1206  0.2802 -0.5326
   34TCq2    C6  522   3.263   2.596   9.123 -0.3632  0.1645 -0.3859
   34TCq2    C7  523   3.163   2.559   9.210 -0.1198 -0.3671 -0.0871
   34TCq2    C8  524   3.370   2.689   9.168 -0.3767 -0.8783 -0.3874
   34TCq2    O4  525   3.353   2.725   9.286 -0.3053 -0.3452  0.5033
   34TCq2    C9  526   3.159   2.434   8.813  0.2405 -0.1618  0.3540
   34TCq2    O5  527   3.263   2.459   8.747 -0.2956  0.1119 -0.4072
   34TCq2    O6  528   3.056   2.391   8.756  0.2938  0.0963 -0.1381
   34TCq2    H2  529   2.951   2.392   9.001  0.2751  0.8688 -1.2459
   34TCq2    H3  530   3.353   2.554   8.923 -0.4345 -0.4647 -1.0125
   34TCq2    H4  531   3.177   2.587   9.314 -0.7198 -0.3523 -0.0103
   35MPD2     C  532   0.262   4.351  11.737  0.2026  0.4249 -0.0953
   35MPD2    C1  533   0.131   4.317  11.708 -0.1578 -0.5339  0.6280
   35MPD2    C2  534   0.100   4.313  11.574  0.2486 -0.0346 -0.5740
   35MPD2    C3  535   0.191   4.351  11.479  0.7542  0.8525  0.5693
   35MPD2    C4  536   0.320   4.384  11.513  0.2056  0.2431 -0.2837
   35MPD2    C5  537   0.356   4.377  11.644  0.6325 -0.1506  0.1719
   35MPD2     H  538   4.719   4.286  11.543 -0.7630  0.8369  1.9576
   35MPD2    H1  539   0.392   4.406  11.434  0.4779  0.1036 -0.0752
   35MPD2    H2  540   0.288   4.356  11.842  0.7213 -1.3463 -0.1400
   35MPD2    H3  541   0.458   4.393  11.676  0.6857 -1.2048  0.5371
   35MPD2     N  542   0.152   4.351  11.341 -0.2711 -0.3567  0.1043
   35MPD2    H5  543   0.061   4.308  11.331  0.2605 -1.6181  0.7068
   35MPD2    N1  544   0.040   4.285  11.810  0.1785  0.8438 -0.4843
   35MPD2    H7  545   0.079   4.284  11.903 -0.1636  0.0254 -0.3412
   36TCq2    C1  546   0.199   4.434  11.248 -0.1394 -0.1937 -0.0886
   36TCq2    O2  547   0.280   4.522  11.264  0.7719 -0.1696 -0.0678
   36TCq2    C2  548   0.110   4.435  11.140 -0.7296 -0.6287 -0.0368
   36TCq2    C3  549   0.070   4.564  11.109  0.4350 -0.1486 -0.1147
   36TCq2    C4  550   4.667   4.583  11.052 -0.0911 -0.0151 -0.8851
   36TCq2    C5  551   4.590   4.468  11.022 -0.6231  0.0089  0.7601
   36TCq2    C6  552   4.631   4.345  11.059 -0.4571 -0.6225 -0.6579
   36TCq2    C7  553   0.032   4.324  11.112  0.2485 -0.0172  0.3862
   36TCq2    C8  554   4.539   4.234  11.056  1.3928  0.3645 -1.2996
   36TCq2    O4  555   4.581   4.125  11.090  0.4021 -0.1458 -0.1614
   36TCq2    C9  556   4.621   4.711  11.017  1.3151 -0.6389 -0.0738
   36TCq2    O5  557   4.500   0.006  10.991 -0.2114 -0.1150  0.0532
   36TCq2    O6  558   4.708   0.076  10.989 -0.4133 -0.8178  0.6252
   36TCq2    H2  559   0.132   4.652  11.128 -0.4761  0.2917  0.7870
   36TCq2    H3  560   4.494   4.488  10.977 -1.0016  0.4757  1.7796
   36TCq2    H4  561   0.064   4.224  11.140  0.5410 -0.2807 -0.8788
   37TMC2    C1  562   2.130   4.031  11.678  0.0179  0.2927 -0.0064
   37TMC2    C2  563   2.108   4.106  11.563  0.1942 -0.2234 -0.6958
   37TMC2    C3  564   2.223   4.120  11.475 -0.0781  0.4251 -0.5253
   37TMC2    C4  565   2.248   3.968  11.704  0.6948 -0.1014  0.3997
   37TMC2    C5  566   2.352   3.989  11.623 -0.4206 -0.1863 -0.4641
   37TMC2    C6  567   2.347   4.066  11.510 -1.1224  0.3998  0.1048
   37TMC2     C  568   2.043   4.047  11.789  0.0290  0.6303  0.0084
   37TMC2     O  569   1.928   4.061  11.760 -0.0644  0.2906  0.3790
   37TMC2     H  570   2.029   4.180  11.557  0.9648  0.7041  0.6222
   37TMC2    H1  571   2.254   3.904  11.792  0.4689  3.0302  2.7051
   37TMC2    H2  572   2.418   4.066  11.428 -0.0902  2.7187  1.0131
   37TMC2    C7  573   2.472   4.013  11.699  0.0276  0.6180 -0.2487
   37TMC2    C8  574   2.203   4.214  11.365 -0.1717  0.0805  1.0976
   37TMC2    O1  575   2.451   4.015  11.821 -0.4200 -0.0531  0.0218
   37TMC2    O2  576   2.298   4.274  11.321  0.4528 -0.0535  0.1835
   37TMC2    O5  577   2.078   4.219  11.323  0.1704 -0.4651 -0.0961
   37TMC2    H5  578   2.019   4.148  11.356  1.7895 -2.6111 -1.7259
   38MPD2     C  579   1.941   4.117  12.295  0.2278  0.1696  0.0478
   38MPD2    C1  580   2.070   4.082  12.286  0.4160  0.0652 -0.5761
   38MPD2    C2  581   2.124   4.054  12.160 -0.1920 -0.3079  0.1669
   38MPD2    C3  582   2.047   4.065  12.046 -0.7187  0.0020 -0.4416
   38MPD2    C4  583   1.916   4.108  12.059 -1.0696 -0.2405 -0.3773
   38MPD2    C5  584   1.860   4.124  12.183  0.3994  0.3303  0.2551
   38MPD2     H  585   2.229   4.026  12.152 -0.4930 -1.5548  0.6489
   38MPD2    H1  586   1.844   4.118  11.978 -2.1672  0.7337  0.7143
   38MPD2    H2  587   1.908   4.160  12.389  0.2319 -2.3273  1.1972
   38MPD2    H3  588   1.754   4.144  12.185  0.6176  1.2532  1.9221
   38MPD2     N  589   2.106   4.041  11.914  0.1839 -0.2258 -0.3523
   38MPD2    H5  590   2.207   4.027  11.906  0.7171  3.0618  0.7055
   38MPD2    N1  591   2.156   4.058  12.395 -0.0903  0.0433  0.0303
   38MPD2    H7  592   2.254   4.037  12.380 -0.6978 -2.0049 -1.0175
   39MPD2     C  593   4.712   0.552   1.595  0.2438  1.0257 -0.4146
   39MPD2    C1  594   0.014   0.687   1.574  0.3428 -0.6131 -0.2546
   39MPD2    C2  595   4.644   0.761   1.495  0.2444  0.3610  0.4232
   39MPD2    C3  596   4.529   0.696   1.446  0.2391  0.0404  0.0531
   39MPD2    C4  597   4.525   0.557   1.456 -0.2133  0.5674  0.7688
   39MPD2    C5  598   4.609   0.486   1.533  0.8188  0.2681 -0.0188
   39MPD2     H  599   4.661   0.866   1.477  0.2198  0.5883  1.6811
   39MPD2    H1  600   4.435   0.510   1.418 -0.0941 -0.3118  1.5793
   39MPD2    H2  601   0.070   0.485   1.631 -0.2872  1.9500  2.4143
   39MPD2    H3  602   4.605   0.378   1.539 -0.3301  0.2289 -1.6034
   39MPD2     N  603   4.430   0.767   1.367  0.2943  0.1139  0.3525
   39MPD2    H5  604   4.356   0.718   1.318 -0.3867  0.9342  0.5576
   39MPD2    N1  605   0.137   0.736   1.626 -0.2040 -0.5236  1.0009
   39MPD2    H7  606   0.190   0.667   1.678 -0.0571 -1.1723 -0.0046
   40TCq2    C1  607   0.191   0.867   1.633  0.5702  0.9525 -0.2895
   40TCq2    O2  608   0.133   0.969   1.601  0.6283 -0.2122  0.2289
   40TCq2    C2  609   0.333   0.874   1.675  0.8590  0.2804  0.6384
   40TCq2    C3  610   0.411   0.761   1.685 -0.1081 -0.1043  1.1895
   40TCq2    C4  611   0.537   0.781   1.734 -0.4023  0.4560  0.3712
   40TCq2    C5  612   0.584   0.903   1.770  0.4496  0.0083  0.5658
   40TCq2    C6  613   0.504   1.013   1.758 -0.1871 -0.0990  0.1411
   40TCq2    C7  614   0.382   1.002   1.692  0.4693  0.1471  0.3009
   40TCq2    C8  615   0.537   1.140   1.817  0.7177  0.1632  0.1700
   40TCq2    O4  616   0.453   1.223   1.845  0.5976 -0.1554  0.8679
   40TCq2    C9  617   0.615   0.657   1.773 -0.0706 -0.1737  0.2735
   40TCq2    O5  618   0.736   0.676   1.806  0.5427  0.1604 -0.0930
   40TCq2    O6  619   0.547   0.557   1.799  0.0270 -0.5084  0.3875
   40TCq2    H2  620   0.395   0.666   1.637  3.6781  0.7440 -1.7772
   40TCq2    H3  621   0.679   0.899   1.821  0.7045 -1.5634 -0.0235
   40TCq2    H4  622   0.316   1.087   1.686 -0.8872 -0.9998 -1.1177
   41TMC2    C1  623   3.953   4.131  13.685  0.1641  0.1863  0.4962
   41TMC2    C2  624   3.881   4.123  13.800 -0.5604 -1.1604  0.0418
   41TMC2    C3  625   3.748   4.145  13.780 -0.7479 -0.2635  0.4242
   41TMC2    C4  626   3.896   4.173  13.565  0.5875  0.7727 -0.4692
   41TMC2    C5  627   3.760   4.178  13.557 -0.0436 -0.3603 -0.0705
   41TMC2    C6  628   3.684   4.162  13.663 -0.0546 -0.1349 -0.3879
   41TMC2     C  629   4.098   4.119  13.690 -0.0297 -0.1908 -0.6132
   41TMC2     O  630   4.157   4.124  13.582  0.2657 -0.0609 -0.3800
   41TMC2     H  631   3.924   4.113  13.899 -0.2063 -2.7442 -0.2633
   41TMC2    H1  632   3.960   4.206  13.484 -0.0322 -1.6018 -1.9222
   41TMC2    H2  633   3.576   4.178  13.663 -0.2099 -1.1544  2.1753
   41TMC2    C7  634   3.700   4.210  13.430  0.7109  0.4295  0.3287
   41TMC2    C8  635   3.680   4.082  13.888 -0.2103 -0.0429 -0.5840
   41TMC2    O1  636   3.598   4.277  13.436  0.1573 -0.2208  0.7133
   41TMC2    O2  637   3.739   3.989  13.945 -0.5680  0.0551  0.3446
   41TMC2    O5  638   3.548   4.095  13.873  0.0710  0.6076  0.0569
   41TMC2    H5  639   3.522   4.181  13.833  1.4722  1.1404  0.2818
   42MPD2     C  640   4.375   4.032  13.735  0.4706 -0.2941  0.2553
   42MPD2    C1  641   4.292   4.080  13.834 -0.2887  0.3008 -0.0644
   42MPD2    C2  642   4.332   4.099  13.965 -0.5830 -0.3481  0.1559
   42MPD2    C3  643   4.459   4.079  13.996 -0.3959 -0.0602  0.0255
   42MPD2    C4  644   4.553   4.034  13.901 -1.4359  0.6226 -0.3122
   42MPD2    C5  645   4.508   4.011  13.767  0.2140  0.3194 -0.4189
   42MPD2     H  646   4.264   4.131  14.043 -2.2538 -0.0251 -1.4394
   42MPD2    H1  647   4.652   4.005  13.934 -0.9850  0.2185 -2.0299
   42MPD2    H2  648   4.332   4.005  13.639  0.4232  2.2432 -0.4328
   42MPD2    H3  649   4.582   3.976  13.696  2.0509 -0.2657  1.7562
   42MPD2     N  650   4.491   4.076  14.140  0.3821 -0.2848  0.2629
   42MPD2    H5  651   4.573   4.029  14.177  1.0298 -0.2499 -1.1273
   42MPD2    N1  652   4.156   4.110  13.815  0.2093 -0.1051  0.2425
   42MPD2    H7  653   4.101   4.126  13.899  1.0863 -2.3267  1.2275
   43MPD2     C  654   0.071   2.135   0.460  0.0188 -0.1916 -0.4806
   43MPD2    C1  655   0.195   2.128   0.515 -0.0433  1.3591  0.1017
   43MPD2    C2  656   0.242   2.234   0.586 -0.0886  0.1860 -0.0920
   43MPD2    C3  657   0.180   2.355   0.574  0.6048  0.3730  0.6205
   43MPD2    C4  658   0.061   2.373   0.511  0.7542  0.2723  0.3513
   43MPD2    C5  659   0.013   2.259   0.451  0.1791 -0.9724 -0.5719
   43MPD2     H  660   0.325   2.211   0.651  0.2168  0.7583 -0.2808
   43MPD2    H1  661   0.011   2.470   0.507 -0.4151 -0.2898  1.1917
   43MPD2    H2  662   0.023   2.057   0.402  0.4037  1.3428 -2.8603
   43MPD2    H3  663   4.638   2.271   0.401  1.1563  1.6910 -1.8011
   43MPD2     N  664   0.217   2.463   0.661 -0.3896  0.3000  0.7118
   43MPD2    H5  665   0.151   2.540   0.654  2.7054  2.5551 -2.7225
   43MPD2    N1  666   0.260   2.004   0.539  0.2317  0.3567  0.0037
   43MPD2    H7  667   0.357   2.009   0.566  0.0317  0.9323  0.6409
   44TCq2    C1  668   0.639   2.762   0.883 -0.1373  1.0434 -0.9291
   44TCq2    O2  669   0.681   2.870   0.835  0.1567  0.4237 -0.2531
   44TCq2    C2  670   0.499   2.731   0.878 -0.6303  0.2489  0.5985
   44TCq2    C3  671   0.410   2.834   0.860 -0.3703 -0.6471 -0.4037
   44TCq2    C4  672   0.279   2.805   0.852 -0.1682  0.8649 -0.0293
   44TCq2    C5  673   0.241   2.676   0.836 -0.2358  0.4264  0.4136
   44TCq2    C6  674   0.336   2.583   0.821  0.0653  0.3812  0.1603
   44TCq2    C7  675   0.466   2.605   0.860 -0.6994 -0.7488 -1.1684
   44TCq2    C8  676   0.322   2.453   0.756 -0.5262  0.4102 -0.5735
   44TCq2    O4  677   0.417   2.376   0.773 -0.7322 -0.2139 -0.4732
   44TCq2    C9  678   0.176   2.910   0.856 -0.6085 -0.5368  0.0024
   44TCq2    O5  679   0.212   3.032   0.838 -0.1273 -0.4653 -0.1619
   44TCq2    O6  680   0.058   2.870   0.837 -0.1644 -0.4247 -0.1053
   44TCq2    H2  681   0.449   2.933   0.882  0.4512 -1.6318  2.5140
   44TCq2    H3  682   0.135   2.657   0.837 -0.1503 -0.0782 -0.6913
   44TCq2    H4  683   0.545   2.532   0.849  0.9382  0.9662 -0.6658
   45TMC2    C1  684   1.350   0.301   9.237  0.6405  0.1371  0.5311
   45TMC2    C2  685   1.284   0.276   9.116  0.0202 -1.3490 -0.0810
   45TMC2    C3  686   1.193   0.371   9.091  0.3720 -0.1706 -0.3864
   45TMC2    C4  687   1.338   0.422   9.304  0.7092 -0.3314  0.0859
   45TMC2    C5  688   1.237   0.509   9.269 -0.1652 -0.5040  0.1038
   45TMC2    C6  689   1.160   0.481   9.161 -0.1462  0.0432  0.4412
   45TMC2     C  690   1.450   0.207   9.280 -0.1198 -0.3139 -0.1503
   45TMC2     O  691   1.526   0.242   9.367 -0.0310 -0.2352 -0.1441
   45TMC2     H  692   1.310   0.195   9.048 -2.8247 -0.5479 -2.1148
   45TMC2    H1  693   1.409   0.441   9.384 -1.0636 -0.7738  1.7575
   45TMC2    H2  694   1.083   0.550   9.128 -1.5728 -1.7258  0.0712
   45TMC2    C7  695   1.233   0.637   9.330  0.0184  0.5007 -0.0625
   45TMC2    C8  696   1.122   0.345   8.966 -0.1289  0.0316 -0.2086
   45TMC2    O1  697   1.279   0.644   9.444 -0.2677  0.0417 -0.2446
   45TMC2    O2  698   1.123   0.234   8.912 -0.1307 -0.2184  0.6742
   45TMC2    O5  699   1.122   0.462   8.896 -0.0441 -0.2267  0.0759
   45TMC2    H5  700   1.169   0.537   8.940  1.1828  0.2474 -2.0599
   46MPD2     C  701   1.647   4.711   9.285 -0.5307  0.2242 -0.7171
   46MPD2    C1  702   1.517   4.693   9.246 -0.0230  0.0715  0.6508
   46MPD2    C2  703   1.473   4.567   9.199 -0.8547 -0.5349  0.2073
   46MPD2    C3  704   1.559   4.463   9.213 -0.0571 -0.5925  0.1581
   46MPD2    C4  705   1.694   4.481   9.249 -0.0007  0.8338  0.3720
   46MPD2    C5  706   1.729   4.610   9.280 -0.1254 -0.4915  0.3680
   46MPD2     H  707   1.369   4.553   9.172 -1.3598 -0.2712  2.0055
   46MPD2    H1  708   1.764   4.398   9.252 -0.8086  0.1355 -0.0312
   46MPD2    H2  709   1.703   0.084   9.300 -1.6785  0.3791  2.7745
   46MPD2    H3  710   1.834   4.631   9.298 -0.4923  0.8786  0.9046
   46MPD2     N  711   1.501   4.338   9.176  0.0056 -0.5021 -0.2460
   46MPD2    H5  712   1.405   4.335   9.142  0.4108 -3.5704 -1.0676
   46MPD2    N1  713   1.424   0.084   9.234 -0.4725  0.5369  0.2635
   46MPD2    H7  714   1.332   0.070   9.194  0.2819  1.4551 -1.8095
   47TMC2    C1  715   0.202   0.017   9.361 -0.1370 -0.1933 -0.2354
   47TMC2    C2  716   0.270   4.625   9.325  0.2385 -0.0494 -0.5860
   47TMC2    C3  717   0.284   4.595   9.194  0.3509  0.2248  0.5561
   47TMC2    C4  718   0.151   0.106   9.272  0.3341  0.2661 -0.3658
   47TMC2    C5  719   0.172   0.073   9.138  0.3691 -0.2313  0.1674
   47TMC2    C6  720   0.244   4.684   9.096  0.3229  0.9052 -0.8259
   47TMC2     C  721   0.168   0.042   9.499 -0.0572 -0.5406  0.1179
   47TMC2     O  722   0.149   0.160   9.529 -0.3805 -0.2893 -0.1626
   47TMC2     H  723   0.315   4.550   9.390  0.3636  0.3163 -0.2545
   47TMC2    H1  724   0.120   0.206   9.300 -1.0621 -0.0278 -0.9098
   47TMC2    H2  725   0.269   4.672   8.991  0.6228  0.0163 -0.6530
   47TMC2    C7  726   0.128   0.165   9.033 -0.2684 -0.6308  0.0955
   47TMC2    C8  727   0.385   4.494   9.170 -0.6585  0.6600 -0.3679
   47TMC2    O1  728   0.142   0.135   8.916 -0.0332  0.2182 -0.0135
   47TMC2    O2  729   0.489   4.483   9.232  0.6367 -0.3635 -0.4379
   47TMC2    O5  730   0.367   4.463   9.042 -0.4627  0.1170  0.0798
   47TMC2    H5  731   0.273   4.469   9.015  0.0857 -0.3210 -1.8705
   48MPD2     C  732   0.086   0.025   9.780 -0.2494  0.3028 -0.8062
   48MPD2    C1  733   0.063   4.644   9.688  0.2840 -0.0055 -0.1754
   48MPD2    C2  734   0.008   4.527   9.731 -0.3105 -0.0841  0.4923
   48MPD2    C3  735   4.670   4.521   9.857 -0.4272  0.5331  0.1216
   48MPD2    C4  736   4.676   4.634   9.937 -0.5378 -0.2229 -0.4737
   48MPD2    C5  737   0.022   0.025   9.899 -0.4216 -0.7973 -0.1281
   48MPD2     H  738   0.015   4.435   9.674 -1.1781 -0.1361  0.4742
   48MPD2    H1  739   4.613   4.641  10.025  1.3809 -2.3556  1.0573
   48MPD2    H2  740   0.154   0.105   9.752 -0.5217  0.6536 -0.4659
   48MPD2    H3  741   0.031   0.104   9.972  0.7157 -2.3549  1.4162
   48MPD2     N  742   4.595   4.405   9.893 -0.6357 -0.3077  0.9312
   48MPD2    H5  743   4.586   4.339   9.817  2.5995  1.2862 -0.8180
   48MPD2    N1  744   0.121   4.651   9.559  0.9209  0.4135  0.2755
   48MPD2    H7  745   0.106   4.568   9.504  1.4754 -1.0558  2.3405
   49MPD2     C  746   2.011   2.164  10.025  0.1764  0.8615  0.0263
   49MPD2    C1  747   1.923   2.261  10.061 -0.1863 -0.2711 -0.1746
   49MPD2    C2  748   1.893   2.278  10.194 -0.0096 -0.2345 -0.2512
   49MPD2    C3  749   1.965   2.212  10.294  1.1515  0.9818 -0.1429
   49MPD2    C4  750   2.054   2.124  10.255  0.5098 -0.9281 -0.1541
   49MPD2    C5  751   2.078   2.100  10.126 -0.1161  0.3774  0.1374
   49MPD2     H  752   1.807   2.342  10.215 -0.9292 -1.5423 -0.0609
   49MPD2    H1  753   2.113   2.062  10.322 -1.6480 -2.3578  0.4447
   49MPD2    H2  754   2.025   2.141   9.920 -0.9925 -0.2445  0.1083
   49MPD2    H3  755   2.150   2.021  10.106  0.9839  1.7681 -1.4036
   49MPD2     N  756   1.944   2.230  10.432  0.1163  0.2397 -0.0912
   49MPD2    H5  757   2.002   2.180  10.499  2.8961  2.4132 -0.8658
   49MPD2    N1  758   1.853   2.334   9.964 -0.5679 -0.3096 -0.3193
   49MPD2    H7  759   1.778   2.395   9.995  0.3176 -0.4123  1.9711
   50TCq2    C1  760   1.897   2.341   9.836  0.3282 -0.1664 -0.1392
   50TCq2    O2  761   1.999   2.298   9.785 -0.3287  0.0337 -0.2106
   50TCq2    C2  762   1.803   2.400   9.744  0.3894  0.4145 -0.1850
   50TCq2    C3  763   1.858   2.471   9.644  0.6387 -0.7833 -0.6692
   50TCq2    C4  764   1.777   2.550   9.567 -0.8868 -0.0907 -0.0750
   50TCq2    C5  765   1.646   2.538   9.578 -0.0701  0.2537 -0.3275
   50TCq2    C6  766   1.595   2.467   9.679  0.1121  0.2397  0.1543
   50TCq2    C7  767   1.669   2.399   9.766  0.5653  1.1654 -0.6999
   50TCq2    C8  768   1.444   2.463   9.695 -0.5805 -0.0566  0.1475
   50TCq2    O4  769   1.396   2.407   9.795  0.4175 -0.3837 -0.7381
   50TCq2    C9  770   1.829   2.657   9.487  0.0364  1.0004 -0.1090
   50TCq2    O5  771   1.755   2.723   9.405 -0.3459 -0.6075  0.5713
   50TCq2    O6  772   1.948   2.690   9.508 -0.0317  0.1263  0.2791
   50TCq2    H2  773   1.965   2.493   9.640  0.8360 -1.7009 -0.3605
   50TCq2    H3  774   1.589   2.602   9.512  1.1155  0.9875 -0.6459
   50TCq2    H4  775   1.631   2.355   9.858  1.9079 -1.5946 -1.4694
   51MPD2     C  776   2.075   0.615   1.566  0.7262  0.5976 -0.1168
   51MPD2    C1  777   2.116   0.577   1.438  0.6402 -0.8219  0.5139
   51MPD2    C2  778   2.072   0.658   1.331  0.5151  0.2550  0.0166
   51MPD2    C3  779   2.001   0.779   1.350 -0.0074 -0.5898 -0.1152
   51MPD2    C4  780   1.966   0.814   1.485 -0.1674 -0.3522 -0.4946
   51MPD2    C5  781   1.999   0.731   1.589  0.2460  0.0922  0.5948
   51MPD2     H  782   2.094   0.627   1.230 -3.5142  0.3596 -0.8736
   51MPD2    H1  783   1.903   0.899   1.510  0.6163 -0.4474  1.7654
   51MPD2    H2  784   2.101   0.546   1.646 -0.3308  0.9516  0.5250
   51MPD2    H3  785   1.965   0.753   1.690  1.1300  0.1056  0.8853
   51MPD2     N  786   1.945   0.854   1.243 -0.2127  0.2155  0.0974
   51MPD2    H5  787   1.882   0.929   1.268  0.2146  0.8427 -0.7152
   51MPD2    N1  788   2.182   0.456   1.413 -0.5805  0.8118  0.0227
   51MPD2    H7  789   2.190   0.447   1.312 -3.2944  1.9301 -0.3010
   52TCq2    C1  790   1.973   0.839   1.111 -0.3210 -0.4203  0.1686
   52TCq2    O2  791   2.076   0.794   1.070 -0.1047 -0.3459 -0.1542
   52TCq2    C2  792   1.903   0.937   1.034  0.2080 -0.2822  0.9308
   52TCq2    C3  793   1.785   0.982   1.075 -0.3819  0.3173  0.2280
   52TCq2    C4  794   1.740   1.097   1.010 -0.0728  0.0692  0.5335
   52TCq2    C5  795   1.805   1.155   0.901  0.1639 -0.2011 -0.6336
   52TCq2    C6  796   1.916   1.098   0.865 -0.1071 -0.3423  0.4783
   52TCq2    C7  797   1.968   0.990   0.925 -0.0371  0.1154 -0.0040
   52TCq2    C8  798   2.010   1.162   0.779  0.4681  0.1470 -0.2044
   52TCq2    O4  799   2.131   1.146   0.796  0.0897  0.1956 -0.6635
   52TCq2    C9  800   1.633   1.170   1.068  0.5688 -0.3233  0.3063
   52TCq2    O5  801   1.577   1.122   1.171  0.1360  0.0464  0.3668
   52TCq2    O6  802   1.645   1.295   1.050 -0.0223 -0.5829 -0.8833
   52TCq2    H2  803   1.733   0.941   1.161 -1.1258 -1.0132 -0.8495
   52TCq2    H3  804   1.761   1.243   0.855 -1.2869 -0.7097 -0.2385
   52TCq2    H4  805   2.058   0.945   0.884 -0.8439 -1.0017 -0.5410
   53TMC2    C1  806   2.989   4.196  12.184 -0.6608 -0.2489  0.0944
   53TMC2    C2  807   3.100   4.168  12.255 -0.4172 -0.6647  0.1506
   53TMC2    C3  808   3.086   4.187  12.391 -0.0448 -1.2201  0.3794
   53TMC2    C4  809   2.877   4.259  12.245  0.4798  0.5896 -0.2287
   53TMC2    C5  810   2.869   4.282  12.380 -0.2934 -0.3878 -0.5164
   53TMC2    C6  811   2.970   4.237  12.460  0.0524 -0.5882 -0.4148
   53TMC2     C  812   2.993   4.180  12.038  0.5001  0.5719  0.0496
   53TMC2     O  813   3.098   4.162  11.977 -0.2878  0.3378  0.0141
   53TMC2     H  814   3.189   4.132  12.205  0.4615 -0.4700  1.5676
   53TMC2    H1  815   2.793   4.294  12.186  0.5288  0.1383 -0.5725
   53TMC2    H2  816   2.979   4.266  12.564  0.9832 -0.0259 -0.6500
   53TMC2    C7  817   2.737   4.327  12.432  0.0756 -0.1084  0.6861
   53TMC2    C8  818   3.206   4.163  12.470 -0.2909  0.0469 -0.3373
   53TMC2    O1  819   2.668   4.396  12.356  0.4295 -0.1217  0.4526
   53TMC2    O2  820   3.312   4.156  12.411  0.0107  0.0311 -0.3118
   53TMC2    O5  821   3.173   4.084  12.577 -0.0228  0.0962 -0.3518
   53TMC2    H5  822   3.076   4.080  12.588  0.1083 -1.3322  0.3895
   54MPD2     C  823   2.941   4.220  11.756  0.1014  0.9985  0.4743
   54MPD2    C1  824   2.841   4.174  11.847 -0.4276 -0.8333  0.3339
   54MPD2    C2  825   2.715   4.129  11.808 -0.2041 -1.2444 -0.7664
   54MPD2    C3  826   2.687   4.127  11.671  0.7903 -0.6905  0.4690
   54MPD2    C4  827   2.776   4.173  11.582 -0.4885 -0.3821 -0.5752
   54MPD2    C5  828   2.903   4.215  11.618 -0.2716  0.3778 -0.5470
   54MPD2     H  829   2.646   4.084  11.878 -1.5870  1.0024 -0.6834
   54MPD2    H1  830   2.761   4.174  11.475  0.4048 -0.0039 -0.6978
   54MPD2    H2  831   3.040   4.256  11.781  0.2569  2.6263 -2.3893
   54MPD2    H3  832   2.974   4.253  11.546  1.3954 -0.9162  0.4311
   54MPD2     N  833   2.568   4.071  11.620  0.3528  0.7748 -0.2394
   54MPD2    H5  834   2.557   4.058  11.520 -0.6602 -1.4770  0.1832
   54MPD2    N1  835   2.868   4.161  11.981 -0.3822  0.4853  0.4951
   54MPD2    H7  836   2.789   4.135  12.040 -0.9493  1.9266  0.3510
   55MPD2     C  837   3.999   1.662  17.563 -0.3462  1.3512  0.9004
   55MPD2    C1  838   3.897   1.647  17.652  0.2877  0.0396  0.2627
   55MPD2    C2  839   3.768   1.675  17.609  0.1921 -0.4937 -0.5568
   55MPD2    C3  840   3.741   1.720  17.477  0.2254  0.1336  0.0353
   55MPD2    C4  841   3.847   1.720  17.394  0.3892  0.0745  0.3268
   55MPD2    C5  842   3.978   1.694  17.430  0.4172 -0.8368 -0.4740
   55MPD2     H  843   3.679   1.664  17.669  0.2544  1.8822 -0.0518
   55MPD2    H1  844   3.825   1.745  17.291 -0.9680 -1.6606  0.2126
   55MPD2    H2  845   4.101   1.653  17.597 -0.3837  0.1458  0.7141
   55MPD2    H3  846   4.059   1.705  17.360 -0.2722 -1.6531 -1.3912
   55MPD2     N  847   3.599   1.742  17.451  0.6295 -0.0658 -0.2217
   55MPD2    H5  848   3.529   1.743  17.524  0.1243  1.4857 -0.7337
   55MPD2    N1  849   3.927   1.600   0.108  1.0503  0.3097 -0.2323
   55MPD2    H7  850   4.024   1.574   0.115  1.4097  1.4419 -0.9252
   56TCq2    C1  851   3.838   1.581   0.206  0.8609 -0.7365  0.2908
   56TCq2    O2  852   3.724   1.622   0.210 -0.4720  0.1243  0.3999
   56TCq2    C2  853   3.883   1.493   0.308  0.7796  0.4271  0.0605
   56TCq2    C3  854   3.989   1.404   0.281  0.3246 -0.8977  0.2496
   56TCq2    C4  855   4.050   1.340   0.384  0.1930 -0.1957  0.3704
   56TCq2    C5  856   4.015   1.369   0.513  0.2837 -0.4555 -0.2302
   56TCq2    C6  857   3.907   1.450   0.538  0.2422 -0.2545  0.0771
   56TCq2    C7  858   3.844   1.517   0.437  0.4566  0.5663  1.0956
   56TCq2    C8  859   3.821   1.409   0.657  0.8256 -0.3429  0.0230
   56TCq2    O4  860   3.868   1.329   0.734  0.4257  0.5210 -0.0011
   56TCq2    C9  861   4.157   1.241   0.362  0.0887 -0.4390  0.0931
   56TCq2    O5  862   4.235   1.207   0.457 -0.7696 -0.4973  0.5153
   56TCq2    O6  863   4.189   1.236   0.239  0.5024 -0.7011  0.4826
   56TCq2    H2  864   4.035   1.393   0.184  1.0056 -0.0090  0.4686
   56TCq2    H3  865   4.058   1.311   0.595 -1.6976 -1.0053  0.4266
   56TCq2    H4  866   3.757   1.577   0.461 -0.2324  0.4521 -1.1255
   57TMC2    C1  867   1.965   3.215  13.180 -0.6199 -0.7094 -0.0417
   57TMC2    C2  868   1.879   3.117  13.128  0.7608 -1.6420  0.1457
   57TMC2    C3  869   1.915   3.065  13.002  0.4021  0.9873 -0.0752
   57TMC2    C4  870   2.072   3.264  13.112 -0.2279 -0.4604  0.2726
   57TMC2    C5  871   2.099   3.200  12.991  0.3021 -0.2477  0.5079
   57TMC2    C6  872   2.032   3.094  12.939 -0.4825  0.2566  0.1057
   57TMC2     C  873   1.940   3.275  13.309 -0.1836  0.6055 -0.4387
   57TMC2     O  874   1.994   3.385  13.329 -0.6753 -0.5206  0.3725
   57TMC2     H  875   1.786   3.101  13.182 -0.5113 -0.0168 -1.5616
   57TMC2    H1  876   2.152   3.321  13.159  1.2345 -1.8938 -0.4692
   57TMC2    H2  877   2.075   3.027  12.865 -1.8871 -0.0129 -0.4750
   57TMC2    C7  878   2.215   3.251  12.921  0.4236  0.2494 -0.1412
   57TMC2    C8  879   1.858   2.939  12.962  0.5337 -0.2760 -0.7092
   57TMC2    O1  880   2.248   3.364  12.951  0.1457  0.1886 -0.1977
   57TMC2    O2  881   1.861   2.903  12.847  0.0317 -0.5681 -0.1659
   57TMC2    O5  882   1.876   2.866  13.068 -0.6334  0.5993 -0.0564
   57TMC2    H5  883   1.890   2.916  13.151  1.5288  3.1476 -1.9544
   58MPD2     C  884   1.756   3.265  13.791 -0.5457 -0.7936  0.1638
   58MPD2    C1  885   1.814   3.373  13.725 -0.1256 -0.3384 -0.3919
   58MPD2    C2  886   1.853   3.350  13.592  0.4524 -0.1371  0.0658
   58MPD2    C3  887   1.824   3.228  13.525 -0.0256  0.0572  0.1871
   58MPD2    C4  888   1.751   3.129  13.591 -0.7968  0.0385  0.2058
   58MPD2    C5  889   1.717   3.148  13.726  0.3546 -0.2136 -0.0329
   58MPD2     H  890   1.906   3.432  13.544 -0.5514  2.0359  2.6642
   58MPD2    H1  891   1.719   3.034  13.551  0.3353 -1.4815  2.9174
   58MPD2    H2  892   1.741   3.268  13.898  3.1893  1.2994  0.6037
   58MPD2    H3  893   1.661   3.070  13.777  1.0091 -0.5675  0.1383
   58MPD2     N  894   1.862   3.198  13.391  0.1481 -0.1117 -0.0225
   58MPD2    H5  895   1.846   3.106  13.351  2.1246  0.2786 -1.7241
   58MPD2    N1  896   1.843   3.499  13.780 -0.1773 -0.2247 -0.4914
   58MPD2    H7  897   1.883   3.564  13.713  0.5727 -0.4827 -0.2966
   59MPD2     C  898   0.272   3.311  13.240 -0.0022 -0.1391  0.2941
   59MPD2    C1  899   0.278   3.441  13.188 -1.2052 -0.3950  0.3064
   59MPD2    C2  900   0.373   3.531  13.236  0.5110 -0.2141 -0.0156
   59MPD2    C3  901   0.468   3.496  13.332  0.7359 -0.1548 -0.1779
   59MPD2    C4  902   0.466   3.360  13.370 -0.4375  0.6648  0.0113
   59MPD2    C5  903   0.374   3.270  13.328  0.0376 -0.3076  0.1851
   59MPD2     H  904   0.376   3.630  13.193  0.6589 -0.0033  0.4768
   59MPD2    H1  905   0.539   3.327  13.443  0.4127  0.0911 -1.1023
   59MPD2    H2  906   0.207   3.230  13.207 -0.2740 -0.1464  0.8556
   59MPD2    H3  907   0.379   3.168  13.364 -2.2208  0.1754  1.8115
   59MPD2     N  908   0.559   3.597  13.376 -0.0847 -0.7502 -0.8046
   59MPD2    H5  909   0.546   3.690  13.338  1.5028 -0.6303 -1.0789
   59MPD2    N1  910   0.187   3.480  13.085 -0.4743 -0.2577  0.4557
   59MPD2    H7  911   0.201   3.571  13.042  0.5711 -0.7606 -0.2445
   60TCq2    C1  912   0.089   3.393  13.028 -0.4570 -0.1628 -0.3038
   60TCq2    O2  913   0.030   3.296  13.073  0.1379 -0.3202  0.0603
   60TCq2    C2  914   0.047   3.449  12.906  0.5334 -0.6649 -0.0367
   60TCq2    C3  915   4.634   3.452  12.887  0.1131  0.4264 -0.0445
   60TCq2    C4  916   4.582   3.507  12.777 -0.2491 -0.2974  0.1212
   60TCq2    C5  917   4.654   3.573  12.686  0.2977 -0.1984 -0.2135
   60TCq2    C6  918   0.066   3.570  12.705  0.2135  0.1123  0.5017
   60TCq2    C7  919   0.129   3.510  12.815 -0.3009 -0.9066 -0.6464
   60TCq2    C8  920   0.154   3.625  12.601 -0.2428 -0.4525 -0.0187
   60TCq2    O4  921   0.272   3.589  12.592  0.2838 -0.2468 -0.2931
   60TCq2    C9  922   4.439   3.483  12.755  0.0799 -0.0395  0.0425
   60TCq2    O5  923   4.386   3.391  12.819 -0.2479 -0.5507 -0.3569
   60TCq2    O6  924   4.381   3.567  12.677  0.0170 -0.2310 -0.1769
   60TCq2    H2  925   4.559   3.417  12.957 -0.3428 -1.3584 -1.4497
   60TCq2    H3  926   4.597   3.612  12.603 -1.2921  1.0751  1.4860
   60TCq2    H4  927   0.237   3.498  12.824 -0.0541  2.3414  0.8404
   61MPD2     C  928   4.546   4.544  14.428 -0.1983  0.4556  0.0606
   61MPD2    C1  929   4.558   4.655  14.514  0.1110 -0.2390 -0.2109
   61MPD2    C2  930   4.482   0.049  14.491 -0.4527  0.3951 -0.8298
   61MPD2    C3  931   4.387   0.047  14.385 -0.4229  0.2375  0.1860
   61MPD2    C4  932   4.383   4.657  14.297 -0.1776  0.3565  0.3681
   61MPD2    C5  933   4.459   4.545  14.323  0.1749 -0.0296  0.5059
   61MPD2     H  934   4.479   0.129  14.564  0.6942  0.2788 -0.6569
   61MPD2    H1  935   4.312   4.654  14.215  0.7726 -0.4147 -0.4289
   61MPD2    H2  936   4.614   4.461  14.443 -1.6475 -0.9386 -1.1862
   61MPD2    H3  937   4.458   4.460  14.256 -0.4277  0.6482 -0.3331
   61MPD2     N  938   4.302   0.154  14.360  0.2470 -0.4693  0.3980
   61MPD2    H5  939   4.225   0.144  14.295  1.4667  0.1226 -1.1163
   61MPD2    N1  940   4.638   4.644  14.631  0.0522 -0.0717  1.1261
   61MPD2    H7  941   4.644   0.009  14.686 -0.1113  0.2304  0.6860
   62TCq2    C1  942   4.691   4.532  14.690  0.5273 -0.3530  0.3226
   62TCq2    O2  943   4.715   4.418  14.642  0.1577 -0.1009 -0.2284
   62TCq2    C2  944   0.040   4.583  14.808  0.3977  0.0087  0.1955
   62TCq2    C3  945   0.174   4.550  14.824 -0.1104 -0.6404  1.2658
   62TCq2    C4  946   0.253   4.622  14.910  0.3181 -1.0814 -0.2425
   62TCq2    C5  947   0.204   0.018  14.979 -0.3964 -0.3384 -0.0337
   62TCq2    C6  948   0.069   0.041  14.960  1.0470 -0.2429 -0.2165
   62TCq2    C7  949   4.705   4.685  14.878 -0.1176  0.1207 -0.0778
   62TCq2    C8  950   0.017   0.152  15.036 -0.4401 -0.1206  0.3129
   62TCq2    O4  951   0.095   0.232  15.087  0.2630 -0.2706  0.0389
   62TCq2    C9  952   0.394   4.596  14.922  0.1103  0.1700 -0.1061
   62TCq2    O5  953   0.466   4.690  14.964  0.5592 -0.2530 -0.9604
   62TCq2    O6  954   0.429   4.480  14.891 -0.4864  0.9547  0.5379
   62TCq2    H2  955   0.230   4.467  14.782  0.3319  1.0771 -1.5078
   62TCq2    H3  956   0.271   0.090  15.026 -1.0926  1.2886 -1.5479
   62TCq2    H4  957   4.597   4.694  14.881 -0.1878 -0.4305 -1.1549
   63TMC2    C1  958   3.923   0.200  10.672  0.1004  0.3769  0.2883
   63TMC2    C2  959   4.036   0.212  10.751  0.1189  0.2973 -0.3306
   63TMC2    C3  960   4.162   0.240  10.688 -0.0679  0.5095 -0.5256
   63TMC2    C4  961   3.938   0.215  10.530  0.1545 -0.3223 -0.4021
   63TMC2    C5  962   4.059   0.251  10.474 -0.6305 -0.0106 -0.1589
   63TMC2    C6  963   4.170   0.249  10.552  0.4345  0.3104 -0.0621
   63TMC2     C  964   3.816   0.125  10.730 -0.0549 -0.7693 -0.0969
   63TMC2     O  965   3.781   0.161  10.843 -0.0853  0.0981  0.6378
   63TMC2     H  966   4.031   0.214  10.859 -1.8854 -2.4629 -0.3580
   63TMC2    H1  967   3.848   0.215  10.470 -1.7821  1.5546  2.4948
   63TMC2    H2  968   4.268   0.281  10.520  0.0358 -0.4367 -2.0706
   63TMC2    C7  969   4.049   0.315  10.348 -0.0932 -0.0885 -0.0162
   63TMC2    C8  970   4.267   0.302  10.763 -0.3040  0.5023 -0.2414
   63TMC2    O1  971   3.940   0.324  10.295 -0.0667 -0.5099  0.0290
   63TMC2    O2  972   4.327   0.401  10.713  1.3645 -0.7201  0.3663
   63TMC2    O5  973   4.274   0.253  10.885  0.1070  0.1894  0.2744
   63TMC2    H5  974   4.192   0.201  10.898  0.0002  0.6036  1.2336
   64MPD2     C  975   3.511   4.450  10.769  0.2350 -0.5677  0.1495
   64MPD2    C1  976   3.604   4.417  10.674  0.3185 -0.2215  0.6381
   64MPD2    C2  977   3.664   4.530  10.611  1.0941 -0.0595 -0.4264
   64MPD2    C3  978   3.661   4.654  10.682  0.0290  0.3629 -0.3495
   64MPD2    C4  979   3.568   4.683  10.777 -0.5800  0.0758  0.5644
   64MPD2    C5  980   3.493   4.578  10.818  0.0073  0.1319  0.5078
   64MPD2     H  981   3.734   4.507  10.532 -0.0982  0.3829 -1.5926
   64MPD2    H1  982   3.566   0.063  10.821  2.1079  0.4805 -0.2783
   64MPD2    H2  983   3.453   4.368  10.811  1.4164  0.0625  3.0263
   64MPD2    H3  984   3.432   4.598  10.906 -1.5582 -1.1403 -0.2778
   64MPD2     N  985   3.768   0.026  10.647 -0.5124  0.5476  0.3912
   64MPD2    H5  986   3.813   4.717  10.560  0.1653 -0.6106  1.1157
   64MPD2    N1  987   3.652   4.293  10.631  0.9173  0.0369  0.5806
   64MPD2    H7  988   3.722   4.302  10.558  1.1391  1.4521  0.9620
   65MPD2     C  989   0.894   4.390  15.652  0.3013  0.7859  0.5908
   65MPD2    C1  990   0.896   4.411  15.514  0.3411 -0.4459 -0.3794
   65MPD2    C2  991   0.797   4.358  15.433  0.3512 -0.4895  0.2684
   65MPD2    C3  992   0.702   4.279  15.496 -0.1684  0.3955 -1.1407
   65MPD2    C4  993   0.700   4.250  15.634 -1.1254 -1.2324 -0.2732
   65MPD2    C5  994   0.797   4.308  15.711  0.2212 -0.8027  0.4569
   65MPD2     H  995   0.810   4.375  15.327  0.3139 -2.4542 -0.0444
   65MPD2    H1  996   0.637   4.172  15.675 -1.4952 -0.9738 -0.3449
   65MPD2    H2  997   0.961   4.448  15.714  0.2247 -1.8861  3.1406
   65MPD2    H3  998   0.814   4.287  15.816  1.5662  1.3277  0.6543
   65MPD2     N  999   0.606   4.202  15.423  0.1395 -0.9430  0.2578
   65MPD2    H5 1000   0.531   4.161  15.477 -0.0634 -1.0612 -0.1146
   65MPD2    N1 1001   0.994   4.490  15.442 -0.6311  0.5946 -0.0244
   65MPD2    H7 1002   0.975   4.512  15.345 -0.3396  0.9592 -0.0011
   66TCq2    C1 1003   1.110   4.549  15.499 -0.6061  0.1120 -0.2162
   66TCq2    O2 1004   1.143   4.548  15.615  0.1465  0.1507  0.2667
   66TCq2    C2 1005   1.165   4.661  15.425 -0.1373 -0.8552  0.8341
   66TCq2    C3 1006   1.186   4.656  15.287 -0.7351 -0.1528  0.5992
   66TCq2    C4 1007   1.206   0.046  15.209  1.0958 -0.0056  0.5515
   66TCq2    C5 1008   1.206   0.169  15.273 -0.2157  0.2042 -0.6956
   66TCq2    C6 1009   1.174   0.174  15.404  0.2209  0.2653 -0.7980
   66TCq2    C7 1010   1.165   0.067  15.490 -1.3299  0.5736 -0.0331
   66TCq2    C8 1011   1.146   0.301  15.462 -0.8342 -0.2690  0.0222
   66TCq2    O4 1012   1.217   0.393  15.423 -0.4486 -0.6444  0.7291
   66TCq2    C9 1013   1.198   0.024  15.064 -0.1226  0.0693 -1.0616
   66TCq2    O5 1014   1.189   4.625  15.018  0.3912  0.4995  0.0674
   66TCq2    O6 1015   1.207   0.130  14.994  0.1798  0.2358  0.2340
   66TCq2    H2 1016   1.197   4.555  15.248  1.0747  0.0384  0.6059
   66TCq2    H3 1017   1.218   0.256  15.210 -1.3684  1.3704  0.6984
   66TCq2    H4 1018   1.145   0.067  15.596  0.8017  1.3786  0.3665
   67MPD2     C 1019   0.204   3.406  13.934 -0.3449  0.0853 -0.1163
   67MPD2    C1 1020   0.204   3.539  13.981 -1.1859  0.2784  0.4292
   67MPD2    C2 1021   0.085   3.612  13.959 -0.2909  0.1925 -0.0028
   67MPD2    C3 1022   4.693   3.555  13.894  0.6895  0.2944 -0.1387
   67MPD2    C4 1023   4.701   3.427  13.845  0.3923 -0.6273  0.6849
   67MPD2    C5 1024   0.104   3.356  13.858 -0.7506 -0.2041 -0.6177
   67MPD2     H 1025   0.076   3.717  13.986 -0.5852  0.3892 -0.8829
   67MPD2    H1 1026   4.622   3.366  13.804 -0.9056  2.1202 -0.8943
   67MPD2    H2 1027   0.290   3.346  13.961 -0.3653  0.4775  0.7993
   67MPD2    H3 1028   0.116   3.256  13.819  1.8009 -0.7418  1.5390
   67MPD2     N 1029   4.570   3.613  13.900 -0.5066 -0.5704  0.1983
   67MPD2    H5 1030   4.496   3.565  13.850 -1.3341  1.2571 -0.3320
   67MPD2    N1 1031   0.307   3.589  14.064  0.6203  0.0674 -0.3536
   67MPD2    H7 1032   0.298   3.689  14.082  0.4374 -0.4390  2.2481
   68TCq2    C1 1033   0.410   3.528  14.129  0.0276 -0.1600  0.4340
   68TCq2    O2 1034   0.450   3.414  14.131 -0.8156  0.3339  0.4456
   68TCq2    C2 1035   0.480   3.631  14.212  0.0095 -0.2068  0.3131
   68TCq2    C3 1036   0.459   3.766  14.190 -0.4286  0.2159 -0.6314
   68TCq2    C4 1037   0.514   3.860  14.269  1.1496  0.7048  0.4114
   68TCq2    C5 1038   0.599   3.818  14.371 -0.0882  0.1875 -0.0918
   68TCq2    C6 1039   0.630   3.683  14.387 -0.3374 -0.0936  0.9961
   68TCq2    C7 1040   0.576   3.588  14.304  0.3574 -0.0031 -0.6631
   68TCq2    C8 1041   0.748   3.645  14.467 -0.4733  0.7954  0.2801
   68TCq2    O4 1042   0.791   3.533  14.440 -0.3410 -0.2155  0.2031
   68TCq2    C9 1043   0.492   4.004  14.243 -0.6001 -0.1062  0.1364
   68TCq2    O5 1044   0.510   4.089  14.336  0.6419  0.4911  0.4824
   68TCq2    O6 1045   0.427   4.027  14.138 -0.5371  0.5422 -0.1540
   68TCq2    H2 1046   0.381   3.803  14.124 -1.2629 -1.7554 -0.7357
   68TCq2    H3 1047   0.657   3.896  14.420 -0.8601  0.8550 -0.2348
   68TCq2    H4 1048   0.591   3.482  14.319  0.8328  0.1221 -0.2599
   69TMC2    C1 1049   2.041   0.482  12.126 -0.2491  0.1192 -0.4099
   69TMC2    C2 1050   1.919   0.522  12.081 -0.3133 -0.5376 -0.0175
   69TMC2    C3 1051   1.873   0.467  11.967 -0.2004  0.8590  1.1333
   69TMC2    C4 1052   2.117   0.391  12.054  1.1536 -0.2902  0.4764
   69TMC2    C5 1053   2.069   0.339  11.940 -0.4721 -0.2840  0.1097
   69TMC2    C6 1054   1.948   0.382  11.890  0.5029 -0.1416  0.3238
   69TMC2     C 1055   2.087   0.531  12.256 -0.0127  0.7131 -0.0789
   69TMC2     O 1056   2.028   0.633  12.295  0.2258 -0.4490 -0.1827
   69TMC2     H 1057   1.843   0.575  12.137 -0.9831  0.2673 -1.6971
   69TMC2    H1 1058   2.215   0.364  12.093  0.3195 -1.2873  1.9172
   69TMC2    H2 1059   1.901   0.343  11.800 -0.0325 -1.1523  1.0441
   69TMC2    C7 1060   2.155   0.256  11.862  0.9047  0.0117 -0.0243
   69TMC2    C8 1061   1.788   0.547  11.878 -0.7388 -0.1115 -0.8110
   69TMC2    O1 1062   2.268   0.245  11.898  0.3842 -0.4683 -0.0555
   69TMC2    O2 1063   1.738   0.489  11.782 -0.7320  1.0262  0.2982
   69TMC2    O5 1064   1.828   0.670  11.877  0.1638 -0.2691  0.4157
   69TMC2    H5 1065   1.859   0.707  11.962 -2.3748  1.9393  0.4138
   70MPD2     C 1066   2.264   0.568  12.496 -0.5736 -0.5056  0.7053
   70MPD2    C1 1067   2.204   0.452  12.462  0.6777  0.9097  0.1099
   70MPD2    C2 1068   2.233   0.343  12.537 -0.1255 -0.5050 -0.9387
   70MPD2    C3 1069   2.299   0.352  12.661 -0.0854  0.5528  0.4978
   70MPD2    C4 1070   2.358   0.471  12.686 -0.1732  0.3857 -1.2704
   70MPD2    C5 1071   2.342   0.582  12.601  0.0809  0.5932 -0.2711
   70MPD2     H 1072   2.201   0.243  12.508  0.2786 -0.8053 -0.3721
   70MPD2    H1 1073   2.423   0.495  12.770  0.0712  1.7300 -1.8378
   70MPD2    H2 1074   2.257   0.660  12.439 -1.0766 -0.3225  1.0583
   70MPD2    H3 1075   2.385   0.677  12.632  0.0284  0.1924  1.0303
   70MPD2     N 1076   2.335   0.246  12.747 -0.5963 -0.2782  0.4565
   70MPD2    H5 1077   2.419   0.256  12.804 -0.6895 -2.8038  1.0191
   70MPD2    N1 1078   2.148   0.436  12.331  0.1331 -0.4375 -0.3364
   70MPD2    H7 1079   2.162   0.342  12.295 -0.5946  0.0304 -1.8447
   71TMC2    C1 1080   4.101   4.176   1.568  0.2360  0.7212 -0.9223
   71TMC2    C2 1081   4.103   4.041   1.591 -0.2198 -0.6493  0.0312
   71TMC2    C3 1082   3.990   3.977   1.620  0.0779  0.5148 -0.0537
   71TMC2    C4 1083   3.984   4.248   1.572  0.1012 -0.5191  0.2933
   71TMC2    C5 1084   3.876   4.179   1.614  0.6282 -0.2014 -0.2257
   71TMC2    C6 1085   3.872   4.043   1.645  0.0704 -0.0716  0.2439
   71TMC2     C 1086   4.221   4.253   1.540  0.9013 -0.1797 -0.0501
   71TMC2     O 1087   4.199   4.355   1.482  0.1058  0.0390  0.0039
   71TMC2     H 1088   4.192   3.988   1.561 -0.0206 -0.3568  0.1026
   71TMC2    H1 1089   3.982   4.356   1.564  1.3124 -0.6379 -1.5754
   71TMC2    H2 1090   3.789   3.990   1.691 -0.8301  2.6406  1.7937
   71TMC2    C7 1091   3.756   4.258   1.632 -0.4316 -0.1377 -0.2986
   71TMC2    C8 1092   4.017   3.860   1.700  0.3892  0.5137 -0.1600
   71TMC2    O1 1093   3.667   4.217   1.703  0.3103  0.2965  0.4032
   71TMC2    O2 1094   4.128   3.832   1.746 -0.0111  0.2569  0.2437
   71TMC2    O5 1095   3.908   3.775   1.697 -0.0447  0.5890 -0.1965
   71TMC2    H5 1096   3.846   3.807   1.629  0.2276  1.4781 -0.0276
   72MPD2     C 1097   4.713   4.386   1.578 -0.2156 -1.0294  0.1693
   72MPD2    C1 1098   4.610   4.449   1.510 -0.0923  0.1946  0.5196
   72MPD2    C2 1099   4.485   4.389   1.516  0.2121  0.1696 -1.1455
   72MPD2    C3 1100   4.463   4.266   1.583 -0.0793 -0.1315  0.6497
   72MPD2    C4 1101   4.567   4.214   1.656 -0.1714 -0.4102  0.4519
   72MPD2    C5 1102   4.695   4.271   1.650 -0.0149  0.2176 -0.1290
   72MPD2     H 1103   4.404   4.435   1.461 -0.4315 -1.6021 -1.6834
   72MPD2    H1 1104   4.547   4.130   1.722  0.9238 -1.9957 -1.2115
   72MPD2    H2 1105   0.092   4.430   1.570 -0.5627 -0.2800  0.0702
   72MPD2    H3 1106   0.059   4.240   1.711  0.5693 -0.5704 -1.3229
   72MPD2     N 1107   4.339   4.203   1.592 -0.1100  0.1895 -0.7709
   72MPD2    H5 1108   4.342   4.122   1.653 -0.8878 -0.5990 -1.7918
   72MPD2    N1 1109   4.628   4.560   1.419  0.3660 -0.0211 -0.3489
   72MPD2    H7 1110   4.556   4.583   1.352  0.7700 -1.3232 -1.2139
   73TMC2    C1 1111   4.428   2.332  14.191 -0.8083  0.2725  0.7833
   73TMC2    C2 1112   4.413   2.465  14.174  0.2282  0.2240 -0.5296
   73TMC2    C3 1113   4.522   2.549  14.212 -0.5317  0.1141 -0.1490
   73TMC2    C4 1114   4.538   2.293  14.264 -0.3439  0.0242  0.4240
   73TMC2    C5 1115   4.650   2.369  14.286 -0.2441 -0.4414  0.0128
   73TMC2    C6 1116   4.634   2.502  14.263  0.3783  0.0267 -0.1302
   73TMC2     C 1117   4.406   2.248  14.080 -0.0283  0.1993 -0.7669
   73TMC2     O 1118   4.506   2.183  14.056 -0.1646 -0.0521  0.4796
   73TMC2     H 1119   4.330   2.503  14.114 -0.2289  1.8281  1.1237
   73TMC2    H1 1120   4.561   2.187  14.268 -3.5465 -0.6573  0.8310
   73TMC2    H2 1121   4.718   2.567  14.286 -0.3071  0.1814  1.9061
   73TMC2    C7 1122   0.057   2.315  14.245  0.6582  0.3886  0.0732
   73TMC2    C8 1123   4.528   2.691  14.178 -0.1030 -0.5575 -0.4915
   73TMC2    O1 1124   0.162   2.333  14.303  0.6105  0.0201  0.1491
   73TMC2    O2 1125   4.628   2.750  14.140 -0.6371 -0.3625 -0.5540
   73TMC2    O5 1126   4.399   2.738  14.194  0.4514  0.2702 -0.1627
   73TMC2    H5 1127   4.330   2.675  14.225  1.6071 -1.8088 -1.7388
   74MPD2     C 1128   4.177   2.066  13.663 -0.4079  0.0865 -0.0386
   74MPD2    C1 1129   4.307   2.060  13.708 -0.3039 -0.0952 -0.1306
   74MPD2    C2 1130   4.345   2.115  13.828 -0.6235  1.0405  0.1726
   74MPD2    C3 1131   4.251   2.185  13.899 -0.5009  1.1335 -0.0931
   74MPD2    C4 1132   4.124   2.204  13.851  0.0110 -0.6683 -0.2426
   74MPD2    C5 1133   4.081   2.140  13.737  0.0207 -0.4973 -0.4740
   74MPD2     H 1134   4.448   2.100  13.859 -0.3773 -0.4110 -1.2867
   74MPD2    H1 1135   4.055   2.263  13.910 -1.8739 -2.9298 -0.1935
   74MPD2    H2 1136   4.150   2.024  13.567 -4.3171  0.8353  0.7092
   74MPD2    H3 1137   3.988   2.170  13.692  0.7082 -0.7971 -2.0897
   74MPD2     N 1138   4.285   2.260  14.015 -0.1553  0.0819  0.1973
   74MPD2    H5 1139   4.214   2.323  14.050  0.3324  1.5827 -1.4816
   74MPD2    N1 1140   4.409   1.985  13.652  0.1940  0.1263  0.2139
   74MPD2    H7 1141   4.504   2.008  13.679 -0.0067  2.6341 -1.2137
   75TCq2    C1 1142   4.526   3.716  13.980 -0.2984  0.4823 -0.0777
   75TCq2    O2 1143   4.574   3.759  14.084 -0.1004  0.3918  0.2531
   75TCq2    C2 1144   4.386   3.736  13.967  0.2045 -0.0220  0.1046
   75TCq2    C3 1145   4.309   3.735  14.083 -0.0823 -0.4342  0.2731
   75TCq2    C4 1146   4.177   3.708  14.066  0.1357  0.1144 -0.4942
   75TCq2    C5 1147   4.125   3.678  13.942 -0.3351 -0.0361  0.5245
   75TCq2    C6 1148   4.204   3.679  13.829 -0.3123  0.5308 -0.1204
   75TCq2    C7 1149   4.338   3.719  13.839  0.0801 -0.0893  0.9213
   75TCq2    C8 1150   4.155   3.708  13.696  0.4600 -0.1370  0.0932
   75TCq2    O4 1151   4.237   3.736  13.608 -0.6769  0.0072  0.3462
   75TCq2    C9 1152   4.092   3.696  14.185 -0.1469  0.0300 -0.3107
   75TCq2    O5 1153   4.138   3.746  14.290  0.3335 -0.3333 -0.6204
   75TCq2    O6 1154   4.001   3.606  14.189  0.5647  0.2488  0.0079
   75TCq2    H2 1155   4.355   3.746  14.180  3.1947  0.9679 -1.4218
   75TCq2    H3 1156   4.022   3.643  13.942 -1.4065  3.0579  1.5899
   75TCq2    H4 1157   4.408   3.717  13.756 -0.4546 -1.8550  0.5208
   76MPD2     C 1158   3.222   4.424  12.072  0.3642 -0.4052  0.5831
   76MPD2    C1 1159   3.229   4.487  11.948 -0.3638 -0.1068  0.0817
   76MPD2    C2 1160   3.357   4.481  11.888  0.3294 -0.5433 -0.0517
   76MPD2    C3 1161   3.473   4.429  11.953  0.1787  0.2683  0.3398
   76MPD2    C4 1162   3.457   4.389  12.086 -0.1989  0.8172 -0.2958
   76MPD2    C5 1163   3.333   4.387  12.142 -0.0577 -0.6180  0.0700
   76MPD2     H 1164   3.362   4.518  11.786 -2.9291 -0.8815 -0.3229
   76MPD2    H1 1165   3.537   4.363  12.154  0.0463  1.0387 -0.4994
   76MPD2    H2 1166   3.125   4.419  12.120  0.3209  2.0057  0.7423
   76MPD2    H3 1167   3.324   4.364  12.248 -0.2037  1.4138  0.4927
   76MPD2     N 1168   3.610   4.427  11.901 -0.6366  0.7264 -0.1236
   76MPD2    H5 1169   3.688   4.379  11.944 -0.3383  0.4000 -1.0205
   76MPD2    N1 1170   3.119   4.537  11.873  0.0666  0.6369  0.1807
   76MPD2    H7 1171   3.141   4.572  11.780 -2.2217 -0.4439 -0.7748
   77TCq2    C1 1172   3.640   4.462  11.774  0.3108  0.9396  0.7065
   77TCq2    O2 1173   3.568   4.537  11.704 -0.5805  0.3964 -0.1478
   77TCq2    C2 1174   3.779   4.433  11.737  0.1613 -0.1458  0.4989
   77TCq2    C3 1175   3.825   4.493  11.627 -0.4063  0.3792  0.5460
   77TCq2    C4 1176   3.956   4.476  11.581  0.4021  0.3339  0.4287
   77TCq2    C5 1177   4.032   4.388  11.647  0.0539 -0.6184  0.6952
   77TCq2    C6 1178   3.978   4.318  11.752 -0.1581  0.3090 -0.6734
   77TCq2    C7 1179   3.850   4.332  11.794 -0.0037  0.6437  0.1963
   77TCq2    C8 1180   4.068   4.216  11.802  0.4175 -0.1706 -0.1189
   77TCq2    O4 1181   4.152   4.191  11.718 -0.1121 -0.0062 -0.3737
   77TCq2    C9 1182   3.998   4.567  11.483 -0.7425 -0.6600 -0.4408
   77TCq2    O5 1183   4.118   4.564  11.442 -0.3614 -0.5292 -0.0034
   77TCq2    O6 1184   3.907   4.643  11.445  0.1865  0.4528  0.8134
   77TCq2    H2 1185   3.763   4.575  11.591  0.3145  1.0475  0.8421
   77TCq2    H3 1186   4.135   4.390  11.614 -0.6188  0.2824 -1.4143
   77TCq2    H4 1187   3.794   4.258  11.850 -0.6415 -0.6480 -2.1383
   78MPD1     C 1188   0.605   3.269   2.148  0.1777  0.8525  0.4452
   78MPD1    C1 1189   0.612   3.200   2.270  0.0030 -0.8478  0.0569
   78MPD1    C2 1190   0.705   3.253   2.363  0.0043  0.2351 -0.0201
   78MPD1    C3 1191   0.789   3.361   2.336  0.2129 -0.0356 -0.7799
   78MPD1    C4 1192   0.770   3.420   2.209  0.5588 -0.5593  0.5216
   78MPD1    C5 1193   0.683   3.378   2.117  0.0528  0.7441 -0.1593
   78MPD1     H 1194   0.713   3.205   2.460 -1.1831  1.5999  0.7613
   78MPD1    H1 1195   0.811   3.519   2.189  0.0667 -0.1370  1.6089
   78MPD1    H2 1196   0.543   3.228   2.069 -0.5185 -0.3496  1.6255
   78MPD1    H3 1197   0.677   3.435   2.025 -0.6645 -0.0309 -0.5918
   78MPD1     N 1198   0.884   3.416   2.417 -0.4021  0.5251 -0.1296
   78MPD1    H5 1199   0.936   3.498   2.387  1.4423 -1.1927 -1.5481
   78MPD1    N1 1200   0.539   3.085   2.301  0.4911 -0.3073 -0.2443
   78MPD1    H6 1201   0.456   3.080   2.243  0.2106  0.6875  0.0621
   78MPD1    H7 1202   0.504   3.084   2.396  1.3367  0.1502  0.0705
   79TCq2    C1 1203   0.912   3.383   2.551 -0.5070 -0.7762  0.1107
   79TCq2    O2 1204   0.864   3.296   2.625 -0.2618  0.2170 -0.0903
   79TCq2    C2 1205   0.991   3.488   2.614  0.0478 -0.1503 -0.4050
   79TCq2    C3 1206   0.956   3.524   2.743  0.6623 -0.1304 -1.1928
   79TCq2    C4 1207   1.036   3.612   2.808 -1.6118 -0.0839  0.7122
   79TCq2    C5 1208   1.143   3.668   2.749  0.2813  0.1430  0.0547
   79TCq2    C6 1209   1.174   3.630   2.619 -0.2723  0.8367  0.0520
   79TCq2    C7 1210   1.102   3.533   2.553 -0.1605 -0.5455 -0.4260
   79TCq2    C8 1211   1.268   3.719   2.548 -0.6287  0.4927 -0.0883
   79TCq2    O4 1212   1.333   3.797   2.620 -0.0932 -0.9359  0.0032
   79TCq2    C9 1213   0.999   3.656   2.930  0.3855  0.2874 -0.3464
   79TCq2    O5 1214   1.057   3.758   2.970  0.1287  0.3274 -0.6528
   79TCq2    O6 1215   0.936   3.570   3.003 -0.4924 -0.4730 -0.3477
   79TCq2    H2 1216   0.870   3.489   2.799  1.7953 -1.3804 -0.2448
   79TCq2    H3 1217   1.207   3.732   2.809  0.6995  0.8296 -1.1359
   79TCq2    H4 1218   1.137   3.482   2.464  1.3777  0.4278 -0.3812
   80MPD2     C 1219   3.003   3.814  12.326  0.4579  0.8382 -0.6718
   80MPD2    C1 1220   2.887   3.838  12.259 -0.5657 -0.0170 -0.3051
   80MPD2    C2 1221   2.774   3.857  12.335  0.5197 -0.4640 -0.1872
   80MPD2    C3 1222   2.780   3.869  12.471  0.0012  0.2018 -0.1710
   80MPD2    C4 1223   2.896   3.865  12.539  0.1043  0.5784  0.0029
   80MPD2    C5 1224   3.010   3.824  12.461 -0.2013 -0.5645  0.4666
   80MPD2     H 1225   2.680   3.866  12.282 -0.8369 -0.4526  2.2711
   80MPD2    H1 1226   2.898   3.875  12.646  1.1242 -0.1564  0.0515
   80MPD2    H2 1227   3.089   3.770  12.278  0.7143  0.1267  0.4411
   80MPD2    H3 1228   3.108   3.820  12.507  0.4675  1.6890 -0.7448
   80MPD2     N 1229   2.667   3.902  12.541 -0.6872 -0.0429 -0.2563
   80MPD2    H5 1230   2.671   3.904  12.642  0.3515  0.6737 -0.3116
   80MPD2    N1 1231   2.884   3.835  12.120  0.1790 -0.4053  0.4510
   80MPD2    H7 1232   2.792   3.849  12.079  0.0350  1.6618  1.4410
   81TCq2    C1 1233   2.990   3.834  12.038  0.0635  0.5866  1.1238
   81TCq2    O2 1234   3.108   3.848  12.066  0.3608 -0.2908  0.6220
   81TCq2    C2 1235   2.956   3.826  11.898  0.7831 -0.1181  0.5789
   81TCq2    C3 1236   3.054   3.858  11.804 -0.0448  0.2164  0.0977
   81TCq2    C4 1237   3.007   3.850  11.672  0.7858  0.5914 -0.2144
   81TCq2    C5 1238   2.880   3.808  11.642 -0.0360  0.2901 -0.7139
   81TCq2    C6 1239   2.796   3.766  11.738  0.3973 -0.1589 -0.0986
   81TCq2    C7 1240   2.833   3.774  11.868  0.0426 -0.6400  0.7695
   81TCq2    C8 1241   2.667   3.703  11.711  0.2309  0.6009  0.5697
   81TCq2    O4 1242   2.613   3.746  11.606  0.7556 -0.3771 -0.1992
   81TCq2    C9 1243   3.085   3.899  11.559  0.1025  0.2851  0.5035
   81TCq2    O5 1244   3.193   3.964  11.582 -0.2407 -0.2752 -0.0830
   81TCq2    O6 1245   3.063   3.830  11.455 -0.0489 -0.0547  0.0763
   81TCq2    H2 1246   3.149   3.907  11.817 -0.6994  1.1389  1.4186
   81TCq2    H3 1247   2.850   3.796  11.538 -1.8452  0.0064 -0.1663
   81TCq2    H4 1248   2.765   3.740  11.946  1.9865 -0.8413  2.3821
   82MPD2     C 1249   1.290   3.741  10.639 -0.1155  0.9143 -0.4734
   82MPD2    C1 1250   1.199   3.646  10.674  0.0107 -0.2064 -0.2511
   82MPD2    C2 1251   1.189   3.606  10.807  0.1396 -0.0954 -0.1720
   82MPD2    C3 1252   1.265   3.664  10.905  0.4170  0.6520 -0.6337
   82MPD2    C4 1253   1.358   3.758  10.868  0.2833 -0.0234 -0.2898
   82MPD2    C5 1254   1.372   3.790  10.734 -0.2186  0.4689  0.0605
   82MPD2     H 1255   1.111   3.535  10.832 -0.9279  0.6205 -1.4461
   82MPD2    H1 1256   1.429   3.798  10.940 -0.1915  1.6409 -0.7532
   82MPD2    H2 1257   1.297   3.772  10.536  1.5768 -0.6665 -0.8222
   82MPD2    H3 1258   1.447   3.862  10.701 -1.3667  1.2778 -0.7516
   82MPD2     N 1259   1.257   3.644  11.047  0.0801 -0.2171  0.0880
   82MPD2    H5 1260   1.318   3.693  11.111  0.0496  2.9564 -2.2596
   82MPD2    N1 1261   1.131   3.586  10.564 -0.0764  0.0966 -0.5579
   82MPD2    H7 1262   1.150   3.633  10.476  2.5745 -0.3466 -0.2232
   83TCq2    C1 1263   1.154   3.562  11.100  0.5928  0.0392  0.2957
   83TCq2    O2 1264   1.068   3.487  11.055 -0.1450  0.1669  0.3515
   83TCq2    C2 1265   1.158   3.550  11.248 -0.4126 -0.2628  0.9408
   83TCq2    C3 1266   1.269   3.528  11.322  0.6706  0.0372 -0.0407
   83TCq2    C4 1267   1.255   3.494  11.454  0.6283  0.5483 -0.0771
   83TCq2    C5 1268   1.131   3.468  11.511  0.2196 -0.9238  0.1970
   83TCq2    C6 1269   1.022   3.491  11.432 -0.5999  0.4743 -0.2659
   83TCq2    C7 1270   1.031   3.533  11.301  0.1838  0.0804  0.4339
   83TCq2    C8 1271   0.902   3.422  11.468 -0.2993 -1.1229 -0.0341
   83TCq2    O4 1272   0.878   3.408  11.588  0.5055 -0.1850 -0.1325
   83TCq2    C9 1273   1.369   3.483  11.543 -0.6474  0.6892 -0.0647
   83TCq2    O5 1274   1.484   3.522  11.505  0.0506  0.0378 -0.1281
   83TCq2    O6 1275   1.349   3.419  11.651  0.6579 -0.6312 -0.6698
   83TCq2    H2 1276   1.363   3.548  11.270 -0.5121 -0.3110 -2.3027
   83TCq2    H3 1277   1.111   3.418  11.605  1.5936  0.9863  1.5340
   83TCq2    H4 1278   0.946   3.571  11.246  0.5012 -0.4566 -0.4139
   84TCq2    C1 1279   1.848   2.310  10.495 -0.0172  0.4929  0.2806
   84TCq2    O2 1280   1.746   2.364  10.456 -0.3487 -0.0333  0.1809
   84TCq2    C2 1281   1.875   2.313  10.639  0.2098 -0.4095  0.1498
   84TCq2    C3 1282   2.007   2.327  10.673  0.1313  0.0897  0.1362
   84TCq2    C4 1283   2.037   2.358  10.805  0.0049 -0.1945 -0.3221
   84TCq2    C5 1284   1.939   2.368  10.900 -0.6196 -1.0035 -0.5696
   84TCq2    C6 1285   1.807   2.366  10.857 -0.0329 -0.5147  0.3085
   84TCq2    C7 1286   1.777   2.329  10.730 -0.2164  0.1403  0.2814
   84TCq2    C8 1287   1.709   2.421  10.946 -0.6610 -0.4451  0.1252
   84TCq2    O4 1288   1.746   2.442  11.055  0.4804 -0.0664 -0.2509
   84TCq2    C9 1289   2.171   2.383  10.848 -0.4883 -0.3022 -0.2052
   84TCq2    O5 1290   2.257   2.389  10.753 -0.5153 -0.0534 -0.1615
   84TCq2    O6 1291   2.185   2.381  10.972  0.1538 -0.2329  0.3860
   84TCq2    H2 1292   2.081   2.325  10.594  1.2650  1.7632  1.1659
   84TCq2    H3 1293   1.959   2.388  11.005 -1.6841 -3.1910  0.0466
   84TCq2    H4 1294   1.673   2.329  10.701 -0.0809  1.2993 -0.2252
   85MPD2     C 1295   2.647   0.163  16.431  0.0057  0.1470 -0.3742
   85MPD2    C1 1296   2.550   0.172  16.331 -0.2682 -0.0256 -0.7045
   85MPD2    C2 1297   2.546   0.283  16.240  0.0640  0.1094  0.4373
   85MPD2    C3 1298   2.650   0.377  16.245  0.2013  0.0851 -0.5092
   85MPD2    C4 1299   2.750   0.352  16.336 -0.3707 -0.0577 -0.0801
   85MPD2    C5 1300   2.743   0.256  16.435  0.2330  0.1738  0.3116
   85MPD2     H 1301   2.477   0.292  16.158  1.1257  0.7721 -0.3863
   85MPD2    H1 1302   2.842   0.409  16.335 -1.4218  1.6235 -1.7147
   85MPD2    H2 1303   2.650   0.078  16.498  0.5436  0.3278 -0.1766
   85MPD2    H3 1304   2.818   0.245  16.512 -0.9024  0.1374  1.4100
   85MPD2     N 1305   2.648   0.484  16.150  0.1292 -0.5439 -0.0655
   85MPD2    H5 1306   2.568   0.484  16.087 -0.1715  1.5454  0.3067
   85MPD2    N1 1307   2.441   0.082  16.325  0.0895 -0.1247  0.1741
   85MPD2    H7 1308   2.375   0.078  16.248 -2.4078 -1.6608  2.3793
   86TCq2    C1 1309   2.750   0.568  16.124 -0.4859 -0.1318 -0.0320
   86TCq2    O2 1310   2.862   0.579  16.174  0.1469 -0.2185 -0.1502
   86TCq2    C2 1311   2.719   0.656  16.017 -0.2975  0.8720  0.0303
   86TCq2    C3 1312   2.594   0.702  15.993  0.0248 -0.1091  0.6360
   86TCq2    C4 1313   2.573   0.809  15.914  1.1278  0.7725 -0.9011
   86TCq2    C5 1314   2.678   0.866  15.846  0.2393  0.2533  0.0898
   86TCq2    C6 1315   2.809   0.827  15.880 -0.1403  0.3633  0.2003
   86TCq2    C7 1316   2.834   0.718  15.965  0.4755  0.3494  0.0281
   86TCq2    C8 1317   2.923   0.859  15.797 -0.0932  0.0624 -0.4304
   86TCq2    O4 1318   3.021   0.789  15.811  0.7198 -0.6246 -0.4622
   86TCq2    C9 1319   2.437   0.841  15.895  0.3243 -0.8146  0.3756
   86TCq2    O5 1320   2.348   0.780  15.963  0.0526  0.3256  0.7488
   86TCq2    O6 1321   2.409   0.912  15.797 -0.8679  0.3653 -0.3094
   86TCq2    H2 1322   2.513   0.663  16.054  1.0688 -0.2703  1.9352
   86TCq2    H3 1323   2.662   0.943  15.771 -0.4528 -2.5097 -2.5807
   86TCq2    H4 1324   2.934   0.697  16.001  1.0254  1.7501 -0.6660
   87MPD2     C 1325   0.101   3.446   1.567 -0.6200  0.6210  0.1221
   87MPD2    C1 1326   0.166   3.516   1.464  0.0893 -0.2257 -0.0160
   87MPD2    C2 1327   0.100   3.625   1.410 -0.1700  0.2685 -0.9584
   87MPD2    C3 1328   4.692   3.655   1.448  0.5327 -0.2364  0.0010
   87MPD2    C4 1329   4.621   3.581   1.541 -0.0480 -0.5180  0.3330
   87MPD2    C5 1330   4.688   3.477   1.598 -0.2207 -0.0806 -0.2337
   87MPD2     H 1331   0.141   3.687   1.332  0.5651  0.4252 -0.4531
   87MPD2    H1 1332   4.519   3.599   1.571  0.3914 -0.6084  1.8550
   87MPD2    H2 1333   0.145   3.361   1.617 -0.7307  0.5144  0.0390
   87MPD2    H3 1334   4.634   3.414   1.668  1.9715 -0.9203  0.6944
   87MPD2     N 1335   4.621   3.777   1.412 -0.4605 -0.1739 -0.3829
   87MPD2    H5 1336   4.537   3.796   1.466 -0.9822  0.1239 -1.2895
   87MPD2    N1 1337   0.296   3.478   1.428  0.5759 -0.1723  0.6890
   87MPD2    H7 1338   0.354   3.422   1.489  1.6329 -1.3317 -1.3822
   88TCq2    C1 1339   0.360   3.516   1.313  0.0197  0.2612  0.0874
   88TCq2    O2 1340   0.313   3.560   1.208  0.1064  0.2525 -0.2124
   88TCq2    C2 1341   0.499   3.503   1.326  0.2006  0.0376 -0.4409
   88TCq2    C3 1342   0.548   3.534   1.450  0.0673 -0.6353 -0.8556
   88TCq2    C4 1343   0.681   3.501   1.473  0.5653  0.1101  0.2625
   88TCq2    C5 1344   0.757   3.450   1.372  0.1460 -0.0645  0.5755
   88TCq2    C6 1345   0.706   3.431   1.252  0.4970  0.1486  0.1725
   88TCq2    C7 1346   0.576   3.462   1.225  0.0841 -0.8944  0.0330
   88TCq2    C8 1347   0.796   3.394   1.139 -0.5320 -0.4548  0.0638
   88TCq2    O4 1348   0.755   3.419   1.025 -0.4567 -0.1421  0.6421
   88TCq2    C9 1349   0.739   3.551   1.595 -0.4054  0.3934  0.2931
   88TCq2    O5 1350   0.855   3.596   1.596  0.6851  1.1450  0.3111
   88TCq2    O6 1351   0.656   3.582   1.688 -0.2083 -0.3838 -0.0604
   88TCq2    H2 1352   0.491   3.583   1.528  1.4127  1.2220 -1.0605
   88TCq2    H3 1353   0.862   3.441   1.397  0.5621  1.8945 -0.4941
   88TCq2    H4 1354   0.529   3.442   1.129  1.3729 -1.4455 -0.4825
   89MPD2     C 1355   0.667   1.402   1.892  0.4113  0.4179  0.0327
   89MPD2    C1 1356   0.736   1.295   1.836 -0.0967 -0.7687  0.2004
   89MPD2    C2 1357   0.873   1.304   1.813 -0.1683 -0.0915 -0.3195
   89MPD2    C3 1358   0.934   1.428   1.809  0.0758 -0.7599  0.4380
   89MPD2    C4 1359   0.867   1.536   1.863  0.3859  0.0800  0.8347
   89MPD2    C5 1360   0.734   1.523   1.903 -0.3195 -0.2194 -0.4116
   89MPD2     H 1361   0.917   1.217   1.765  1.6402  0.2602  0.6942
   89MPD2    H1 1362   0.914   1.634   1.863  1.3913 -0.3965 -0.6607
   89MPD2    H2 1363   0.564   1.396   1.924 -0.2985  0.0880 -2.2644
   89MPD2    H3 1364   0.685   1.611   1.944 -1.0035 -0.1973 -1.2723
   89MPD2     N 1365   1.063   1.434   1.741  0.3964 -0.9119  0.0535
   89MPD2    H5 1366   1.108   1.349   1.710  0.4660 -0.7132 -0.3900
   89MPD2    N1 1367   0.671   1.171   1.805 -0.7614 -0.1188  0.2104
   89MPD2    H7 1368   0.730   1.100   1.764 -3.5039 -1.6339 -1.1383
   90TCq2    C1 1369   1.130   1.548   1.721 -0.3560  0.5965  0.0563
   90TCq2    O2 1370   1.090   1.662   1.740 -0.3432 -0.2836  0.2262
   90TCq2    C2 1371   1.266   1.523   1.673  0.3077 -0.3277 -0.4873
   90TCq2    C3 1372   1.305   1.397   1.651 -0.3174  0.1261  0.4131
   90TCq2    C4 1373   1.406   1.374   1.557  0.3381  0.2744 -0.2379
   90TCq2    C5 1374   1.481   1.482   1.501 -0.0730  0.0664  0.4812
   90TCq2    C6 1375   1.426   1.604   1.519 -0.2659 -0.2291 -0.1446
   90TCq2    C7 1376   1.330   1.630   1.612  0.0378  0.0702 -0.0679
   90TCq2    C8 1377   1.489   1.721   1.466  0.1113 -0.0922 -0.0797
   90TCq2    O4 1378   1.488   1.820   1.539  0.0856 -0.3242 -0.1426
   90TCq2    C9 1379   1.452   1.245   1.528  0.1806 -0.0737 -0.5549
   90TCq2    O5 1380   1.373   1.149   1.549 -0.5040 -0.8115 -0.1988
   90TCq2    O6 1381   1.563   1.230   1.475  0.4341  0.4294 -0.6274
   90TCq2    H2 1382   1.258   1.313   1.701  1.2999 -1.6700 -1.0696
   90TCq2    H3 1383   1.563   1.471   1.431 -1.1852  0.4205 -0.8638
   90TCq2    H4 1384   1.279   1.725   1.604 -1.2654 -0.8180 -2.1866
   91TMC2    C1 1385   2.960   1.388  16.399 -0.6941 -0.3600  0.1046
   91TMC2    C2 1386   2.987   1.519  16.372 -0.0488  0.0114 -0.2844
   91TMC2    C3 1387   2.886   1.607  16.370  0.1807 -0.0298 -0.6708
   91TMC2    C4 1388   2.836   1.335  16.390 -0.2910 -0.0686  1.1565
   91TMC2    C5 1389   2.735   1.430  16.382 -0.4965  0.2424  0.1034
   91TMC2    C6 1390   2.759   1.562  16.372  0.5225 -0.0506 -0.4423
   91TMC2     C 1391   3.058   1.294  16.438  0.7400 -0.9676 -0.1811
   91TMC2     O 1392   3.022   1.190  16.492  0.3904  0.5587 -0.0070
   91TMC2     H 1393   3.086   1.559  16.392 -0.9689  1.5765  1.2350
   91TMC2    H1 1394   2.821   1.231  16.416 -1.9938  0.3427  1.8046
   91TMC2    H2 1395   2.680   1.633  16.390 -0.4672 -0.8627 -1.5001
   91TMC2    C7 1396   2.602   1.387  16.389 -0.8514 -0.3092  0.0476
   91TMC2    C8 1397   2.901   1.746  16.329 -0.6162 -0.5199 -0.7714
   91TMC2    O1 1398   2.572   1.284  16.448  0.5819 -0.1082 -0.2340
   91TMC2    O2 1399   2.804   1.821  16.319  0.7345 -0.2162  0.3496
   91TMC2    O5 1400   3.017   1.773  16.257  0.2997 -0.5832  0.3378
   91TMC2    H5 1401   3.098   1.721  16.273  1.3015  0.5143 -1.2211
   92MPD2     C 1402   3.307   1.124  16.464 -0.0186  0.3364  0.0076
   92MPD2    C1 1403   3.299   1.252  16.407  0.5981  0.0226  0.7772
   92MPD2    C2 1404   3.417   1.305  16.351 -0.2181 -0.6656 -0.4507
   92MPD2    C3 1405   3.536   1.244  16.362  0.4342 -0.1639  0.2460
   92MPD2    C4 1406   3.543   1.113  16.415 -0.1355  0.1307 -0.2227
   92MPD2    C5 1407   3.427   1.055  16.454  0.7214 -0.4074 -0.2088
   92MPD2     H 1408   3.418   1.392  16.287 -0.8812  0.0493  0.5045
   92MPD2    H1 1409   3.633   1.055  16.403 -0.0641  0.2468 -0.2497
   92MPD2    H2 1410   3.222   1.082  16.515  0.0763  0.5397  0.3278
   92MPD2    H3 1411   3.436   0.956  16.498  1.5635 -0.0269  0.4612
   92MPD2     N 1412   3.655   1.305  16.313 -0.4022  0.3270 -0.2698
   92MPD2    H5 1413   3.636   1.401  16.284  0.5751  0.5026 -0.3189
   92MPD2    N1 1414   3.180   1.332  16.386 -0.2900  0.9917  0.1775
   92MPD2    H7 1415   3.187   1.418  16.332 -0.8353  1.9436  1.6201
   93MPD2     C 1416   3.925   1.710  13.821  0.6917 -0.5920  0.1184
   93MPD2    C1 1417   3.947   1.840  13.872  0.0252 -0.0615 -0.3352
   93MPD2    C2 1418   3.849   1.934  13.866  0.1755  0.1851  0.1565
   93MPD2    C3 1419   3.727   1.900  13.804 -0.0683  0.3465 -0.7211
   93MPD2    C4 1420   3.707   1.779  13.748 -0.6503 -0.1362 -0.2436
   93MPD2    C5 1421   3.803   1.684  13.761 -0.1936  0.4024 -0.1345
   93MPD2     H 1422   3.870   2.027  13.919 -0.0648  1.1324 -1.3996
   93MPD2    H1 1423   3.608   1.751  13.714 -1.8651  0.6552  2.6239
   93MPD2    H2 1424   3.992   1.627  13.840 -0.2169 -1.3109  0.1682
   93MPD2    H3 1425   3.792   1.581  13.731  0.0607  0.1446  0.6635
   93MPD2     N 1426   3.619   1.992  13.798 -0.2125  0.2165 -0.1029
   93MPD2    H5 1427   3.530   1.956  13.764 -1.0997  1.4110  0.9340
   93MPD2    N1 1428   4.070   1.876  13.927  0.3451  0.2857 -0.1740
   93MPD2    H7 1429   4.085   1.955  13.988 -0.5991  0.7162 -0.5005
   94TCq2    C1 1430   4.180   1.799  13.901 -0.0309 -0.0438  0.2391
   94TCq2    O2 1431   4.197   1.707  13.820 -0.2384 -0.2130  0.3174
   94TCq2    C2 1432   4.278   1.829  14.003  0.2983  0.6610 -0.1151
   94TCq2    C3 1433   4.251   1.922  14.110  0.3412  0.0648  0.4155
   94TCq2    C4 1434   4.332   1.924  14.217 -0.4314 -0.2794 -0.4212
   94TCq2    C5 1435   4.435   1.832  14.237  0.6066 -0.9110  0.2771
   94TCq2    C6 1436   4.458   1.744  14.134 -0.5740 -0.5915 -0.0222
   94TCq2    C7 1437   4.382   1.741  14.016 -0.2220  0.4709 -0.6190
   94TCq2    C8 1438   4.585   1.675  14.141 -0.0461 -0.4880 -0.7729
   94TCq2    O4 1439   4.664   1.714  14.229  0.0468  0.3937  0.1187
   94TCq2    C9 1440   4.315   2.011  14.329  0.1402 -0.9780  0.0728
   94TCq2    O5 1441   4.223   2.095  14.319  0.1840  0.1751 -0.5532
   94TCq2    O6 1442   4.375   1.980  14.438 -0.3250  0.0725  0.0661
   94TCq2    H2 1443   4.172   1.996  14.112  1.8690  1.6796  0.7460
   94TCq2    H3 1444   4.494   1.830  14.327  0.5936  0.8401  0.3213
   94TCq2    H4 1445   4.406   1.669  13.939 -3.5394  0.2879 -1.4739
   95TMC2    C1 1446   4.459   3.319  15.199  0.0038  0.3213  0.4140
   95TMC2    C2 1447   4.525   3.206  15.152  0.5325  0.7589 -0.4530
   95TMC2    C3 1448   4.487   3.088  15.204  0.3046  0.2039  0.6097
   95TMC2    C4 1449   4.341   3.310  15.269 -0.1063  0.4180  0.0370
   95TMC2    C5 1450   4.294   3.187  15.296  0.4649  0.0910  0.2818
   95TMC2    C6 1451   4.371   3.072  15.279  1.1456 -0.2658 -0.0703
   95TMC2     C 1452   4.549   3.432  15.229  0.6845 -0.1783  0.4316
   95TMC2     O 1453   4.634   3.460  15.149 -0.3610 -0.0323  0.3852
   95TMC2     H 1454   4.609   3.218  15.085  0.1116 -1.4459 -1.3536
   95TMC2    H1 1455   4.280   3.400  15.275 -0.6951  0.1179 -1.6306
   95TMC2    H2 1456   4.335   2.973  15.304  0.6108 -0.3251 -1.0711
   95TMC2    C7 1457   4.178   3.187  15.393  0.0959  0.9608  0.4619
   95TMC2    C8 1458   4.569   2.971  15.161 -0.5875  0.2435  0.2082
   95TMC2    O1 1459   4.138   3.295  15.428  0.1178 -0.7636 -0.0537
   95TMC2    O2 1460   4.645   2.960  15.065 -0.1328  0.1332  0.6954
   95TMC2    O5 1461   4.523   2.863  15.227 -0.0458 -0.0613  0.0450
   95TMC2    H5 1462   4.473   2.887  15.308  0.7027  0.7121  0.2865
   96MPD2     C 1463   4.712   3.810  15.549 -0.0647  0.0493  0.6051
   96MPD2    C1 1464   0.022   3.784  15.420 -0.2579  0.7240  0.6001
   96MPD2    C2 1465   4.671   3.684  15.352  0.2623 -0.0949  0.0968
   96MPD2    C3 1466   4.583   3.600  15.413  0.5106  0.4760  0.0401
   96MPD2    C4 1467   4.560   3.621  15.539 -0.0384  0.1253 -0.3356
   96MPD2    C5 1468   4.612   3.734  15.606  0.8663  1.0148  0.4304
   96MPD2     H 1469   4.682   3.674  15.244 -2.3914  0.5520 -0.2498
   96MPD2    H1 1470   4.493   3.560  15.598  0.0386  1.0456  0.7057
   96MPD2    H2 1471   0.051   3.874  15.614  1.9825  0.1328 -1.3121
   96MPD2    H3 1472   4.591   3.750  15.711  0.9481  0.5754  0.5116
   96MPD2     N 1473   4.523   3.487  15.353 -0.6383  0.3774  0.5470
   96MPD2    H5 1474   4.465   3.435  15.417 -0.8689  1.7948  1.5016
   96MPD2    N1 1475   0.111   3.855  15.342  0.9300  0.5543 -0.8578
   96MPD2    H7 1476   0.123   3.811  15.252  0.8739 -2.5314  0.6503
   97MPD2     C 1477   1.926   0.035   1.396  0.6352 -0.7195  0.1562
   97MPD2    C1 1478   1.943   0.149   1.313  0.0061 -1.2349  0.4888
   97MPD2    C2 1479   2.033   0.142   1.209  0.6925 -0.7987  0.5630
   97MPD2    C3 1480   2.088   0.019   1.171 -0.1192 -1.0444 -0.2550
   97MPD2    C4 1481   2.065   4.623   1.250 -0.0368 -0.1254 -0.6103
   97MPD2    C5 1482   1.985   4.638   1.360  0.1122 -0.2086  0.5469
   97MPD2     H 1483   2.046   0.234   1.154 -2.1592 -0.8766 -0.2635
   97MPD2    H1 1484   2.109   4.526   1.232 -1.3506 -0.9366  0.6411
   97MPD2    H2 1485   1.860   0.047   1.481  1.5413  1.4961  0.5337
   97MPD2    H3 1486   1.980   4.554   1.427 -1.1323 -1.7808 -1.5463
   97MPD2     N 1487   2.175   0.010   1.064 -0.3369  0.1171 -0.2315
   97MPD2    H5 1488   2.209   4.637   1.041 -0.9157  0.0755 -0.9108
   97MPD2    N1 1489   1.867   0.266   1.352 -0.5059  0.1435  0.0973
   97MPD2    H7 1490   1.809   0.263   1.435  1.2829 -0.7342  1.3175
   98TCq2    C1 1491   2.222   0.113   0.987 -0.1843 -0.3574 -0.4509
   98TCq2    O2 1492   2.208   0.232   1.005 -0.3541  0.0557 -0.3539
   98TCq2    C2 1493   2.313   0.082   0.880 -0.2486 -0.2762  0.3671
   98TCq2    C3 1494   2.375   4.683   0.883 -0.3681 -0.4217  0.7899
   98TCq2    C4 1495   2.466   4.656   0.787  0.8960  0.6651  0.2731
   98TCq2    C5 1496   2.482   0.020   0.679  0.3714  1.0390 -0.1996
   98TCq2    C6 1497   2.406   0.131   0.674 -0.3284  0.7297  0.0302
   98TCq2    C7 1498   2.327   0.168   0.776 -0.5346  1.0007 -0.0590
   98TCq2    C8 1499   2.427   0.236   0.569  0.1076 -0.0315  0.1179
   98TCq2    O4 1500   2.540   0.250   0.515 -0.1287  0.1311 -0.6072
   98TCq2    C9 1501   2.538   4.528   0.792  0.5365  0.5734  0.2082
   98TCq2    O5 1502   2.513   4.454   0.890 -0.5990  0.4081 -0.1217
   98TCq2    O6 1503   2.643   4.532   0.731  0.3376  0.1539 -0.0031
   98TCq2    H2 1504   2.346   4.595   0.940 -2.0999  0.6441  1.5356
   98TCq2    H3 1505   2.536   4.708   0.591 -0.3666  1.9954 -1.0024
   98TCq2    H4 1506   2.290   0.267   0.799  1.7379  1.6209  0.9026
   99MPD2     C 1507   1.080   2.726   1.141  0.0516  0.4099  0.0355
   99MPD2    C1 1508   0.989   2.649   1.206 -0.7105  0.0712 -0.3294
   99MPD2    C2 1509   0.868   2.634   1.141  0.4804 -0.3385  0.1740
   99MPD2    C3 1510   0.837   2.701   1.018  0.0616 -0.3514  0.6496
   99MPD2    C4 1511   0.928   2.790   0.969  0.1200 -0.6546 -0.2189
   99MPD2    C5 1512   1.047   2.793   1.028  0.2589  0.0821 -0.2608
   99MPD2     H 1513   0.786   2.581   1.188 -0.1978  0.0666 -0.5467
   99MPD2    H1 1514   0.933   2.832   0.869 -0.6932 -0.9645 -0.3923
   99MPD2    H2 1515   1.180   2.739   1.180 -0.3231 -0.2704  1.2031
   99MPD2    H3 1516   1.120   2.861   0.984 -0.2007  1.6416  1.3878
   99MPD2     N 1517   0.707   2.677   0.970 -0.4411 -0.3840  0.8222
   99MPD2    H5 1518   0.643   2.616   1.020 -0.3749 -1.0469  0.0995
   99MPD2    N1 1519   1.008   2.590   1.337 -0.0017  0.5279  0.1297
   99MPD2    H7 1520   0.941   2.526   1.378  0.7542 -2.4015 -3.1375
  100TCq2    C1 1521   1.127   2.603   1.407 -0.6255  0.4577 -0.2435
  100TCq2    O2 1522   1.237   2.634   1.369  0.1261 -0.6397  0.3644
  100TCq2    C2 1523   1.133   2.533   1.530  0.4768 -0.2182  0.3634
  100TCq2    C3 1524   1.191   2.592   1.639  0.2583  0.1632 -0.2160
  100TCq2    C4 1525   1.164   2.548   1.765 -0.1961 -0.8730 -0.1515
  100TCq2    C5 1526   1.088   2.435   1.781 -0.2533  0.6426  0.4752
  100TCq2    C6 1527   1.030   2.380   1.671 -0.0908 -0.9691  0.2080
  100TCq2    C7 1528   1.051   2.425   1.542  0.1062  0.0906 -0.8272
  100TCq2    C8 1529   0.968   2.250   1.691  0.2544  0.0936  0.2177
  100TCq2    O4 1530   1.012   2.175   1.775  0.6770  0.0726  0.0786
  100TCq2    C9 1531   1.228   2.607   1.882 -0.6934  0.0198  0.8499
  100TCq2    O5 1532   1.318   2.693   1.859  0.4536  0.2553  0.1431
  100TCq2    O6 1533   1.192   2.564   1.996  0.0551  0.3217  0.2321
  100TCq2    H2 1534   1.265   2.670   1.624  0.6416 -0.2072 -0.2516
  100TCq2    H3 1535   1.067   2.396   1.880  1.0472  2.7840  1.6080
  100TCq2    H4 1536   1.014   2.361   1.463 -1.2237  0.4819 -0.5129
  101MPD2     C 1537   1.231   4.187  12.956  0.1029  0.2429 -0.0450
  101MPD2    C1 1538   1.142   4.261  13.033  0.2490 -0.7243  0.1245
  101MPD2    C2 1539   1.062   4.198  13.121 -0.6237 -0.5307  0.0627
  101MPD2    C3 1540   1.064   4.062  13.122  0.1008  0.6416  0.8720
  101MPD2    C4 1541   1.148   3.990  13.049 -0.1308 -0.3963  0.2554
  101MPD2    C5 1542   1.236   4.048  12.965  0.9376 -0.3265 -0.0086
  101MPD2     H 1543   1.014   4.251  13.203  0.1421 -0.9661  0.8002
  101MPD2    H1 1544   1.147   3.881  13.045  0.9013 -0.4240  0.5741
  101MPD2    H2 1545   1.293   4.229  12.877  0.4371  1.6396  0.9526
  101MPD2    H3 1546   1.302   4.004  12.892  2.8844  3.8083 -0.7839
  101MPD2     N 1547   0.974   4.007  13.215  0.0370  0.0361  0.3500
  101MPD2    H5 1548   0.917   4.071  13.271 -0.5002 -1.0312  1.0126
  101MPD2    N1 1549   1.141   4.402  13.012  0.4366  0.0662 -0.2111
  101MPD2    H7 1550   1.204   4.441  12.942 -0.0972 -0.8877 -1.2180
  102TCq2    C1 1551   1.229   0.029  12.761  0.5847  0.2908 -0.1216
  102TCq2    O2 1552   1.332   4.704  12.804 -0.0063 -0.3769  0.2495
  102TCq2    C2 1553   1.127   0.052  12.858 -0.3501 -0.3229  0.3099
  102TCq2    C3 1554   1.002   0.077  12.803 -0.6322  0.0238 -0.1952
  102TCq2    C4 1555   0.895   0.015  12.858 -0.0251  0.3533  0.3931
  102TCq2    C5 1556   0.911   4.650  12.966  0.1287 -0.3706  0.0414
  102TCq2    C6 1557   1.034   4.621  13.015  0.5731  0.4123  0.1754
  102TCq2    C7 1558   1.145   4.670  12.957  0.3436 -0.4118 -0.1210
  102TCq2    C8 1559   1.044   4.485  13.069  0.0661  0.0969  0.4338
  102TCq2    O4 1560   0.951   4.454  13.146 -0.7540  0.2094  0.4453
  102TCq2    C9 1561   0.759   0.045  12.821 -0.4032  0.9992 -0.3497
  102TCq2    O5 1562   0.753   0.147  12.745  0.0734 -0.2962  0.2235
  102TCq2    O6 1563   0.663   4.687  12.856 -0.2090 -0.1471 -0.3500
  102TCq2    H2 1564   0.991   0.162  12.737 -1.0559  0.0369 -0.1048
  102TCq2    H3 1565   0.828   4.598  13.011 -1.0113 -0.7927 -2.5609
  102TCq2    H4 1566   1.247   4.650  12.988  0.2860 -0.2118  0.1951
  103TMC2    C1 1567   4.212   4.075  12.570  0.1118 -0.5355 -0.1655
  103TMC2    C2 1568   4.348   4.075  12.599  0.0784  0.1957 -0.2179
  103TMC2    C3 1569   4.398   4.129  12.717  0.0213  1.1061  0.6481
  103TMC2    C4 1570   4.121   4.119  12.670 -0.0602  0.0904  0.2484
  103TMC2    C5 1571   4.176   4.172  12.785 -0.3953  0.1032 -0.7188
  103TMC2    C6 1572   4.312   4.178  12.810  0.1613 -0.1992 -0.1895
  103TMC2     C 1573   4.167   4.073  12.432  0.1535 -1.0852 -0.1932
  103TMC2     O 1574   4.059   4.132  12.406 -0.0792 -0.0416 -0.4800
  103TMC2     H 1575   4.418   4.061  12.518  0.5527  0.8989  0.0758
  103TMC2    H1 1576   4.014   4.120  12.653 -0.1973  0.0814  1.1256
  103TMC2    H2 1577   4.345   4.223  12.903  1.1180 -0.1702 -0.5384
  103TMC2    C7 1578   4.089   4.174  12.907 -0.6961 -0.2541 -0.3610
  103TMC2    C8 1579   4.538   4.114  12.749 -0.1570 -0.0206  0.2870
  103TMC2    O1 1580   4.145   4.145  13.015 -0.1119  0.1471 -0.5151
  103TMC2    O2 1581   4.612   4.035  12.692 -0.4517 -0.0768 -0.2546
  103TMC2    O5 1582   4.575   4.222  12.810  0.1736 -0.7405  0.5992
  103TMC2    H5 1583   4.507   4.291  12.825  1.5486  0.7178  0.0902
  104MPD2     C 1584   4.317   3.912  12.132 -0.3271  0.2220  0.2030
  104MPD2    C1 1585   4.239   4.003  12.206  0.1930 -0.4894  0.3723
  104MPD2    C2 1586   4.157   4.084  12.131 -0.1484 -0.2417  1.0106
  104MPD2    C3 1587   4.146   4.083  11.993 -0.4543 -0.6575  0.9998
  104MPD2    C4 1588   4.223   3.983  11.927 -0.0693 -0.2260 -1.0546
  104MPD2    C5 1589   4.306   3.897  11.998 -0.1963  0.1455 -0.1584
  104MPD2     H 1590   4.085   4.148  12.181  1.3557  2.6560 -0.4913
  104MPD2    H1 1591   4.228   3.972  11.819  0.0193 -0.8590 -0.9833
  104MPD2    H2 1592   4.384   3.851  12.191 -1.1726 -2.9505 -2.0837
  104MPD2    H3 1593   4.368   3.817  11.957 -2.8215 -1.5090 -0.9510
  104MPD2     N 1594   4.052   4.173  11.934 -0.3586 -0.9048  0.7078
  104MPD2    H5 1595   3.985   4.225  11.990  0.4325  0.3984  0.4355
  104MPD2    N1 1596   4.246   4.003  12.345  0.0656 -0.1097 -0.7792
  104MPD2    H7 1597   4.320   3.950  12.390 -0.1400  2.1610  2.2548
  105MPD2     C 1598   1.555   3.203  17.445  0.5352 -0.2933 -0.2614
  105MPD2    C1 1599   1.429   3.261  17.445  0.0424  0.4910 -0.3840
  105MPD2    C2 1600   1.369   3.287  17.568 -0.1097  0.4079 -0.1293
  105MPD2    C3 1601   1.418   3.234   0.010 -0.0953 -0.6069  0.7421
  105MPD2    C4 1602   1.547   3.181   0.008 -0.5235 -0.0328  0.1922
  105MPD2    C5 1603   1.605   3.158  17.563  0.6099  0.3947 -0.0371
  105MPD2     H 1604   1.277   3.343  17.581 -0.0373  0.0746  1.8694
  105MPD2    H1 1605   1.590   3.138   0.098  1.9200  1.1548 -0.4052
  105MPD2    H2 1606   1.604   3.173  17.353 -0.6593 -0.1515 -0.9498
  105MPD2    H3 1607   1.707   3.121  17.562  0.5053  0.0238  1.8781
  105MPD2     N 1608   1.346   3.250   0.130 -0.2502  0.4439 -0.0688
  105MPD2    H5 1609   1.253   3.289   0.120 -0.2486  1.4876  3.8495
  105MPD2    N1 1610   1.353   3.290  17.333 -0.7541 -0.2246  0.4594
  105MPD2    H7 1611   1.266   3.341  17.343 -1.3058 -0.8488 -1.0181
  106TCq2    C1 1612   1.389   3.215   0.258 -0.5677 -0.5710  0.3500
  106TCq2    O2 1613   1.484   3.142   0.294 -0.4950  0.7992  0.1464
  106TCq2    C2 1614   1.316   3.282   0.356 -0.5141 -0.1759  0.3207
  106TCq2    C3 1615   1.266   3.407   0.342 -0.1047 -0.0025  0.1600
  106TCq2    C4 1616   1.217   3.479   0.447  0.3212  0.1556  0.2925
  106TCq2    C5 1617   1.228   3.427   0.579  0.1377  0.6825  0.3995
  106TCq2    C6 1618   1.280   3.302   0.582  0.4498 -0.5519  0.5144
  106TCq2    C7 1619   1.329   3.226   0.480 -0.3429  0.0618  0.1404
  106TCq2    C8 1620   1.279   3.236   0.706 -0.6070  0.0163 -0.8699
  106TCq2    O4 1621   1.361   3.154   0.735  0.8192 -0.0424 -0.3146
  106TCq2    C9 1622   1.166   3.616   0.431 -0.2953 -0.1045 -0.3549
  106TCq2    O5 1623   1.097   3.664   0.528  0.2197 -0.1864 -0.0490
  106TCq2    O6 1624   1.229   3.682   0.351 -0.5660 -0.4672 -0.4802
  106TCq2    H2 1625   1.253   3.442   0.240 -0.4690  2.5035  1.0762
  106TCq2    H3 1626   1.199   3.483   0.667  0.2763  1.2970  0.0573
  106TCq2    H4 1627   1.354   3.121   0.492 -0.4085  0.1229  0.8085
  107TMC2    C1 1628   1.350   2.860  11.710  0.2734  0.1093  0.4514
  107TMC2    C2 1629   1.425   2.971  11.674  0.6748 -0.7943 -0.5900
  107TMC2    C3 1630   1.477   2.977  11.553 -0.4153  0.0458 -0.6814
  107TMC2    C4 1631   1.305   2.770  11.621 -0.3515  0.7134  0.2309
  107TMC2    C5 1632   1.342   2.787  11.492 -0.4891 -0.3048  0.0115
  107TMC2    C6 1633   1.436   2.888  11.461  0.3890  0.0132 -0.5114
  107TMC2     C 1634   1.259   2.867  11.827  0.3049  0.3769 -0.1553
  107TMC2     O 1635   1.210   2.767  11.876  0.5097  0.5850 -0.5353
  107TMC2     H 1636   1.466   3.036  11.750  0.8369 -2.2602  0.5545
  107TMC2    H1 1637   1.217   2.710  11.642  0.8063 -0.3140  2.1440
  107TMC2    H2 1638   1.474   2.903  11.360  2.0410 -2.1710 -0.2209
  107TMC2    C7 1639   1.301   2.705  11.382 -0.5910 -0.3066 -0.3178
  107TMC2    C8 1640   1.564   3.081  11.522 -0.1612  0.1424 -0.0458
  107TMC2    O1 1641   1.186   2.659  11.390  0.0578 -0.0986 -0.7590
  107TMC2    O2 1642   1.577   3.180  11.596 -0.7778  0.3682  0.6788
  107TMC2    O5 1643   1.647   3.045  11.424  0.1547  0.0787 -0.0675
  107TMC2    H5 1644   1.638   2.956  11.384 -1.4749  0.8655 -1.4369
  108MPD2     C 1645   1.119   3.181  11.954 -0.4886 -0.2356 -0.4567
  108MPD2    C1 1646   1.156   3.049  11.962  0.1938 -0.0664  0.5872
  108MPD2    C2 1647   1.119   2.979  12.075  0.4304  0.5038 -0.0839
  108MPD2    C3 1648   1.043   3.036  12.169 -0.0926  0.2081  0.3745
  108MPD2    C4 1649   1.006   3.161  12.166 -0.0586 -0.5192 -0.3015
  108MPD2    C5 1650   1.041   3.231  12.051 -1.1274 -0.2314 -0.1733
  108MPD2     H 1651   1.153   2.876  12.087 -0.2209  0.4504  1.3543
  108MPD2    H1 1652   0.956   3.216  12.245  0.2196 -1.1070  0.2881
  108MPD2    H2 1653   1.139   3.248  11.870  1.1951 -1.0863 -0.7325
  108MPD2    H3 1654   1.025   3.338  12.049  0.5991  0.0657  1.5022
  108MPD2     N 1655   1.004   2.975  12.293 -0.4929  0.7913  0.4067
  108MPD2    H5 1656   0.969   3.046  12.356 -2.4517  1.3081 -1.2507
  108MPD2    N1 1657   1.226   2.998  11.850 -0.0106 -0.3570 -0.8653
  108MPD2    H7 1658   1.251   3.068  11.781  0.2316  0.2273 -0.1885
  109MPD2     C 1659   1.503   4.619   2.806 -0.5283 -0.3357  0.5303
  109MPD2    C1 1660   1.587   4.655   2.694 -0.0961 -0.6269  0.1059
  109MPD2    C2 1661   1.576   0.058   2.637 -0.4423 -0.2073 -0.0387
  109MPD2    C3 1662   1.499   0.156   2.704 -0.0579  0.1505  0.1579
  109MPD2    C4 1663   1.430   0.125   2.817 -0.6010  1.3505 -0.2623
  109MPD2    C5 1664   1.428   4.716   2.860  0.7205  0.3924  0.2040
  109MPD2     H 1665   1.650   0.087   2.563 -0.0099 -1.4757 -0.0919
  109MPD2    H1 1666   1.356   0.193   2.859  1.5677  3.6403 -0.1247
  109MPD2    H2 1667   1.495   4.516   2.837 -1.4570  0.3047  2.4614
  109MPD2    H3 1668   1.361   4.681   2.938 -1.1831  1.4866 -0.9348
  109MPD2     N 1669   1.517   0.287   2.650  0.0351 -0.0601 -0.0021
  109MPD2    H5 1670   1.589   0.298   2.580  1.2871  1.1282  1.4728
  109MPD2    N1 1671   1.671   4.550   2.649 -0.1392  0.2174  0.5504
  109MPD2    H7 1672   1.670   4.464   2.703 -0.5583  0.0631  0.2984
  110TCq2    C1 1673   1.437   0.395   2.673 -0.4373 -0.0547 -0.3951
  110TCq2    O2 1674   1.347   0.413   2.758 -0.1086  0.2260 -0.1383
  110TCq2    C2 1675   1.477   0.501   2.586  0.3036 -0.0305  0.7959
  110TCq2    C3 1676   1.457   0.630   2.631 -0.0417  0.5344  0.3778
  110TCq2    C4 1677   1.478   0.740   2.546  0.2294 -0.5862 -0.5045
  110TCq2    C5 1678   1.538   0.718   2.425 -0.2172  0.6287 -0.0064
  110TCq2    C6 1679   1.545   0.584   2.383 -0.2449 -0.4437 -0.2170
  110TCq2    C7 1680   1.516   0.473   2.455 -0.3308  0.5073  0.8270
  110TCq2    C8 1681   1.598   0.563   2.248  0.6363 -0.6433  0.2958
  110TCq2    O4 1682   1.614   0.662   2.176  0.1196  0.7370 -0.0234
  110TCq2    C9 1683   1.470   0.872   2.599  0.6391 -1.1367 -0.3180
  110TCq2    O5 1684   1.497   0.967   2.521 -0.6261  0.2681 -0.1114
  110TCq2    O6 1685   1.451   0.878   2.723 -0.5009 -0.2526 -0.2249
  110TCq2    H2 1686   1.411   0.645   2.728 -0.0720 -0.2478  0.4874
  110TCq2    H3 1687   1.570   0.793   2.355  0.6083  0.9089  0.6676
  110TCq2    H4 1688   1.530   0.371   2.422 -0.7476  0.5805  0.4276
  111TMC2    C1 1689   1.555   4.710  11.391 -0.1984 -0.1880  0.0156
  111TMC2    C2 1690   1.463   4.717  11.496 -0.0936 -0.5374  0.0095
  111TMC2    C3 1691   1.497   4.671  11.624 -0.7194  0.3711  0.1457
  111TMC2    C4 1692   1.670   4.641  11.401  0.6411  0.7928  0.0413
  111TMC2    C5 1693   1.698   4.589  11.524 -0.9594 -0.0347  0.2556
  111TMC2    C6 1694   1.614   4.596  11.637 -0.3270 -0.0366  0.1390
  111TMC2     C 1695   1.553   0.102  11.306  0.0527 -0.1834 -0.0308
  111TMC2     O 1696   1.630   0.094  11.207  0.7737  0.7520 -0.0044
  111TMC2     H 1697   1.370   0.047  11.472  0.5448  0.2449 -0.8999
  111TMC2    H1 1698   1.751   4.649  11.329  0.0256  0.8696 -0.6433
  111TMC2    H2 1699   1.634   4.530  11.721 -0.8546  2.6953  2.4305
  111TMC2    C7 1700   1.835   4.540  11.541  0.0674 -0.4327 -0.9945
  111TMC2    C8 1701   1.388   4.649  11.708 -0.1925 -0.0404 -0.2880
  111TMC2    O1 1702   1.897   4.485  11.454  0.2297  0.2552 -0.5580
  111TMC2    O2 1703   1.270   4.675  11.677  0.3808 -0.5881  0.6414
  111TMC2    O5 1704   1.431   4.630  11.835  0.1459  0.3824 -0.5662
  111TMC2    H5 1705   1.527   4.642  11.848 -0.1888  1.2135  1.1511
  112MPD2     C 1706   1.502   0.601  11.183  0.9338  0.3688  0.1759
  112MPD2    C1 1707   1.484   0.491  11.098  0.5908  0.1714  0.2308
  112MPD2    C2 1708   1.507   0.362  11.151 -0.0627  0.2348 -0.2662
  112MPD2    C3 1709   1.518   0.350  11.292 -0.4685  0.4167 -0.1320
  112MPD2    C4 1710   1.516   0.462  11.377  0.1995 -0.3209 -0.8930
  112MPD2    C5 1711   1.506   0.589  11.320  0.4763 -0.2866  0.1992
  112MPD2     H 1712   1.485   0.269  11.100 -0.6407 -1.2245  2.6117
  112MPD2    H1 1713   1.512   0.443  11.483  2.0600  0.3828 -0.7018
  112MPD2    H2 1714   1.501   0.701  11.142  1.2701 -0.3061 -1.5083
  112MPD2    H3 1715   1.514   0.673  11.387  0.7729 -0.9386  0.9784
  112MPD2     N 1716   1.516   0.224  11.360  0.3203  0.0783 -0.0673
  112MPD2    H5 1717   1.491   0.221  11.459 -1.2797 -0.1533 -0.4738
  112MPD2    N1 1718   1.466   0.503  10.955 -0.3103 -0.6797  0.4680
  112MPD2    H7 1719   1.471   0.414  10.905  0.3337  0.0965 -0.8459
  113MPD2     C 1720   0.080   2.317   0.997 -0.5345  0.0235 -0.0440
  113MPD2    C1 1721   0.024   2.444   1.001 -0.4205  0.3680 -0.4494
  113MPD2    C2 1722   4.634   2.460   0.929  0.0230  0.3829 -0.1847
  113MPD2    C3 1723   4.569   2.356   0.852 -0.2573  0.7740  0.1629
  113MPD2    C4 1724   4.627   2.231   0.842  0.0148 -0.4170  0.7966
  113MPD2    C5 1725   0.025   2.221   0.916  1.0802 -0.2164  0.1485
  113MPD2     H 1726   4.590   2.559   0.925  0.5874  0.6530  0.3267
  113MPD2    H1 1727   4.597   2.151   0.775  1.2867 -0.2331  0.0220
  113MPD2    H2 1728   0.166   2.282   1.053  0.1672 -0.0006 -1.1398
  113MPD2    H3 1729   0.066   2.121   0.909  1.7113  0.2236 -2.6271
  113MPD2     N 1730   4.467   2.376   0.760 -0.5697  0.6184  0.2238
  113MPD2    H5 1731   4.453   2.304   0.689 -0.5402  0.8887 -0.0553
  113MPD2    N1 1732   0.064   2.550   1.081 -0.6092  0.0122 -0.0814
  113MPD2    H7 1733   0.003   2.631   1.081  0.2087  0.6166  0.0590
  114TCq2    C1 1734   4.381   2.485   0.754 -0.6278 -0.4445  0.9785
  114TCq2    O2 1735   4.360   2.571   0.839  0.0765 -0.1211  0.4652
  114TCq2    C2 1736   4.285   2.479   0.646 -0.6474 -0.8140  0.9153
  114TCq2    C3 1737   4.332   2.500   0.520  0.2010  0.3209 -0.0727
  114TCq2    C4 1738   4.241   2.551   0.429  0.0278  0.0745  0.7658
  114TCq2    C5 1739   4.108   2.568   0.467 -0.0102  0.1167  0.3848
  114TCq2    C6 1740   4.059   2.521   0.587  1.1338  0.0755 -0.1455
  114TCq2    C7 1741   4.154   2.500   0.690 -0.1005 -0.0812  0.3343
  114TCq2    C8 1742   3.923   2.538   0.618 -0.5084  0.2062 -0.3695
  114TCq2    O4 1743   3.868   2.634   0.573 -0.1135  0.0183 -0.0404
  114TCq2    C9 1744   4.295   2.607   0.303 -0.5873 -0.1315 -0.2249
  114TCq2    O5 1745   4.211   2.667   0.232 -0.1405  0.1240 -0.1054
  114TCq2    O6 1746   4.421   2.615   0.286 -0.2734 -0.3249 -0.1988
  114TCq2    H2 1747   4.438   2.489   0.503 -0.3525  0.0289 -3.3738
  114TCq2    H3 1748   4.044   2.608   0.390 -0.5279 -1.0407  0.2132
  114TCq2    H4 1749   4.134   2.490   0.796 -1.6506 -0.4411  0.0021
  115TMC2    C1 1750   0.442   0.615   0.055  0.8353  0.0729 -0.1490
  115TMC2    C2 1751   0.579   0.615   0.030  0.4950  0.4757  1.3429
  115TMC2    C3 1752   0.644   0.736   0.034 -0.2269 -0.0228  0.0623
  115TMC2    C4 1753   0.364   0.730   0.066  0.4559 -0.0372 -0.0297
  115TMC2    C5 1754   0.434   0.849   0.071 -0.1821  0.2936 -0.0668
  115TMC2    C6 1755   0.571   0.849   0.065 -0.1393 -0.3729 -0.3455
  115TMC2     C 1756   0.382   0.489   0.059  0.1260  0.2865 -0.5421
  115TMC2     O 1757   0.450   0.391   0.034 -0.1235 -0.2783 -0.2273
  115TMC2     H 1758   0.638   0.524   0.030 -0.0336  0.1178 -0.0320
  115TMC2    H1 1759   0.256   0.731   0.065  0.4456 -0.2046  1.0904
  115TMC2    H2 1760   0.626   0.936   0.099 -2.8685  1.8294 -1.5867
  115TMC2    C7 1761   0.358   0.972   0.048  0.2772 -0.1799 -0.3647
  115TMC2    C8 1762   0.793   0.731   0.050 -0.3624  0.1403  0.2816
  115TMC2    O1 1763   0.238   0.957   0.022 -0.5191  0.3195  0.5095
  115TMC2    O2 1764   0.854   0.827   0.098  0.0649 -0.5093 -0.3093
  115TMC2    O5 1765   0.844   0.655  17.634 -0.0444 -0.1487  0.3227
  115TMC2    H5 1766   0.772   0.597  17.601  0.3793 -0.0412 -0.7865
  116MPD2     C 1767   4.717   0.196   0.226 -0.3359 -0.1417  0.0284
  116MPD2    C1 1768   0.106   0.169   0.139  0.0689  0.2085  0.2683
  116MPD2    C2 1769   0.193   0.274   0.103  1.1673 -0.3059  0.3092
  116MPD2    C3 1770   0.177   0.392   0.156 -0.4567  0.1970  0.4370
  116MPD2    C4 1771   0.074   0.422   0.241 -0.7869 -0.4079  0.3217
  116MPD2    C5 1772   4.708   0.322   0.270  0.5589 -0.7420  0.2023
  116MPD2     H 1773   0.280   0.254   0.042  0.5373 -0.6019 -0.4948
  116MPD2    H1 1774   0.057   0.523   0.279  0.0825 -0.2059  0.1933
  116MPD2    H2 1775   4.641   0.124   0.254 -0.1807  0.3556  1.7808
  116MPD2    H3 1776   4.629   0.348   0.340 -1.4326 -1.8208 -1.6562
  116MPD2     N 1777   0.263   0.502   0.128  0.1650 -0.3556  0.2417
  116MPD2    H5 1778   0.235   0.589   0.170 -1.3153 -0.3165 -0.8210
  116MPD2    N1 1779   0.124   0.040   0.086 -0.1305 -0.4855  0.7791
  116MPD2    H7 1780   0.042   4.699   0.092  0.0315 -0.9844 -2.1450
  117TMC2    C1 1781   3.717   2.128  14.264 -0.2396  0.6585  0.1563
  117TMC2    C2 1782   3.788   2.077  14.368 -0.3569 -0.2304  0.0149
  117TMC2    C3 1783   3.912   2.124  14.390  0.3764  0.2815 -0.1769
  117TMC2    C4 1784   3.770   2.228  14.187  0.0840 -0.5078 -0.0259
  117TMC2    C5 1785   3.894   2.271  14.220 -0.3571  0.7377  0.2538
  117TMC2    C6 1786   3.967   2.226  14.321 -0.1735  0.8071 -0.0664
  117TMC2     C 1787   3.585   2.071  14.235  0.0245  0.3789  0.2422
  117TMC2     O 1788   3.566   1.955  14.268  0.0191 -0.1395 -0.0152
  117TMC2     H 1789   3.754   1.990  14.423  1.5792  0.3694  2.1143
  117TMC2    H1 1790   3.724   2.252  14.091  1.5850 -3.3403 -1.4685
  117TMC2    H2 1791   4.055   2.282  14.349  1.5732 -1.4482 -1.1107
  117TMC2    C7 1792   3.956   2.373  14.134  0.5162  0.1749 -0.5676
  117TMC2    C8 1793   3.978   2.062  14.507 -0.2334 -0.4131  0.1691
  117TMC2    O1 1794   4.078   2.388  14.132  0.0023 -0.0224 -0.1143
  117TMC2    O2 1795   3.908   2.019  14.598 -0.3100 -0.4135  0.2933
  117TMC2    O5 1796   4.096   2.127  14.526  0.0826  1.0686 -0.4626
  117TMC2    H5 1797   4.147   2.126  14.442 -0.5447 -0.1582 -0.8248
  118MPD2     C 1798   3.789   2.571  13.873  0.7993  0.0069 -0.0969
  118MPD2    C1 1799   3.896   2.535  13.949 -0.5501  0.7155  0.0341
  118MPD2    C2 1800   4.025   2.573  13.912  0.5024 -0.0051 -0.0055
  118MPD2    C3 1801   4.049   2.635  13.794 -0.7700  0.3950  0.8889
  118MPD2    C4 1802   3.942   2.679  13.716 -0.5523  0.2158  0.1627
  118MPD2    C5 1803   3.819   2.634  13.752  0.1871 -0.0842  0.3384
  118MPD2     H 1804   4.114   2.545  13.967  1.0749 -1.2982 -1.5814
  118MPD2    H1 1805   3.956   2.724  13.618 -1.6158 -0.1508 -0.1615
  118MPD2    H2 1806   3.688   2.534  13.888  1.0347 -0.1173  1.1654
  118MPD2    H3 1807   3.739   2.669  13.688  1.8214  1.5698 -0.7790
  118MPD2     N 1808   4.175   2.678  13.740 -0.3182 -0.1685  0.1771
  118MPD2    H5 1809   4.164   2.708  13.643 -0.8934 -2.0174 -0.3313
  118MPD2    N1 1810   3.867   2.445  14.056 -0.6771  0.4947  1.0529
  118MPD2    H7 1811   3.768   2.428  14.072 -0.6260  0.5740  1.4610
  119MPD2     C 1812   1.749   4.175  13.426 -0.2372 -0.3244  0.5328
  119MPD2    C1 1813   1.782   4.045  13.458 -1.2742  0.2564  0.0364
  119MPD2    C2 1814   1.756   3.949  13.366  0.1138 -0.5679 -0.2112
  119MPD2    C3 1815   1.698   3.974  13.239  0.1149  1.2499 -0.0371
  119MPD2    C4 1816   1.682   4.105  13.204 -0.0945 -0.2458 -0.6326
  119MPD2    C5 1817   1.718   4.206  13.289  0.5225 -0.2559  0.1678
  119MPD2     H 1818   1.784   3.846  13.384 -0.2299 -0.4013  1.3578
  119MPD2    H1 1819   1.634   4.124  13.109  1.8028  2.0809 -1.1218
  119MPD2    H2 1820   1.761   4.255  13.498  0.9929  2.4600 -2.7761
  119MPD2    H3 1821   1.698   4.307  13.256  2.2272  0.1161  0.2664
  119MPD2     N 1822   1.651   3.870  13.155  0.2440 -0.3011 -0.2105
  119MPD2    H5 1823   1.609   3.902  13.069  0.8070 -0.1263 -0.4207
  119MPD2    N1 1824   1.839   4.019  13.583  0.1679  0.8601 -0.2414
  119MPD2    H7 1825   1.831   4.098  13.646  0.8513  1.0163 -0.3573
  120TCq2    C1 1826   1.672   3.734  13.176  0.2912  0.4432  0.2754
  120TCq2    O2 1827   1.714   3.679  13.277 -0.4581  0.1709  0.5049
  120TCq2    C2 1828   1.624   3.663  13.066 -0.4940 -0.2063  0.0041
  120TCq2    C3 1829   1.572   3.720  12.950 -0.2734 -0.5819 -0.1815
  120TCq2    C4 1830   1.549   3.640  12.842 -0.1259 -0.0661  0.1890
  120TCq2    C5 1831   1.568   3.507  12.849  0.9127  0.0144 -0.1429
  120TCq2    C6 1832   1.608   3.452  12.969  0.7127 -0.4009  0.2326
  120TCq2    C7 1833   1.645   3.528  13.078  0.5521 -0.3818  0.6671
  120TCq2    C8 1834   1.583   3.306  12.979 -0.7358 -0.7623  0.4037
  120TCq2    O4 1835   1.574   3.244  12.870 -0.5785  0.9119 -0.2852
  120TCq2    C9 1836   1.495   3.702  12.724  0.6207  0.3487  0.6369
  120TCq2    O5 1837   1.482   3.633  12.619 -0.2133 -0.3649 -0.5082
  120TCq2    O6 1838   1.472   3.824  12.732  0.0593  0.9802  0.6112
  120TCq2    H2 1839   1.556   3.826  12.932  4.4163  0.3362  0.9979
  120TCq2    H3 1840   1.529   3.444  12.769 -0.5630 -0.0152  0.6174
  120TCq2    H4 1841   1.687   3.480  13.166 -1.2373 -1.6600  0.8251
  121TMC2    C1 1842   3.489   0.927  13.768  0.7591 -0.8383 -0.1827
  121TMC2    C2 1843   3.574   0.845  13.709 -0.2730  0.4694  0.1396
  121TMC2    C3 1844   3.572   0.713  13.748 -0.2547 -0.1895 -0.0341
  121TMC2    C4 1845   3.385   0.885  13.838  0.0943 -0.4730 -0.1945
  121TMC2    C5 1846   3.380   0.753  13.871  0.6882  0.2619 -0.4362
  121TMC2    C6 1847   3.478   0.667  13.829  0.3930 -0.3944 -0.2736
  121TMC2     C 1848   3.510   1.069  13.756 -0.1554  0.6512  0.6270
  121TMC2     O 1849   3.465   1.145  13.842  0.2490 -0.3875  0.1276
  121TMC2     H 1850   3.659   0.887  13.656 -0.7048 -1.4715 -2.0608
  121TMC2    H1 1851   3.306   0.955  13.864  0.2907  0.0446 -0.9964
  121TMC2    H2 1852   3.467   0.562  13.855 -0.6232 -0.4837 -1.0531
  121TMC2    C7 1853   3.278   0.708  13.953 -0.4904  0.6656 -0.2802
  121TMC2    C8 1854   3.647   0.609  13.680  1.1540 -0.8314 -0.3668
  121TMC2    O1 1855   3.297   0.615  14.028  0.1938  0.7848 -0.0145
  121TMC2    O2 1856   3.658   0.494  13.720  0.1970 -0.1676 -0.2649
  121TMC2    O5 1857   3.601   0.623  13.555  0.2710 -0.0206 -0.1432
  121TMC2    H5 1858   3.613   0.711  13.512 -0.2862  0.5520  0.8754
  122MPD2     C 1859   3.554   1.339  13.641 -0.3609  0.0841 -0.2426
  122MPD2    C1 1860   3.607   1.224  13.586  0.3787  0.2795 -0.1357
  122MPD2    C2 1861   3.681   1.236  13.473  0.1937 -0.7474 -0.0458
  122MPD2    C3 1862   3.720   1.354  13.414  0.3601 -0.6187  0.6566
  122MPD2    C4 1863   3.671   1.468  13.474 -0.5160  0.0747  0.6179
  122MPD2    C5 1864   3.586   1.460  13.586  0.2284  0.6244 -0.3015
  122MPD2     H 1865   3.714   1.143  13.429  0.2682  0.6837 -3.0092
  122MPD2    H1 1866   3.681   1.564  13.425 -2.8167 -0.0258 -0.0278
  122MPD2    H2 1867   3.480   1.334  13.719 -0.4234  1.1852 -0.2341
  122MPD2    H3 1868   3.538   1.553  13.615  0.6210  1.3346 -1.9855
  122MPD2     N 1869   3.788   1.368  13.290  0.5846 -0.0359  0.2987
  122MPD2    H5 1870   3.806   1.464  13.261  0.1644  0.3844  1.4241
  122MPD2    N1 1871   3.565   1.100  13.630 -0.2119 -0.2874 -0.4597
  122MPD2    H7 1872   3.601   1.029  13.567 -1.7255 -2.5483  1.2221
  123MPD2     C 1873   0.841   3.416   8.653 -0.3008 -0.0775 -0.0298
  123MPD2    C1 1874   0.934   3.410   8.755  0.6092 -0.6246  0.0854
  123MPD2    C2 1875   1.067   3.434   8.723  0.5196  0.1701 -0.0753
  123MPD2    C3 1876   1.101   3.444   8.584  0.2360  0.1967 -0.5422
  123MPD2    C4 1877   1.005   3.440   8.490 -0.1044  0.0460 -0.3567
  123MPD2    C5 1878   0.872   3.427   8.524  0.3670  0.3942  0.1851
  123MPD2     H 1879   1.139   3.459   8.799  0.1253 -1.7147  0.9153
  123MPD2    H1 1880   1.013   3.444   8.382 -1.9570 -0.0036 -0.5041
  123MPD2    H2 1881   0.737   3.403   8.682 -0.0971  3.4732  2.2206
  123MPD2    H3 1882   0.802   3.410   8.443 -0.3313  2.3967  0.3468
  123MPD2     N 1883   1.242   3.470   8.565 -0.1618  0.0180  0.4906
  123MPD2    H5 1884   1.291   3.489   8.652 -1.4308  0.3188  1.1461
  123MPD2    N1 1885   0.894   3.407   8.891 -0.4371 -0.2389 -0.3992
  123MPD2    H7 1886   0.799   3.375   8.901 -1.1359  1.3391 -2.0264
  124TCq2    C1 1887   1.307   3.466   8.446 -0.1799  0.2426  0.3022
  124TCq2    O2 1888   1.269   3.427   8.337  0.0074 -0.3581 -0.2802
  124TCq2    C2 1889   1.447   3.510   8.458 -0.2476  0.5861 -0.5618
  124TCq2    C3 1890   1.528   3.489   8.353 -0.3379 -0.1658 -0.6411
  124TCq2    C4 1891   1.659   3.528   8.356 -0.3151 -0.1647  0.0484
  124TCq2    C5 1892   1.710   3.601   8.456  0.3530 -0.1966  0.1348
  124TCq2    C6 1893   1.624   3.627   8.560 -0.7966  0.1830  0.1467
  124TCq2    C7 1894   1.488   3.588   8.571  0.3378 -0.2503 -0.4026
  124TCq2    C8 1895   1.678   3.655   8.693  0.2435  0.0073 -0.4796
  124TCq2    O4 1896   1.616   3.586   8.775  0.6616  0.2301  0.0312
  124TCq2    C9 1897   1.741   3.480   8.251 -0.8214 -0.1659 -0.2354
  124TCq2    O5 1898   1.688   3.395   8.181  0.2882 -0.2949  0.0747
  124TCq2    O6 1899   1.853   3.526   8.239 -0.0101 -0.0751 -0.1520
  124TCq2    H2 1900   1.485   3.451   8.261  1.0744 -0.7291 -1.0710
  124TCq2    H3 1901   1.817   3.620   8.456  0.0754  1.3843  0.6866
  124TCq2    H4 1902   1.428   3.635   8.648 -0.6315 -5.2648  1.9015
  125TMC2    C1 1903   4.628   0.688   8.216  0.5291 -0.3714  0.8603
  125TMC2    C2 1904   4.716   0.592   8.170  1.5301 -0.1909  0.4681
  125TMC2    C3 1905   0.006   0.473   8.239 -0.4079  0.9089  0.0182
  125TMC2    C4 1906   4.581   0.679   8.350  0.3467  0.8267  0.2641
  125TMC2    C5 1907   4.624   0.571   8.425 -0.7290  0.1773  0.0732
  125TMC2    C6 1908   4.692   0.467   8.369 -0.2018  0.0386 -0.5187
  125TMC2     C 1909   4.587   0.802   8.131 -0.2774 -0.0885  0.3654
  125TMC2     O 1910   4.676   0.836   8.051 -0.0147  0.4665 -0.1646
  125TMC2     H 1911   0.041   0.606   8.072 -0.8688 -0.3830 -0.6413
  125TMC2    H1 1912   4.533   0.760   8.403  1.4214  1.6738 -0.0714
  125TMC2    H2 1913   4.710   0.372   8.419  1.5528  0.4621 -0.3178
  125TMC2    C7 1914   4.583   0.569   8.566  0.5006  0.7323 -0.4802
  125TMC2    C8 1915   0.110   0.381   8.196  0.4968 -0.3646  0.0136
  125TMC2    O1 1916   4.476   0.622   8.589  0.2709 -0.3160  0.5225
  125TMC2    O2 1917   0.168   0.313   8.279  0.0326  0.4701  0.3632
  125TMC2    O5 1918   0.141   0.396   8.066  0.0717  0.2234  0.0999
  125TMC2    H5 1919   0.070   0.429   8.006  0.2689  1.4094  0.5047
  126MPD1     C 1920   4.328   1.233   8.083  0.5596 -0.3513 -0.3600
  126MPD1    C1 1921   4.254   1.158   8.163  0.4237  0.1014  0.1562
  126MPD1    C2 1922   4.295   1.031   8.192 -0.4612 -0.3103 -0.6913
  126MPD1    C3 1923   4.416   0.989   8.135  0.5809 -0.0249 -0.0153
  126MPD1    C4 1924   4.483   1.067   8.040 -0.5073 -0.5733 -0.6799
  126MPD1    C5 1925   4.440   1.189   8.013  0.1248 -0.3368  0.6312
  126MPD1     H 1926   4.233   0.968   8.254  0.2525 -1.5713 -1.2560
  126MPD1    H1 1927   4.581   1.036   8.004 -0.8216 -1.0962 -1.0815
  126MPD1    H2 1928   4.295   1.336   8.074  0.6952 -0.3069 -0.3549
  126MPD1    H3 1929   4.485   1.257   7.941 -0.0131 -0.0583  0.8064
  126MPD1     N 1930   4.468   0.861   8.180  0.1021  0.4480  0.1044
  126MPD1    H5 1931   4.407   0.814   8.246  0.9248  0.7101  1.0538
  126MPD1    N1 1932   4.143   1.218   8.235 -0.2551 -0.3000  0.5384
  126MPD1    H6 1933   4.080   1.153   8.281 -1.7462 -0.3516 -1.5748
  126MPD1    H7 1934   4.088   1.292   8.192  0.7265  0.9956  1.5038
  127MPD2     C 1935   4.209   3.668   9.403  0.0337  0.0345 -0.3341
  127MPD2    C1 1936   4.134   3.663   9.517  0.1110  0.6728 -0.9228
  127MPD2    C2 1937   4.148   3.749   9.623  1.3092 -0.3504 -0.2316
  127MPD2    C3 1938   4.242   3.844   9.620  0.1283 -0.1803  0.1188
  127MPD2    C4 1939   4.324   3.852   9.505 -0.0280 -0.0329 -0.5199
  127MPD2    C5 1940   4.300   3.771   9.396  0.2096 -0.8438 -0.1291
  127MPD2     H 1941   4.079   3.743   9.706  1.1207 -0.1491 -0.3740
  127MPD2    H1 1942   4.409   3.919   9.499  0.3438 -0.7027 -2.5525
  127MPD2    H2 1943   4.186   3.598   9.325 -1.0108 -0.0937  0.0851
  127MPD2    H3 1944   4.364   3.777   9.309  0.0232 -0.2652 -0.2286
  127MPD2     N 1945   4.256   3.919   9.738  0.1501  0.8690  0.6326
  127MPD2    H5 1946   4.194   3.903   9.817  1.1590 -0.5096  1.1428
  127MPD2    N1 1947   4.041   3.550   9.524  0.1019  0.0677 -0.1567
  127MPD2    H7 1948   4.040   3.482   9.449 -2.6125  0.2592 -0.2941
  128TCq2    C1 1949   3.943   3.525   9.613  0.6484 -0.0896  0.6054
  128TCq2    O2 1950   3.920   3.583   9.720  0.4187  0.0751 -0.0121
  128TCq2    C2 1951   3.876   3.396   9.583 -0.0335 -0.6925 -0.4918
  128TCq2    C3 1952   3.805   3.345   9.684  0.1716  0.4392 -0.0154
  128TCq2    C4 1953   3.736   3.231   9.658 -0.2780 -0.6649 -0.1351
  128TCq2    C5 1954   3.744   3.163   9.543  0.1459  0.2439 -1.0436
  128TCq2    C6 1955   3.823   3.217   9.442  0.0930 -0.3514 -0.6222
  128TCq2    C7 1956   3.906   3.329   9.464  0.2733  0.6090  1.3574
  128TCq2    C8 1957   3.827   3.150   9.311  0.1022 -0.9809 -0.7256
  128TCq2    O4 1958   3.925   3.165   9.238  0.9750  0.0145 -1.2201
  128TCq2    C9 1959   3.655   3.178   9.762 -0.2605 -0.1823 -0.6027
  128TCq2    O5 1960   3.656   3.239   9.872 -0.2833 -0.1751  0.0352
  128TCq2    O6 1961   3.553   3.116   9.721 -0.2887  0.4605 -0.3229
  128TCq2    H2 1962   3.789   3.402   9.775  1.0875  0.1315  0.3385
  128TCq2    H3 1963   3.701   3.064   9.537  1.2827 -0.2634 -0.7623
  128TCq2    H4 1964   3.954   3.365   9.373  0.0490  2.8510  2.1196
  129MPD2     C 1965   2.516   4.501   2.099  0.2045 -0.4145 -0.5425
  129MPD2    C1 1966   2.402   4.587   2.111 -0.0086 -0.1899  0.2886
  129MPD2    C2 1967   2.356   4.648   1.989  0.8716  0.2551 -0.2628
  129MPD2    C3 1968   2.417   4.606   1.869 -0.4192  0.1726  0.4207
  129MPD2    C4 1969   2.523   4.514   1.861  0.4602  0.0725 -0.3721
  129MPD2    C5 1970   2.576   4.474   1.983 -0.0790  0.5257  0.2218
  129MPD2     H 1971   2.277   0.003   1.990 -1.2975 -2.0559  1.3163
  129MPD2    H1 1972   2.566   4.484   1.766 -3.0607 -0.9195 -1.6475
  129MPD2    H2 1973   2.569   4.452   2.181 -1.9149  0.0499  1.1192
  129MPD2    H3 1974   2.658   4.403   1.984 -1.8642 -1.5525  0.3144
  129MPD2     N 1975   2.362   4.663   1.747 -0.5382  0.3863 -0.4530
  129MPD2    H5 1976   2.284   0.005   1.770  0.1507  0.3363  1.9899
  129MPD2    N1 1977   2.334   4.610   2.229 -0.0072  0.2781 -0.2024
  129MPD2    H7 1978   2.267   4.686   2.222 -1.2459 -0.8853 -1.0470
  130TCq2    C1 1979   2.340   4.531   2.339  0.2959  0.6060  0.1321
  130TCq2    O2 1980   2.423   4.443   2.360  0.2927 -0.1687 -0.4929
  130TCq2    C2 1981   2.248   4.559   2.445  0.3500 -0.6198  0.4782
  130TCq2    C3 1982   2.195   4.685   2.458  0.6881  0.5244  0.4195
  130TCq2    C4 1983   2.103   4.707   2.560  0.8180 -0.2803 -0.8782
  130TCq2    C5 1984   2.072   4.607   2.646 -0.6281  0.6614 -0.5058
  130TCq2    C6 1985   2.128   4.481   2.623 -0.8806  0.1834  0.3194
  130TCq2    C7 1986   2.217   4.453   2.527 -0.4301  0.2398 -0.1608
  130TCq2    C8 1987   2.064   4.364   2.698  0.2294 -0.4419  0.1271
  130TCq2    O4 1988   2.099   4.253   2.661  0.0380 -0.1613 -0.0460
  130TCq2    C9 1989   2.036   0.120   2.587  0.0552 -0.2995  0.0562
  130TCq2    O5 1990   1.999   0.152   2.703  0.7799  0.3351  0.1343
  130TCq2    O6 1991   2.018   0.186   2.484 -0.4171  0.1279 -0.0563
  130TCq2    H2 1992   2.214   0.048   2.391  1.3646  1.4099  1.7107
  130TCq2    H3 1993   2.011   4.636   2.730 -1.1271 -1.1170 -0.2481
  130TCq2    H4 1994   2.257   4.354   2.509  0.0459  0.3614  0.2455
  131MPD2     C 1995   1.384   3.236   9.748 -0.0193  0.1664 -0.3886
  131MPD2    C1 1996   1.401   3.341   9.671  0.3870 -0.1066  0.4686
  131MPD2    C2 1997   1.299   3.372   9.585 -1.0436 -0.5023  0.6156
  131MPD2    C3 1998   1.175   3.309   9.584  0.7471  1.6367 -0.0611
  131MPD2    C4 1999   1.157   3.202   9.670  0.2876  0.4435 -0.1733
  131MPD2    C5 2000   1.264   3.165   9.747 -0.7142  0.2692 -0.5142
  131MPD2     H 2001   1.303   3.452   9.513  0.3826 -0.1651  1.0658
  131MPD2    H1 2002   1.077   3.129   9.663 -0.5445  1.6346 -2.9689
  131MPD2    H2 2003   1.462   3.201   9.815  0.2056  0.7805 -0.3296
  131MPD2    H3 2004   1.265   3.079   9.813 -0.0250 -0.5277 -1.5497
  131MPD2     N 2005   1.074   3.349   9.489 -0.0744 -0.6056 -0.4404
  131MPD2    H5 2006   1.095   3.426   9.426 -1.0544 -0.3195 -0.4172
  131MPD2    N1 2007   1.527   3.409   9.678  0.3111  0.4584  0.2736
  131MPD2    H7 2008   1.598   3.383   9.746  1.8473  2.8185 -0.4460
  132TCq2    C1 2009   1.866   3.864   9.470 -0.4247 -0.3719 -0.2236
  132TCq2    O2 2010   1.770   3.921   9.419 -0.1899  0.0623  0.5976
  132TCq2    C2 2011   1.836   3.763   9.565  0.5449  0.2726  0.3622
  132TCq2    C3 2012   1.914   3.742   9.671  0.4457  0.3331 -0.0829
  132TCq2    C4 2013   1.882   3.635   9.749  0.3903  0.3083  0.4991
  132TCq2    C5 2014   1.774   3.552   9.725 -0.0963  0.2560  0.0791
  132TCq2    C6 2015   1.701   3.572   9.608  0.4667 -0.5190 -0.3488
  132TCq2    C7 2016   1.733   3.680   9.528  0.7278  0.6005  0.5673
  132TCq2    C8 2017   1.578   3.491   9.576 -0.2365  0.4030 -0.4787
  132TCq2    O4 2018   1.525   3.511   9.469  0.1779  0.3752  0.2560
  132TCq2    C9 2019   1.969   3.613   9.867 -0.0490  0.4886  0.3614
  132TCq2    O5 2020   1.967   3.509   9.942  0.1852  0.2071  0.5137
  132TCq2    O6 2021   2.011   3.720   9.917 -0.2172 -0.8208 -0.2892
  132TCq2    H2 2022   2.003   3.801   9.690  1.0642 -0.1634 -1.4024
  132TCq2    H3 2023   1.751   3.472   9.794 -1.5353  0.1801 -0.4826
  132TCq2    H4 2024   1.664   3.711   9.449  0.4787  0.8630  0.8890
  133MPD2     C 2025   1.316   3.817   8.321 -0.0519  0.1402  0.1763
  133MPD2    C1 2026   1.429   3.887   8.362 -0.2612  0.2772 -0.6897
  133MPD2    C2 2027   1.437   3.942   8.485  0.6010 -0.1392 -0.3535
  133MPD2    C3 2028   1.337   3.917   8.578 -0.3913 -0.2719 -0.4045
  133MPD2    C4 2029   1.225   3.846   8.537 -0.0329  0.1593 -0.0806
  133MPD2    C5 2030   1.210   3.799   8.406  0.4106  0.1755 -0.1657
  133MPD2     H 2031   1.527   3.990   8.521 -1.0446  2.8008 -0.2218
  133MPD2    H1 2032   1.143   3.812   8.600 -0.9650  2.3789 -0.0926
  133MPD2    H2 2033   1.312   3.766   8.225 -0.4253  0.7789 -0.1436
  133MPD2    H3 2034   1.129   3.734   8.375  0.1678  1.5567 -2.3948
  133MPD2     N 2035   1.357   3.935   8.716  0.1574 -0.3777  0.4794
  133MPD2    H5 2036   1.272   3.913   8.766 -0.6872 -0.8107 -1.1779
  133MPD2    N1 2037   1.525   3.910   8.263  0.2590 -0.5717  0.0340
  133MPD2    H7 2038   1.502   3.868   8.173 -3.9723  0.1124  0.8312
  134TCq2    C1 2039   1.630   3.995   8.276 -0.9843 -0.1138  0.1711
  134TCq2    O2 2040   1.681   4.049   8.374  0.0142  0.0984  0.0339
  134TCq2    C2 2041   1.697   4.031   8.151  0.1973  0.1922  0.7638
  134TCq2    C3 2042   1.818   4.087   8.169 -0.1252  0.3104  0.5644
  134TCq2    C4 2043   1.866   4.135   8.052  0.8619  0.1329  0.3751
  134TCq2    C5 2044   1.803   4.133   7.928  0.7034 -0.0793 -0.8210
  134TCq2    C6 2045   1.676   4.075   7.919 -0.3418 -0.6688  0.0056
  134TCq2    C7 2046   1.633   4.010   8.030  0.5780 -0.0533  0.4723
  134TCq2    C8 2047   1.598   4.079   7.791  0.2912  0.3930 -0.0583
  134TCq2    O4 2048   1.621   4.169   7.711  0.3652 -0.3950  0.3309
  134TCq2    C9 2049   1.991   4.204   8.060  0.8250  0.3825 -0.1287
  134TCq2    O5 2050   2.018   4.286   7.973 -0.3418  0.0645 -0.3050
  134TCq2    O6 2051   2.050   4.191   8.171  0.0194 -0.0495 -0.1536
  134TCq2    H2 2052   1.873   4.090   8.263 -0.1720  0.6683  0.5799
  134TCq2    H3 2053   1.841   4.198   7.849  0.0506 -0.6919 -1.6408
  134TCq2    H4 2054   1.530   3.977   8.023  0.5267 -0.0335  1.0947
  135MPD2     C 2055   4.164   1.321   8.829 -0.1372 -0.6405 -0.8902
  135MPD2    C1 2056   4.160   1.200   8.910 -0.2556 -0.4259  0.0852
  135MPD2    C2 2057   4.277   1.123   8.920  0.6445 -0.7450  0.1670
  135MPD2    C3 2058   4.386   1.160   8.843  0.3239 -0.6699  0.2371
  135MPD2    C4 2059   4.388   1.283   8.779 -0.1923 -0.3195  0.1269
  135MPD2    C5 2060   4.274   1.351   8.767 -0.6233  0.2703  0.2241
  135MPD2     H 2061   4.269   1.028   8.971 -2.3908  0.2521  1.5453
  135MPD2    H1 2062   4.472   1.320   8.721 -0.6133  1.1492  0.4658
  135MPD2    H2 2063   4.075   1.381   8.817 -0.4550 -1.3425 -1.9992
  135MPD2    H3 2064   4.278   1.429   8.692 -0.6347  0.7370  0.7085
  135MPD2     N 2065   4.500   1.080   8.842  0.4223  0.1733  0.4610
  135MPD2    H5 2066   4.570   1.113   8.777  0.5361  0.3833  0.6878
  135MPD2    N1 2067   4.039   1.156   8.966  0.9352 -0.2986 -0.4271
  135MPD2    H7 2068   4.043   1.068   9.017 -1.8929 -0.1906 -0.0309
  136TCq2    C1 2069   3.909   1.204   8.936  0.6460  0.9162  0.2797
  136TCq2    O2 2070   3.871   1.297   8.862 -0.6205  0.1438 -0.5132
  136TCq2    C2 2071   3.795   1.121   8.990  0.0143  0.5186 -0.4950
  136TCq2    C3 2072   3.669   1.162   8.953  0.2802  0.0772 -0.6376
  136TCq2    C4 2073   3.573   1.067   8.968  0.4057 -0.2243 -0.0274
  136TCq2    C5 2074   3.595   0.949   9.024  0.5827 -1.0391 -0.0572
  136TCq2    C6 2075   3.710   0.916   9.079  0.1152 -0.4789  0.0231
  136TCq2    C7 2076   3.818   1.000   9.052  0.5409  0.6035 -0.2113
  136TCq2    C8 2077   3.728   0.789   9.149 -0.6687 -1.1636  0.6064
  136TCq2    O4 2078   3.838   0.736   9.149 -0.3236  0.4583 -0.2180
  136TCq2    C9 2079   3.438   1.093   8.914 -0.1527 -0.0502 -0.5745
  136TCq2    O5 2080   3.343   1.012   8.943  0.2344  0.1040  0.2331
  136TCq2    O6 2081   3.417   1.195   8.846 -0.5191  0.0418  0.5821
  136TCq2    H2 2082   3.658   1.259   8.905 -1.7669  0.3871  0.4664
  136TCq2    H3 2083   3.512   0.880   9.026 -0.2556  0.0028  2.1980
  136TCq2    H4 2084   3.920   0.968   9.069  0.5114 -0.8238 -2.8312
  137MPD2     C 2085   3.992   0.030   9.866  0.0326  0.1470 -0.1459
  137MPD2    C1 2086   3.883   4.673   9.832 -0.2937 -0.7563  0.2226
  137MPD2    C2 2087   3.785   4.646   9.923  0.8355 -0.2446 -0.0419
  137MPD2    C3 2088   3.806   4.688  10.053 -0.3504 -0.3752 -0.0474
  137MPD2    C4 2089   3.916   0.043  10.087  0.0440 -0.1722 -0.1394
  137MPD2    C5 2090   4.009   0.076   9.995 -0.0331  0.4747  0.4722
  137MPD2     H 2091   3.686   4.604   9.906  0.5360  0.9293 -1.1570
  137MPD2    H1 2092   3.925   0.080  10.189  1.7708  2.8746 -1.4086
  137MPD2    H2 2093   4.068   0.063   9.796  2.5121  2.6274  3.7268
  137MPD2    H3 2094   4.095   0.137  10.020  1.5338 -1.2639 -0.6995
  137MPD2     N 2095   3.707   4.655  10.147 -0.3461 -0.2678 -0.4633
  137MPD2    H5 2096   3.619   4.618  10.112 -1.7237  3.1064 -0.5837
  137MPD2    N1 2097   3.881   4.617   9.700 -0.2046  0.0497 -1.2439
  137MPD2    H7 2098   3.960   4.636   9.639  0.4027  1.3744 -0.0528
  138TCq2    C1 2099   3.785   4.535   9.649 -0.2025 -0.4847 -0.6930
  138TCq2    O2 2100   3.685   4.501   9.710 -0.1444  0.6878 -0.3808
  138TCq2    C2 2101   3.799   4.505   9.504 -0.4972 -0.7557 -0.0157
  138TCq2    C3 2102   3.919   4.529   9.434 -0.7860  0.3608  0.6962
  138TCq2    C4 2103   3.952   4.455   9.328 -0.4052  0.1546  0.2052
  138TCq2    C5 2104   3.868   4.355   9.291  0.0051 -0.4538 -0.4708
  138TCq2    C6 2105   3.750   4.340   9.352 -1.6156  0.7689  0.0220
  138TCq2    C7 2106   3.710   4.417   9.460 -0.3114 -0.1264  0.1902
  138TCq2    C8 2107   3.668   4.235   9.288 -0.0074 -0.0864  0.1395
  138TCq2    O4 2108   3.722   4.165   9.206  0.2741  0.0751  0.6321
  138TCq2    C9 2109   4.083   4.471   9.270  0.3417 -1.2353 -0.3386
  138TCq2    O5 2110   4.147   4.368   9.229  0.2429  0.1890  0.0275
  138TCq2    O6 2111   4.103   4.593   9.246  0.2330 -0.2518 -0.3522
  138TCq2    H2 2112   3.990   4.607   9.458 -0.1165 -0.6464  1.9902
  138TCq2    H3 2113   3.903   4.295   9.208  0.3036  0.5505 -1.0775
  138TCq2    H4 2114   3.609   4.417   9.500 -1.2007 -0.5721 -2.0475
  139TMC2    C1 2115   3.327   3.834  13.428  0.1764  0.1321 -0.6995
  139TMC2    C2 2116   3.341   3.928  13.328  0.4691 -0.4815  0.1744
  139TMC2    C3 2117   3.305   4.059  13.354 -0.1714 -0.2449 -0.1898
  139TMC2    C4 2118   3.285   3.877  13.557  0.1220  0.4784  0.0517
  139TMC2    C5 2119   3.272   4.014  13.578  0.2820 -0.2217  0.6206
  139TMC2    C6 2120   3.283   4.109  13.484 -0.0472  0.7924 -0.1000
  139TMC2     C 2121   3.395   3.707  13.411 -0.8903 -0.0948 -0.4144
  139TMC2     O 2122   3.418   3.670  13.297  0.4974  0.5332 -0.4408
  139TMC2     H 2123   3.353   3.890  13.227  1.1043 -0.2811  0.1745
  139TMC2    H1 2124   3.254   3.799  13.626  0.8103 -0.3667 -0.5962
  139TMC2    H2 2125   3.267   4.213  13.511  2.7731  0.9645  0.9055
  139TMC2    C7 2126   3.174   4.052  13.673  0.2822  0.5025  0.2637
  139TMC2    C8 2127   3.269   4.162  13.252  0.0518 -0.4756 -1.0840
  139TMC2    O1 2128   3.099   4.143  13.652 -0.7188 -0.2347  0.2212
  139TMC2    O2 2129   3.210   4.261  13.287 -0.3811  0.2425  0.3402
  139TMC2    O5 2130   3.251   4.097  13.135  0.1253  0.3452 -0.8942
  139TMC2    H5 2131   3.335   4.051  13.114 -0.7907 -2.2396  1.0644
  140MPD2     C 2132   3.592   3.527  13.657  1.1357  0.3342 -0.8989
  140MPD2    C1 2133   3.538   3.552  13.533  0.3430 -0.0618  0.1586
  140MPD2    C2 2134   3.588   3.488  13.420 -0.5261 -0.1766  0.3228
  140MPD2    C3 2135   3.710   3.420  13.427  0.0903  0.2773 -0.1787
  140MPD2    C4 2136   3.762   3.397  13.553 -0.5936 -0.2521  0.5006
  140MPD2    C5 2137   3.702   3.440  13.667  0.0614 -0.1576  0.3549
  140MPD2     H 2138   3.543   3.490  13.321 -0.3854  1.4308  0.3005
  140MPD2    H1 2139   3.851   3.339  13.575  0.2373  0.4875 -0.8957
  140MPD2    H2 2140   3.564   3.574  13.751  1.5954 -0.2344 -0.4734
  140MPD2    H3 2141   3.744   3.411  13.763 -0.1911  0.3692  0.6298
  140MPD2     N 2142   3.784   3.381  13.308 -0.1515  0.2613 -0.3236
  140MPD2    H5 2143   3.746   3.416  13.221  0.3912  2.1966  0.2213
  140MPD2    N1 2144   3.446   3.657  13.529 -0.2180  0.0754  0.5095
  140MPD2    H7 2145   3.426   3.708  13.614 -1.5621 -0.7345  0.6668
  141TCq2    C1 2146   4.420   4.146  14.234 -0.2347  0.2110 -0.5311
  141TCq2    O2 2147   4.356   4.247  14.212  0.3416  0.4866  0.1798
  141TCq2    C2 2148   4.455   4.112  14.370  0.3361 -0.6472 -0.3174
  141TCq2    C3 2149   4.481   3.978  14.391  0.3593  0.3781  0.3272
  141TCq2    C4 2150   4.504   3.944  14.523 -0.4271 -0.0378 -0.8366
  141TCq2    C5 2151   4.505   4.037  14.627 -0.4733 -0.3550 -0.1232
  141TCq2    C6 2152   4.471   4.165  14.594  0.4408 -0.5542  0.9116
  141TCq2    C7 2153   4.449   4.209  14.466 -0.0749  0.1379 -0.5577
  141TCq2    C8 2154   4.424   4.243  14.708  0.0719 -0.0808 -0.5122
  141TCq2    O4 2155   4.420   4.191  14.821 -1.0577  0.1965 -0.5326
  141TCq2    C9 2156   4.518   3.808  14.557  0.1799  0.8377  0.3973
  141TCq2    O5 2157   4.562   3.774  14.669  0.4237  0.7568 -0.2241
  141TCq2    O6 2158   4.427   3.740  14.501  0.4449  0.7446 -0.1060
  141TCq2    H2 2159   4.474   3.900  14.316  1.7480  0.0585  0.5221
  141TCq2    H3 2160   4.521   3.999  14.727 -1.0735  1.0192  0.4974
  141TCq2    H4 2161   4.429   4.313  14.443  0.9225  0.5384  0.3370
  142MPD2     C 2162   1.456   2.801   9.786  0.5373  0.1612  0.2752
  142MPD2    C1 2163   1.408   2.865   9.682  0.2540 -1.0043 -0.2023
  142MPD2    C2 2164   1.495   2.939   9.600 -0.5170  0.1572  0.2991
  142MPD2    C3 2165   1.628   2.956   9.623 -0.1370 -0.1402  0.4201
  142MPD2    C4 2166   1.678   2.894   9.740  0.0532  0.0464  0.0066
  142MPD2    C5 2167   1.595   2.811   9.813 -0.0468  0.1701  0.3927
  142MPD2     H 2168   1.455   2.989   9.512 -1.7136 -3.8200 -1.4291
  142MPD2    H1 2169   1.784   2.907   9.757  0.2321 -1.1322 -0.2012
  142MPD2    H2 2170   1.396   2.752   9.863  0.4089 -1.7853 -1.0741
  142MPD2    H3 2171   1.642   2.764   9.898  1.0667  1.9545  0.7649
  142MPD2     N 2172   1.699   3.063   9.575  0.6204 -0.6663 -0.3222
  142MPD2    H5 2173   1.797   3.069   9.600  1.1723  0.2421 -2.6862
  142MPD2    N1 2174   1.269   2.845   9.646  0.4075 -0.5187  0.4642
  142MPD2    H7 2175   1.211   2.789   9.708 -2.3099  0.3554 -1.2665
  143TCq2    C1 2176   1.660   3.152   9.479 -0.8780 -0.0176  0.0253
  143TCq2    O2 2177   1.553   3.160   9.415 -0.3379  0.2362  0.1829
  143TCq2    C2 2178   1.755   3.259   9.457 -0.2201 -0.3708 -0.2640
  143TCq2    C3 2179   1.855   3.283   9.545  0.1103 -0.3754  0.1300
  143TCq2    C4 2180   1.947   3.380   9.520  0.1225 -0.4008 -0.7082
  143TCq2    C5 2181   1.944   3.450   9.406  0.4792  0.6906  0.1448
  143TCq2    C6 2182   1.842   3.421   9.317 -0.7367 -0.1177 -0.9050
  143TCq2    C7 2183   1.746   3.325   9.337 -1.1457 -0.0398 -0.0461
  143TCq2    C8 2184   1.816   3.509   9.205  0.4661 -0.0278  0.0296
  143TCq2    O4 2185   1.715   3.499   9.139  0.1322  0.4497  0.0676
  143TCq2    C9 2186   2.060   3.403   9.615  0.2441 -0.0387  0.3810
  143TCq2    O5 2187   2.077   3.308   9.701  0.2474 -0.7544  0.3245
  143TCq2    O6 2188   2.150   3.498   9.588 -0.1670  0.1845 -0.3503
  143TCq2    H2 2189   1.855   3.234   9.642  0.8256 -1.4975 -0.4356
  143TCq2    H3 2190   2.011   3.533   9.389 -0.4126  1.5558  0.8447
  143TCq2    H4 2191   1.677   3.301   9.257 -2.4918  1.9754  0.5083
  144MPD2     C 2192   3.991   1.777   0.622  0.3980 -0.0794  0.2961
  144MPD2    C1 2193   4.060   1.783   0.504 -0.6307  0.3177  0.2026
  144MPD2    C2 2194   4.185   1.723   0.498  0.3663 -0.1475  0.2831
  144MPD2    C3 2195   4.241   1.660   0.605  0.0397  0.4765  0.1802
  144MPD2    C4 2196   4.177   1.660   0.726  0.5717 -0.3999 -0.0122
  144MPD2    C5 2197   4.052   1.723   0.734  0.0669 -0.0789 -0.4667
  144MPD2     H 2198   4.222   1.722   0.396  1.8210 -1.9709  0.8336
  144MPD2    H1 2199   4.212   1.610   0.816 -0.2445 -4.3880 -1.8696
  144MPD2    H2 2200   3.896   1.828   0.628 -0.5411 -1.8154  0.2815
  144MPD2    H3 2201   4.005   1.736   0.831 -0.0019  0.9991 -0.6530
  144MPD2     N 2202   4.362   1.590   0.603  0.2656 -0.0099  0.3635
  144MPD2    H5 2203   4.392   1.554   0.693 -1.0413  0.0500  0.8180
  144MPD2    N1 2204   4.013   1.842   0.384  0.2810  0.7103 -0.1807
  144MPD2    H7 2205   4.074   1.866   0.306  0.7744 -0.0815 -0.0366
  145TCq2    C1 2206   4.426   1.541   0.493 -0.7711  0.0201 -0.4578
  145TCq2    O2 2207   4.402   1.570   0.375 -0.5091  0.5646  0.8258
  145TCq2    C2 2208   4.527   1.444   0.515  0.1243  0.5856  0.2871
  145TCq2    C3 2209   4.551   1.371   0.399  0.6764 -0.5170  0.5396
  145TCq2    C4 2210   4.667   1.294   0.409 -0.9032 -0.0100  0.1569
  145TCq2    C5 2211   0.036   1.304   0.514 -0.2873  0.7490 -0.3398
  145TCq2    C6 2212   0.009   1.385   0.621  0.6106 -0.5490 -0.4240
  145TCq2    C7 2213   4.611   1.455   0.625  0.1815  0.1519 -0.4353
  145TCq2    C8 2214   0.087   1.367   0.735 -0.0889 -0.2275  0.9168
  145TCq2    O4 2215   0.172   1.280   0.725 -0.1759  0.4697 -0.2825
  145TCq2    C9 2216   4.695   1.190   0.310 -0.1356  0.2191 -0.1344
  145TCq2    O5 2217   4.603   1.168   0.228 -0.4856  0.7462  0.8078
  145TCq2    O6 2218   0.070   1.112   0.342  0.3624  1.0531  0.3276
  145TCq2    H2 2219   4.495   1.366   0.307  0.8753  0.2128  0.3820
  145TCq2    H3 2220   0.128   1.247   0.517 -0.6640  0.0820 -1.4434
  145TCq2    H4 2221   4.588   1.530   0.700 -1.0220 -1.8070  1.1781
  146TMC2    C1 2222   1.340   0.405  12.070  0.2919  0.5614 -0.3694
  146TMC2    C2 2223   1.313   0.396  11.936  0.2716 -0.2270  0.4586
  146TMC2    C3 2224   1.399   0.333  11.854 -0.4564  0.3511  0.2555
  146TMC2    C4 2225   1.463   0.367  12.125  0.5843 -0.3029 -1.1483
  146TMC2    C5 2226   1.546   0.292  12.032  0.2889  0.2837  0.0248
  146TMC2    C6 2227   1.513   0.279  11.903  0.1612  0.2989  0.2763
  146TMC2     C 2228   1.236   0.451  12.160 -0.5091 -0.9890  0.1619
  146TMC2     O 2229   1.144   0.513  12.112 -0.0964 -0.4832  0.1039
  146TMC2     H 2230   1.212   0.417  11.906  0.8116  2.4666  0.5028
  146TMC2    H1 2231   1.487   0.387  12.229  2.6543  0.3370 -1.7542
  146TMC2    H2 2232   1.571   0.221  11.831 -0.8250 -0.4836  0.1239
  146TMC2    C7 2233   1.674   0.233  12.070 -0.2698  1.1205 -0.3092
  146TMC2    C8 2234   1.380   0.335  11.709  0.5226  0.7645 -0.3817
  146TMC2    O1 2235   1.733   0.179  11.979  0.2850  0.3977 -0.2650
  146TMC2    O2 2236   1.454   0.270  11.636  0.6482  0.4287  0.4029
  146TMC2    O5 2237   1.335   0.459  11.677 -0.0985 -0.5207 -0.2592
  146TMC2    H5 2238   1.295   0.502  11.756  2.2643 -2.1488  1.8245
  147MPD2     C 2239   2.015   0.110  12.417  0.0210  0.0037 -0.1635
  147MPD2    C1 2240   1.914   0.175  12.482  0.0357 -0.1297  0.0973
  147MPD2    C2 2241   1.808   0.226  12.403 -0.3302 -0.2342 -1.0157
  147MPD2    C3 2242   1.809   0.210  12.267  0.0143 -0.1605  0.2137
  147MPD2    C4 2243   1.914   0.152  12.206  0.1909  0.1455  0.5871
  147MPD2    C5 2244   2.013   0.100  12.278 -0.1072 -0.1277  0.0484
  147MPD2     H 2245   1.726   0.280  12.450 -1.0638 -1.7035 -0.5971
  147MPD2    H1 2246   1.922   0.134  12.099  0.2867  2.0119  0.2675
  147MPD2    H2 2247   2.097   0.068  12.474 -1.9779 -1.3900  1.6469
  147MPD2    H3 2248   2.090   0.047  12.222 -0.5294  0.6965 -1.3028
  147MPD2     N 2249   1.691   0.251  12.202 -0.4363  0.3461 -0.3954
  147MPD2    H5 2250   1.624   0.293  12.265 -0.4172 -0.1852 -0.0183
  147MPD2    N1 2251   1.904   0.168  12.618  0.7162  0.7270 -0.0469
  147MPD2    H7 2252   1.989   0.137  12.665 -0.4805 -0.0686  1.5751
  148MPD2     C 2253   1.231   4.534   9.927  0.1746 -0.0693  0.1944
  148MPD2    C1 2254   1.274   4.440  10.014 -0.4480  0.2988 -0.2227
  148MPD2    C2 2255   1.270   4.306   9.978  0.1627 -0.6141 -0.8821
  148MPD2    C3 2256   1.219   4.265   9.861  0.7987 -0.2079  0.1011
  148MPD2    C4 2257   1.171   4.364   9.774  0.0870  0.0722 -0.0570
  148MPD2    C5 2258   1.175   4.492   9.809 -0.5911 -0.5558  0.0477
  148MPD2     H 2259   1.309   4.233  10.048  0.1895 -1.2379 -1.5541
  148MPD2    H1 2260   1.122   4.343   9.680  1.3056  0.8109 -0.8688
  148MPD2    H2 2261   1.225   4.640   9.949 -2.6974 -0.6859  2.3002
  148MPD2    H3 2262   1.139   4.576   9.750 -1.2593 -2.0184 -1.6082
  148MPD2     N 2263   1.219   4.127   9.816 -0.1346 -0.2712 -0.4290
  148MPD2    H5 2264   1.162   4.113   9.734 -0.6435  0.9237 -0.2739
  148MPD2    N1 2265   1.344   4.477  10.135  0.3160  0.4340 -0.5004
  148MPD2    H7 2266   1.394   4.410  10.192  0.0745 -1.0748 -2.0602
  149TCq2    C1 2267   1.328   4.600  10.195 -0.5921  0.0726  0.1009
  149TCq2    O2 2268   1.274   4.705  10.155 -0.1608 -0.1444 -0.3947
  149TCq2    C2 2269   1.377   4.599  10.334 -0.0440  0.3124 -0.3917
  149TCq2    C3 2270   1.307   4.682  10.416  0.8204  0.2182  0.1615
  149TCq2    C4 2271   1.317   4.666  10.552 -0.0843 -0.0819  0.4491
  149TCq2    C5 2272   1.413   4.577  10.605  0.1299 -0.0216 -0.0470
  149TCq2    C6 2273   1.477   4.499  10.514 -0.4707 -0.0836  0.0947
  149TCq2    C7 2274   1.459   4.499  10.381  0.3175  0.0926 -0.1533
  149TCq2    C8 2275   1.543   4.383  10.570 -0.3261  0.6530  0.2713
  149TCq2    O4 2276   1.610   4.311  10.496  0.5236  0.0777 -0.1972
  149TCq2    C9 2277   1.271   0.051  10.632 -0.0757  0.9017 -0.2018
  149TCq2    O5 2278   1.300   0.046  10.753  0.3486 -0.5327  0.4508
  149TCq2    O6 2279   1.213   0.140  10.568 -0.5804  1.5562  0.2459
  149TCq2    H2 2280   1.244   0.043  10.379 -0.6480 -1.3469 -0.7902
  149TCq2    H3 2281   1.449   4.590  10.706  1.3870  0.3813 -0.5453
  149TCq2    H4 2282   1.519   4.435  10.318 -0.5479  0.1407 -1.0181
  150MPD2     C 2283   2.799   3.308  12.027 -0.3730  0.7821  0.5746
  150MPD2    C1 2284   2.802   3.337  11.895  0.4987  0.0919  0.4617
  150MPD2    C2 2285   2.912   3.386  11.840 -0.3814 -0.2906  0.3023
  150MPD2    C3 2286   3.028   3.399  11.908  0.1457 -0.2313  0.3994
  150MPD2    C4 2287   3.020   3.373  12.043  0.1137  0.8045  0.8370
  150MPD2    C5 2288   2.902   3.337  12.106  0.3342 -1.1609  0.5577
  150MPD2     H 2289   2.909   3.420  11.737  0.6329 -2.9257 -0.6088
  150MPD2    H1 2290   3.103   3.388  12.111  1.6159  3.3666 -1.5862
  150MPD2    H2 2291   2.710   3.268  12.075 -0.2525 -1.2762 -0.9184
  150MPD2    H3 2292   2.894   3.331  12.213 -1.1529 -0.8697  0.4619
  150MPD2     N 2293   3.132   3.473  11.856  0.2283 -0.4311 -0.4096
  150MPD2    H5 2294   3.105   3.529  11.776  1.9713  1.8969  0.6246
  150MPD2    N1 2295   2.685   3.300  11.820 -0.2154  0.0393 -0.1907
  150MPD2    H7 2296   2.606   3.269  11.875 -0.5883  2.7682  0.8239
  151TCq2    C1 2297   3.253   3.476  11.913  0.7000  0.0296  0.6871
  151TCq2    O2 2298   3.301   3.401  11.997 -0.2486 -0.2977 -0.0879
  151TCq2    C2 2299   3.338   3.580  11.859  0.2353  0.1742  0.0684
  151TCq2    C3 2300   3.322   3.611  11.725 -0.2181  0.2083 -0.5930
  151TCq2    C4 2301   3.393   3.716  11.673  0.3613  0.9073 -0.3313
  151TCq2    C5 2302   3.474   3.782  11.757 -0.0194 -0.1450 -0.9009
  151TCq2    C6 2303   3.488   3.755  11.895 -0.2770  0.8368  0.0431
  151TCq2    C7 2304   3.425   3.640  11.946  0.1996  0.4129  0.1164
  151TCq2    C8 2305   3.613   3.790  11.964 -0.1072 -0.5490  0.1767
  151TCq2    O4 2306   3.674   3.891  11.924 -0.2365 -0.0102 -0.3077
  151TCq2    C9 2307   3.389   3.740  11.533  0.0225 -0.1635  0.1172
  151TCq2    O5 2308   3.460   3.837  11.483 -0.4256  0.5565 -0.1840
  151TCq2    O6 2309   3.329   3.659  11.462  0.0021 -0.9196  0.0788
  151TCq2    H2 2310   3.253   3.557  11.660 -1.4539 -0.4474  1.2607
  151TCq2    H3 2311   3.523   3.866  11.710  3.1613 -1.0035  0.9067
  151TCq2    H4 2312   3.418   3.611  12.051 -2.5951 -2.3360 -0.8198
  152MPD2     C 2313   2.920   2.715  12.261 -0.0169  0.0413  0.2458
  152MPD2    C1 2314   2.925   2.849  12.285 -0.8253 -0.1391  0.1913
  152MPD2    C2 2315   2.808   2.914  12.291 -0.2447  0.4658 -0.0582
  152MPD2    C3 2316   2.689   2.842  12.293  0.3881 -0.1783  1.1333
  152MPD2    C4 2317   2.691   2.702  12.290 -0.1770  1.0615  0.1897
  152MPD2    C5 2318   2.806   2.651  12.256 -0.2235 -0.5346 -0.2365
  152MPD2     H 2319   2.799   3.022  12.282 -0.7716  0.4472  0.2924
  152MPD2    H1 2320   2.596   2.649  12.289 -0.2682  1.1931  2.0368
  152MPD2    H2 2321   3.006   2.650  12.246 -0.5541 -1.0178  1.6643
  152MPD2    H3 2322   2.807   2.544  12.242  1.3401 -0.7259  1.3644
  152MPD2     N 2323   2.570   2.921  12.296  0.0030  0.4601 -0.5120
  152MPD2    H5 2324   2.566   3.022  12.299  1.3622  0.4974  0.1114
  152MPD2    N1 2325   3.047   2.909  12.280 -0.5973 -0.4396  0.1204
  152MPD2    H7 2326   3.134   2.860  12.265 -0.6680  0.4191 -3.2596
  153TCq2    C1 2327   3.069   3.039  12.313  0.3218  0.1335  0.0532
  153TCq2    O2 2328   2.992   3.121  12.359  0.7562  0.7453  0.6478
  153TCq2    C2 2329   3.206   3.082  12.293  0.2785  0.3920 -0.0531
  153TCq2    C3 2330   3.290   3.041  12.195 -0.2842 -0.7903  0.5670
  153TCq2    C4 2331   3.405   3.111  12.161 -0.3909 -0.5784 -0.4307
  153TCq2    C5 2332   3.442   3.223  12.225  0.5119  0.4830  0.4759
  153TCq2    C6 2333   3.349   3.273  12.316 -0.0165  0.0803  0.3505
  153TCq2    C7 2334   3.238   3.201  12.352  0.4438  0.6747  0.5897
  153TCq2    C8 2335   3.345   3.415  12.353 -0.3590 -0.6203  0.6723
  153TCq2    O4 2336   3.230   3.464  12.365 -0.0569  0.1317 -0.3161
  153TCq2    C9 2337   3.498   3.050  12.076  0.0729  0.3709  0.0112
  153TCq2    O5 2338   3.494   2.923  12.068  0.3927 -0.1320  0.4008
  153TCq2    O6 2339   3.575   3.130  12.011 -0.1389  0.1824  0.1461
  153TCq2    H2 2340   3.269   2.951  12.138  3.1387 -0.7492 -0.7292
  153TCq2    H3 2341   3.532   3.274  12.192 -0.0416  0.1000 -1.6187
  153TCq2    H4 2342   3.177   3.255  12.423  0.8228  0.9032  0.7410
  154MPD2     C 2343   0.043   3.034   0.062  0.1865 -0.1851  0.7684
  154MPD2    C1 2344   0.109   3.098   0.167 -0.5154  0.2297  0.6082
  154MPD2    C2 2345   0.024   3.173   0.254 -1.2118 -0.3984  0.3486
  154MPD2    C3 2346   4.604   3.186   0.224  0.3690 -0.4740  0.0584
  154MPD2    C4 2347   4.550   3.134   0.106  0.1182  1.2494  0.0682
  154MPD2    C5 2348   4.630   3.049   0.032 -0.8487 -0.0746  0.6946
  154MPD2     H 2349   0.062   3.234   0.335 -0.4371 -1.9836  1.1611
  154MPD2    H1 2350   4.445   3.139   0.081 -0.1072  0.3114  0.8164
  154MPD2    H2 2351   0.096   2.970  17.672  0.4920  0.3385  0.5202
  154MPD2    H3 2352   4.573   2.993  17.639 -0.0253 -0.3663  0.2870
  154MPD2     N 2353   4.524   3.252   0.326  0.2238 -0.0944  0.0090
  154MPD2    H5 2354   4.572   3.276   0.412  0.9540 -0.1265 -0.3879
  154MPD2    N1 2355   0.249   3.082   0.174 -0.0205  0.4405 -0.4696
  154MPD2    H7 2356   0.300   3.049   0.093  0.9259 -1.0614  0.7428
  155TCq2    C1 2357   0.329   3.132   0.278  0.2719  0.7036 -0.6606
  155TCq2    O2 2358   0.289   3.208   0.362 -0.1975  0.8789  0.2481
  155TCq2    C2 2359   0.469   3.150   0.226  0.1058  0.5784 -0.0751
  155TCq2    C3 2360   0.519   3.282   0.239  0.2845  0.3473 -1.2446
  155TCq2    C4 2361   0.635   3.313   0.171  0.8138  0.3831  0.2160
  155TCq2    C5 2362   0.692   3.223   0.083  0.5715  0.5472 -0.7764
  155TCq2    C6 2363   0.634   3.099   0.067  0.3295  0.1155  0.1597
  155TCq2    C7 2364   0.526   3.055   0.144  0.2034 -0.5226 -0.1197
  155TCq2    C8 2365   0.703   3.002  17.671  0.3536 -0.4425  0.3547
  155TCq2    O4 2366   0.823   3.021  17.657 -0.1530 -0.7038  0.3460
  155TCq2    C9 2367   0.710   3.435   0.188 -0.6615 -0.7668 -0.1585
  155TCq2    O5 2368   0.656   3.523   0.248  0.1238 -0.1327 -0.2532
  155TCq2    O6 2369   0.832   3.428   0.157  0.1120 -0.3473 -0.5839
  155TCq2    H2 2370   0.475   3.362   0.297  0.3120 -1.2239  0.9460
  155TCq2    H3 2371   0.783   3.249   0.029 -0.1786  3.2080 -0.7584
  155TCq2    H4 2372   0.490   2.953   0.147 -2.1818  0.3099 -0.0276
  156MPD2     C 2373   3.173   0.996  10.788 -0.0322  0.2024  0.0806
  156MPD2    C1 2374   3.156   1.133  10.772 -0.4362  0.2621 -0.7472
  156MPD2    C2 2375   3.162   1.209  10.894 -0.3445 -0.7561  0.3264
  156MPD2    C3 2376   3.175   1.156  11.017 -0.8598  0.2900 -0.4257
  156MPD2    C4 2377   3.189   1.023  11.031 -0.1319  0.3143  0.2503
  156MPD2    C5 2378   3.181   0.946  10.918  0.0505 -0.1931  0.0238
  156MPD2     H 2379   3.150   1.316  10.886 -0.2716 -0.8343 -0.9091
  156MPD2    H1 2380   3.196   0.981  11.130  0.4631  1.2422  0.6029
  156MPD2    H2 2381   3.160   0.925  10.707 -1.9493  2.5794 -1.6954
  156MPD2    H3 2382   3.207   0.842  10.932 -1.0119 -0.0150  3.2989
  156MPD2     N 2383   3.136   1.243  11.126 -0.2397 -0.4877  0.1762
  156MPD2    H5 2384   3.101   1.333  11.097  0.4161  1.1667  4.4502
  156MPD2    N1 2385   3.134   1.187  10.646 -0.4071 -0.1113 -0.4502
  156MPD2    H7 2386   3.151   1.125  10.568  1.2536 -0.6622  0.3238
  157TCq2    C1 2387   3.102   1.313  10.628  0.2176  0.0582 -0.5123
  157TCq2    O2 2388   3.055   1.398  10.704 -0.1713  0.6453 -0.5907
  157TCq2    C2 2389   3.059   1.336  10.490  0.1221  0.2063 -0.0814
  157TCq2    C3 2390   2.970   1.249  10.435  0.2512 -0.1073  0.2501
  157TCq2    C4 2391   2.880   1.295  10.339  0.3454 -0.2039  0.1545
  157TCq2    C5 2392   2.886   1.428  10.304  0.4244 -0.2538  0.1594
  157TCq2    C6 2393   2.980   1.506  10.360  0.5012 -0.2987  0.6816
  157TCq2    C7 2394   3.066   1.466  10.453  0.2102  0.2336  0.6156
  157TCq2    C8 2395   2.979   1.652  10.350  0.2244  0.0746  0.5222
  157TCq2    O4 2396   3.088   1.702  10.369  0.2266 -0.5342  0.2763
  157TCq2    C9 2397   2.780   1.205  10.282 -0.3791  0.2435 -0.0996
  157TCq2    O5 2398   2.785   1.086  10.324  0.0179 -0.0796 -0.0193
  157TCq2    O6 2399   2.680   1.254  10.226  0.2747  0.1323 -0.1434
  157TCq2    H2 2400   2.964   1.145  10.464 -1.4904  0.3703  1.6491
  157TCq2    H3 2401   2.809   1.462  10.236  1.3486  0.3383 -0.5949
  157TCq2    H4 2402   3.134   1.533  10.505  0.2799  0.4197  0.2860
  158TMC2    C1 2403   3.536   0.300  13.383 -0.0510 -0.2727  0.4400
  158TMC2    C2 2404   3.574   0.402  13.301  0.2457 -0.3439  0.0384
  158TMC2    C3 2405   3.483   0.499  13.274  0.2470  0.1769  0.5082
  158TMC2    C4 2406   3.405   0.281  13.414  0.2809  0.1235  0.1091
  158TMC2    C5 2407   3.312   0.382  13.373 -0.2045 -0.3966 -0.5044
  158TMC2    C6 2408   3.347   0.490  13.308  0.0696  0.4728 -0.0128
  158TMC2     C 2409   3.637   0.201  13.414  0.0320 -0.2978 -0.6660
  158TMC2     O 2410   3.735   0.198  13.339 -0.0385  0.2453  0.0357
  158TMC2     H 2411   3.677   0.420  13.271  0.5533 -3.4584 -0.7745
  158TMC2    H1 2412   3.372   0.201  13.479  1.7369 -2.5396 -2.4250
  158TMC2    H2 2413   3.279   0.574  13.301 -1.2747 -0.4647  1.6648
  158TMC2    C7 2414   3.171   0.345  13.369  0.0798 -0.0536  0.2683
  158TMC2    C8 2415   3.506   0.620  13.195 -0.1084  0.5317 -0.2597
  158TMC2    O1 2416   3.111   0.391  13.273  0.1394  0.0064  0.3313
  158TMC2    O2 2417   3.441   0.727  13.195  0.0677 -0.5585 -0.0879
  158TMC2    O5 2418   3.576   0.567  13.094  0.9375  0.5354 -0.0447
  158TMC2    H5 2419   3.586   0.470  13.101 -2.7792  0.0253 -1.9300
  159MPD2     C 2420   3.863   4.566  13.685  0.0509  0.1366 -0.2917
  159MPD2    C1 2421   3.749   4.605  13.754 -0.8121 -0.1233 -0.2845
  159MPD2    C2 2422   3.654   4.680  13.686 -0.3855 -0.4124  0.4398
  159MPD2    C3 2423   3.688   0.016  13.564  0.0649  0.6340 -0.2078
  159MPD2    C4 2424   3.802   4.696  13.499  0.1523  0.5150  0.7950
  159MPD2    C5 2425   3.883   4.607  13.556 -0.1914 -0.3168  0.1370
  159MPD2     H 2426   3.562   4.718  13.730 -0.7819 -0.5637 -0.2616
  159MPD2    H1 2427   3.828   0.006  13.398 -1.6823 -0.9178 -0.0975
  159MPD2    H2 2428   3.935   4.506  13.739 -0.1248 -0.1473 -0.3700
  159MPD2    H3 2429   3.959   4.569  13.488 -2.1516 -2.2868 -0.9580
  159MPD2     N 2430   3.604   0.123  13.523 -0.0746  0.0083 -0.1058
  159MPD2    H5 2431   3.527   0.136  13.588  1.0645 -0.3526  1.2962
  159MPD2    N1 2432   3.725   4.556  13.883 -0.0238  0.1224 -0.0288
  159MPD2    H7 2433   3.790   4.485  13.914 -0.7229  0.0347  1.2295
  160TMC2    C1 2434   3.689   1.861   1.465 -0.7006  0.6004  0.1842
  160TMC2    C2 2435   3.792   1.870   1.558 -0.1753 -0.7581 -0.6133
  160TMC2    C3 2436   3.882   1.971   1.545  0.0822  0.7058 -0.0255
  160TMC2    C4 2437   3.685   1.960   1.366  0.5218  0.2094 -0.5774
  160TMC2    C5 2438   3.780   2.058   1.360 -0.3298 -0.1024  0.0189
  160TMC2    C6 2439   3.880   2.070   1.453 -0.3371 -0.3597  0.7854
  160TMC2     C 2440   3.574   1.779   1.484  0.6494  0.1351  0.5820
  160TMC2     O 2441   3.586   1.673   1.536  0.1000  0.3555  0.2309
  160TMC2     H 2442   3.800   1.797   1.637 -0.9526  0.5623  0.6778
  160TMC2    H1 2443   3.609   1.959   1.289 -0.3684  1.2639  0.2781
  160TMC2    H2 2444   3.957   2.147   1.452  0.6004 -1.3136 -0.5204
  160TMC2    C7 2445   3.741   2.166   1.269 -0.3701  0.2851  0.1566
  160TMC2    C8 2446   3.980   1.975   1.645  0.9592  0.1675 -0.1086
  160TMC2    O1 2447   3.623   2.171   1.235 -0.1135 -0.4545 -0.2120
  160TMC2    O2 2448   4.025   2.068   1.708 -0.5308 -0.3055 -0.1965
  160TMC2    O5 2449   4.028   1.854   1.655 -0.4627 -0.4480 -0.4413
  160TMC2    H5 2450   3.995   1.793   1.585  0.3036 -1.0670 -0.2580
  161MPD2     C 2451   3.296   1.663   1.448 -0.1990  0.4717  0.5885
  161MPD2    C1 2452   3.333   1.792   1.413  0.0914 -0.3538  0.0862
  161MPD2    C2 2453   3.245   1.874   1.355  0.0347  0.3091  0.2161
  161MPD2    C3 2454   3.111   1.832   1.331  0.0019 -0.3383  0.3716
  161MPD2    C4 2455   3.075   1.704   1.380  0.0027  0.2313 -0.2714
  161MPD2    C5 2456   3.163   1.621   1.433  0.2395  0.4065  0.3647
  161MPD2     H 2457   3.272   1.978   1.345 -3.2210  1.3336  1.9742
  161MPD2    H1 2458   2.974   1.665   1.374  0.8479 -1.5645 -2.6288
  161MPD2    H2 2459   3.362   1.590   1.493 -0.9432 -0.9841 -0.6682
  161MPD2    H3 2460   3.140   1.523   1.473 -0.0840  0.9806  1.5915
  161MPD2     N 2461   3.020   1.912   1.261  0.0959  0.6213  0.1048
  161MPD2    H5 2462   2.923   1.882   1.253  0.1940  0.9182 -2.2109
  161MPD2    N1 2463   3.467   1.840   1.432 -0.8638  0.1299  0.4301
  161MPD2    H7 2464   3.479   1.940   1.415 -1.6486 -0.1217 -1.6774
  162TMC2    C1 2465   1.587   3.542   1.438  0.7002 -0.2591  0.0648
  162TMC2    C2 2466   1.573   3.425   1.499 -0.5048 -0.3532  0.3061
  162TMC2    C3 2467   1.609   3.408   1.633  0.0562 -0.0656 -0.3315
  162TMC2    C4 2468   1.626   3.655   1.513  0.5557  0.2632 -0.5325
  162TMC2    C5 2469   1.660   3.634   1.641  0.3782 -0.5964  0.5154
  162TMC2    C6 2470   1.655   3.512   1.699 -0.0347  0.2409 -0.0350
  162TMC2     C 2471   1.618   3.553   1.295 -0.2286  0.1192  0.1244
  162TMC2     O 2472   1.670   3.463   1.235 -0.1771 -0.2469  0.4039
  162TMC2     H 2473   1.536   3.344   1.437 -1.8469 -0.3899  1.1590
  162TMC2    H1 2474   1.635   3.759   1.484  0.4354  0.7821  1.2607
  162TMC2    H2 2475   1.694   3.494   1.799  0.2226 -2.1333 -0.5670
  162TMC2    C7 2476   1.725   3.742   1.712 -0.2767  0.2130  0.0703
  162TMC2    C8 2477   1.603   3.274   1.689  0.2902  0.6379  0.0370
  162TMC2    O1 2478   1.789   3.828   1.654 -0.5449 -0.3384  0.7435
  162TMC2    O2 2479   1.567   3.186   1.613 -0.1358  0.1089  0.2504
  162TMC2    O5 2480   1.542   3.302   1.806  0.4121  0.6756  0.2221
  162TMC2    H5 2481   1.542   3.398   1.822 -0.5393  0.4695  1.4901
  163MPD2     C 2482   1.690   3.871   0.895 -0.2897  0.8810  0.2982
  163MPD2    C1 2483   1.750   3.750   0.927 -0.0556 -0.9097 -0.7792
  163MPD2    C2 2484   1.712   3.673   1.041 -0.1569 -0.3763  0.2339
  163MPD2    C3 2485   1.622   3.735   1.134  0.7635 -0.2889  0.7668
  163MPD2    C4 2486   1.568   3.856   1.100 -0.2129  0.5939 -0.4763
  163MPD2    C5 2487   1.593   3.920   0.978  0.3927 -0.5889  0.1896
  163MPD2     H 2488   1.765   3.583   1.071  0.2272 -0.3900 -0.5015
  163MPD2    H1 2489   1.494   3.911   1.157  1.0513  0.2681  1.4810
  163MPD2    H2 2490   1.721   3.925   0.806  1.9061  0.2137  0.6524
  163MPD2    H3 2491   1.547   4.013   0.944  1.8458 -0.3643 -1.1810
  163MPD2     N 2492   1.576   3.679   1.254 -0.2826 -0.1674  0.5277
  163MPD2    H5 2493   1.514   3.739   1.306 -0.5786 -0.0198 -0.0035
  163MPD2    N1 2494   1.847   3.708   0.830 -0.2203  0.5229  0.4424
  163MPD2    H7 2495   1.850   3.765   0.746 -0.3655 -2.0804 -1.3067
  164TCq2    C1 2496   1.986   3.957  11.019 -0.2481  0.4140  0.1583
  164TCq2    O2 2497   1.906   3.919  11.102  0.0942 -0.4842 -0.0630
  164TCq2    C2 2498   1.984   4.104  11.007  0.0395 -0.3957 -0.3610
  164TCq2    C3 2499   2.060   4.169  10.913  0.2513  0.4316  0.1533
  164TCq2    C4 2500   2.037   4.300  10.878  0.0657 -0.1077  1.0157
  164TCq2    C5 2501   1.933   4.371  10.936  0.1396  1.2048 -0.2057
  164TCq2    C6 2502   1.861   4.308  11.031  1.0138  0.2523  0.7692
  164TCq2    C7 2503   1.887   4.180  11.068 -0.1408  0.6015  0.5964
  164TCq2    C8 2504   1.739   4.380  11.082  0.4733  0.3683  0.4004
  164TCq2    O4 2505   1.703   4.487  11.036 -0.0437 -0.7618 -0.0398
  164TCq2    C9 2506   2.125   4.364  10.797 -0.4987  0.4436 -0.1609
  164TCq2    O5 2507   2.193   4.305  10.711 -0.0914 -0.0275 -0.3269
  164TCq2    O6 2508   2.106   4.493  10.790 -0.2287  0.1179 -0.4109
  164TCq2    H2 2509   2.143   4.117  10.867  1.0586 -0.6138  2.7706
  164TCq2    H3 2510   1.914   4.474  10.909 -3.3226  1.3559  2.8080
  164TCq2    H4 2511   1.811   4.136  11.132 -0.0989 -1.5458 -0.8225
  165MPD2     C 2512   1.940   1.350   0.474 -0.0550  0.1143 -0.0833
  165MPD2    C1 2513   2.006   1.315   0.588  0.5057 -0.5170  0.1163
  165MPD2    C2 2514   2.111   1.389   0.622  0.6546 -0.0998  0.3573
  165MPD2    C3 2515   2.149   1.497   0.539  0.3044  0.6726  0.1209
  165MPD2    C4 2516   2.089   1.520   0.419  0.0311  0.0584 -1.0487
  165MPD2    C5 2517   1.975   1.453   0.400  0.5355 -0.5598 -0.2913
  165MPD2     H 2518   2.165   1.359   0.711  1.0115 -0.2317  0.0986
  165MPD2    H1 2519   2.115   1.603   0.354  0.5919  0.6537 -0.0669
  165MPD2    H2 2520   1.845   1.303   0.450  0.3589 -0.9072  0.2955
  165MPD2    H3 2521   1.910   1.482   0.318  0.9454 -1.0434 -0.7850
  165MPD2     N 2522   2.240   1.588   0.582  0.5027  0.2296  0.0078
  165MPD2    H5 2523   2.262   1.657   0.512  1.1982  1.0351  1.0192
  165MPD2    N1 2524   1.945   1.218   0.675  0.2330  0.3926 -0.9686
  165MPD2    H7 2525   1.850   1.188   0.655  0.2017  0.9660 -1.6944
  166TCq2    C1 2526   2.287   1.601   0.706 -0.1924  0.4739  0.8661
  166TCq2    O2 2527   2.292   1.514   0.794 -0.3811  0.7015 -0.7009
  166TCq2    C2 2528   2.370   1.718   0.726  0.4343 -0.6222  0.3714
  166TCq2    C3 2529   2.359   1.824   0.640 -0.2854  0.5550  0.0024
  166TCq2    C4 2530   2.470   1.906   0.625 -0.0480 -0.3635 -1.0564
  166TCq2    C5 2531   2.586   1.900   0.701 -0.0548  0.1262 -0.5584
  166TCq2    C6 2532   2.594   1.795   0.785 -0.1033 -0.1046  0.5842
  166TCq2    C7 2533   2.486   1.706   0.794 -0.3815  0.3485 -0.0880
  166TCq2    C8 2534   2.724   1.773   0.851  0.2686  0.4329 -0.0722
  166TCq2    O4 2535   2.812   1.855   0.836 -0.5285 -0.0284 -0.0358
  166TCq2    C9 2536   2.456   2.022   0.542 -0.0506 -0.0858  0.3540
  166TCq2    O5 2537   2.384   2.000   0.439 -0.4949  0.3968  0.2359
  166TCq2    O6 2538   2.530   2.121   0.565  0.4535 -0.2036 -0.1786
  166TCq2    H2 2539   2.267   1.832   0.582  1.2122 -0.3997 -2.4905
  166TCq2    H3 2540   2.663   1.976   0.696  0.8060 -0.8881 -2.7623
  166TCq2    H4 2541   2.496   1.619   0.858 -3.3424  0.5342  0.6557
  167TMC2    C1 2542   0.738   4.036  12.917 -0.7045  0.3424  0.1348
  167TMC2    C2 2543   0.658   4.054  13.023 -0.2292 -0.0474  0.2449
  167TMC2    C3 2544   0.600   3.950  13.090 -0.6002 -0.3635 -0.3013
  167TMC2    C4 2545   0.759   3.909  12.870 -0.0656 -0.2778  0.2533
  167TMC2    C5 2546   0.697   3.804  12.938  0.3447 -0.2590  0.7803
  167TMC2    C6 2547   0.616   3.823  13.052 -0.1664  0.5087 -0.1862
  167TMC2     C 2548   0.810   4.150  12.863 -0.8197  0.3107  0.4350
  167TMC2     O 2549   0.756   4.260  12.881  0.5675 -0.3932  0.6187
  167TMC2     H 2550   0.638   4.156  13.056  1.8246  0.7451 -0.9906
  167TMC2    H1 2551   0.804   3.887  12.774  2.9396 -0.4305  1.6822
  167TMC2    H2 2552   0.579   3.735  13.103  2.3014 -0.2137  0.3791
  167TMC2    C7 2553   0.695   3.671  12.884  0.2068  0.7712 -0.0221
  167TMC2    C8 2554   0.498   3.967  13.187  1.3885 -0.1185 -0.4026
  167TMC2    O1 2555   0.593   3.605  12.898  0.5310 -0.3064 -0.0208
  167TMC2    O2 2556   0.479   3.866  13.257  0.6523  0.2569 -0.3854
  167TMC2    O5 2557   0.398   4.039  13.126 -0.0665  0.2692 -0.3224
  167TMC2    H5 2558   0.419   4.107  13.058 -0.1262 -0.9813 -1.5916
  168MPD2     C 2559   0.980   4.320  12.681 -0.7108  0.0604 -0.7414
  168MPD2    C1 2560   0.962   4.186  12.668 -0.7258  0.9755  0.8194
  168MPD2    C2 2561   1.011   4.116  12.560  0.4586  0.1800 -0.0658
  168MPD2    C3 2562   1.080   4.172  12.450  0.5329  0.1098 -0.4745
  168MPD2    C4 2563   1.092   4.311  12.460 -0.2821 -0.2521 -0.1656
  168MPD2    C5 2564   1.037   4.374  12.570 -0.3778  0.1831 -0.7093
  168MPD2     H 2565   0.991   4.010  12.555 -1.0909  0.4975 -0.5705
  168MPD2    H1 2566   1.138   4.371  12.382 -1.1328  0.4831 -0.1073
  168MPD2    H2 2567   0.944   4.378  12.766 -0.1127  0.1744 -0.5658
  168MPD2    H3 2568   1.044   4.482  12.567  0.9248  0.1282  0.2303
  168MPD2     N 2569   1.128   4.098  12.336 -0.2840 -0.1746 -0.3932
  168MPD2    H5 2570   1.173   4.155  12.264  0.8133 -0.5768 -0.0184
  168MPD2    N1 2571   0.907   4.108  12.773 -0.2629  0.0965 -0.4183
  168MPD2    H7 2572   0.921   4.008  12.768  0.3954  0.0977  1.4753
  169MPD1     C 2573   3.645   2.897  10.070  0.5488  0.6214  0.4762
  169MPD1    C1 2574   3.579   2.861   9.957 -0.2165  0.5210  0.7009
  169MPD1    C2 2575   3.651   2.837   9.839 -0.8673 -0.4896 -0.0961
  169MPD1    C3 2576   3.787   2.835   9.839  0.1099 -0.5676 -0.5110
  169MPD1    C4 2577   3.853   2.870   9.957  0.0892 -0.1567  0.1063
  169MPD1    C5 2578   3.784   2.897  10.073  0.1676 -0.5716 -0.3727
  169MPD1     H 2579   3.597   2.816   9.747 -0.7763 -0.7186 -0.0984
  169MPD1    H1 2580   3.961   2.877   9.964  0.4161 -1.1132 -3.7901
  169MPD1    H2 2581   3.599   2.931  10.162  0.9342  0.6207  0.6677
  169MPD1    H3 2582   3.832   2.939  10.161 -0.8478  0.6310 -0.3890
  169MPD1     N 2583   3.860   2.828   9.714 -0.0089 -0.4340 -0.2232
  169MPD1    H5 2584   3.813   2.789   9.633  1.7191 -0.7628 -1.0532
  169MPD1    N1 2585   3.435   2.876   9.962  0.0138 -0.2015  0.3248
  169MPD1    H6 2586   3.399   2.847  10.052 -3.5907  0.0203 -1.0248
  169MPD1    H7 2587   3.390   2.813   9.895  0.1920  1.7612 -1.6710
  170MPD1     C 2588   1.727   0.984  12.969 -0.3283  0.2008  0.5959
  170MPD1    C1 2589   1.752   1.104  12.897  0.4399  0.4792  0.0249
  170MPD1    C2 2590   1.754   1.221  12.971  0.1418 -0.0750 -0.6541
  170MPD1    C3 2591   1.744   1.225  13.110  0.6147  0.1355  0.2617
  170MPD1    C4 2592   1.736   1.105  13.182 -0.3241 -0.0794 -0.3566
  170MPD1    C5 2593   1.716   0.990  13.109 -0.7168  0.4513  0.3396
  170MPD1     H 2594   1.748   1.313  12.915  0.4210  0.9134  0.9631
  170MPD1    H1 2595   1.716   1.107  13.289 -1.4367  1.1985 -0.5838
  170MPD1    H2 2596   1.716   0.887  12.922  0.3956  0.7657 -0.7661
  170MPD1    H3 2597   1.699   0.900  13.167 -1.9497 -0.2526 -1.1177
  170MPD1     N 2598   1.728   1.351  13.174  0.2993 -0.1993  0.2762
  170MPD1    H5 2599   1.728   1.430  13.110  1.3861 -0.9774 -0.6931
  170MPD1    N1 2600   1.743   1.101  12.754 -0.1288 -0.2800  0.4456
  170MPD1    H6 2601   1.780   1.013  12.718 -0.1352 -0.2520  0.3708
  170MPD1    H7 2602   1.781   1.183  12.708  0.2338  0.4717  2.1043
  171MPD1     C 2603   1.172   3.142  15.400 -0.5080 -0.1757  0.0272
  171MPD1    C1 2604   1.085   3.128  15.506  0.5353 -0.4364 -0.0916
  171MPD1    C2 2605   1.044   3.003  15.538 -0.4798 -0.4125  0.9850
  171MPD1    C3 2606   1.085   2.889  15.476 -0.0636 -0.5147 -0.4247
  171MPD1    C4 2607   1.179   2.905  15.372 -0.1593 -0.4372 -0.1717
  171MPD1    C5 2608   1.220   3.033  15.335  0.2583  0.2075 -0.0245
  171MPD1     H 2609   0.971   2.991  15.617 -0.6778 -1.1952  0.6877
  171MPD1    H1 2610   1.216   2.824  15.311  1.1128 -1.6164  2.1731
  171MPD1    H2 2611   1.206   3.242  15.375 -0.9670  0.4727  1.9658
  171MPD1    H3 2612   1.294   3.048  15.257 -1.1802 -0.9767 -1.6076
  171MPD1     N 2613   1.040   2.766  15.523  0.0803  0.0173 -1.0661
  171MPD1    H5 2614   0.983   2.779  15.606  1.6110 -0.7655  0.1028
  171MPD1    N1 2615   1.018   3.243  15.558  0.9053 -0.0685  0.3343
  171MPD1    H6 2616   1.063   3.328  15.525 -0.1038  0.7691  1.1076
  171MPD1    H7 2617   1.022   3.256  15.659 -0.0645  1.4226  0.1928
  172MPD1     C 2618   3.854   2.332   0.354  0.2798 -0.0129 -1.1602
  172MPD1    C1 2619   3.958   2.254   0.405  0.0913  0.4446  0.5532
  172MPD1    C2 2620   4.075   2.236   0.328  0.5043  0.2402 -0.1057
  172MPD1    C3 2621   4.090   2.313   0.210  0.2231  0.2571  0.3536
  172MPD1    C4 2622   3.984   2.400   0.173  0.3522 -0.6722  0.1574
  172MPD1    C5 2623   3.865   2.408   0.240  0.2735 -0.6533 -0.1535
  172MPD1     H 2624   4.159   2.192   0.380  1.1430  1.7318  0.1171
  172MPD1    H1 2625   4.002   2.459   0.083 -1.1666  0.8239  0.8308
  172MPD1    H2 2626   3.758   2.334   0.404  1.2486  3.6858  0.5274
  172MPD1    H3 2627   3.790   2.479   0.208 -0.1620  0.3459  3.1239
  172MPD1     N 2628   4.206   2.323   0.133 -0.1704  0.1212 -0.1591
  172MPD1    H5 2629   4.214   2.384   0.052 -0.0654  0.5318  0.1559
  172MPD1    N1 2630   3.932   2.166   0.514  0.1290 -0.0361  0.5372
  172MPD1    H6 2631   4.024   2.130   0.537  0.9541  1.5327 -0.3251
  172MPD1    H7 2632   3.885   2.207   0.594  0.8484 -0.8646  1.3802
  173MPD1     C 2633   0.980   2.174  14.671 -0.3295 -0.2213 -0.1623
  173MPD1    C1 2634   1.004   2.097  14.780 -0.1301  0.3104  0.9112
  173MPD1    C2 2635   1.032   1.965  14.753  0.1003  0.5052 -0.2259
  173MPD1    C3 2636   1.029   1.913  14.629 -0.0906 -0.4148 -0.6960
  173MPD1    C4 2637   0.996   1.992  14.523 -0.3509 -0.0542  0.0562
  173MPD1    C5 2638   0.980   2.125  14.549 -0.3788 -0.1327  0.7178
  173MPD1     H 2639   1.040   1.896  14.836  1.6506  0.8172 -0.1159
  173MPD1    H1 2640   0.987   1.953  14.422 -2.2936  1.4117 -0.3299
  173MPD1    H2 2641   0.960   2.281  14.674  0.8585 -0.0587  2.1938
  173MPD1    H3 2642   0.955   2.194  14.469 -0.7756 -2.2534 -0.9889
  173MPD1     N 2643   1.042   1.766  14.622  0.1111 -0.0346  0.6670
  173MPD1    H5 2644   1.041   1.717  14.711 -1.1197 -0.5016  0.3979
  173MPD1    N1 2645   1.011   2.152  14.908 -0.2818  0.2952  0.3808
  173MPD1    H6 2646   1.100   2.130  14.953 -0.9252  0.5823  1.7862
  173MPD1    H7 2647   1.005   2.253  14.909  1.5594  0.3674  2.3115
  174MPD1     C 2648   0.978   1.180  13.829 -0.5699 -0.3393  0.4360
  174MPD1    C1 2649   0.890   1.134  13.919 -0.1674  0.1948  0.5109
  174MPD1    C2 2650   0.898   1.178  14.047 -0.5196 -0.5306 -0.0340
  174MPD1    C3 2651   1.013   1.237  14.092 -0.2879  0.1444 -0.1714
  174MPD1    C4 2652   1.107   1.283  13.998  0.2190  0.6433  0.2833
  174MPD1    C5 2653   1.090   1.258  13.866  0.8738  0.9121 -0.0063
  174MPD1     H 2654   0.818   1.153  14.116 -0.7247  1.8069  0.5508
  174MPD1    H1 2655   1.198   1.335  14.024 -0.8066  3.4058 -1.6534
  174MPD1    H2 2656   0.973   1.159  13.723  1.0171  0.3224  0.2356
  174MPD1    H3 2657   1.149   1.306  13.789 -0.5744  1.3232 -0.8637
  174MPD1     N 2658   1.031   1.283  14.223 -0.2562  0.5740 -0.3256
  174MPD1    H5 2659   1.111   1.345  14.235 -0.2943  0.4629  0.5165
  174MPD1    N1 2660   0.771   1.080  13.870 -0.2389 -0.3334  0.6784
  174MPD1    H6 2661   0.718   1.023  13.935 -0.0756  0.8747  1.8806
  174MPD1    H7 2662   0.786   1.031  13.782  1.1738  0.7061  0.3392
  175MPD1     C 2663   0.250   3.162  15.394 -0.0258  0.4554 -0.1498
  175MPD1    C1 2664   0.141   3.249  15.397 -0.0032 -0.0603 -0.5670
  175MPD1    C2 2665   0.023   3.210  15.458  0.1497 -0.1405 -0.0173
  175MPD1    C3 2666   0.010   3.086  15.513  0.7871 -0.7094  0.7471
  175MPD1    C4 2667   0.110   2.999  15.496  0.3624 -0.1041 -0.7649
  175MPD1    C5 2668   0.228   3.031  15.428 -0.2391  0.0875  0.7856
  175MPD1     H 2669   4.662   3.281  15.473 -0.0185 -0.0839 -1.1508
  175MPD1    H1 2670   0.096   2.900  15.538  0.5901 -0.8560 -2.4813
  175MPD1    H2 2671   0.353   3.176  15.364 -0.2991  1.9022 -0.4014
  175MPD1    H3 2672   0.304   2.955  15.409 -0.3876  0.4283 -1.2142
  175MPD1     N 2673   4.630   3.048  15.607 -0.2017 -0.1770 -0.3991
  175MPD1    H5 2674   4.637   2.958  15.654 -2.0901  0.3540  0.8901
  175MPD1    N1 2675   0.155   3.379  15.357 -0.5263  1.0845 -0.1427
  175MPD1    H6 2676   0.073   3.437  15.341 -0.7477  1.0584  0.8395
  175MPD1    H7 2677   0.221   3.389  15.281  2.6640  0.5738  2.5506
  176MPD1     C 2678   1.547   4.379   0.243 -0.3955 -0.1294  0.5048
  176MPD1    C1 2679   1.455   4.382   0.137  0.3158 -0.0171  0.2917
  176MPD1    C2 2680   1.493   4.439   0.016  0.3796  0.5931  0.3270
  176MPD1    C3 2681   1.629   4.475  17.676  0.0060 -0.1135  0.5669
  176MPD1    C4 2682   1.716   4.472   0.104 -0.6211 -0.0678 -0.9411
  176MPD1    C5 2683   1.676   4.425   0.227  0.1613  0.1913  0.3609
  176MPD1     H 2684   1.429   4.448  17.610  0.7350  1.6456  0.1703
  176MPD1    H1 2685   1.818   4.511   0.098 -0.4480 -0.7307 -2.2815
  176MPD1    H2 2686   1.532   4.331   0.339  2.3906 -0.7872  0.6194
  176MPD1    H3 2687   1.753   4.440   0.302  1.1358 -1.3595 -0.3286
  176MPD1     N 2688   1.660   4.516  17.542  0.0433 -0.3101 -0.5984
  176MPD1    H5 2689   1.583   4.536  17.480  1.6751  0.9919 -2.1992
  176MPD1    N1 2690   1.321   4.348   0.161  0.7604  0.4774 -0.6946
  176MPD1    H6 2691   1.279   4.311   0.076  2.5320 -1.6021 -0.6469
  176MPD1    H7 2692   1.317   4.269   0.225 -0.7515  1.5828  0.5890
  177MPD1     C 2693   4.549   3.651  10.549  0.4056  0.7483  0.6105
  177MPD1    C1 2694   4.651   3.732  10.490 -0.4353  0.0740 -0.2300
  177MPD1    C2 2695   4.613   3.837  10.406 -0.1514 -0.7248  0.1739
  177MPD1    C3 2696   4.476   3.860  10.374 -0.0400  0.1769  0.1207
  177MPD1    C4 2697   4.381   3.778  10.429 -0.5717 -0.1016  0.3038
  177MPD1    C5 2698   4.424   3.679  10.517  0.5364 -0.1551  0.0468
  177MPD1     H 2699   4.692   3.906  10.379 -0.9852  1.0067  2.1431
  177MPD1    H1 2700   4.274   3.792  10.419 -0.7075 -0.4083  1.3127
  177MPD1    H2 2701   4.556   3.567  10.616  0.2235 -0.5807 -1.0247
  177MPD1    H3 2702   4.350   3.607  10.549  0.7943  0.1111  1.2472
  177MPD1     N 2703   4.449   3.956  10.272  0.4000  0.8445 -0.2886
  177MPD1    H5 2704   4.525   4.002  10.223  1.7474 -0.4104  0.6368
  177MPD1    N1 2705   0.060   3.716  10.538  0.1074 -0.0694  0.1291
  177MPD1    H6 2706   0.134   3.742  10.473 -1.0421  0.4788 -0.9671
  177MPD1    H7 2707   0.073   3.617  10.557 -0.6600 -0.4255 -1.2306
  178MPD1     C 2708   2.226   0.939  17.461 -0.2571  0.0254  0.4113
  178MPD1    C1 2709   2.257   0.857  17.568  0.6730 -0.2904 -0.1926
  178MPD1    C2 2710   2.340   0.751  17.551 -0.2829  0.2068 -0.2797
  178MPD1    C3 2711   2.386   0.719  17.423  0.5186  0.2169  0.6857
  178MPD1    C4 2712   2.364   0.811  17.323  0.5230  0.2267  0.5418
  178MPD1    C5 2713   2.279   0.913  17.342  0.2915 -0.4733  0.3116
  178MPD1     H 2714   2.356   0.687  17.637  3.2125 -1.0539 -1.8548
  178MPD1    H1 2715   2.422   0.817  17.232  1.0315 -0.3975  0.8241
  178MPD1    H2 2716   2.162   1.025  17.479 -1.7225 -0.7792 -1.0079
  178MPD1    H3 2717   2.269   0.972  17.251  2.5562  0.4083  0.6383
  178MPD1     N 2718   2.452   0.600  17.398  0.7795  0.0921 -0.3077
  178MPD1    H5 2719   2.466   0.570  17.302  0.8503 -2.1895  0.4158
  178MPD1    N1 2720   2.204   0.875   0.017 -0.0628 -0.3621 -0.0260
  178MPD1    H6 2721   2.269   0.834   0.084 -0.2280 -0.8115 -0.1429
  178MPD1    H7 2722   2.195   0.975   0.037  0.3947  0.3348 -3.3305
  179MPD1     C 2723   2.147   3.756  15.770  0.7953 -0.7599  0.5217
  179MPD1    C1 2724   2.153   3.617  15.761 -0.4665  0.2355 -0.7403
  179MPD1    C2 2725   2.026   3.558  15.771 -0.1149 -0.2072  0.2276
  179MPD1    C3 2726   1.908   3.627  15.794  0.3569  0.0965 -0.2079
  179MPD1    C4 2727   1.906   3.764  15.811  0.4195 -0.0947 -0.6646
  179MPD1    C5 2728   2.034   3.818  15.796  0.3944 -0.5432  0.5056
  179MPD1     H 2729   2.031   3.451  15.752 -0.3157 -0.2970  0.6912
  179MPD1    H1 2730   1.815   3.818  15.830  1.5527  1.6848 -0.3518
  179MPD1    H2 2731   2.236   3.817  15.756  1.4742 -2.0144 -0.5581
  179MPD1    H3 2732   2.046   3.925  15.808  0.6405 -0.7328  1.9214
  179MPD1     N 2733   1.776   3.565  15.806 -0.1383 -0.6837 -0.0040
  179MPD1    H5 2734   1.692   3.622  15.816  0.5149  0.1248  0.7884
  179MPD1    N1 2735   2.266   3.546  15.716  0.0830 -0.6846  0.6869
  179MPD1    H6 2736   2.258   3.458  15.766  0.5582 -0.9324  0.3225
  179MPD1    H7 2737   2.348   3.590  15.756 -0.0038  0.6943 -0.6678
  180MPD1     C 2738   2.187   0.606  15.065 -0.1577 -0.6917  0.7612
  180MPD1    C1 2739   2.106   0.490  15.066  0.6547 -0.2975 -0.7149
  180MPD1    C2 2740   1.987   0.501  14.996  0.3421  0.1723 -0.8938
  180MPD1    C3 2741   1.940   0.623  14.944  0.2150 -0.1038  0.8412
  180MPD1    C4 2742   2.012   0.736  14.976 -0.0132  0.3753 -0.1680
  180MPD1    C5 2743   2.136   0.730  15.034 -0.7857  0.3494  0.6498
  180MPD1     H 2744   1.931   0.409  14.987 -2.1277  1.5814  0.2081
  180MPD1    H1 2745   1.988   0.838  14.950  1.1396  1.5600  3.4560
  180MPD1    H2 2746   2.294   0.598  15.084 -0.1231 -4.3050 -1.0454
  180MPD1    H3 2747   2.195   0.821  15.037  0.5078 -0.5276  1.8578
  180MPD1     N 2748   1.827   0.617  14.858 -0.3213  0.2322  0.3617
  180MPD1    H5 2749   1.775   0.530  14.852 -2.5450  1.4525  1.8065
  180MPD1    N1 2750   2.161   0.370  15.120  0.0368 -0.1346  0.5099
  180MPD1    H6 2751   2.209   0.383  15.209  0.6107 -0.2806  0.2210
  180MPD1    H7 2752   2.079   0.312  15.137 -1.1702  1.7702  1.1991
  181MPD1     C 2753   3.020   1.252   9.869  0.8380 -0.9799 -0.2211
  181MPD1    C1 2754   2.980   1.341   9.771 -0.2356 -0.5463  0.0155
  181MPD1    C2 2755   3.059   1.358   9.662  0.1101  0.1587 -0.5102
  181MPD1    C3 2756   3.183   1.306   9.664  0.2652 -0.2473 -0.3426
  181MPD1    C4 2757   3.234   1.230   9.768  0.2527  0.1261 -0.4026
  181MPD1    C5 2758   3.147   1.207   9.872 -0.1609  0.2631  0.2124
  181MPD1     H 2759   3.018   1.412   9.578 -1.6241 -0.5230 -0.0965
  181MPD1    H1 2760   3.334   1.188   9.774  0.4428  0.2808 -2.4897
  181MPD1    H2 2761   2.958   1.233   9.957  1.2845  0.6425  0.4403
  181MPD1    H3 2762   3.176   1.150   9.960  1.8374  0.1165 -0.5406
  181MPD1     N 2763   3.279   1.329   9.567  0.0525  0.3002  0.3270
  181MPD1    H5 2764   3.363   1.273   9.581 -0.6840 -0.6895  0.7697
  181MPD1    N1 2765   2.844   1.379   9.765  0.2787  0.2747 -0.2745
  181MPD1    H6 2766   2.800   1.402   9.854  1.1434 -2.4895  0.9030
  181MPD1    H7 2767   2.832   1.458   9.703  0.3815  0.2858 -0.2799
  182MPD1     C 2768   3.775   0.158   1.309  0.6611  0.2061 -0.3294
  182MPD1    C1 2769   3.893   0.129   1.239 -0.1680 -0.4192 -0.0713
  182MPD1    C2 2770   3.911   0.201   1.119  0.5686 -0.6164  0.5727
  182MPD1    C3 2771   3.817   0.290   1.067  0.1244 -0.2773  0.0479
  182MPD1    C4 2772   3.697   0.299   1.133  0.1398  0.0206 -0.6419
  182MPD1    C5 2773   3.680   0.236   1.251 -0.1425  0.2844 -0.0600
  182MPD1     H 2774   4.009   0.189   1.074  0.2392 -1.1207 -0.0050
  182MPD1    H1 2775   3.620   0.363   1.093 -0.8966 -1.5754 -1.1958
  182MPD1    H2 2776   3.778   0.121   1.411 -1.1049 -0.6773 -0.6031
  182MPD1    H3 2777   3.593   0.259   1.311  0.3636  1.9997  0.0305
  182MPD1     N 2778   3.822   0.349   0.938  1.1129 -0.6136  0.1487
  182MPD1    H5 2779   3.741   0.398   0.904  1.5073  0.1698  0.3343
  182MPD1    N1 2780   3.988   0.045   1.304  0.0622 -0.1172 -0.0170
  182MPD1    H6 2781   4.072   0.038   1.247 -1.6195 -1.3109 -2.3345
  182MPD1    H7 2782   3.960   4.667   1.319 -2.7397  0.4847 -1.3482
  183MPD1     C 2783   0.407   1.477   8.375  0.7976  0.2503 -0.1834
  183MPD1    C1 2784   0.346   1.595   8.409  0.4756 -0.4096 -0.5425
  183MPD1    C2 2785   0.335   1.633   8.544  0.1914 -0.1558 -0.0691
  183MPD1    C3 2786   0.359   1.532   8.638  0.5325  0.1338 -0.1538
  183MPD1    C4 2787   0.407   1.411   8.596 -0.2034 -0.1769 -0.0305
  183MPD1    C5 2788   0.432   1.381   8.465 -0.0956 -0.4942  0.4602
  183MPD1     H 2789   0.288   1.729   8.560 -1.0765 -0.8645  0.5003
  183MPD1    H1 2790   0.420   1.331   8.667 -1.1291 -0.4297 -0.1393
  183MPD1    H2 2791   0.412   1.448   8.270  1.4313  0.2483 -0.1513
  183MPD1    H3 2792   0.454   1.277   8.441  0.6981 -0.4490  0.9910
  183MPD1     N 2793   0.327   1.572   8.769  0.0124 -0.5303 -0.0386
  183MPD1    H5 2794   0.304   1.671   8.778  2.1616 -0.0109 -0.2591
  183MPD1    N1 2795   0.306   1.678   8.302 -0.2659  0.2752 -0.1891
  183MPD1    H6 2796   0.287   1.635   8.212  2.2384 -0.3085 -0.4486
  183MPD1    H7 2797   0.231   1.740   8.331  0.1032  1.0197 -0.8237
  184MPD1     C 2798   3.014   4.089   9.781 -0.2506 -0.1565  0.1410
  184MPD1    C1 2799   3.114   4.164   9.836 -0.3121 -0.6218 -0.1284
  184MPD1    C2 2800   3.242   4.153   9.786  0.7924 -0.2009 -0.0737
  184MPD1    C3 2801   3.273   4.054   9.696  0.3859  0.6687  0.2116
  184MPD1    C4 2802   3.172   3.968   9.655  0.1727  0.2960 -0.4597
  184MPD1    C5 2803   3.044   3.986   9.696  0.6469  0.0881 -0.4652
  184MPD1     H 2804   3.318   4.223   9.819  1.4782 -1.5701  1.2452
  184MPD1    H1 2805   3.200   3.882   9.595  2.3946 -0.3660  1.5137
  184MPD1    H2 2806   2.911   4.090   9.815 -0.7671  0.5774 -1.4241
  184MPD1    H3 2807   2.971   3.913   9.663  1.6221 -0.7020 -0.8915
  184MPD1     N 2808   3.405   4.027   9.657 -0.4033 -0.3022 -0.0419
  184MPD1    H5 2809   3.408   3.934   9.617  0.6315 -1.2699  2.3304
  184MPD1    N1 2810   3.080   4.254   9.937  0.7842 -0.8350 -0.1337
  184MPD1    H6 2811   3.154   4.264  10.007  0.9136  2.0268 -0.6809
  184MPD1    H7 2812   3.006   4.217   9.996 -3.7699  1.5907 -4.3450
  185MPD1     C 2813   3.538   3.338   9.258  0.6378 -0.0572 -0.3355
  185MPD1    C1 2814   3.630   3.409   9.193 -0.3602  0.6745  0.0150
  185MPD1    C2 2815   3.664   3.526   9.255  0.5862 -0.1246  0.3134
  185MPD1    C3 2816   3.619   3.564   9.379 -0.1400  0.3425  0.1764
  185MPD1    C4 2817   3.533   3.485   9.449 -0.2500  1.0539  0.1408
  185MPD1    C5 2818   3.490   3.374   9.378  0.0779 -1.0521 -0.5544
  185MPD1     H 2819   3.730   3.594   9.202  0.0418 -0.2407 -0.5089
  185MPD1    H1 2820   3.497   3.518   9.545 -1.2216  0.5126 -0.0429
  185MPD1    H2 2821   3.499   3.243   9.222 -0.2420  0.7055 -1.4049
  185MPD1    H3 2822   3.423   3.305   9.428  0.1597 -0.5492  0.2684
  185MPD1     N 2823   3.654   3.682   9.443  0.5485 -0.0594 -0.4390
  185MPD1    H5 2824   3.598   3.699   9.527  0.1890  1.7326 -1.0321
  185MPD1    N1 2825   3.668   3.383   9.060  0.1963 -0.2576  0.0686
  185MPD1    H6 2826   3.650   3.292   9.020 -1.7758  1.4809 -3.0267
  185MPD1    H7 2827   3.765   3.408   9.040  0.4990 -0.6886  1.0285
  186MPD1     C 2828   2.667   3.422  15.628  0.1835  1.0259 -0.0327
  186MPD1    C1 2829   2.659   3.341  15.745 -0.0303  0.4849  0.1510
  186MPD1    C2 2830   2.610   3.392  15.862 -0.4280 -0.6279  0.0434
  186MPD1    C3 2831   2.574   3.525  15.878 -0.0563  0.0888  0.3044
  186MPD1    C4 2832   2.590   3.604  15.768 -0.3696  0.4111  0.6761
  186MPD1    C5 2833   2.632   3.554  15.644  0.2455 -0.4097  0.2337
  186MPD1     H 2834   2.613   3.333  15.953  0.3161  0.9744  1.0584
  186MPD1    H1 2835   2.569   3.710  15.778  0.0379  0.6686 -1.1570
  186MPD1    H2 2836   2.692   3.383  15.530  2.5994 -1.5585  1.6084
  186MPD1    H3 2837   2.640   3.627  15.564 -1.7936 -0.7520 -0.2832
  186MPD1     N 2838   2.529   3.584  15.997  0.3538 -0.0973 -0.0747
  186MPD1    H5 2839   2.501   3.681  15.985  3.5640  1.0697  1.7086
  186MPD1    N1 2840   2.705   3.211  15.732 -0.4707  0.3678  0.1674
  186MPD1    H6 2841   2.655   3.144  15.790  1.5087  0.0407  1.5052
  186MPD1    H7 2842   2.705   3.176  15.636 -1.6333  1.4894 -0.2386
  187MPD1     C 2843   2.250   0.201   0.031 -0.3815 -0.0573  0.9109
  187MPD1    C1 2844   2.137   0.134  17.678 -0.6764  0.3039 -0.5312
  187MPD1    C2 2845   2.018   0.195  17.662  0.3791 -0.0839  0.7362
  187MPD1    C3 2846   2.011   0.330  17.674 -0.1156 -0.1937  0.6522
  187MPD1    C4 2847   2.121   0.403   0.028  0.3780  0.1748 -0.3073
  187MPD1    C5 2848   2.241   0.339   0.048 -0.1401 -0.4444  0.1849
  187MPD1     H 2849   1.934   0.135  17.629  2.0137 -1.0633 -1.6260
  187MPD1    H1 2850   2.117   0.510   0.046 -1.0473  0.4599 -2.2986
  187MPD1    H2 2851   2.347   0.154   0.036 -0.3703  0.2103  3.7256
  187MPD1    H3 2852   2.319   0.410   0.077  1.3719 -1.9395 -0.2393
  187MPD1     N 2853   1.898   0.405  17.644  0.6772  0.5034  0.1697
  187MPD1    H5 2854   1.900   0.502  17.674  2.8350  1.2101 -2.1739
  187MPD1    N1 2855   2.157   0.007  17.622  0.0702  0.0344 -0.1529
  187MPD1    H6 2856   2.070   4.674  17.632  0.4465 -0.1403  2.1761
  187MPD1    H7 2857   2.220   4.667  17.677 -0.7154 -0.0410  0.6660
  188MPD1     C 2858   0.980   0.979  10.162 -0.3700  0.2169 -1.0318
  188MPD1    C1 2859   0.946   0.969  10.028 -0.4345  0.9787  0.1514
  188MPD1    C2 2860   1.023   0.874   9.958 -0.2001  0.1835  0.0761
  188MPD1    C3 2861   1.139   0.816  10.002  0.2124 -0.0016  0.0517
  188MPD1    C4 2862   1.177   0.846  10.125 -0.1367 -0.6532 -0.7951
  188MPD1    C5 2863   1.098   0.938  10.205 -0.3324  0.6496 -0.6179
  188MPD1     H 2864   0.992   0.853   9.857 -1.0125 -0.3000  0.4290
  188MPD1    H1 2865   1.259   0.786  10.164  1.2483  1.4945 -0.4112
  188MPD1    H2 2866   0.924   1.037  10.235 -1.4929 -1.5860 -0.4448
  188MPD1    H3 2867   1.126   0.952  10.309  1.7256 -0.9092 -0.9787
  188MPD1     N 2868   1.211   0.711   9.936  0.0736  0.0288  0.2724
  188MPD1    H5 2869   1.289   0.673   9.990 -0.8216  0.1736  1.6754
  188MPD1    N1 2870   0.816   0.997   9.972 -0.2168  0.2950 -0.5127
  188MPD1    H6 2871   0.781   1.083  10.014  0.7031 -1.5391  3.9659
  188MPD1    H7 2872   0.826   1.010   9.872  1.5178  1.1715 -0.2241
  189MPD1     C 2873   3.317   0.550   0.514 -0.3254  0.0446 -0.2193
  189MPD1    C1 2874   3.189   0.499   0.508  0.2741 -0.0662 -0.0477
  189MPD1    C2 2875   3.087   0.566   0.452  0.1032  0.4478 -0.0799
  189MPD1    C3 2876   3.104   0.693   0.396  0.3863  0.3907  0.4931
  189MPD1    C4 2877   3.233   0.753   0.416  0.1957  0.1764  0.0992
  189MPD1    C5 2878   3.339   0.680   0.470  0.6234 -1.0421 -0.1975
  189MPD1     H 2879   2.989   0.519   0.444  1.6305 -3.0304  1.7167
  189MPD1    H1 2880   3.257   0.854   0.383 -2.3184  0.6683 -0.2411
  189MPD1    H2 2881   3.397   0.490   0.556 -1.2590 -0.2163  1.1921
  189MPD1    H3 2882   3.437   0.727   0.470 -0.5660  1.4481 -1.6830
  189MPD1     N 2883   2.987   0.755   0.334  0.5607  0.0996 -0.2483
  189MPD1    H5 2884   2.903   0.699   0.340  0.4697  0.1985 -0.6299
  189MPD1    N1 2885   3.174   0.374   0.561  0.5744 -0.5498  0.1960
  189MPD1    H6 2886   3.253   0.342   0.616  0.2504  1.0141  1.5737
  189MPD1    H7 2887   3.092   0.371   0.620  1.4366 -2.5178  1.2780
  190MPD1     C 2888   1.859   4.277  15.111 -0.2142 -0.0291 -0.1945
  190MPD1    C1 2889   1.985   4.330  15.132  0.5306 -0.8296 -0.8419
  190MPD1    C2 2890   2.009   4.402  15.250 -0.0748 -0.1299 -0.3462
  190MPD1    C3 2891   1.927   4.394  15.354  0.2652 -0.7776  0.4047
  190MPD1    C4 2892   1.801   4.337  15.325  0.3030 -0.3053 -0.2013
  190MPD1    C5 2893   1.765   4.278  15.207  0.6156  0.6285  0.3260
  190MPD1     H 2894   2.102   4.456  15.264 -1.5315  1.8503  1.5984
  190MPD1    H1 2895   1.727   4.343  15.404 -0.6925  0.2930 -1.1799
  190MPD1    H2 2896   1.833   4.233  15.015 -4.7039  2.7227 -0.2198
  190MPD1    H3 2897   1.664   4.240  15.196  0.3454  1.2406  0.6852
  190MPD1     N 2898   1.963   4.462  15.476 -0.4137 -0.5098 -0.4839
  190MPD1    H5 2899   2.039   4.528  15.466 -0.7996 -0.2544 -1.6772
  190MPD1    N1 2900   2.074   4.334  15.017  0.0349 -0.3826 -0.0271
  190MPD1    H6 2901   2.170   4.359  15.040  0.1366 -1.1981  0.4035
  190MPD1    H7 2902   2.070   4.249  14.961  0.1137 -0.7361  0.5028
  191MPD1     C 2903   1.558   1.773  12.874 -0.1800 -0.1629  0.0627
  191MPD1    C1 2904   1.441   1.725  12.928  0.8072  0.0948 -0.2241
  191MPD1    C2 2905   1.331   1.740  12.843 -0.1902  0.1988  0.7946
  191MPD1    C3 2906   1.333   1.802  12.721  0.3958  0.1664 -0.1994
  191MPD1    C4 2907   1.451   1.847  12.674  0.1111  1.1101  0.1585
  191MPD1    C5 2908   1.563   1.831  12.751 -0.2106 -0.4467 -0.6678
  191MPD1     H 2909   1.231   1.707  12.872 -0.4918 -1.3883 -2.1439
  191MPD1    H1 2910   1.458   1.889  12.574 -3.1180  3.5081  0.9405
  191MPD1    H2 2911   1.654   1.745  12.915  0.3011  0.2566 -0.7899
  191MPD1    H3 2912   1.659   1.856  12.706  0.6131 -0.5154  1.0617
  191MPD1     N 2913   1.206   1.808  12.655 -0.3635 -0.0697  0.2266
  191MPD1    H5 2914   1.123   1.784  12.708 -1.0774  0.1335 -0.7874
  191MPD1    N1 2915   1.432   1.653  13.047  0.5257 -0.1326 -0.8566
  191MPD1    H6 2916   1.488   1.697  13.121  0.6654  1.3666 -1.8614
  191MPD1    H7 2917   1.338   1.638  13.082  0.7289 -1.6443 -0.9553
  192MPD1     C 2918   0.510   2.505  12.810 -0.6386 -0.6221 -0.0837
  192MPD1    C1 2919   0.526   2.379  12.859  0.0918 -0.0520  1.1183
  192MPD1    C2 2920   0.616   2.292  12.795  0.0549  0.5725 -0.4892
  192MPD1    C3 2921   0.676   2.315  12.678 -0.6866  0.2597  0.9675
  192MPD1    C4 2922   0.651   2.441  12.626  0.4041 -0.0943 -0.1269
  192MPD1    C5 2923   0.568   2.536  12.691  0.5692 -0.4255 -0.3865
  192MPD1     H 2924   0.624   2.188  12.825  0.4208  0.5300 -0.7340
  192MPD1    H1 2925   0.690   2.477  12.531  0.0481  0.3568 -0.1023
  192MPD1    H2 2926   0.451   2.580  12.861 -0.1234 -0.3103  0.0512
  192MPD1    H3 2927   0.551   2.634  12.648 -3.4057 -0.8888  0.0596
  192MPD1     N 2928   0.760   2.220  12.606 -0.2268 -0.1422 -1.0913
  192MPD1    H5 2929   0.794   2.259  12.518 -1.0576  1.5981 -0.6399
  192MPD1    N1 2930   0.478   2.356  12.982 -0.2121  0.1020 -0.8859
  192MPD1    H6 2931   0.481   2.257  13.007 -0.7876  0.5043  0.7768
  192MPD1    H7 2932   0.382   2.389  12.991 -1.1527 -3.0547  0.8640
  193MPD1     C 2933   1.226   1.847  17.473 -0.7542 -0.7815  0.1262
  193MPD1    C1 2934   1.348   1.819  17.418 -0.9564 -0.7442  0.6915
  193MPD1    C2 2935   1.402   1.916  17.339  1.0341  0.1730  0.9216
  193MPD1    C3 2936   1.326   2.018  17.282  0.2366 -0.0658 -0.9382
  193MPD1    C4 2937   1.189   2.024  17.313 -0.1620 -0.4234  0.2472
  193MPD1    C5 2938   1.144   1.943  17.412  0.5537 -0.3924 -0.5146
  193MPD1     H 2939   1.506   1.909  17.310  0.8209 -0.3955  0.2704
  193MPD1    H1 2940   1.127   2.105  17.277  2.3883  1.6239  0.4960
  193MPD1    H2 2941   1.184   1.802  17.562  0.2727 -1.3803  0.3168
  193MPD1    H3 2942   1.058   1.969  17.472 -1.1543  0.4710 -3.3119
  193MPD1     N 2943   1.376   2.104  17.188  0.1842 -0.2700 -0.2266
  193MPD1    H5 2944   1.318   2.183  17.163 -0.4505  0.5080  3.7187
  193MPD1    N1 2945   1.434   1.724  17.480  0.2237 -0.3721 -0.1022
  193MPD1    H6 2946   1.386   1.639  17.511 -1.3216  1.8091  3.4673
  193MPD1    H7 2947   1.508   1.693  17.418  1.1632 -0.3091  0.9805
  194MPD1     C 2948   3.119   0.075  17.296 -0.1470  0.3110  1.1833
  194MPD1    C1 2949   3.229   0.136  17.238  0.1851 -0.1506 -0.1418
  194MPD1    C2 2950   3.349   0.072  17.234  0.2366  0.0823 -0.1556
  194MPD1    C3 2951   3.361   4.660  17.286 -0.0154  0.5168  0.2258
  194MPD1    C4 2952   3.245   4.604  17.344 -0.2258 -0.3608 -0.0625
  194MPD1    C5 2953   3.131   4.681  17.360 -0.4908 -0.0572  0.3296
  194MPD1     H 2954   3.436   0.115  17.186  1.2064  0.1378  1.6370
  194MPD1    H1 2955   3.244   4.504  17.386  2.1390 -0.0036  0.8392
  194MPD1    H2 2956   3.022   0.124  17.290 -0.0466  0.1296 -1.9436
  194MPD1    H3 2957   3.044   4.636  17.405 -0.8627 -0.5859 -0.9211
  194MPD1     N 2958   3.469   4.566  17.268  0.6411  0.7718 -0.1486
  194MPD1    H5 2959   3.445   4.468  17.282  1.5093  1.0303  3.0675
  194MPD1    N1 2960   3.209   0.246  17.154 -0.5762  0.2441  0.4830
  194MPD1    H6 2961   3.132   0.311  17.168 -0.2584  0.4104  1.4730
  194MPD1    H7 2962   3.290   0.307  17.147  0.5840 -1.1558  1.6119
  195MPD1     C 2963   1.787   0.533   0.469  0.4156  0.4868 -0.3255
  195MPD1    C1 2964   1.784   0.455   0.360  0.0131 -0.4693  0.3846
  195MPD1    C2 2965   1.664   0.451   0.293  0.1351 -0.5687  0.3769
  195MPD1    C3 2966   1.559   0.538   0.318 -0.0291 -0.7778  0.5758
  195MPD1    C4 2967   1.578   0.635   0.417  0.0930 -0.0396 -0.5316
  195MPD1    C5 2968   1.694   0.634   0.491  0.2743 -0.7584 -0.2192
  195MPD1     H 2969   1.651   0.362   0.232 -1.5780  0.6319 -1.0130
  195MPD1    H1 2970   1.500   0.708   0.438 -1.1986 -1.1844 -1.4217
  195MPD1    H2 2971   1.872   0.528   0.535 -0.4298  2.3722  0.9119
  195MPD1    H3 2972   1.707   0.708   0.569 -1.8759  0.5308 -1.0925
  195MPD1     N 2973   1.435   0.525   0.251  0.6281 -0.2753 -0.7509
  195MPD1    H5 2974   1.363   0.591   0.279  1.2985  1.1488 -2.4006
  195MPD1    N1 2975   1.876   0.352   0.341 -0.3452  0.3834  0.3275
  195MPD1    H6 2976   1.878   0.301   0.253  0.5062  0.4004  0.3327
  195MPD1    H7 2977   1.972   0.378   0.363 -1.3181  1.7583  2.9475
  196MPD1     C 2978   4.437   4.447   0.569  0.5328 -0.1107 -0.3782
  196MPD1    C1 2979   4.512   4.560   0.570 -0.1870 -0.2799 -0.1808
  196MPD1    C2 2980   4.547   4.627   0.684 -0.0577  0.6460  0.0814
  196MPD1    C3 2981   4.506   4.578   0.806  0.5612  0.0536  0.0442
  196MPD1    C4 2982   4.426   4.469   0.812 -0.7568 -0.3537 -0.0292
  196MPD1    C5 2983   4.384   4.412   0.692 -0.1460  0.1003  0.9550
  196MPD1     H 2984   4.618   4.709   0.676  0.0707  0.4761 -0.5230
  196MPD1    H1 2985   4.383   4.438   0.907  0.0708  0.5230  0.6321
  196MPD1    H2 2986   4.424   4.380   0.485  2.4588 -1.6298  0.5321
  196MPD1    H3 2987   4.310   4.333   0.702  2.0492 -1.9033  1.3209
  196MPD1     N 2988   4.547   4.631   0.928  0.8398  0.1639 -0.2584
  196MPD1    H5 2989   4.532   4.572   1.009  0.9449  1.6014  0.8177
  196MPD1    N1 2990   4.574   4.591   0.449 -0.5086  0.0777 -0.2419
  196MPD1    H6 2991   4.606   4.687   0.438 -0.7265  0.5248  3.1184
  196MPD1    H7 2992   4.518   4.571   0.367  0.5349 -0.2925 -0.8717
  197MPD1     C 2993   4.000   3.052  16.604  0.2812  0.6660 -0.0592
  197MPD1    C1 2994   4.038   3.038  16.735 -0.3158  0.5326 -0.4151
  197MPD1    C2 2995   4.083   3.151  16.795  0.3293 -0.2947 -0.6841
  197MPD1    C3 2996   4.099   3.277  16.736 -0.0087  0.3369  0.1593
  197MPD1    C4 2997   4.048   3.282  16.607 -0.3706  0.5237  1.0780
  197MPD1    C5 2998   4.003   3.171  16.542 -0.3827 -0.2612  0.1488
  197MPD1     H 2999   4.118   3.137  16.897 -3.7199 -1.3099  0.5502
  197MPD1    H1 3000   4.046   3.370  16.543 -3.0240  2.0447  3.2665
  197MPD1    H2 3001   3.950   2.972  16.550  0.9516 -0.4530  0.9828
  197MPD1    H3 3002   3.945   3.178  16.451  1.7037 -0.2885 -1.1681
  197MPD1     N 3003   4.162   3.387  16.790 -0.1494 -0.1808  0.7844
  197MPD1    H5 3004   4.181   3.463  16.725  0.5839  0.6715  2.0003
  197MPD1    N1 3005   4.057   2.908  16.783 -0.5566 -0.1705  0.3743
  197MPD1    H6 3006   4.054   2.897  16.884 -0.9511  2.0039  0.6093
  197MPD1    H7 3007   3.991   2.838  16.750  0.6839  0.1929 -2.8849
  198MPD1     C 3008   1.221   1.867  15.872 -0.7644  0.4420  0.5940
  198MPD1    C1 3009   1.297   1.772  15.942  0.2611 -0.2155  0.5723
  198MPD1    C2 3010   1.436   1.776  15.938 -0.6498 -0.0117  0.0133
  198MPD1    C3 3011   1.498   1.868  15.856  0.2140 -0.2305  0.1067
  198MPD1    C4 3012   1.424   1.968  15.791 -0.4358  0.6377 -0.1710
  198MPD1    C5 3013   1.287   1.966  15.802  0.6319 -0.2044  0.3115
  198MPD1     H 3014   1.499   1.720  16.006  0.5786 -1.0988 -2.0372
  198MPD1    H1 3015   1.461   2.056  15.741 -2.0288  0.0819 -2.3494
  198MPD1    H2 3016   1.115   1.865  15.894 -1.2587  1.6261 -1.6532
  198MPD1    H3 3017   1.232   2.041  15.747  2.6426  0.8306 -0.3079
  198MPD1     N 3018   1.639   1.864  15.854 -0.2538  0.6547  0.0536
  198MPD1    H5 3019   1.673   1.781  15.902 -1.1407  0.4815  0.3945
  198MPD1    N1 3020   1.232   1.696  16.041  0.1850 -0.2648  0.5675
  198MPD1    H6 3021   1.148   1.650  16.005 -0.5107  1.0394  0.5474
  198MPD1    H7 3022   1.289   1.619  16.076  2.0069  0.4629 -0.8061
  199MPD1     C 3023   3.054   1.748  10.011 -0.4452  0.2205 -0.1490
  199MPD1    C1 3024   3.134   1.858  10.017  0.0761  0.2714  0.7876
  199MPD1    C2 3025   3.141   1.929   9.898  0.5130 -0.8066 -0.2282
  199MPD1    C3 3026   3.070   1.903   9.783  0.9550  0.0167 -0.1814
  199MPD1    C4 3027   2.990   1.792   9.785 -0.6829  0.8375 -1.1559
  199MPD1    C5 3028   2.982   1.723   9.900 -0.1944  0.2290  0.9663
  199MPD1     H 3029   3.207   2.016   9.905  1.4747 -1.4742 -0.9815
  199MPD1    H1 3030   2.935   1.761   9.697 -1.2010  2.8125 -1.5176
  199MPD1    H2 3031   3.048   1.679  10.095 -1.5160  0.7505  0.2144
  199MPD1    H3 3032   2.912   1.640   9.904 -1.3933  1.2831  1.7719
  199MPD1     N 3033   3.078   1.983   9.667 -0.0116 -0.4972 -0.0908
  199MPD1    H5 3034   3.024   1.950   9.587  0.0570 -0.6176 -0.0865
  199MPD1    N1 3035   3.214   1.886  10.133 -0.2852 -0.2980  1.2596
  199MPD1    H6 3036   3.183   1.838  10.217 -1.8955  0.6156  1.1997
  199MPD1    H7 3037   3.230   1.985  10.150 -1.1751 -0.1319  1.1679
  200MPD1     C 3038   2.558   2.848  13.031  0.2358 -0.1080 -0.3577
  200MPD1    C1 3039   2.667   2.772  13.060  0.5062  1.0727  0.5795
  200MPD1    C2 3040   2.794   2.820  13.078 -0.5098  0.2537 -0.3418
  200MPD1    C3 3041   2.808   2.957  13.068 -0.0498 -0.1566 -0.1785
  200MPD1    C4 3042   2.703   3.037  13.034  0.2578 -0.6246  0.1749
  200MPD1    C5 3043   2.582   2.982  12.999  0.5565  0.2466  0.0540
  200MPD1     H 3044   2.886   2.772  13.111 -0.8923 -1.2773 -1.4961
  200MPD1    H1 3045   2.711   3.144  13.043 -1.6718 -0.4655  0.0130
  200MPD1    H2 3046   2.455   2.813  13.025  1.0321 -2.2900 -1.4116
  200MPD1    H3 3047   2.496   3.040  12.968  0.1105 -1.3600 -1.7214
  200MPD1     N 3048   2.937   3.012  13.078  0.3976 -0.3819  0.1172
  200MPD1    H5 3049   3.002   2.955  13.131 -2.0610 -1.4267  1.9911
  200MPD1    N1 3050   2.643   2.639  13.110 -0.6420 -0.3264 -0.1814
  200MPD1    H6 3051   2.550   2.604  13.092 -0.5874  0.3555 -1.7576
  200MPD1    H7 3052   2.715   2.578  13.072  1.1856 -0.3793  3.3035
  201MPD1     C 3053   4.451   1.315  13.514  0.2946  1.0484  0.4796
  201MPD1    C1 3054   4.470   1.278  13.381  0.4712 -0.0797  0.4663
  201MPD1    C2 3055   4.600   1.289  13.341  0.3994  0.6542 -0.1893
  201MPD1    C3 3056   4.699   1.344  13.422 -0.4119 -0.1057 -0.2746
  201MPD1    C4 3057   4.669   1.380  13.552 -0.8410 -0.0568 -0.3989
  201MPD1    C5 3058   4.543   1.364  13.599  0.1470 -0.0921  0.1678
  201MPD1     H 3059   4.625   1.241  13.247  0.4862 -1.4768  0.9172
  201MPD1    H1 3060   0.020   1.433  13.615 -0.6515 -0.3989 -0.3270
  201MPD1    H2 3061   4.354   1.301  13.561  1.3023  0.8355  2.5045
  201MPD1    H3 3062   4.500   1.396  13.693  0.3792 -0.6087  0.4481
  201MPD1     N 3063   0.109   1.328  13.366 -0.8835 -0.8328  0.2618
  201MPD1    H5 3064   0.116   1.302  13.268 -1.1557  0.8015 -0.1871
  201MPD1    N1 3065   4.373   1.202  13.311 -0.4161  0.0920 -0.0581
  201MPD1    H6 3066   4.276   1.222  13.334 -0.7596 -1.3582 -0.2256
  201MPD1    H7 3067   4.387   1.218  13.212  0.0805  0.3277  0.0503
  202MPD1     C 3068   0.656   0.732   8.692  0.3076  0.3003 -0.2357
  202MPD1    C1 3069   0.759   0.655   8.747 -0.1278 -0.7051  0.6088
  202MPD1    C2 3070   0.741   0.628   8.881 -0.1029 -0.6415 -0.5531
  202MPD1    C3 3071   0.673   0.716   8.966  0.2874  0.2674 -0.6185
  202MPD1    C4 3072   0.592   0.803   8.913  0.0417  0.0186 -0.0196
  202MPD1    C5 3073   0.584   0.812   8.778 -0.4117 -0.1941  0.4827
  202MPD1     H 3074   0.815   0.569   8.933  0.2720  0.7620  0.5159
  202MPD1    H1 3075   0.539   0.877   8.970 -0.3202 -2.1817  2.4762
  202MPD1    H2 3076   0.651   0.740   8.584  1.5390 -1.8803 -0.4526
  202MPD1    H3 3077   0.510   0.877   8.733 -0.5559 -0.3699  0.4649
  202MPD1     N 3078   0.689   0.720   9.107  0.3095 -0.5049  0.3849
  202MPD1    H5 3079   0.643   0.802   9.145  1.5785  0.5457 -0.3481
  202MPD1    N1 3080   0.822   0.559   8.672  0.3857 -0.3259  0.2881
  202MPD1    H6 3081   0.832   0.572   8.571  0.7965  0.2476  0.4052
  202MPD1    H7 3082   0.913   0.543   8.714  1.7143  0.8844 -2.1155
  203MPD1     C 3083   4.000   2.753  11.951 -0.4575 -0.3344  0.1464
  203MPD1    C1 3084   3.999   2.644  11.876 -0.3472 -0.5417 -0.9466
  203MPD1    C2 3085   3.990   2.523  11.942 -0.3353  0.2804  0.1567
  203MPD1    C3 3086   3.996   2.512  12.081 -0.3739 -0.1921  0.0147
  203MPD1    C4 3087   3.997   2.632  12.159 -0.2810  0.7410 -1.1637
  203MPD1    C5 3088   3.993   2.750  12.084 -0.4097 -0.2587  0.0227
  203MPD1     H 3089   3.973   2.435  11.881 -0.7343 -0.1583  0.9013
  203MPD1    H1 3090   4.014   2.647  12.265  2.9482 -0.2673 -1.5568
  203MPD1    H2 3091   4.008   2.845  11.895  2.3025 -1.2040 -0.9076
  203MPD1    H3 3092   3.994   2.845  12.137  0.3384 -0.4929  0.4194
  203MPD1     N 3093   4.008   2.379  12.132  0.6865 -0.0177  0.0342
  203MPD1    H5 3094   4.026   2.304  12.066  0.5911  1.3998 -1.6133
  203MPD1    N1 3095   4.025   2.661  11.739 -0.9153  0.3687  0.1644
  203MPD1    H6 3096   3.994   2.748  11.697  0.4247  0.2196 -1.1313
  203MPD1    H7 3097   3.979   2.589  11.683  1.3053 -0.6901 -0.2940
  204MPD1     C 3098   2.707   1.647  17.286 -0.6372  0.3014 -0.0423
  204MPD1    C1 3099   2.726   1.602  17.163  0.3852 -0.1100 -0.3359
  204MPD1    C2 3100   2.830   1.658  17.091  0.2546 -0.1859 -0.5501
  204MPD1    C3 3101   2.916   1.749  17.143 -0.3051  0.0825 -0.3902
  204MPD1    C4 3102   2.883   1.808  17.259  0.4429 -0.8422 -0.1537
  204MPD1    C5 3103   2.778   1.755  17.327 -0.2792  0.5656 -0.0175
  204MPD1     H 3104   2.849   1.631  16.988 -1.4380  1.6120 -1.3233
  204MPD1    H1 3105   2.943   1.881  17.312 -2.1800  0.7419  0.6215
  204MPD1    H2 3106   2.626   1.611  17.349 -1.3677  0.6223 -0.8026
  204MPD1    H3 3107   2.743   1.800  17.419  0.3916  0.6927  0.1739
  204MPD1     N 3108   3.037   1.776  17.067  0.3716 -0.2949  0.0558
  204MPD1    H5 3109   3.054   1.730  16.978  0.3865 -0.9190  0.3849
  204MPD1    N1 3110   2.639   1.504  17.105 -0.2270 -1.0231  0.1105
  204MPD1    H6 3111   2.682   1.473  17.018 -0.2065  0.3197 -0.3448
  204MPD1    H7 3112   2.635   1.420  17.163  0.4865 -0.3495  1.1295
  205MPD1     C 3113   4.422   0.979  16.358 -0.0187  0.1010 -0.1656
  205MPD1    C1 3114   4.368   0.861  16.409 -0.1509 -0.1393 -0.3327
  205MPD1    C2 3115   4.238   0.860  16.441 -0.2003  0.7301  0.0651
  205MPD1    C3 3116   4.161   0.972  16.434  0.0712 -0.0315  0.0080
  205MPD1    C4 3117   4.207   1.086  16.382 -0.1454  1.0779  0.2071
  205MPD1    C5 3118   4.336   1.086  16.336 -0.1066  0.4796  0.3829
  205MPD1     H 3119   4.198   0.768  16.483  0.5552  0.1594 -0.4586
  205MPD1    H1 3120   4.147   1.176  16.386 -1.4413  0.2850 -1.4884
  205MPD1    H2 3121   4.526   0.987  16.326  0.1511 -1.2022  0.0382
  205MPD1    H3 3122   4.373   1.179  16.294 -0.5715  0.1982 -0.6605
  205MPD1     N 3123   4.019   0.974  16.473  0.4121 -0.1836  0.0666
  205MPD1    H5 3124   3.970   1.061  16.485  2.4659  0.9180  0.5699
  205MPD1    N1 3125   4.452   0.763  16.473  0.6605 -0.4210  0.2753
  205MPD1    H6 3126   4.419   0.668  16.457 -0.9171 -0.0200  1.1453
  205MPD1    H7 3127   4.545   0.771  16.432  0.8416  1.7487  1.0687
  206MPD1     C 3128   3.436   4.367  16.814 -0.8257  0.4636 -0.0207
  206MPD1    C1 3129   3.490   4.271  16.739  0.3578  0.1513 -0.4771
  206MPD1    C2 3130   3.494   4.304  16.604 -0.4040  0.0677  0.4779
  206MPD1    C3 3131   3.457   4.434  16.559 -0.0506 -0.5066  0.0749
  206MPD1    C4 3132   3.409   4.526  16.646  0.1185  0.8939 -0.2261
  206MPD1    C5 3133   3.394   4.488  16.774  0.0027  0.1664  0.2119
  206MPD1     H 3134   3.530   4.229  16.535 -0.7600  0.2437  0.0994
  206MPD1    H1 3135   3.372   4.620  16.607  0.3192  0.1868 -2.1114
  206MPD1    H2 3136   3.432   4.347  16.921 -0.2468  1.3403  0.1723
  206MPD1    H3 3137   3.343   4.549  16.848  1.7576  1.5466  0.2871
  206MPD1     N 3138   3.471   4.477  16.427  0.0129  0.7232  0.2476
  206MPD1    H5 3139   3.424   4.565  16.407 -2.2459 -0.4906  0.1846
  206MPD1    N1 3140   3.517   4.144  16.793 -0.0095  0.2632 -0.3749
  206MPD1    H6 3141   3.539   4.156  16.892  0.5127  0.8802 -0.5709
  206MPD1    H7 3142   3.601   4.105  16.750 -0.2434  1.2239 -1.6935
  207MPD1     C 3143   0.778   3.067   8.792 -0.2302 -0.2358  0.2241
  207MPD1    C1 3144   0.702   3.128   8.890  0.4023  0.3886 -0.6010
  207MPD1    C2 3145   0.713   3.088   9.022  0.9528 -0.7136  0.6026
  207MPD1    C3 3146   0.813   2.992   9.056 -0.5851 -0.6664 -0.0106
  207MPD1    C4 3147   0.875   2.921   8.953 -0.4786 -0.8101  0.3331
  207MPD1    C5 3148   0.852   2.955   8.825  0.1834 -0.0445 -0.2844
  207MPD1     H 3149   0.669   3.150   9.099 -0.6121  2.1239 -2.5744
  207MPD1    H1 3150   0.937   2.834   8.974  0.2826  0.0899  1.8549
  207MPD1    H2 3151   0.783   3.100   8.689  4.2658 -1.1809  0.1422
  207MPD1    H3 3152   0.918   2.917   8.748 -0.4773  1.1194 -1.4284
  207MPD1     N 3153   0.855   2.956   9.187  0.7543 -0.2793  0.2538
  207MPD1    H5 3154   0.927   2.886   9.195 -1.3602 -2.4903 -0.0843
  207MPD1    N1 3155   0.639   3.250   8.866  0.5115 -0.7748  0.7718
  207MPD1    H6 3156   0.600   3.245   8.772  0.9319 -1.0310  0.6128
  207MPD1    H7 3157   0.558   3.255   8.927 -0.4294  2.7091 -0.7169
  208MPD1     C 3158   0.036   0.606  16.865  0.1796 -0.0579  0.2525
  208MPD1    C1 3159   0.056   0.548  16.988  0.3099  0.3288 -0.3593
  208MPD1    C2 3160   4.657   0.528  17.063 -0.1874 -0.1697  0.3326
  208MPD1    C3 3161   4.527   0.538  17.014 -0.2114  0.0047  0.3124
  208MPD1    C4 3162   4.517   0.564  16.875 -0.1079 -0.2623 -0.6459
  208MPD1    C5 3163   4.629   0.608  16.811  0.3239  0.1829 -0.0635
  208MPD1     H 3164   4.674   0.498  17.166  0.3556 -1.8843 -0.2663
  208MPD1    H1 3165   4.420   0.575  16.827  0.2781  1.5473 -0.9897
  208MPD1    H2 3166   0.117   0.654  16.811 -0.5556 -1.5349 -2.2144
  208MPD1    H3 3167   4.610   0.647  16.711  1.7586  0.8080 -0.0872
  208MPD1     N 3168   4.411   0.514  17.089 -0.2779  0.2589 -0.7510
  208MPD1    H5 3169   4.322   0.492  17.043  0.0190 -0.3687 -1.0257
  208MPD1    N1 3170   0.173   0.580  17.048  0.3045  0.0660  0.1903
  208MPD1    H6 3171   0.254   0.580  16.985  1.0519 -0.2175  1.1556
  208MPD1    H7 3172   0.199   0.508  17.114  0.6669  1.7683  1.9068
  209MPD1     C 3173   0.114   1.540   9.833  0.4814  0.0132 -0.2226
  209MPD1    C1 3174   0.103   1.676   9.843  0.1197 -0.0712 -0.2838
  209MPD1    C2 3175   0.218   1.753   9.862 -0.9730 -0.0984  0.1258
  209MPD1    C3 3176   0.343   1.695   9.896  0.0631 -0.4373 -0.2883
  209MPD1    C4 3177   0.352   1.558   9.903 -0.0872 -0.5836  0.1079
  209MPD1    C5 3178   0.235   1.484   9.871  0.4790 -0.4540  0.3009
  209MPD1     H 3179   0.218   1.861   9.850  2.1602  0.3618  4.6168
  209MPD1    H1 3180   0.444   1.513   9.938  0.8825 -0.3394 -2.1555
  209MPD1    H2 3181   0.038   1.473   9.795 -0.7638  1.1303  0.3168
  209MPD1    H3 3182   0.245   1.376   9.866 -1.0546 -0.4756 -2.2235
  209MPD1     N 3183   0.455   1.775   9.921  0.8284  0.4743  0.1905
  209MPD1    H5 3184   0.442   1.873   9.895  1.6126  0.1935 -1.2678
  209MPD1    N1 3185   4.697   1.726   9.806 -0.6174 -0.7489  0.0377
  209MPD1    H6 3186   4.662   1.810   9.852 -0.8761 -0.7446 -0.1696
  209MPD1    H7 3187   4.638   1.650   9.838  0.1414 -0.9022  1.0880
  210MPD1     C 3188   1.216   1.709  10.591  0.7039 -0.3307  0.1286
  210MPD1    C1 3189   1.263   1.802  10.498 -0.0039  0.5838  0.3775
  210MPD1    C2 3190   1.181   1.827  10.388  0.2163 -0.2285  0.6069
  210MPD1    C3 3191   1.048   1.776  10.386 -0.3227 -0.5769 -0.1934
  210MPD1    C4 3192   1.009   1.686  10.479 -0.6798  0.7281 -0.1062
  210MPD1    C5 3193   1.091   1.659  10.586 -0.0800 -0.1636 -0.1062
  210MPD1     H 3194   1.223   1.884  10.306  0.8109 -2.6333 -0.7538
  210MPD1    H1 3195   0.906   1.652  10.478 -0.9954  1.6557  0.8742
  210MPD1    H2 3196   1.270   1.685  10.681 -0.6426 -1.0939  0.7271
  210MPD1    H3 3197   1.061   1.597  10.669  0.7728 -2.7260 -1.7258
  210MPD1     N 3198   0.956   1.814  10.285 -0.3685  0.1894 -0.1251
  210MPD1    H5 3199   0.865   1.771  10.278 -0.1614 -0.1438 -0.7718
  210MPD1    N1 3200   1.397   1.835  10.504 -0.1479  0.3004 -0.0198
  210MPD1    H6 3201   1.420   1.917  10.449  0.0223  0.9728  1.0479
  210MPD1    H7 3202   1.425   1.849  10.601  2.1345  1.2867 -0.8242
  211MPD1     C 3203   4.385   0.816  15.876 -0.3428 -0.6413  0.3476
  211MPD1    C1 3204   4.290   0.789  15.974  0.5167  0.1007  0.2671
  211MPD1    C2 3205   4.227   0.896  16.041  0.4309 -0.6374 -0.6645
  211MPD1    C3 3206   4.251   1.028  16.008 -0.5142 -0.6248  0.6613
  211MPD1    C4 3207   4.348   1.053  15.908 -0.6302 -0.0121  0.1787
  211MPD1    C5 3208   4.409   0.949  15.838  0.3282  0.4552  0.6379
  211MPD1     H 3209   4.164   0.876  16.128  0.6538 -0.5092 -0.4735
  211MPD1    H1 3210   4.367   1.157  15.882 -2.2897  0.1489 -0.4146
  211MPD1    H2 3211   4.444   0.739  15.829  1.9088  0.3639  1.5050
  211MPD1    H3 3212   4.483   0.966  15.760 -0.3166 -0.1499 -0.1032
  211MPD1     N 3213   4.177   1.132  16.071 -0.0998  0.0382 -0.1131
  211MPD1    H5 3214   4.109   1.111  16.143 -0.2336 -1.6526 -0.7239
  211MPD1    N1 3215   4.276   0.652  16.016 -0.1658  0.0404  0.5128
  211MPD1    H6 3216   4.187   0.644  16.065 -1.3890  2.6665 -1.2381
  211MPD1    H7 3217   4.266   0.601  15.929  0.7111 -1.7760  1.4816
  212MPD1     C 3218   3.144   4.615  16.450 -0.6142 -0.0781 -0.2931
  212MPD1    C1 3219   3.101   4.647  16.583 -0.4746  0.2879 -0.5669
  212MPD1    C2 3220   3.047   4.550  16.659 -0.1280  0.2748  0.1579
  212MPD1    C3 3221   3.047   4.417  16.613 -0.2593  0.1122  0.0448
  212MPD1    C4 3222   3.093   4.388  16.489  0.1661  0.0176 -0.7771
  212MPD1    C5 3223   3.145   4.485  16.411  0.4299 -0.0348 -0.8657
  212MPD1     H 3224   3.017   4.575  16.760  0.8248 -1.8104  0.9636
  212MPD1    H1 3225   3.094   4.286  16.453 -0.2799 -0.6651  1.1896
  212MPD1    H2 3226   3.195   4.689  16.389  0.2831  0.0958  0.6652
  212MPD1    H3 3227   3.191   4.457  16.316  0.6894  1.3055 -1.1316
  212MPD1     N 3228   3.006   4.311  16.688 -0.0336 -0.3190 -0.1611
  212MPD1    H5 3229   3.027   4.222  16.643  0.8849 -0.5445  0.7145
  212MPD1    N1 3230   3.104   0.066  16.629  0.0185 -0.3481 -0.0325
  212MPD1    H6 3231   3.198   0.105  16.623 -0.2827  0.0615 -2.3364
  212MPD1    H7 3232   3.081   0.067  16.728  0.9196 -1.0030  0.1752
  213MPD1     C 3233   0.706   0.486  15.321 -0.2839 -0.2114  0.3860
  213MPD1    C1 3234   0.811   0.453  15.238 -0.0991 -0.0274  0.0321
  213MPD1    C2 3235   0.932   0.511  15.260 -0.0260 -0.1117 -0.6227
  213MPD1    C3 3236   0.946   0.634  15.329  0.2383 -0.0675  0.5890
  213MPD1    C4 3237   0.828   0.678  15.393 -0.5056 -0.2746  0.5154
  213MPD1    C5 3238   0.716   0.597  15.396 -0.5571 -0.3535  0.4464
  213MPD1     H 3239   1.025   0.468  15.224  1.2839  0.8598  1.5678
  213MPD1    H1 3240   0.831   0.766  15.457  2.5732 -0.3659  0.4770
  213MPD1    H2 3241   0.615   0.428  15.318  0.6629 -1.6633 -0.1564
  213MPD1    H3 3242   0.631   0.626  15.457 -1.8640 -1.2666 -0.9483
  213MPD1     N 3243   1.073   0.695  15.343 -0.7987  0.0561  0.0715
  213MPD1    H5 3244   1.153   0.652  15.298 -1.4844 -2.1440  0.9111
  213MPD1    N1 3245   0.822   0.315  15.195 -0.2961  0.1738  0.1347
  213MPD1    H6 3246   0.897   0.296  15.129 -0.6666  0.1520 -0.2726
  213MPD1    H7 3247   0.731   0.280  15.168 -0.5620 -0.0679  1.3315
  214MPD1     C 3248   1.785   0.377  15.690  0.3452  0.5445  0.2519
  214MPD1    C1 3249   1.788   0.508  15.732 -0.2702  0.6152 -0.5047
  214MPD1    C2 3250   1.716   0.590  15.648 -0.1363 -0.5689  0.6425
  214MPD1    C3 3251   1.624   0.545  15.553  0.7448  0.0315  0.4574
  214MPD1    C4 3252   1.593   0.412  15.540 -0.6112 -0.0491 -0.3847
  214MPD1    C5 3253   1.685   0.332  15.604 -0.3080 -0.5960  0.4197
  214MPD1     H 3254   1.725   0.697  15.661  0.9797 -0.5429 -0.3450
  214MPD1    H1 3255   1.522   0.372  15.469 -0.9201 -0.5323  0.1944
  214MPD1    H2 3256   1.844   0.297  15.732  2.7328  0.0696 -4.0670
  214MPD1    H3 3257   1.677   0.225  15.589  2.6238 -0.6342 -0.8044
  214MPD1     N 3258   1.562   0.626  15.465 -0.0351 -0.2809 -0.0625
  214MPD1    H5 3259   1.483   0.584  15.417 -0.9974 -0.8664  2.0118
  214MPD1    N1 3260   1.883   0.555  15.816  0.1747 -0.0887 -0.2004
  214MPD1    H6 3261   1.866   0.647  15.858 -1.9817 -1.3513  1.6902
  214MPD1    H7 3262   1.913   0.491  15.889  0.6322 -0.1889 -0.4732
  215MPD1     C 3263   0.558   1.562  10.617  0.8227 -0.0671 -0.1171
  215MPD1    C1 3264   0.646   1.670  10.596  0.2741  0.4760 -0.0104
  215MPD1    C2 3265   0.740   1.702  10.690  0.3545 -0.9220 -0.6292
  215MPD1    C3 3266   0.768   1.611  10.793 -0.2418 -0.0568  0.4199
  215MPD1    C4 3267   0.682   1.502  10.809  0.3634  0.5372  0.1995
  215MPD1    C5 3268   0.577   1.480  10.725 -0.2845 -0.0767 -0.0020
  215MPD1     H 3269   0.792   1.797  10.696 -1.5032  0.0404 -0.0153
  215MPD1    H1 3270   0.683   1.428  10.887  0.8628 -0.2878 -0.5885
  215MPD1    H2 3271   0.480   1.532  10.548  2.3677  1.0658 -2.3817
  215MPD1    H3 3272   0.510   1.397  10.746  0.6101 -1.2839 -1.9268
  215MPD1     N 3273   0.878   1.646  10.881  0.3927  0.1961  0.2619
  215MPD1    H5 3274   0.917   1.739  10.865  2.3979 -0.8291 -0.7127
  215MPD1    N1 3275   0.624   1.753  10.485  0.3346 -0.0919 -0.4974
  215MPD1    H6 3276   0.680   1.838  10.475  1.6072 -0.9447 -0.7034
  215MPD1    H7 3277   0.532   1.796  10.487  0.1696 -0.5263  1.9866
  216MPD1     C 3278   3.645   3.891  16.562  0.3467  0.3970  0.1132
  216MPD1    C1 3279   3.539   3.816  16.518 -0.1943  0.0751  0.1385
  216MPD1    C2 3280   3.493   3.719  16.607  0.6264  0.1652  0.0435
  216MPD1    C3 3281   3.537   3.701  16.737 -0.1514 -0.4643 -0.1204
  216MPD1    C4 3282   3.640   3.790  16.772 -0.1937 -0.1854  0.5186
  216MPD1    C5 3283   3.680   3.890  16.689 -0.0081  0.1263  0.0107
  216MPD1     H 3284   3.422   3.648  16.564 -1.8884  1.3786  2.2049
  216MPD1    H1 3285   3.692   3.788  16.867  0.8558 -2.6404 -0.0860
  216MPD1    H2 3286   3.691   3.967  16.500 -1.6374 -0.6597 -2.6638
  216MPD1    H3 3287   3.743   3.973  16.719 -1.8849  1.5659 -0.0655
  216MPD1     N 3288   3.482   3.599  16.814 -0.3378 -0.0833 -0.2380
  216MPD1    H5 3289   3.411   3.541  16.769  2.4743 -2.2764 -1.7995
  216MPD1    N1 3290   3.510   3.823  16.381 -0.0782 -0.5578 -0.1302
  216MPD1    H6 3291   3.413   3.795  16.366 -0.1978  0.9916 -2.2836
  216MPD1    H7 3292   3.520   3.918  16.347  3.2777 -1.5576 -1.9622
  217MPD1     C 3293   0.392   0.703   8.191  0.1895 -0.0539 -1.0528
  217MPD1    C1 3294   0.284   0.786   8.197 -0.4429  0.1058 -0.2609
  217MPD1    C2 3295   0.229   0.809   8.316 -0.0526 -0.5340  0.7060
  217MPD1    C3 3296   0.270   0.738   8.429 -0.3604  0.7023  0.4416
  217MPD1    C4 3297   0.367   0.644   8.415 -0.4316 -0.3198 -0.3650
  217MPD1    C5 3298   0.433   0.630   8.299 -0.2661  0.1633 -0.6567
  217MPD1     H 3299   0.143   0.875   8.323  1.0391  1.0035 -0.3399
  217MPD1    H1 3300   0.404   0.564   8.478  1.5243 -0.1525 -1.3012
  217MPD1    H2 3301   0.447   0.681   8.100  0.2349  1.0155 -1.2867
  217MPD1    H3 3302   0.507   0.551   8.290  2.2718  2.6857 -1.9627
  217MPD1     N 3303   0.210   0.747   8.557 -0.3447 -0.3484  0.1260
  217MPD1    H5 3304   0.248   0.699   8.638 -0.0171  0.6239  0.5423
  217MPD1    N1 3305   0.236   0.853   8.081 -0.5078 -0.3442  0.0560
  217MPD1    H6 3306   0.134   0.863   8.084 -0.4648 -0.5831  2.1966
  217MPD1    H7 3307   0.256   0.801   7.995 -1.1293  1.0441 -0.9209
  218MPD1     C 3308   0.425   2.092  13.184  0.2258  0.2845  0.3544
  218MPD1    C1 3309   0.332   2.045  13.093  0.2115 -0.4585 -0.4088
  218MPD1    C2 3310   0.374   2.006  12.969  0.0651 -0.4611  0.0085
  218MPD1    C3 3311   0.509   1.978  12.941  0.8193  0.1152 -0.6961
  218MPD1    C4 3312   0.605   2.023  13.031 -0.0353  0.3648  0.5290
  218MPD1    C5 3313   0.562   2.077  13.152 -0.5091 -0.4008  0.0560
  218MPD1     H 3314   0.303   1.973  12.894  0.7601 -0.1106 -0.8087
  218MPD1    H1 3315   0.712   2.017  13.017 -0.0335  0.0285  0.6783
  218MPD1    H2 3316   0.396   2.149  13.271  1.4817  1.8431 -0.2442
  218MPD1    H3 3317   0.639   2.123  13.214  0.9615 -3.8397  0.7744
  218MPD1     N 3318   0.563   1.931  12.820 -0.5505  0.4550  0.3876
  218MPD1    H5 3319   0.664   1.928  12.811 -0.6773  2.2157 -1.4521
  218MPD1    N1 3320   0.193   2.071  13.090  0.4944 -0.1340  0.3049
  218MPD1    H6 3321   0.137   2.079  13.174 -2.9980  1.5237 -2.1825
  218MPD1    H7 3322   0.139   2.014  13.025 -0.6743  1.9744 -0.5956
  219MPD1     C 3323   0.620   1.684  11.747  0.4358  0.4636  0.5871
  219MPD1    C1 3324   0.539   1.778  11.807  0.1359 -0.9842 -0.4340
  219MPD1    C2 3325   0.527   1.780  11.946 -0.3215 -0.1971 -0.4514
  219MPD1    C3 3326   0.591   1.681  12.024  0.5889  0.7530 -0.2770
  219MPD1    C4 3327   0.666   1.584  11.961 -0.4041 -0.0400 -0.3660
  219MPD1    C5 3328   0.687   1.592  11.825  0.5568 -0.0772 -0.5473
  219MPD1     H 3329   0.467   1.858  11.991 -1.4716  0.2302 -2.7159
  219MPD1    H1 3330   0.700   1.497  12.014 -0.8795 -0.1081 -0.1723
  219MPD1    H2 3331   0.627   1.680  11.639  1.0802  3.8593  0.4860
  219MPD1    H3 3332   0.746   1.521  11.769 -0.2087 -0.5913 -0.6971
  219MPD1     N 3333   0.578   1.661  12.164 -0.0711  0.2303 -0.4733
  219MPD1    H5 3334   0.606   1.572  12.204 -0.7409  0.4213  0.4271
  219MPD1    N1 3335   0.481   1.885  11.724  0.4154 -0.5104 -0.3406
  219MPD1    H6 3336   0.391   1.917  11.760  0.1112  0.4995 -2.0262
  219MPD1    H7 3337   0.468   1.858  11.627 -0.5176  0.2509 -0.4234
  220MPD1     C 3338   1.431   3.117  10.197  0.3464  0.8850 -0.0855
  220MPD1    C1 3339   1.419   3.073  10.333 -0.5227  0.1803  0.5039
  220MPD1    C2 3340   1.368   2.949  10.357  0.1676 -0.2338 -0.3217
  220MPD1    C3 3341   1.304   2.878  10.260 -0.5708 -0.2433 -0.0941
  220MPD1    C4 3342   1.297   2.926  10.129 -0.3889  0.1045 -0.5218
  220MPD1    C5 3343   1.373   3.041  10.093 -0.0219  0.2378  0.1252
  220MPD1     H 3344   1.363   2.917  10.460 -0.6809  0.8224 -0.0368
  220MPD1    H1 3345   1.251   2.871  10.047 -1.7089  0.6624 -0.1511
  220MPD1    H2 3346   1.488   3.208  10.179  2.3982  0.0662  2.2997
  220MPD1    H3 3347   1.392   3.079   9.994 -0.0812 -2.4900 -0.9508
  220MPD1     N 3348   1.239   2.755  10.288  0.1359 -0.0545  0.4803
  220MPD1    H5 3349   1.264   2.706  10.373  0.8122  2.6914  1.8717
  220MPD1    N1 3350   1.476   3.135  10.443  0.4397 -0.3417  0.3277
  220MPD1    H6 3351   1.431   3.105  10.529  1.4360  1.1536  1.3553
  220MPD1    H7 3352   1.474   3.237  10.440  0.9072 -0.3212  0.8259
  221MPD1     C 3353   3.798   1.053  15.911 -0.8506 -0.7087 -0.3772
  221MPD1    C1 3354   3.909   0.969  15.916  0.2024 -0.0301 -0.1188
  221MPD1    C2 3355   3.903   0.862  16.007 -0.3714 -0.1577  0.5190
  221MPD1    C3 3356   3.810   0.841  16.100  0.0643 -0.4120  0.2157
  221MPD1    C4 3357   3.710   0.933  16.102  0.6607  0.1827  0.4654
  221MPD1    C5 3358   3.699   1.036  16.010 -0.1249  0.0313 -0.8193
  221MPD1     H 3359   3.991   0.798  16.004  2.2413  3.4888 -0.7503
  221MPD1    H1 3360   3.637   0.926  16.182 -1.1613  0.3511 -1.1939
  221MPD1    H2 3361   3.794   1.133  15.839  1.8463  0.5813  0.9270
  221MPD1    H3 3362   3.627   1.115  16.029 -1.8376 -1.5867 -0.5253
  221MPD1     N 3363   3.807   0.734  16.191 -0.1202 -0.1310 -0.3834
  221MPD1    H5 3364   3.723   0.724  16.248  0.8115 -0.3488  0.9622
  221MPD1    N1 3365   4.005   0.974  15.812 -0.1428 -0.0173  0.0782
  221MPD1    H6 3366   4.098   0.947  15.843 -1.5296 -2.2359  2.2718
  221MPD1    H7 3367   4.014   1.068  15.774  1.3002 -0.3292 -0.3432
  222MPD1     C 3368   2.590   0.158  16.816  0.3321 -0.5122  0.6360
  222MPD1    C1 3369   2.513   0.103  16.916 -0.4930 -0.1695  0.0593
  222MPD1    C2 3370   2.575   0.015  17.014 -0.5419  0.0792  0.4029
  222MPD1    C3 3371   2.712   4.718  17.009 -0.0631  0.1052  0.7751
  222MPD1    C4 3372   2.783   0.045  16.891 -0.4226  0.1719  0.2155
  222MPD1    C5 3373   2.718   0.116  16.798  0.0612  0.7299 -0.4170
  222MPD1     H 3374   2.509   4.677  17.079  1.7127 -2.2975  0.5740
  222MPD1    H1 3375   2.888   0.019  16.885 -1.1234 -2.5523 -0.2558
  222MPD1    H2 3376   2.542   0.223  16.744 -1.7731 -0.8154  1.7588
  222MPD1    H3 3377   2.775   0.151  16.712 -0.7109  1.5847 -0.5787
  222MPD1     N 3378   2.784   4.644  17.107 -0.0821  0.3878 -0.0372
  222MPD1    H5 3379   2.882   4.623  17.086  0.3171  0.8810  1.3290
  222MPD1    N1 3380   2.370   0.114  16.920  0.4696  0.1304 -0.5064
  222MPD1    H6 3381   2.321   0.173  16.852 -2.5225  0.3341  1.8347
  222MPD1    H7 3382   2.338   0.146  17.011  0.6130 -2.1224  0.3114
  223MPD1     C 3383   3.279   3.845  17.033  0.4365  0.1053  0.4904
  223MPD1    C1 3384   3.224   3.817  17.154 -0.1081  0.2063 -0.1670
  223MPD1    C2 3385   3.137   3.909  17.211 -0.6336  0.2132  0.7900
  223MPD1    C3 3386   3.134   4.035  17.173  0.2445 -0.4071  0.1388
  223MPD1    C4 3387   3.201   4.074  17.054 -0.7799  0.0120  0.1080
  223MPD1    C5 3388   3.264   3.971  16.987  0.2174  0.3710 -0.6917
  223MPD1     H 3389   3.079   3.875  17.297 -1.2452  1.5498  0.8990
  223MPD1    H1 3390   3.202   4.172  17.008  2.3383  1.1065  2.4525
  223MPD1    H2 3391   3.320   3.765  16.972 -0.9445 -0.9559  0.9631
  223MPD1    H3 3392   3.308   3.994  16.890  0.2463  0.4608 -0.6581
  223MPD1     N 3393   3.053   4.120  17.256 -0.1090  0.5487 -0.3178
  223MPD1    H5 3394   2.985   4.064  17.306  1.7260 -0.3542  1.2114
  223MPD1    N1 3395   3.216   3.684  17.198 -0.1001  0.1196 -0.2725
  223MPD1    H6 3396   3.297   3.630  17.169 -0.9193 -0.9901 -0.4911
  223MPD1    H7 3397   3.205   3.674  17.299  0.5659 -0.5063 -0.2648
  224MPD1     C 3398   4.573   1.661   8.581  0.8086 -0.4585 -0.1695
  224MPD1    C1 3399   4.672   1.573   8.611  0.1960  0.0998 -0.4577
  224MPD1    C2 3400   4.671   1.514   8.735 -0.0981 -0.3289 -0.4964
  224MPD1    C3 3401   4.591   1.559   8.836 -0.8288 -0.5468  0.4615
  224MPD1    C4 3402   4.497   1.661   8.806 -0.0313 -0.3880 -0.4269
  224MPD1    C5 3403   4.484   1.716   8.677  0.5497  0.2062 -0.4987
  224MPD1     H 3404   0.026   1.440   8.762 -1.3197 -0.5900  2.0988
  224MPD1    H1 3405   4.434   1.696   8.886  3.2553 -0.0554  2.0231
  224MPD1    H2 3406   4.559   1.703   8.482 -3.0948 -1.6819 -0.1301
  224MPD1    H3 3407   4.406   1.791   8.667 -0.6075 -1.0476 -0.7477
  224MPD1     N 3408   4.578   1.505   8.964 -0.4398 -0.3714 -0.3867
  224MPD1    H5 3409   4.514   1.552   9.027 -1.2409 -0.9842 -0.7406
  224MPD1    N1 3410   0.038   1.532   8.504  0.0976 -0.4659  0.7545
  224MPD1    H6 3411   0.126   1.503   8.546  0.9331  0.7912 -0.1280
  224MPD1    H7 3412   0.061   1.597   8.430  2.5014  1.0140  2.8147
  225MPD1     C 3413   0.243   2.593  13.146  0.3785  0.7660 -0.3283
  225MPD1    C1 3414   0.218   2.482  13.062 -0.0766  0.2744  0.2793
  225MPD1    C2 3415   0.191   2.494  12.926  0.1457  0.3367  0.0518
  225MPD1    C3 3416   0.189   2.622  12.867  0.2835 -0.1812  0.0008
  225MPD1    C4 3417   0.212   2.729  12.952  0.7807  0.0968  0.7931
  225MPD1    C5 3418   0.253   2.710  13.082 -0.5410  0.1167  0.0768
  225MPD1     H 3419   0.193   2.407  12.862 -0.5255  0.3277  0.0389
  225MPD1    H1 3420   0.212   2.830  12.913 -0.7162 -0.4811 -0.6986
  225MPD1    H2 3421   0.246   2.582  13.254 -1.7410  0.0943 -0.3526
  225MPD1    H3 3422   0.266   2.793  13.151 -0.1906 -1.0430  1.4119
  225MPD1     N 3423   0.166   2.652  12.729  0.1327 -0.8535 -0.6000
  225MPD1    H5 3424   0.178   2.748  12.699  1.3470 -0.2234  1.9328
  225MPD1    N1 3425   0.197   2.361  13.127 -0.3894  0.4279 -0.4882
  225MPD1    H6 3426   0.251   2.339  13.210 -0.6471 -0.6429 -0.6097
  225MPD1    H7 3427   0.200   2.282  13.063 -0.1355  1.2592 -1.5181
  226MPD1     C 3428   0.566   3.006   9.748 -0.8343 -0.1394 -0.0189
  226MPD1    C1 3429   0.502   2.905   9.820  0.5340  0.2099 -0.1196
  226MPD1    C2 3430   0.389   2.839   9.769 -0.1675 -0.0422  0.5953
  226MPD1    C3 3431   0.341   2.865   9.644  0.7463 -0.2981 -0.6973
  226MPD1    C4 3432   0.412   2.963   9.574  0.4268  0.8959 -0.0403
  226MPD1    C5 3433   0.518   3.033   9.625 -0.5375  0.7209 -0.3871
  226MPD1     H 3434   0.327   2.770   9.826  0.1877 -0.1037  0.9060
  226MPD1    H1 3435   0.381   2.990   9.473  1.0270  1.1441 -0.1591
  226MPD1    H2 3436   0.652   3.061   9.785 -1.6203  0.5454  0.7961
  226MPD1    H3 3437   0.563   3.121   9.579  0.5282 -0.5492 -1.7789
  226MPD1     N 3438   0.242   2.781   9.588  0.2385 -0.2016 -0.1975
  226MPD1    H5 3439   0.200   2.710   9.647 -1.3256  0.9260  0.0650
  226MPD1    N1 3440   0.532   2.897   9.957  0.0854 -0.3429  0.8050
  226MPD1    H6 3441   0.519   2.806  10.001 -1.2736 -0.1018  0.9026
  226MPD1    H7 3442   0.627   2.919   9.985  0.8435  1.7719 -3.6205
  227MPD1     C 3443   4.290   2.151   9.884 -0.2995  0.3155  0.0785
  227MPD1    C1 3444   4.249   2.157   9.751 -0.2312  0.9581  0.1291
  227MPD1    C2 3445   4.333   2.235   9.664  0.4542  0.2776 -0.0089
  227MPD1    C3 3446   4.428   2.321   9.710 -0.4165  0.0143 -0.2367
  227MPD1    C4 3447   4.446   2.332   9.846 -0.0060 -0.3362 -0.4276
  227MPD1    C5 3448   4.386   2.237   9.930  0.3245 -0.1673  0.0719
  227MPD1     H 3449   4.305   2.229   9.559  1.6593  0.4777 -0.3374
  227MPD1    H1 3450   4.523   2.398   9.884  1.6745 -0.9855 -2.6955
  227MPD1    H2 3451   4.232   2.096   9.958 -0.1115  0.1466  0.0989
  227MPD1    H3 3452   4.402   2.250  10.036  1.6602  0.0961 -0.1687
  227MPD1     N 3453   4.502   2.384   9.613 -0.2220  0.0832 -0.0942
  227MPD1    H5 3454   4.492   2.341   9.521 -0.0526  0.1046 -0.1241
  227MPD1    N1 3455   4.173   2.053   9.692 -0.3151  0.1444 -0.6694
  227MPD1    H6 3456   4.131   2.070   9.601 -2.1169 -0.2385  0.0788
  227MPD1    H7 3457   4.106   2.008   9.754 -0.9618 -0.4055 -1.7680
  228MPD1     C 3458   2.538   0.338  13.179  0.1164 -0.1164  0.5036
  228MPD1    C1 3459   2.486   0.432  13.095 -0.6346 -0.5636 -0.6400
  228MPD1    C2 3460   2.351   0.414  13.061  0.0811  0.6872  0.3579
  228MPD1    C3 3461   2.274   0.311  13.113  1.0687 -0.8770  1.1267
  228MPD1    C4 3462   2.328   0.229  13.206  0.1196  1.1021 -0.0220
  228MPD1    C5 3463   2.459   0.241  13.229  0.6378 -0.2843  0.1997
  228MPD1     H 3464   2.297   0.481  12.996  0.2443 -0.4113 -0.9191
  228MPD1    H1 3465   2.275   0.160  13.271  1.3592 -0.9307 -1.1594
  228MPD1    H2 3466   2.644   0.349  13.202  0.3233 -1.9975  0.4163
  228MPD1    H3 3467   2.492   0.170  13.303  0.2620  1.1718  1.7613
  228MPD1     N 3468   2.138   0.302  13.067  0.2351 -0.3121  0.4307
  228MPD1    H5 3469   2.112   0.369  12.995  1.0642 -1.4410 -0.9051
  228MPD1    N1 3470   2.574   0.505  13.013 -0.0753  0.0959 -0.6833
  228MPD1    H6 3471   2.658   0.528  13.066  0.9229  1.2622 -2.7926
  228MPD1    H7 3472   2.522   0.588  12.983 -0.3110 -0.2450 -1.2167
  229MPD1     C 3473   1.809   4.016  14.299 -0.2479 -0.0063  0.3164
  229MPD1    C1 3474   1.706   3.942  14.351  0.2015  0.7517  0.0425
  229MPD1    C2 3475   1.741   3.829  14.426  0.2257  0.6055  0.3640
  229MPD1    C3 3476   1.871   3.784  14.434  0.1357 -0.2142  0.0003
  229MPD1    C4 3477   1.968   3.860  14.375  1.0025 -0.6989 -0.8581
  229MPD1    C5 3478   1.938   3.973  14.310 -0.4617  0.3985 -0.3381
  229MPD1     H 3479   1.661   3.772  14.471 -1.4895  2.3660 -0.4233
  229MPD1    H1 3480   2.063   3.811  14.362  0.0897 -2.1296 -2.1114
  229MPD1    H2 3481   1.795   4.106  14.241  1.0393  1.3981  2.2323
  229MPD1    H3 3482   2.014   4.033  14.261  0.4862  0.7388  1.5490
  229MPD1     N 3483   1.903   3.655  14.496 -0.7149  0.2995  0.1183
  229MPD1    H5 3484   2.000   3.624  14.495 -0.7270  0.2333  0.9222
  229MPD1    N1 3485   1.576   3.990  14.328  0.5878 -0.0825 -1.0298
  229MPD1    H6 3486   1.519   3.969  14.410 -0.4133 -1.4881 -2.0829
  229MPD1    H7 3487   1.577   4.088  14.302  1.6312  0.3726  0.6892
  230MPD1     C 3488   1.827   3.497  15.395 -0.0983  0.2297  0.9110
  230MPD1    C1 3489   1.719   3.530  15.312 -0.0119  0.7982 -0.0050
  230MPD1    C2 3490   1.725   3.487  15.179  0.0942 -0.1225 -0.7129
  230MPD1    C3 3491   1.837   3.412  15.133 -1.1215 -0.1811  0.9006
  230MPD1    C4 3492   1.936   3.376  15.224 -0.2197 -0.4375  0.0761
  230MPD1    C5 3493   1.932   3.417  15.348 -0.3088  0.9878  0.3788
  230MPD1     H 3494   1.648   3.516  15.108 -1.2998 -2.5712 -0.2010
  230MPD1    H1 3495   2.022   3.317  15.193  1.0612  1.6883 -0.4469
  230MPD1    H2 3496   1.826   3.535  15.497 -0.1491  1.2477  0.5278
  230MPD1    H3 3497   2.009   3.402  15.423 -0.0331  1.6174  0.2164
  230MPD1     N 3498   1.833   3.381  14.992 -0.6087  0.0804  0.4030
  230MPD1    H5 3499   1.757   3.431  14.947 -0.3871  0.5614  0.5575
  230MPD1    N1 3500   1.602   3.593  15.362  0.3736 -0.1915 -0.1881
  230MPD1    H6 3501   1.630   3.666  15.427  2.9323 -0.5200 -0.9088
  230MPD1    H7 3502   1.539   3.625  15.289  0.1121 -1.6465 -0.5956
  231MPD1     C 3503   4.678   0.212  15.636 -0.7083  0.4410  0.6203
  231MPD1    C1 3504   4.609   0.272  15.529  0.0641 -0.2900 -0.0196
  231MPD1    C2 3505   4.674   0.371  15.458  0.0327  0.1785 -0.6498
  231MPD1    C3 3506   0.086   0.389  15.468 -0.6126 -0.3483 -0.5629
  231MPD1    C4 3507   0.157   0.333  15.577 -0.2380 -0.5024  0.0106
  231MPD1    C5 3508   0.087   0.251  15.661  0.2980  0.7278 -0.1166
  231MPD1     H 3509   4.636   0.411  15.365  0.4708  1.9511 -0.0657
  231MPD1    H1 3510   0.259   0.348  15.610 -0.8818  3.0269  0.3979
  231MPD1    H2 3511   4.625   0.153  15.710 -0.0101 -0.0260  0.7475
  231MPD1    H3 3512   0.132   0.233  15.758 -0.2045 -2.3816 -0.4774
  231MPD1     N 3513   0.146   0.489  15.393  0.2804 -0.0169 -0.3863
  231MPD1    H5 3514   0.094   0.529  15.316 -1.3780 -0.1296  0.6931
  231MPD1    N1 3515   4.474   0.251  15.506  0.4109  0.0646 -0.1913
  231MPD1    H6 3516   4.454   0.272  15.408  1.3480  1.8791  0.0139
  231MPD1    H7 3517   4.453   0.153  15.524 -0.3161  0.3156  0.3390
  232MPD1     C 3518   2.712   2.764  17.329 -0.8811 -0.0632  0.5365
  232MPD1    C1 3519   2.640   2.652  17.354  0.0109 -0.2576  0.6838
  232MPD1    C2 3520   2.513   2.667  17.407  0.2831 -0.0980  0.0063
  232MPD1    C3 3521   2.457   2.783  17.440  0.9405  0.0676 -0.3886
  232MPD1    C4 3522   2.528   2.900  17.410 -0.3343  0.1325  0.4130
  232MPD1    C5 3523   2.651   2.886  17.351 -0.4337  0.0669 -0.2635
  232MPD1     H 3524   2.460   2.576  17.435 -0.5029  0.1795 -0.5816
  232MPD1    H1 3525   2.497   3.002  17.429  1.3657  0.9606 -1.3094
  232MPD1    H2 3526   2.813   2.765  17.289 -2.1290 -0.5546 -2.5737
  232MPD1    H3 3527   2.693   2.986  17.342 -1.4683  0.2456 -2.9553
  232MPD1     N 3528   2.334   2.774  17.508 -0.2048 -0.8256  0.2033
  232MPD1    H5 3529   2.298   2.679  17.518  1.3474 -1.4947 -0.5085
  232MPD1    N1 3530   2.687   2.525  17.319  0.3343  0.5326  0.3488
  232MPD1    H6 3531   2.648   2.447  17.371 -0.0925 -0.0186 -0.7849
  232MPD1    H7 3532   2.788   2.525  17.331 -0.0229  0.5395  3.3115
  233MPD1     C 3533   2.789   1.381   0.104 -0.1862  0.0262  0.5718
  233MPD1    C1 3534   2.712   1.284   0.155  0.4800  0.8807  0.5063
  233MPD1    C2 3535   2.758   1.222   0.273  0.3122  0.6443 -0.1703
  233MPD1    C3 3536   2.865   1.267   0.344  0.9941  0.3188  0.3552
  233MPD1    C4 3537   2.933   1.370   0.289  0.2359  0.3365 -0.5137
  233MPD1    C5 3538   2.887   1.428   0.181  0.5518 -0.1487 -1.3506
  233MPD1     H 3539   2.710   1.130   0.305  1.5772 -0.2813 -0.9254
  233MPD1    H1 3540   3.013   1.420   0.344 -0.1605  0.6869 -0.2510
  233MPD1    H2 3541   2.757   1.431   0.012 -1.5674 -0.9570  0.5192
  233MPD1    H3 3542   2.937   1.521   0.159 -0.7919  1.1180  0.9941
  233MPD1     N 3543   2.919   1.207   0.470 -0.4488  0.4653 -0.1591
  233MPD1    H5 3544   3.004   1.249   0.505  0.7828 -1.0156 -1.3916
  233MPD1    N1 3545   2.611   1.222   0.082 -0.1277 -0.7361  0.6465
  233MPD1    H6 3546   2.560   1.276   0.012 -1.4044  0.6441  2.6303
  233MPD1    H7 3547   2.544   1.185   0.149 -0.0379  0.1314  1.2104
  234MPD1     C 3548   0.490   4.610  10.021  0.7048  0.0340  0.5257
  234MPD1    C1 3549   0.418   4.638   9.909 -0.9609 -0.0239 -0.2539
  234MPD1    C2 3550   0.419   0.050   9.859  0.2357 -0.2679 -0.1619
  234MPD1    C3 3551   0.484   0.150   9.930 -0.5562 -0.2957  0.4806
  234MPD1    C4 3552   0.533   0.121  10.054 -0.2345 -0.5515  0.1367
  234MPD1    C5 3553   0.540   4.712  10.098  1.0885 -0.6742  0.1558
  234MPD1     H 3554   0.372   0.068   9.762 -0.2740 -2.0939 -0.2466
  234MPD1    H1 3555   0.566   0.201  10.119 -2.8069  0.9907 -0.4458
  234MPD1    H2 3556   0.499   4.512  10.067 -1.5783 -1.1901 -1.6394
  234MPD1    H3 3557   0.585   4.690  10.194  1.3793  0.4399  0.2740
  234MPD1     N 3558   0.495   0.280   9.872  0.6296 -0.6366 -0.1359
  234MPD1    H5 3559   0.473   0.287   9.773 -1.6484  0.3060  0.4238
  234MPD1    N1 3560   0.358   4.530   9.840  0.5816  0.0347 -0.4426
  234MPD1    H6 3561   0.325   4.455   9.901 -2.4451  2.1282  0.5006
  234MPD1    H7 3562   0.286   4.557   9.774  0.0321 -0.5101 -0.0705
  235MPD1     C 3563   0.088   3.286   9.458  0.5977 -0.6759  0.2718
  235MPD1    C1 3564   0.180   3.229   9.540  0.2388 -0.3944  0.3127
  235MPD1    C2 3565   0.315   3.259   9.512  1.3014  0.3262 -0.6357
  235MPD1    C3 3566   0.356   3.311   9.387 -0.3304  0.3026 -0.0540
  235MPD1    C4 3567   0.251   3.359   9.305  0.3301 -0.2633 -0.1138
  235MPD1    C5 3568   0.119   3.354   9.345 -0.5189  0.9894  0.0061
  235MPD1     H 3569   0.388   3.222   9.584  1.1640  1.3760  0.0350
  235MPD1    H1 3570   0.270   3.413   9.212  1.7970  0.3248  0.5245
  235MPD1    H2 3571   4.701   3.278   9.474  0.6368 -2.2893 -0.3105
  235MPD1    H3 3572   0.044   3.405   9.286 -0.3117 -2.1080 -2.8957
  235MPD1     N 3573   0.495   3.313   9.361 -0.2469  0.5525 -0.3070
  235MPD1    H5 3574   0.561   3.267   9.423  0.6073  1.1847 -0.7511
  235MPD1    N1 3575   0.147   3.155   9.654  0.1256 -0.2064 -0.7521
  235MPD1    H6 3576   0.054   3.114   9.655 -0.7053  1.7369  1.4273
  235MPD1    H7 3577   0.215   3.082   9.678  0.4927  0.3032 -0.2243
  236MPD1     C 3578   1.449   3.723   9.090  0.6264  0.3663 -0.3113
  236MPD1    C1 3579   1.320   3.680   9.108 -0.2059 -0.5611 -0.3277
  236MPD1    C2 3580   1.257   3.701   9.234 -0.4368 -0.1023  0.6057
  236MPD1    C3 3581   1.336   3.752   9.341 -0.2094  0.6335  0.0438
  236MPD1    C4 3582   1.465   3.793   9.315 -0.4204 -0.9874 -0.2621
  236MPD1    C5 3583   1.526   3.777   9.189  0.0527 -0.4754  0.3473
  236MPD1     H 3584   1.159   3.657   9.247 -0.9432  0.7770 -0.2828
  236MPD1    H1 3585   1.528   3.845   9.386  0.2434  0.1560 -1.6909
  236MPD1    H2 3586   1.495   3.699   8.995 -0.3272 -2.0497 -0.1619
  236MPD1    H3 3587   1.633   3.792   9.179  0.3201 -1.0269  2.3846
  236MPD1     N 3588   1.285   3.772   9.468  0.2320 -0.5013 -0.2802
  236MPD1    H5 3589   1.349   3.814   9.535 -0.9931  0.3524  0.3362
  236MPD1    N1 3590   1.245   3.645   8.993 -0.0301  0.2647  0.1317
  236MPD1    H6 3591   1.170   3.582   9.020 -1.0964  1.3231 -0.3691
  236MPD1    H7 3592   1.307   3.605   8.923  0.8125 -0.4710  1.3101
  237MPD1     C 3593   0.736   2.705  15.260 -0.4283  0.1010  0.0875
  237MPD1    C1 3594   0.692   2.650  15.377  0.5135 -0.7114  0.2202
  237MPD1    C2 3595   0.663   2.518  15.374 -0.4517  0.5104 -0.2035
  237MPD1    C3 3596   0.686   2.441  15.257 -0.5760 -0.2269  0.7784
  237MPD1    C4 3597   0.732   2.498  15.135 -0.0827  0.0649 -0.2138
  237MPD1    C5 3598   0.764   2.632  15.150 -0.3577  0.1192 -0.4216
  237MPD1     H 3599   0.621   2.473  15.463  2.3210 -0.8369  0.4211
  237MPD1    H1 3600   0.748   2.440  15.045  1.4450  1.2024 -0.6808
  237MPD1    H2 3601   0.754   2.812  15.252 -1.1113  0.2415  0.4912
  237MPD1    H3 3602   0.804   2.685  15.065  0.1010  0.2044 -0.1511
  237MPD1     N 3603   0.652   2.304  15.254 -0.1980  0.3250  0.1643
  237MPD1    H5 3604   0.658   2.256  15.164  0.3641  1.7629 -0.5617
  237MPD1    N1 3605   0.629   2.734  15.474 -0.2117 -0.6285 -0.2971
  237MPD1    H6 3606   0.642   2.691  15.566 -2.1201 -0.2637  0.1408
  237MPD1    H7 3607   0.663   2.829  15.490  1.4802 -0.8448 -2.6216
  238MPD1     C 3608   1.612   1.701  15.481 -0.3026  0.4415 -0.0083
  238MPD1    C1 3609   1.712   1.728  15.384 -0.5894  0.3340 -0.4465
  238MPD1    C2 3610   1.752   1.626  15.297  0.4791  0.3280 -0.0524
  238MPD1    C3 3611   1.690   1.503  15.309  0.1520 -0.6889  0.4560
  238MPD1    C4 3612   1.580   1.488  15.392  0.6619  0.0794  0.0736
  238MPD1    C5 3613   1.547   1.585  15.478  0.2520  0.8319 -0.3186
  238MPD1     H 3614   1.829   1.644  15.223 -1.4763 -0.0249 -2.1748
  238MPD1    H1 3615   1.529   1.393  15.403  1.9856 -0.6495 -0.0312
  238MPD1    H2 3616   1.577   1.787  15.537 -1.1187  0.5650 -0.7055
  238MPD1    H3 3617   1.459   1.579  15.541 -2.7387  2.7776 -4.2791
  238MPD1     N 3618   1.734   1.394  15.227  0.3028 -0.4445 -0.6916
  238MPD1    H5 3619   1.681   1.310  15.246  0.7168 -0.3578  0.7955
  238MPD1    N1 3620   1.789   1.844  15.394  0.0626  0.3758 -0.3893
  238MPD1    H6 3621   1.824   1.879  15.305 -0.8383  2.3992  0.0670
  238MPD1    H7 3622   1.753   1.916  15.456 -0.5586 -0.8599  0.6925
  239MPD1     C 3623   2.281   1.670  14.637  0.0917  0.2205  0.2564
  239MPD1    C1 3624   2.383   1.733  14.569  0.4624 -0.7053  0.0531
  239MPD1    C2 3625   2.354   1.793  14.452  0.6854 -1.2851  0.2345
  239MPD1    C3 3626   2.223   1.804  14.409 -0.0419  0.2220 -0.4099
  239MPD1    C4 3627   2.125   1.744  14.477  0.0779 -0.2228 -0.3640
  239MPD1    C5 3628   2.153   1.680  14.592  0.1211  0.3461 -0.3844
  239MPD1     H 3629   2.437   1.835  14.395  0.0676 -1.2792 -0.6549
  239MPD1    H1 3630   2.020   1.747  14.451  0.0303 -0.2839 -0.1798
  239MPD1    H2 3631   2.298   1.617  14.730  1.3254 -0.5774 -0.4050
  239MPD1    H3 3632   2.069   1.629  14.638 -0.6758  1.1731 -0.9286
  239MPD1     N 3633   2.184   1.872  14.288  0.2986  0.4561 -0.0437
  239MPD1    H5 3634   2.085   1.889  14.270 -0.1533 -1.6102  0.5801
  239MPD1    N1 3635   2.516   1.712  14.611  0.4018 -0.3030  0.0015
  239MPD1    H6 3636   2.524   1.700  14.712 -0.7867  3.4867  0.5281
  239MPD1    H7 3637   2.576   1.792  14.594 -0.6126  0.7437  1.3958
  240MPD1     C 3638   1.461   1.811  13.587  0.2934 -0.4191  0.6437
  240MPD1    C1 3639   1.344   1.784  13.650 -0.4968 -0.4030  0.8054
  240MPD1    C2 3640   1.363   1.740  13.781  0.3678 -0.0471 -0.0409
  240MPD1    C3 3641   1.488   1.718  13.842 -0.3584  0.4993  0.4507
  240MPD1    C4 3642   1.597   1.762  13.768  0.2593 -0.3252  0.5252
  240MPD1    C5 3643   1.587   1.794  13.637 -0.3842 -0.0325  0.1149
  240MPD1     H 3644   1.278   1.738  13.847 -0.6639  0.7394 -1.3471
  240MPD1    H1 3645   1.700   1.747  13.796  0.2407 -0.2090  0.6581
  240MPD1    H2 3646   1.468   1.851  13.487 -2.2804  2.2827  1.5315
  240MPD1    H3 3647   1.674   1.819  13.579 -0.4544  0.0683  0.0528
  240MPD1     N 3648   1.499   1.659  13.973  0.2878 -0.9765 -0.4956
  240MPD1    H5 3649   1.413   1.622  14.013 -0.1745 -1.6906 -2.1284
  240MPD1    N1 3650   1.222   1.836  13.615 -0.1812 -0.2168 -0.0090
  240MPD1    H6 3651   1.142   1.807  13.672 -0.4401  0.3297 -0.0866
  240MPD1    H7 3652   1.204   1.815  13.517  2.1470  1.3962 -0.7861
  241MPD1     C 3653   1.748   1.799  14.976  0.0510  0.5011 -0.2127
  241MPD1    C1 3654   1.781   1.870  14.863  0.4346  0.2003  1.0912
  241MPD1    C2 3655   1.777   1.797  14.745 -0.1174  0.8174  0.3181
  241MPD1    C3 3656   1.742   1.659  14.738  0.5427  0.6228  0.3311
  241MPD1    C4 3657   1.698   1.599  14.854  0.3915  0.1074  0.3924
  241MPD1    C5 3658   1.700   1.667  14.967  0.6036 -0.6115 -0.2684
  241MPD1     H 3659   1.777   1.856  14.654  0.2916  1.4469  0.7277
  241MPD1    H1 3660   1.664   1.497  14.861  1.8537 -0.5160 -1.7933
  241MPD1    H2 3661   1.754   1.843  15.076 -1.1175  1.2965 -0.4939
  241MPD1    H3 3662   1.666   1.618  15.057 -0.4721  0.9316  0.1638
  241MPD1     N 3663   1.711   1.585  14.618  0.0441 -0.8285 -0.3893
  241MPD1    H5 3664   1.664   1.495  14.613 -2.4480  0.4931 -0.4618
  241MPD1    N1 3665   1.771   2.009  14.876  0.4152 -0.6543 -0.0731
  241MPD1    H6 3666   1.811   2.053  14.794  0.1834  0.6355  0.5065
  241MPD1    H7 3667   1.806   2.057  14.958  1.8477 -3.3693  0.8883
  242MPD1     C 3668   2.228   4.253  15.643  0.4754  0.1847  0.1918
  242MPD1    C1 3669   2.289   4.296  15.526  0.0659  0.0939 -1.1528
  242MPD1    C2 3670   2.271   4.219  15.411  0.7790 -0.1942  0.2089
  242MPD1    C3 3671   2.198   4.102  15.412 -0.2534  0.6445  0.5208
  242MPD1    C4 3672   2.131   4.068  15.523 -0.3192 -0.7911 -0.2455
  242MPD1    C5 3673   2.145   4.141  15.640  0.2022 -0.0085 -0.2089
  242MPD1     H 3674   2.292   4.256  15.312 -0.7461  0.0292 -0.0421
  242MPD1    H1 3675   2.072   3.977  15.525 -1.2040 -0.1902  1.0355
  242MPD1    H2 3676   2.237   4.314  15.732  2.9743 -0.5912  0.4729
  242MPD1    H3 3677   2.083   4.124  15.727  0.4655 -3.0643 -0.6372
  242MPD1     N 3678   2.153   4.031  15.298 -0.3370 -0.2162  0.5770
  242MPD1    H5 3679   2.075   3.966  15.304 -2.7160  2.5598 -0.2900
  242MPD1    N1 3680   2.344   4.422  15.522  0.1433  0.5681 -0.2131
  242MPD1    H6 3681   2.423   4.431  15.458 -0.0767 -1.4767 -0.7655
  242MPD1    H7 3682   2.395   4.450  15.605 -0.5638 -0.0246  0.4161
  243MPD1     C 3683   2.895   2.977  17.628 -0.5165  0.6180 -0.3766
  243MPD1    C1 3684   2.924   2.841  17.649 -0.5062 -0.3134 -0.3595
  243MPD1    C2 3685   2.996   2.784  17.555  0.1387 -0.2528  0.3878
  243MPD1    C3 3686   3.051   2.842  17.437  0.0672  0.3924  0.4469
  243MPD1    C4 3687   3.025   2.976  17.427  0.1899  0.0226  0.1289
  243MPD1    C5 3688   2.963   3.044  17.528  0.4233  0.0334 -0.1117
  243MPD1     H 3689   3.016   2.677  17.560 -0.2671 -0.3389  0.1626
  243MPD1    H1 3690   3.062   3.039  17.347  0.4309 -0.5898 -0.2469
  243MPD1    H2 3691   2.843   3.035   0.023 -0.0658 -0.8356  1.0298
  243MPD1    H3 3692   2.949   3.151  17.517 -0.3803  0.4666  5.1870
  243MPD1     N 3693   3.137   2.771  17.349  0.0229 -0.1241 -0.3353
  243MPD1    H5 3694   3.141   2.670  17.354  0.8525 -0.0971 -0.4274
  243MPD1    N1 3695   2.866   2.762   0.076  0.0259  0.2335 -0.5500
  243MPD1    H6 3696   2.776   2.723   0.050 -0.3781  0.8337 -0.0549
  243MPD1    H7 3697   2.928   2.683   0.093 -2.5101 -1.5158  0.5165
  244MPD1     C 3698   3.815   2.059  17.239 -0.3905  0.2655 -0.0560
  244MPD1    C1 3699   3.852   2.126  17.119  0.0891 -0.5354  0.5589
  244MPD1    C2 3700   3.767   2.236  17.092 -0.1789 -0.2223 -0.1016
  244MPD1    C3 3701   3.645   2.265  17.159 -0.4874  0.2494 -0.0685
  244MPD1    C4 3702   3.615   2.195  17.277  0.5395  0.4647 -0.7153
  244MPD1    C5 3703   3.699   2.085  17.300  0.3923 -0.5273 -0.3779
  244MPD1     H 3704   3.795   2.288  17.001 -0.0090  3.1703  1.8860
  244MPD1    H1 3705   3.528   2.211  17.340 -0.0971  1.1272 -1.7646
  244MPD1    H2 3706   3.876   1.983  17.287  0.6839  0.1709 -1.5513
  244MPD1    H3 3707   3.685   2.016  17.382  1.5273 -0.9342 -0.5280
  244MPD1     N 3708   3.570   2.383  17.119  0.2520  0.5516  0.9266
  244MPD1    H5 3709   3.620   2.437  17.048  2.8884  0.3179  2.5958
  244MPD1    N1 3710   3.987   2.123  17.066  0.2714 -0.0923 -0.7576
  244MPD1    H6 3711   3.984   2.170  16.975  0.5586  0.3109 -0.5617
  244MPD1    H7 3712   4.014   2.025  17.071 -2.6563 -0.8171  0.8141
  245MPD1     C 3713   4.497   3.395  13.502 -0.0080 -0.3053 -0.8610
  245MPD1    C1 3714   4.612   3.330  13.514  0.9283  0.5651  0.7571
  245MPD1    C2 3715   0.008   3.411  13.527 -0.1075  0.1370  0.1137
  245MPD1    C3 3716   0.005   3.551  13.527  0.1695  0.4698 -0.1162
  245MPD1    C4 3717   4.602   3.609  13.530  0.1454 -0.3297 -0.0203
  245MPD1    C5 3718   4.493   3.526  13.517  0.3709 -0.2112  0.5358
  245MPD1     H 3719   0.106   3.364  13.533 -0.5927 -0.8332  0.4292
  245MPD1    H1 3720   4.581   3.715  13.538 -0.0364 -0.2857 -1.1829
  245MPD1    H2 3721   4.400   3.346  13.494  0.8195 -2.4053  1.9174
  245MPD1    H3 3722   4.393   3.568  13.511  0.5036  0.0599  0.2320
  245MPD1     N 3723   0.126   3.627  13.557  0.7567 -0.4990 -0.6110
  245MPD1    H5 3724   0.210   3.571  13.561  0.3737 -1.0567 -0.2899
  245MPD1    N1 3725   4.621   3.197  13.480  0.9042 -0.2383 -0.0084
  245MPD1    H6 3726   4.699   3.150  13.526  0.4745 -1.1907 -0.2586
  245MPD1    H7 3727   4.542   3.144  13.515  0.4254 -0.0855 -0.8668
  246MPD1     C 3728   1.263   3.829   7.468  0.5417 -0.1578  0.5577
  246MPD1    C1 3729   1.281   3.760   7.590 -0.2708 -0.4819  0.6197
  246MPD1    C2 3730   1.350   3.822   7.696 -0.3062 -0.0157  0.4275
  246MPD1    C3 3731   1.424   3.936   7.678 -0.5010  0.1434 -0.1742
  246MPD1    C4 3732   1.411   4.002   7.552 -0.6047  0.0958  0.4851
  246MPD1    C5 3733   1.320   3.954   7.460  0.7679  0.1996  0.2316
  246MPD1     H 3734   1.357   3.779   7.795  1.6476 -0.3673  0.1293
  246MPD1    H1 3735   1.454   4.101   7.547 -1.6314  0.4794 -0.7109
  246MPD1    H2 3736   1.209   3.792   7.383 -0.0551  1.2696  0.3206
  246MPD1    H3 3737   1.296   4.016   7.374  2.4282  1.0001  0.3557
  246MPD1     N 3738   1.508   3.979   7.786  0.7527  0.3030 -0.2993
  246MPD1    H5 3739   1.507   3.911   7.862  0.5994  0.4996 -0.1249
  246MPD1    N1 3740   1.213   3.647   7.612 -0.0528  0.1544 -0.3036
  246MPD1    H6 3741   1.175   3.601   7.530 -0.8580 -1.3280  0.9125
  246MPD1    H7 3742   1.283   3.585   7.653  1.4115  2.4858  0.7299
  247MPD1     C 3743   3.830   2.964  15.682 -0.1854 -0.0105  0.4712
  247MPD1    C1 3744   3.854   3.100  15.651 -0.3464 -0.2778 -0.0562
  247MPD1    C2 3745   3.953   3.137  15.563  0.0566  0.1303 -0.0426
  247MPD1    C3 3746   4.043   3.039  15.524  0.3463 -1.0756  0.2509
  247MPD1    C4 3747   4.025   2.905  15.562  0.3214  0.6314 -0.1160
  247MPD1    C5 3748   3.922   2.868  15.647  0.8086 -0.1694  0.7642
  247MPD1     H 3749   3.951   3.233  15.512  1.1158  0.9552  1.4547
  247MPD1    H1 3750   4.079   2.822  15.517 -0.2297  0.4909 -0.5096
  247MPD1    H2 3751   3.756   2.943  15.758  0.9766  1.6107  2.0590
  247MPD1    H3 3752   3.914   2.770  15.693 -0.4088 -1.8208 -3.0219
  247MPD1     N 3753   4.153   3.063  15.437 -0.1590  0.3358  1.2190
  247MPD1    H5 3754   4.214   2.987  15.412  0.7261  1.5409 -0.2548
  247MPD1    N1 3755   3.781   3.201  15.719 -0.4376  0.2578  0.4305
  247MPD1    H6 3756   3.767   3.284  15.662  0.5534  0.9085  1.1131
  247MPD1    H7 3757   3.684   3.178  15.734 -0.1827 -0.5821  0.7875
  248MPD1     C 3758   0.733   2.563  17.410 -0.6689  0.2323 -0.1143
  248MPD1    C1 3759   0.596   2.592  17.419 -0.8433  0.5250 -0.2932
  248MPD1    C2 3760   0.564   2.699  17.503 -0.3403  0.2358  0.4216
  248MPD1    C3 3761   0.665   2.786  17.554  0.0582  0.2169 -0.7678
  248MPD1    C4 3762   0.795   2.759  17.532 -0.4546 -0.0587 -0.0581
  248MPD1    C5 3763   0.828   2.645  17.465 -0.1673  0.2354 -0.1470
  248MPD1     H 3764   0.461   2.713  17.532 -0.4311 -0.4673  0.4331
  248MPD1    H1 3765   0.875   2.815  17.579 -0.7340  0.3393 -0.0578
  248MPD1    H2 3766   0.762   2.477  17.351  1.4469 -0.0896  1.3969
  248MPD1    H3 3767   0.932   2.614  17.465  0.0304  0.8842 -0.3619
  248MPD1     N 3768   0.628   2.896  17.634 -0.0025  0.0158 -1.0454
  248MPD1    H5 3769   0.531   2.897  17.663 -0.0122  0.2207 -1.0857
  248MPD1    N1 3770   0.494   2.507  17.369  0.0642 -0.1427  0.1944
  248MPD1    H6 3771   0.402   2.549  17.357  0.8122  1.2633 -0.5550
  248MPD1    H7 3772   0.516   2.459  17.282 -1.5881  0.7728 -0.7323
  249MPD1     C 3773   0.973   2.438   9.468 -0.2784 -0.4915  0.1735
  249MPD1    C1 3774   1.048   2.523   9.397 -0.3654 -0.0731 -0.1288
  249MPD1    C2 3775   1.185   2.538   9.430 -0.4867  0.8666  0.0922
  249MPD1    C3 3776   1.241   2.490   9.548 -0.4548  0.4199  0.5263
  249MPD1    C4 3777   1.151   2.414   9.632  0.2662  1.5104  0.1808
  249MPD1    C5 3778   1.026   2.396   9.584  0.1858 -0.5053  0.1466
  249MPD1     H 3779   1.245   2.589   9.356  1.6392 -2.6747 -0.5986
  249MPD1    H1 3780   1.185   2.375   9.727  3.4066 -0.3640 -1.7196
  249MPD1    H2 3781   0.871   2.415   9.439 -0.5090 -0.0388  0.6245
  249MPD1    H3 3782   0.966   2.330   9.645 -3.3057  0.3709 -2.3176
  249MPD1     N 3783   1.377   2.519   9.586  0.9097 -0.6861  0.4374
  249MPD1    H5 3784   1.433   2.583   9.531 -1.5279  0.1375 -1.0735
  249MPD1    N1 3785   0.997   2.580   9.280 -0.0948 -0.7334 -0.2903
  249MPD1    H6 3786   0.900   2.612   9.278  0.0154 -0.2942  0.9728
  249MPD1    H7 3787   1.055   2.650   9.235 -0.5488 -0.1422  0.0515
  250MPD2     C 3788   3.315   2.464  12.393  0.5898  0.5802 -0.1434
  250MPD2    C1 3789   3.201   2.441  12.461  0.6089 -0.4552  0.4410
  250MPD2    C2 3790   3.165   2.306  12.482 -0.3573  0.3654  0.5065
  250MPD2    C3 3791   3.241   2.200  12.421  0.2855  0.3336 -0.1866
  250MPD2    C4 3792   3.352   2.238  12.349 -0.3666  0.0034  0.0133
  250MPD2    C5 3793   3.396   2.365  12.341  0.7826  0.0406 -0.6802
  250MPD2     H 3794   3.068   2.288  12.527 -1.1227  0.9821 -0.8953
  250MPD2    H1 3795   3.415   2.165  12.299  0.0050  1.4963 -1.6989
  250MPD2    H2 3796   3.342   2.568  12.383  2.5324 -0.0717 -1.7661
  250MPD2    H3 3797   3.483   2.386  12.279  0.5759  0.4962 -0.8213
  250MPD2     N 3798   3.200   2.067  12.424 -0.7875 -0.0362 -0.5646
  250MPD2    H5 3799   3.244   2.015  12.348  1.5372  0.5833  0.3624
  250MPD2    N1 3800   3.139   2.556  12.506  0.2807 -0.1297  0.2230
  250MPD2    H7 3801   3.197   2.639  12.499 -0.5951  0.5456  0.9531
  251TMC3    C1 3802   2.986   2.689  12.630 -0.6870 -0.4035 -0.5765
  251TMC3    C2 3803   2.852   2.729  12.634 -0.5962  0.0882 -0.4773
  251TMC3    C3 3804   2.836   2.861  12.670  0.5167  0.1045  0.2366
  251TMC3    C4 3805   3.088   2.772  12.664  0.4484  0.4462 -0.2481
  251TMC3    C5 3806   3.064   2.900  12.694  0.8234  0.1561 -0.3818
  251TMC3    C6 3807   2.939   2.950  12.703 -0.2526  0.8958 -0.8023
  251TMC3     C 3808   3.012   2.562  12.568 -0.0592 -0.0936  0.5682
  251TMC3     O 3809   2.933   2.472  12.589  0.2214 -0.0138 -0.4025
  251TMC3     H 3810   2.769   2.667  12.605  0.5654 -0.4714 -2.5876
  251TMC3    H1 3811   3.187   2.732  12.687 -0.4548 -1.0564  1.0889
  251TMC3    H2 3812   2.910   3.048  12.740 -0.6207  1.1566 -1.7885
  251TMC3    C7 3813   3.176   2.971  12.763 -0.2514 -0.7156  0.1349
  251TMC3    C8 3814   2.703   2.910  12.654 -0.5505 -0.9454 -1.0161
  251TMC3    O1 3815   3.269   2.906  12.808  0.4222  0.2319  0.2051
  251TMC3    O2 3816   2.611   2.832  12.661 -0.3379 -0.4332  0.0492
  252TMC3    C1 3817   4.011   2.882   9.556 -0.3330 -0.0501 -0.0895
  252TMC3    C2 3818   4.093   2.974   9.510  0.1186  1.3739 -0.2390
  252TMC3    C3 3819   4.126   2.978   9.379  0.4856  0.2036 -0.0663
  252TMC3    C4 3820   3.961   2.796   9.458 -0.4879  0.3433 -0.1186
  252TMC3    C5 3821   3.994   2.803   9.328  0.2579 -0.1620 -0.4967
  252TMC3    C6 3822   4.080   2.899   9.283 -0.1227 -0.2204 -0.3254
  252TMC3     C 3823   3.982   2.877   9.699 -0.0422  1.1570  0.9520
  252TMC3     O 3824   4.055   2.948   9.764 -0.5468  0.3568 -0.2413
  252TMC3     H 3825   4.149   3.035   9.581 -0.4763 -0.5393  1.8599
  252TMC3    H1 3826   3.905   2.707   9.486  2.1439 -1.1303  0.5121
  252TMC3    H2 3827   4.111   2.898   9.179 -1.5799 -0.4914 -0.7571
  252TMC3    C7 3828   3.966   2.701   9.234 -0.3992 -0.0992 -0.0762
  252TMC3    C8 3829   4.212   3.087   9.343  0.3312  0.5527 -0.6446
  252TMC3    O1 3830   4.051   2.663   9.149 -0.1790 -0.2707  0.4776
  252TMC3    O2 3831   4.255   3.072   9.227 -0.3475 -0.0811  0.4851
  253MPD2     C 3832   0.184   2.128  15.414 -0.2194 -0.1114  0.6815
  253MPD2    C1 3833   0.058   2.076  15.379  0.0583 -0.2936  0.2847
  253MPD2    C2 3834   4.698   2.007  15.464 -0.8771 -0.1031 -0.3266
  253MPD2    C3 3835   0.012   1.978  15.594 -0.2856 -0.0812 -1.1027
  253MPD2    C4 3836   0.134   2.027  15.633  0.3831 -0.6916 -0.1535
  253MPD2    C5 3837   0.216   2.100  15.546  0.2823 -0.1038  0.5719
  253MPD2     H 3838   4.603   1.975  15.425 -0.6893 -1.8308  0.6148
  253MPD2    H1 3839   0.168   2.013  15.735 -0.2358 -0.3771  0.0966
  253MPD2    H2 3840   0.254   2.183  15.351  0.9691 -1.0937  1.1381
  253MPD2    H3 3841   0.310   2.136  15.584  0.1450 -1.0412  1.7923
  253MPD2     N 3842   4.645   1.913  15.683 -0.3856 -0.0937 -0.7365
  253MPD2    H5 3843   4.664   1.906  15.782 -1.0579  0.2259 -0.5841
  253MPD2    N1 3844   0.011   2.092  15.246  0.5737  0.1527 -0.0293
  253MPD2    H7 3845   4.637   2.057  15.227 -0.6104  2.1467  2.0885
  254TMC3    C1 3846   4.445   1.826  15.761 -0.6678 -0.2048  0.1806
  254TMC3    C2 3847   4.366   1.938  15.784  0.4191  0.0819  0.6469
  254TMC3    C3 3848   4.300   1.950  15.904  0.5680  0.0149  0.0817
  254TMC3    C4 3849   4.478   1.743  15.864  0.8288  0.2892  0.0033
  254TMC3    C5 3850   4.426   1.772  15.985 -0.1372  0.4299 -0.2357
  254TMC3    C6 3851   4.332   1.868  16.010 -0.0421  0.3438 -1.0127
  254TMC3     C 3852   4.532   1.841  15.647  0.6079  0.2168  0.7339
  254TMC3     O 3853   4.482   1.812  15.538 -0.2105  0.3836 -0.6941
  254TMC3     H 3854   4.361   2.005  15.699  2.6756 -2.3639 -1.3708
  254TMC3    H1 3855   4.572   1.691  15.851  0.6382  0.4504 -2.0114
  254TMC3    H2 3856   4.290   1.879  16.109  0.3319 -0.7267 -0.7347
  254TMC3    C7 3857   4.459   1.701  16.101 -0.1619  0.5160 -0.5678
  254TMC3    C8 3858   4.217   2.065  15.924 -0.5486  0.0536 -0.5531
  254TMC3    O1 3859   4.476   1.772  16.203  0.3069 -0.5546 -0.4002
  254TMC3    O2 3860   4.190   2.087  16.039 -0.3555  0.2987 -0.1399
  255MPD2     C 3861   2.909   4.634  10.035 -0.0917  0.4088  1.1164
  255MPD2    C1 3862   2.972   0.033  10.066 -0.0583  0.2279 -0.3345
  255MPD2    C2 3863   3.054   0.039  10.169  0.6626 -0.6160  0.0079
  255MPD2    C3 3864   3.089   4.653  10.239  0.8651 -0.1621 -0.1329
  255MPD2    C4 3865   3.038   4.524  10.202  0.0959 -0.6458  1.1019
  255MPD2    C5 3866   2.943   4.525  10.106 -0.5596  0.5493 -0.2602
  255MPD2     H 3867   3.092   0.137  10.196 -1.5353 -0.3891  2.2723
  255MPD2    H1 3868   3.048   4.436  10.264  0.6347  0.3181  2.3878
  255MPD2    H2 3869   2.822   4.635   9.971  1.4239  1.4165 -0.9360
  255MPD2    H3 3870   2.905   4.426  10.081 -0.7735  0.3217  0.9414
  255MPD2     N 3871   3.180   4.678  10.337  0.0497  0.1020  0.2680
  255MPD2    H5 3872   3.202   0.057  10.347  0.9792  0.1911 -2.8828
  255MPD2    N1 3873   2.951   0.147   9.978 -0.7245  0.1167  0.4262
  255MPD2    H7 3874   2.862   0.147   9.927  0.3137 -1.5532 -1.4108
  256TMC3    C1 3875   3.038   0.335   9.841  0.7338  0.1782 -0.4898
  256TMC3    C2 3876   3.156   0.384   9.813  0.2016 -0.1833 -0.1819
  256TMC3    C3 3877   3.190   0.403   9.679 -0.2717  0.8721  0.0240
  256TMC3    C4 3878   2.939   0.314   9.753 -0.5973  0.4666  0.5445
  256TMC3    C5 3879   2.968   0.340   9.624  0.6554  0.1993 -0.0542
  256TMC3    C6 3880   3.093   0.386   9.580 -0.6795  0.1492 -0.0254
  256TMC3     C 3881   3.055   0.232   9.948 -0.2147 -0.0232 -0.3335
  256TMC3     O 3882   3.171   0.212   9.982 -0.0280  0.2802 -0.3646
  256TMC3     H 3883   3.233   0.402   9.888  1.2225  0.3553 -1.3671
  256TMC3    H1 3884   2.848   0.263   9.784 -0.8354  0.6993  0.2142
  256TMC3    H2 3885   3.127   0.396   9.478 -0.5409  1.2761  0.1378
  256TMC3    C7 3886   2.892   0.263   9.533 -0.5163 -0.3676 -0.0560
  256TMC3    C8 3887   3.327   0.416   9.642  0.3653  0.0274  0.3052
  256TMC3    O1 3888   2.950   0.198   9.447 -0.0330 -0.3672 -0.8071
  256TMC3    O2 3889   3.405   0.349   9.705  0.0783  0.5013 -0.6129
  257MPD2     C 3890   1.564   2.181  12.903  0.8479  0.2286  0.0427
  257MPD2    C1 3891   1.693   2.152  12.870  0.1306  0.3583 -0.2864
  257MPD2    C2 3892   1.759   2.060  12.948 -0.5416  0.8092 -0.0162
  257MPD2    C3 3893   1.697   2.006  13.056  0.2629 -0.5018 -0.5667
  257MPD2    C4 3894   1.581   2.051  13.101 -0.1990 -0.0087  0.1399
  257MPD2    C5 3895   1.516   2.145  13.025 -0.1973  0.1977 -0.0371
  257MPD2     H 3896   1.857   2.021  12.920 -0.2337  0.3871  1.6065
  257MPD2    H1 3897   1.542   2.021  13.198  0.3230 -1.1196  0.0019
  257MPD2    H2 3898   1.507   2.251  12.842  0.4114  0.6036  0.8702
  257MPD2    H3 3899   1.420   2.179  13.063  1.1185  3.4814  0.2625
  257MPD2     N 3900   1.758   1.900  13.121  0.0143  0.1814 -0.3367
  257MPD2    H5 3901   1.849   1.875  13.082 -0.0631 -1.1398  0.3193
  257MPD2    N1 3902   1.745   2.211  12.761 -0.9051  0.1099 -0.4151
  257MPD2    H7 3903   1.688   2.268  12.700 -1.0899  1.3034  0.8882
  258TMC3    C1 3904   1.786   1.708  13.260 -0.6679  0.5893  0.1204
  258TMC3    C2 3905   1.714   1.595  13.268 -1.3464  0.4742  0.6058
  258TMC3    C3 3906   1.756   1.499  13.350  0.7511 -0.1562 -0.8109
  258TMC3    C4 3907   1.895   1.737  13.330  0.1701  0.0069  0.3344
  258TMC3    C5 3908   1.931   1.642  13.423 -1.0239  0.2376  0.0862
  258TMC3    C6 3909   1.865   1.520  13.434  0.1864  0.2000  0.4851
  258TMC3     C 3910   1.699   1.816  13.206  0.6890  0.6947 -0.2764
  258TMC3     O 3911   1.585   1.807  13.237 -0.4978 -0.5386 -0.3007
  258TMC3     H 3912   1.625   1.580  13.209  0.0238  1.9174 -1.8433
  258TMC3    H1 3913   1.941   1.835  13.341 -0.7275  0.5732 -0.8646
  258TMC3    H2 3914   1.899   1.453  13.512  1.6732  0.5070  0.1090
  258TMC3    C7 3915   2.034   1.677  13.521 -0.0882  0.6191 -0.3613
  258TMC3    C8 3916   1.733   1.366  13.310  0.1491  0.8143  0.2161
  258TMC3    O1 3917   2.144   1.720  13.484  0.3069  0.2680 -0.2012
  258TMC3    O2 3918   1.774   1.285  13.393 -0.4609  0.4443  0.1906
  259MPD2     C 3919   1.055   3.631   1.336  0.0042 -0.1485 -0.6870
  259MPD2    C1 3920   1.134   3.530   1.387  0.0929 -1.1435 -0.1877
  259MPD2    C2 3921   1.230   3.464   1.311 -1.1259  0.0419  1.0416
  259MPD2    C3 3922   1.256   3.515   1.186  0.0961 -0.3697  0.3191
  259MPD2    C4 3923   1.176   3.615   1.140 -0.7935 -0.3510 -0.0324
  259MPD2    C5 3924   1.079   3.675   1.215  0.0996  0.0587  0.8454
  259MPD2     H 3925   1.283   3.376   1.344 -1.2583 -0.4740 -0.0973
  259MPD2    H1 3926   1.181   3.649   1.038 -1.1532 -0.5155 -0.1033
  259MPD2    H2 3927   0.979   3.674   1.400  2.3217  2.8526  0.0553
  259MPD2    H3 3928   1.017   3.752   1.170 -2.6560 -3.0695 -0.7915
  259MPD2     N 3929   1.365   3.463   1.114 -0.1220 -0.2391 -0.2906
  259MPD2    H5 3930   1.426   3.399   1.163 -0.8513 -0.9910 -0.3532
  259MPD2    N1 3931   1.096   3.485   1.513  0.9216  0.4659 -0.3774
  259MPD2    H7 3932   1.011   3.528   1.549  1.1208 -1.8499  2.9136
  260TMC3    C1 3933   1.498   3.406   0.916  0.6726 -0.1124  0.2745
  260TMC3    C2 3934   1.549   3.450   0.798 -0.4025  0.3414  0.2561
  260TMC3    C3 3935   1.635   3.377   0.730 -0.3068  0.6443 -0.2718
  260TMC3    C4 3936   1.545   3.282   0.968  0.8662 -0.3417  0.1949
  260TMC3    C5 3937   1.635   3.207   0.892  0.4755  0.9143  0.0263
  260TMC3    C6 3938   1.681   3.253   0.772  0.2038  0.0484 -0.2671
  260TMC3     C 3939   1.386   3.479   0.976 -0.8032  0.7560 -0.2237
  260TMC3     O 3940   1.310   3.534   0.895  0.1330  0.3843 -0.0281
  260TMC3     H 3941   1.521   3.550   0.765  0.6890 -0.1650 -2.1978
  260TMC3    H1 3942   1.506   3.240   1.061  1.0879 -1.5350 -0.2491
  260TMC3    H2 3943   1.764   3.203   0.723 -0.0233  0.6181 -1.2369
  260TMC3    C7 3944   1.631   3.067   0.889 -0.6355  0.2937  0.1610
  260TMC3    C8 3945   1.674   3.424   0.597  0.1856 -0.3088 -0.5722
  260TMC3    O1 3946   1.688   3.013   0.794  0.4843  0.0474 -0.2718
  260TMC3    O2 3947   1.665   3.542   0.583 -0.9116  0.1356  0.4346
  261MPD2     C 3948   2.510   1.798  12.180 -0.2567  1.0931  0.1993
  261MPD2    C1 3949   2.641   1.810  12.143  0.0685  0.0110 -0.5770
  261MPD2    C2 3950   2.679   1.867  12.020 -0.1495  0.0569 -0.0545
  261MPD2    C3 3951   2.588   1.932  11.939  0.7089 -0.1053  0.2940
  261MPD2    C4 3952   2.461   1.914  11.978 -0.4294 -0.6233 -0.2487
  261MPD2    C5 3953   2.420   1.857  12.097 -0.2787 -0.2267  0.6308
  261MPD2     H 3954   2.782   1.870  11.987  0.0669  1.9579  0.7988
  261MPD2    H1 3955   2.376   1.950  11.922 -1.5257 -1.9672  0.5493
  261MPD2    H2 3956   2.469   1.749  12.267 -0.6901  0.9990 -0.0560
  261MPD2    H3 3957   2.316   1.861  12.126  0.7092  0.6553  4.1013
  261MPD2     N 3958   2.610   2.001  11.816  0.8013 -1.0964  0.2266
  261MPD2    H5 3959   2.530   2.029  11.761  0.5477 -2.1887  0.0335
  261MPD2    N1 3960   2.747   1.773  12.226 -0.6531 -0.2628 -0.3041
  261MPD2    H7 3961   2.836   1.769  12.178  0.2938 -3.7963  1.7621
  262TMC3    C1 3962   2.728   2.138  11.661 -1.0385 -0.4165  0.1874
  262TMC3    C2 3963   2.620   2.221  11.643  0.6381 -0.4327 -1.1310
  262TMC3    C3 3964   2.610   2.289  11.518 -1.1040 -0.2066 -0.0551
  262TMC3    C4 3965   2.832   2.126  11.579  0.3374  0.1953 -0.0147
  262TMC3    C5 3966   2.828   2.210  11.467  0.1489 -0.1919 -0.6505
  262TMC3    C6 3967   2.716   2.287  11.433  0.0031 -0.8483 -0.1944
  262TMC3     C 3968   2.732   2.044  11.772  0.0481 -0.3298 -0.5412
  262TMC3     O 3969   2.843   2.009  11.818  0.4118  0.0407  0.0557
  262TMC3     H 3970   2.542   2.221  11.719  0.9939  0.1701 -0.7639
  262TMC3    H1 3971   2.912   2.055  11.599  1.3025  0.5666 -2.5590
  262TMC3    H2 3972   2.696   2.319  11.332  0.5243 -3.0330 -0.9947
  262TMC3    C7 3973   2.946   2.203  11.378  0.0329 -0.4549 -0.0546
  262TMC3    C8 3974   2.525   2.405  11.496 -0.1627  0.3772 -0.0799
  262TMC3    O1 3975   3.027   2.110  11.382 -0.2924  0.7718  0.4916
  262TMC3    O2 3976   2.560   2.492  11.418 -0.7948  0.0736  0.0797
  263MPD2     C 3977   3.796   1.300  11.053  0.7263 -0.4116 -0.2200
  263MPD2    C1 3978   3.805   1.429  11.099  0.7203 -0.2981  0.2710
  263MPD2    C2 3979   3.801   1.531  11.014 -0.0884 -0.0869  0.3580
  263MPD2    C3 3980   3.786   1.514  10.885  0.3793  0.6604  0.6582
  263MPD2    C4 3981   3.780   1.388  10.832  0.6364  0.0739  0.3347
  263MPD2    C5 3982   3.778   1.278  10.921 -0.3670  0.5711 -0.3827
  263MPD2     H 3983   3.810   1.629  11.061  2.0391 -1.7990  3.5200
  263MPD2    H1 3984   3.771   1.360  10.727  2.0851 -1.4281  0.5987
  263MPD2    H2 3985   3.777   1.211  11.113  2.6228 -0.6004  0.0937
  263MPD2    H3 3986   3.773   1.178  10.881 -2.0743  0.6084 -0.2544
  263MPD2     N 3987   3.784   1.632  10.804  0.7563 -0.4660 -0.6628
  263MPD2    H5 3988   3.780   1.724  10.847 -2.4659  0.0400 -2.0794
  263MPD2    N1 3989   3.829   1.435  11.243  0.1424 -0.2237  0.1763
  263MPD2    H7 3990   3.795   1.359  11.301  0.1755 -1.6017 -1.6051
  264TMC3    C1 3991   3.803   1.761  10.608 -0.6712  0.8968 -0.6650
  264TMC3    C2 3992   3.717   1.858  10.649 -0.0241  0.0085 -0.0885
  264TMC3    C3 3993   3.707   1.962  10.558  0.2352  0.3694  0.2712
  264TMC3    C4 3994   3.871   1.770  10.494  0.5193 -0.5745 -0.0100
  264TMC3    C5 3995   3.862   1.877  10.411  0.4205  0.0841 -0.1639
  264TMC3    C6 3996   3.773   1.970  10.442  0.2590  0.9207 -0.1882
  264TMC3     C 3997   3.796   1.635  10.666  0.2373 -0.0067  0.0113
  264TMC3     O 3998   3.807   1.545  10.581  0.1206  0.2150  0.2326
  264TMC3     H 3999   3.667   1.844  10.744 -2.5095  2.7777 -0.9873
  264TMC3    H1 4000   3.955   1.704  10.480 -0.3191 -1.6613  0.1111
  264TMC3    H2 4001   3.749   2.044  10.366  0.8237  0.3213 -0.9467
  264TMC3    C7 4002   3.990   1.929  10.364  0.0585 -0.3610  0.2773
  264TMC3    C8 4003   3.690   2.095  10.609 -0.8722 -0.5909 -0.0484
  264TMC3    O1 4004   4.046   1.866  10.276 -0.2937 -0.0051 -0.0912
  264TMC3    O2 4005   3.737   2.190  10.546  0.0250  0.1440  0.2161
  265MPD2     C 4006   1.124   1.925  15.516 -0.0496 -0.4718  0.1963
  265MPD2    C1 4007   1.113   2.028  15.420 -0.0910  0.1039  0.3134
  265MPD2    C2 4008   1.172   2.012  15.294 -0.1976  0.2143  0.0498
  265MPD2    C3 4009   1.238   1.894  15.264 -0.4903  0.6053  0.1917
  265MPD2    C4 4010   1.247   1.797  15.356 -0.6037 -0.4383 -0.2276
  265MPD2    C5 4011   1.198   1.813  15.483  0.6889 -0.2293  0.3676
  265MPD2     H 4012   1.146   2.094  15.229  1.9672  0.7661 -0.1371
  265MPD2    H1 4013   1.301   1.706  15.335 -1.3281 -1.1455  0.9306
  265MPD2    H2 4014   1.073   1.936  15.611 -0.7390  0.4702 -0.2961
  265MPD2    H3 4015   1.204   1.732  15.554  0.1903 -1.6493 -1.2138
  265MPD2     N 4016   1.317   1.871  15.146  1.0864  0.0458 -0.7773
  265MPD2    H5 4017   1.367   1.783  15.149  3.5039  1.4682  0.5279
  265MPD2    N1 4018   1.043   2.145  15.441 -0.2659  0.4896 -0.3055
  265MPD2    H7 4019   1.033   2.217  15.369 -1.4593 -0.0764 -0.7102
  266TMC3    C1 4020   0.938   2.315  15.574  0.1728 -0.6523  0.1462
  266TMC3    C2 4021   0.860   2.349  15.677  0.2838  0.3249  0.1860
  266TMC3    C3 4022   0.839   2.479  15.711  0.2942 -0.0790  0.0274
  266TMC3    C4 4023   0.997   2.413  15.504 -0.3774  0.1464 -0.3521
  266TMC3    C5 4024   0.972   2.548  15.525  0.0274 -0.0255 -0.3917
  266TMC3    C6 4025   0.884   2.575  15.624  0.1723 -0.1207  0.1646
  266TMC3     C 4026   0.978   2.174  15.565  0.0220  0.2206  0.5560
  266TMC3     O 4027   0.945   2.102  15.657 -0.7985 -0.6008 -0.8664
  266TMC3     H 4028   0.821   2.274  15.743 -1.0291 -0.8663 -1.9542
  266TMC3    H1 4029   1.074   2.391  15.431 -0.0689  0.3974 -0.0996
  266TMC3    H2 4030   0.849   2.673  15.656 -0.5948 -0.3357 -0.0190
  266TMC3    C7 4031   1.051   2.649  15.459 -0.3255 -0.1452 -0.3460
  266TMC3    C8 4032   0.709   2.513  15.764  0.1208 -0.4164  0.5708
  266TMC3    O1 4033   1.096   2.620  15.347  0.2976  0.2699  0.4020
  266TMC3    O2 4034   0.629   2.581  15.701  0.0314  0.1592 -0.1066
  267MPD2     C 4035   3.426   3.177   0.125 -0.6337 -0.1815  0.0862
  267MPD2    C1 4036   3.485   3.284   0.063  0.3851  0.0151 -0.1220
  267MPD2    C2 4037   3.482   3.290  17.607 -0.0485  0.1932 -0.0524
  267MPD2    C3 4038   3.427   3.189  17.528 -0.1317  0.4873 -0.6830
  267MPD2    C4 4039   3.368   3.078  17.589  0.3102 -0.3372 -0.2986
  267MPD2    C5 4040   3.374   3.078   0.045  0.7218 -0.2809  0.1193
  267MPD2     H 4041   3.520   3.383  17.566  0.6316  0.5211  1.3343
  267MPD2    H1 4042   3.310   2.998  17.545 -0.5242 -0.8591  1.7755
  267MPD2    H2 4043   3.426   3.156   0.231 -1.1317 -1.0474 -0.0863
  267MPD2    H3 4044   3.328   2.997   0.102 -1.7040  1.0994  0.1266
  267MPD2     N 4045   3.399   3.208  17.388  0.0914 -0.1955 -0.4034
  267MPD2    H5 4046   3.350   3.137  17.336  0.3504  0.2242 -1.2243
  267MPD2    N1 4047   3.545   3.384   0.145 -0.5676 -0.1281  0.3556
  267MPD2    H7 4048   3.532   3.385   0.246  0.6461  0.4342  0.4990
  268TMC3    C1 4049   3.688   3.540   0.218 -0.4481 -0.0235  0.0552
  268TMC3    C2 4050   3.700   3.677   0.212 -0.4044  0.4186 -0.4196
  268TMC3    C3 4051   3.765   3.731   0.317  0.2146  0.0654 -0.5336
  268TMC3    C4 4052   3.739   3.459   0.315 -0.3361 -0.5106 -0.9528
  268TMC3    C5 4053   3.792   3.522   0.423  0.3874 -0.2452  0.2174
  268TMC3    C6 4054   3.805   3.657   0.426  0.9894 -0.6207  0.7619
  268TMC3     C 4055   3.625   3.483   0.100 -0.5499  0.0589  0.0075
  268TMC3     O 4056   3.666   3.498  17.664 -0.1778 -1.0967  0.2139
  268TMC3     H 4057   3.656   3.722   0.123 -1.5747  0.2819  0.0883
  268TMC3    H1 4058   3.722   3.352   0.317  3.1315 -1.0731 -2.5807
  268TMC3    H2 4059   3.852   3.715   0.505 -1.2549  0.2011  1.4948
  268TMC3    C7 4060   3.810   3.448   0.541 -0.6495  0.2592  0.2328
  268TMC3    C8 4061   3.819   3.866   0.305 -0.6233  0.2460 -0.2968
  268TMC3    O1 4062   3.832   3.328   0.528 -0.0844 -0.2876  0.1307
  268TMC3    O2 4063   3.890   3.913   0.395  0.4750 -0.8360 -0.1147
  269MPD2     C 4064   3.945   2.423  15.356  0.7759 -0.5273  0.3088
  269MPD2    C1 4065   3.826   2.451  15.425  0.1339 -0.0049 -0.8048
  269MPD2    C2 4066   3.762   2.577  15.411 -0.9467 -0.2157 -0.5695
  269MPD2    C3 4067   3.838   2.677  15.348  0.0695  0.1061  0.1436
  269MPD2    C4 4068   3.956   2.644  15.277  0.5701  0.2339  0.3417
  269MPD2    C5 4069   4.000   2.517  15.276  0.3141  0.9344 -0.3627
  269MPD2     H 4070   3.662   2.595  15.448 -0.4496  2.4761 -0.5750
  269MPD2    H1 4071   4.022   2.722  15.240  0.5190 -0.8033 -1.8916
  269MPD2    H2 4072   3.984   2.322  15.346  0.7174 -0.5338  0.1378
  269MPD2    H3 4073   4.091   2.492  15.223 -0.7547 -0.5782 -1.4820
  269MPD2     N 4074   3.783   2.810  15.353 -0.9121 -0.2771  0.4577
  269MPD2    H5 4075   3.705   2.824  15.417 -2.1658  0.0154 -1.1130
  269MPD2    N1 4076   3.772   2.335  15.489 -0.7368  0.3571 -0.2673
  269MPD2    H7 4077   3.830   2.251  15.494 -0.9530  0.1999 -0.4006
  270TMC3    C1 4078   3.620   2.216  15.628 -0.0928 -0.6478  0.5592
  270TMC3    C2 4079   3.486   2.191  15.611 -0.0715  0.9813 -0.2388
  270TMC3    C3 4080   3.448   2.062  15.602 -0.4647 -0.1479  0.4433
  270TMC3    C4 4081   3.713   2.123  15.651 -0.0813  0.2457  0.3009
  270TMC3    C5 4082   3.668   1.992  15.651  0.3161  0.1385  0.5977
  270TMC3    C6 4083   3.540   1.957  15.614  0.6925 -0.1433  0.1426
  270TMC3     C 4084   3.663   2.347  15.570  0.2386  0.0623 -0.6487
  270TMC3     O 4085   3.575   2.430  15.580 -0.1382 -0.0152  0.0229
  270TMC3     H 4086   3.413   2.267  15.584 -0.9634  0.0388 -0.5122
  270TMC3    H1 4087   3.808   2.154  15.694 -0.4452 -0.3563  1.5253
  270TMC3    H2 4088   3.513   1.852  15.605 -0.1988  0.2260 -1.5591
  270TMC3    C7 4089   3.766   1.901  15.698  0.1980 -0.1073  0.7744
  270TMC3    C8 4090   3.322   2.032  15.538  0.0121 -0.4167  0.3496
  270TMC3    O1 4091   3.886   1.930  15.685 -0.2516 -0.2420 -0.6034
  270TMC3    O2 4092   3.232   2.114  15.559 -0.6480 -0.7053  0.4716
  271MPD2     C 4093   2.769   2.045  13.864  0.2893 -0.3777 -0.0024
  271MPD2    C1 4094   2.676   2.051  13.963  0.4540  0.0169 -0.3116
  271MPD2    C2 4095   2.566   2.135  13.944 -0.8312 -0.1590 -0.2906
  271MPD2    C3 4096   2.555   2.206  13.826 -0.3134 -0.0415  0.4168
  271MPD2    C4 4097   2.652   2.204  13.728 -0.3871 -0.2821 -0.7195
  271MPD2    C5 4098   2.761   2.126  13.751  0.2027 -0.4818  0.3321
  271MPD2     H 4099   2.489   2.132  14.020 -1.3359  0.4960 -0.7730
  271MPD2    H1 4100   2.629   2.263  13.640 -0.0272  0.0451 -0.5934
  271MPD2    H2 4101   2.857   1.983  13.878  1.7466  1.5586 -0.6681
  271MPD2    H3 4102   2.842   2.105  13.682  0.4115  0.4836  0.2742
  271MPD2     N 4103   2.437   2.274  13.793 -0.1903  0.3095 -0.6241
  271MPD2    H5 4104   2.426   2.300  13.695 -0.1253 -0.6003 -0.8732
  271MPD2    N1 4105   2.684   1.975  14.088  0.2419 -0.2900 -0.2983
  271MPD2    H7 4106   2.600   1.979  14.145 -1.7223  2.9547 -3.4135
  272TMC3    C1 4107   2.782   1.830  14.241 -0.7134 -0.6454  0.5407
  272TMC3    C2 4108   2.895   1.751  14.260 -0.9512  0.2692 -0.5632
  272TMC3    C3 4109   2.972   1.750  14.369  0.0535  0.5039 -0.0018
  272TMC3    C4 4110   2.749   1.921  14.346 -0.2659  0.1051 -0.3517
  272TMC3    C5 4111   2.842   1.930  14.451  0.1062  0.0360 -0.1754
  272TMC3    C6 4112   2.947   1.837  14.470 -0.2587 -0.2450 -0.1238
  272TMC3     C 4113   2.782   1.886  14.112  0.8272  0.4310 -0.9514
  272TMC3     O 4114   2.873   1.844  14.042 -0.4536  0.5108  0.4642
  272TMC3     H 4115   2.939   1.687  14.184 -0.2323  0.4264 -0.2842
  272TMC3    H1 4116   2.663   1.986  14.349  0.2349  0.7588 -0.2783
  272TMC3    H2 4117   2.998   1.835  14.566 -1.1628  1.5735  0.3882
  272TMC3    C7 4118   2.782   1.988  14.573  0.0417 -0.3234  0.9714
  272TMC3    C8 4119   3.104   1.694  14.358 -1.1178 -0.1415 -0.1774
  272TMC3    O1 4120   2.660   1.982  14.579 -0.1347  0.1210 -0.7072
  272TMC3    O2 4121   3.151   1.686  14.241 -0.0679  0.2730  0.0627
  273MPD2     C 4122   3.945   0.531  11.672 -0.2997 -0.4951  0.3996
  273MPD2    C1 4123   4.059   0.576  11.622  0.9372  0.3447 -0.7879
  273MPD2    C2 4124   4.089   0.560  11.486  0.4509 -0.5163 -0.0246
  273MPD2    C3 4125   4.001   0.494  11.410  0.3337  0.0339  0.1881
  273MPD2    C4 4126   3.890   0.439  11.461  0.2058  0.4119  0.0912
  273MPD2    C5 4127   3.861   0.460  11.593 -0.7741 -0.0943 -0.9354
  273MPD2     H 4128   4.183   0.587  11.439 -0.4887  1.3111 -0.8695
  273MPD2    H1 4129   3.815   0.395  11.396  1.6871  0.5134 -1.6598
  273MPD2    H2 4130   3.932   0.546  11.779 -0.8342 -0.6019  0.3482
  273MPD2    H3 4131   3.763   0.441  11.635 -0.3876  0.0948  0.0658
  273MPD2     N 4132   4.036   0.488  11.274 -0.9195  0.4037  0.4249
  273MPD2    H5 4133   4.109   0.554  11.250 -1.5906  1.4958  1.3694
  273MPD2    N1 4134   4.153   0.637  11.705 -0.2519  0.1372  0.6089
  273MPD2    H7 4135   4.107   0.669  11.789 -3.0400 -1.6426 -0.2182
  274TMC3    C1 4136   4.059   0.467  11.044 -0.1323 -0.1521 -0.4349
  274TMC3    C2 4137   4.007   0.503  10.922  0.2223 -0.0739 -0.9635
  274TMC3    C3 4138   4.092   0.569  10.834 -0.1779  0.0447  0.5770
  274TMC3    C4 4139   4.187   0.510  11.084  0.1569 -0.2689  0.3360
  274TMC3    C5 4140   4.259   0.576  10.991 -0.2921 -0.3750 -0.4863
  274TMC3    C6 4141   4.211   0.617  10.876  0.3101  0.2842 -0.5155
  274TMC3     C 4142   3.971   0.437  11.159 -0.1959 -0.2250 -0.0838
  274TMC3     O 4143   3.854   0.405  11.154  0.2020 -0.1498 -0.7101
  274TMC3     H 4144   3.909   0.464  10.895 -0.6556  2.2397 -1.0659
  274TMC3    H1 4145   4.242   0.465  11.166  2.7129  0.3132 -1.0573
  274TMC3    H2 4146   4.283   0.651  10.803  0.9923  0.3268  0.1769
  274TMC3    C7 4147   4.365   0.658  11.052 -0.3598 -1.0575  0.2635
  274TMC3    C8 4148   4.053   0.581  10.696  0.5790  0.4612 -0.1451
  274TMC3    O1 4149   4.480   0.642  11.013 -0.2682  0.1654 -0.1278
  274TMC3    O2 4150   3.934   0.566  10.676  0.0162  0.1561  0.4811
  275MPD2     C 4151   4.677   2.703  14.574  0.2523  0.0317 -0.8677
  275MPD2    C1 4152   4.571   2.784  14.525 -0.0230  0.1492 -0.0936
  275MPD2    C2 4153   4.447   2.735  14.499  0.1089 -0.3177  0.2840
  275MPD2    C3 4154   4.420   2.611  14.548 -0.1484 -0.7481 -0.7519
  275MPD2    C4 4155   4.515   2.529  14.609 -0.1578  0.3556 -0.0879
  275MPD2    C5 4156   4.637   2.575  14.604 -0.0337  0.6800  0.1532
  275MPD2     H 4157   4.368   2.799  14.462 -1.1703 -2.3158 -0.4460
  275MPD2    H1 4158   4.483   2.433  14.649  1.0547  0.9855  2.4231
  275MPD2    H2 4159   0.060   2.733  14.592 -0.0510  0.7863 -0.3871
  275MPD2    H3 4160   4.718   2.523  14.655  1.2033  1.4947 -0.9531
  275MPD2     N 4161   4.285   2.577  14.567  0.3156 -0.2924 -0.0641
  275MPD2    H5 4162   4.262   2.514  14.643  0.5227 -1.2775 -0.8295
  275MPD2    N1 4163   4.581   2.921  14.497  0.8159  0.3560  0.3723
  275MPD2    H7 4164   4.504   2.961  14.444 -1.1853 -0.4807  2.6682
  276TMC3    C1 4165   4.669   3.122  14.546 -0.0234 -0.2943 -0.4313
  276TMC3    C2 4166   4.535   3.128  14.580 -0.1876 -0.1157 -0.5195
  276TMC3    C3 4167   4.489   3.195  14.694  0.1347 -0.3918 -0.1743
  276TMC3    C4 4168   0.043   3.181  14.626 -0.1668  0.2623 -0.3577
  276TMC3    C5 4169   4.713   3.257  14.733  0.2597  0.1788  0.5377
  276TMC3    C6 4170   4.579   3.260  14.773 -0.1250  0.0289  0.1653
  276TMC3     C 4171   4.700   2.990  14.504 -0.1310 -0.3802 -0.1907
  276TMC3     O 4172   0.100   2.956  14.517 -0.0746  0.3871  0.0144
  276TMC3     H 4173   4.454   3.117  14.509 -0.4872  1.2693 -0.3982
  276TMC3    H1 4174   0.146   3.177  14.593  0.2783 -0.5970  1.1436
  276TMC3    H2 4175   4.556   3.295  14.873  0.6322  3.8254 -0.9915
  276TMC3    C7 4176   0.087   3.364  14.788 -0.7737 -0.5944 -0.2842
  276TMC3    C8 4177   4.385   3.130  14.766 -0.2196  0.1333  0.1176
  276TMC3    O1 4178   0.041   3.441  14.874 -0.3452  0.5034 -0.2072
  276TMC3    O2 4179   4.328   3.197  14.850 -0.1052 -0.1946 -0.2028
  277MPD2     C 4180   0.886   2.214  13.735  0.3487  0.7923 -0.1040
  277MPD2    C1 4181   0.845   2.096  13.681  0.7306 -0.2919  0.2236
  277MPD2    C2 4182   0.785   2.006  13.774 -0.2436  0.0195  0.9973
  277MPD2    C3 4183   0.752   2.045  13.907 -0.0446 -0.3650  0.3166
  277MPD2    C4 4184   0.776   2.167  13.944 -0.2383 -0.0293  0.4032
  277MPD2    C5 4185   0.838   2.253  13.860 -0.8644 -0.0784  0.2660
  277MPD2     H 4186   0.776   1.899  13.754  1.9459 -0.1527  0.9405
  277MPD2    H1 4187   0.746   2.206  14.040 -0.5900 -1.9016  1.0484
  277MPD2    H2 4188   0.939   2.290  13.679  0.4637  2.3787  2.1510
  277MPD2    H3 4189   0.868   2.352  13.892  0.1649  0.8475 -3.4761
  277MPD2     N 4190   0.702   1.943  13.990 -0.3322  0.3910  0.1352
  277MPD2    H5 4191   0.652   1.865  13.946  0.4816  0.2974 -0.6282
  277MPD2    N1 4192   0.877   2.060  13.555 -0.1731  0.1091  0.0514
  277MPD2    H7 4193   0.955   2.114  13.518  0.6530  1.1964  3.3467
  278TMC3    C1 4194   0.701   1.798  14.161 -0.0293 -0.4233 -0.2118
  278TMC3    C2 4195   0.819   1.731  14.166  0.4932 -0.5256  0.1222
  278TMC3    C3 4196   0.816   1.595  14.135 -0.6329  0.2355 -0.5281
  278TMC3    C4 4197   0.586   1.738  14.105  0.6051 -0.2174 -0.3143
  278TMC3    C5 4198   0.590   1.600  14.086  0.5538  0.3478  0.0623
  278TMC3    C6 4199   0.704   1.528  14.107  0.2683  0.3155 -0.1155
  278TMC3     C 4200   0.725   1.937  14.124 -0.2113  0.3797 -0.1732
  278TMC3     O 4201   0.810   1.999  14.185 -0.1144  0.1795 -0.2007
  278TMC3     H 4202   0.911   1.785  14.186  0.5107 -0.5355  0.0693
  278TMC3    H1 4203   0.496   1.797  14.098  2.4086  2.0713 -4.2567
  278TMC3    H2 4204   0.709   1.424  14.078  0.7851  0.2387  0.2560
  278TMC3    C7 4205   0.487   1.528  14.017 -0.4706  0.2207 -0.1581
  278TMC3    C8 4206   0.914   1.574  14.025 -0.2354  0.1505  0.2580
  278TMC3    O1 4207   0.521   1.430  13.955  0.2873 -0.3943 -0.1193
  278TMC3    O2 4208   1.014   1.641  14.029 -0.7639 -0.7701 -0.1114
  279MPD2     C 4209   0.131   1.854   0.139  0.4278  0.0773 -0.4869
  279MPD2    C1 4210   0.170   1.982   0.103 -0.3644  0.7498  0.0075
  279MPD2    C2 4211   0.296   2.015   0.056  0.6075 -0.4250  0.9523
  279MPD2    C3 4212   0.382   1.911   0.032  0.7723  0.3984 -0.4395
  279MPD2    C4 4213   0.339   1.780   0.048 -0.0528  0.6133 -0.4824
  279MPD2    C5 4214   0.212   1.754   0.104 -0.7250  0.8554 -0.1086
  279MPD2     H 4215   0.327   2.117   0.040 -0.6449 -0.0254  1.0282
  279MPD2    H1 4216   0.405   1.696   0.025  1.1576  1.8685 -1.5598
  279MPD2    H2 4217   0.042   1.841   0.200  0.8446  1.5841  0.4561
  279MPD2    H3 4218   0.184   1.651   0.128  1.5004  0.4899  0.9202
  279MPD2     N 4219   0.503   1.924  17.651  0.2746  0.2719 -0.2200
  279MPD2    H5 4220   0.560   1.840  17.653  0.3591  0.2536 -2.4708
  279MPD2    N1 4221   0.067   2.074   0.110  0.5576  0.0609 -0.2463
  279MPD2    H7 4222   4.700   2.028   0.138  0.6367 -0.3812 -0.7283
  280TMC3    C1 4223   4.672   2.273   0.057 -0.4559  0.0291  0.3217
  280TMC3    C2 4224   4.559   2.234   0.122  0.0762  0.6278 -0.1096
  280TMC3    C3 4225   4.440   2.293   0.081 -0.6106 -0.1757  0.4933
  280TMC3    C4 4226   4.663   2.347  17.628  0.2832  0.4373  0.5354
  280TMC3    C5 4227   4.541   2.401  17.583  0.2993 -0.9651  0.7989
  280TMC3    C6 4228   4.429   2.368  17.650  0.4687  0.3178 -0.4736
  280TMC3     C 4229   0.076   2.209   0.081 -0.2682  0.2341  0.5729
  280TMC3     O 4230   0.174   2.279   0.071 -0.3379 -0.2120  0.1785
  280TMC3     H 4231   4.577   2.165   0.204 -0.5707  0.5571 -0.0298
  280TMC3    H1 4232   0.036   2.392  17.594 -0.8230  1.9038 -0.5425
  280TMC3    H2 4233   4.332   2.411  17.632  0.7518  1.1000 -0.1717
  280TMC3    C7 4234   4.540   2.473  17.456 -0.2518  1.2642 -0.0119
  280TMC3    C8 4235   4.323   2.254   0.166 -0.3346  0.2941 -0.6647
  280TMC3    O1 4236   4.642   2.474  17.387 -0.0727  0.5490 -0.3259
  280TMC3    O2 4237   4.348   2.179   0.261  0.2261  0.4817  0.1032
  281TMC3    C1 4238   3.925   3.260  13.174  0.1655 -0.4253 -0.3985
  281TMC3    C2 4239   3.809   3.261  13.096 -0.0827 -0.0520  0.0975
  281TMC3    C3 4240   3.756   3.139  13.067 -0.3198  0.4462  0.1722
  281TMC3    C4 4241   3.992   3.137  13.183  0.0103  0.1783  0.1308
  281TMC3    C5 4242   3.918   3.022  13.174 -0.5880  0.2560 -0.0273
  281TMC3    C6 4243   3.798   3.019  13.118  0.3702 -0.4775  0.1721
  281TMC3     C 4244   3.909   3.326  13.303 -0.5777  0.2244 -0.0663
  281TMC3     O 4245   3.991   3.298  13.387 -0.4382 -0.1803 -0.0411
  281TMC3     H 4246   3.776   3.357  13.059 -0.0785  0.3529  1.1274
  281TMC3    H1 4247   4.082   3.127  13.242  0.3091 -0.5323 -0.4411
  281TMC3    H2 4248   3.739   2.930  13.100 -0.9788  0.5345 -0.3723
  281TMC3    C7 4249   3.981   2.907  13.229 -0.5043  0.3698 -0.4274
  281TMC3    C8 4250   3.623   3.135  13.004  0.1795 -0.5805  0.3181
  281TMC3    O1 4251   4.104   2.898  13.217  0.6286  0.2406 -0.2663
  281TMC3    O2 4252   3.553   3.043  13.038  0.5640  0.0990 -0.5713
  282MPD2     C 4253   1.099   3.688  14.839 -0.4461 -0.2718 -0.6976
  282MPD2    C1 4254   0.991   3.777  14.866  0.2335 -0.2320 -0.3911
  282MPD2    C2 4255   0.892   3.789  14.772 -0.7279 -0.5130 -0.4859
  282MPD2    C3 4256   0.898   3.714  14.654  0.5116  0.0426  0.0655
  282MPD2    C4 4257   1.000   3.622  14.632  0.4878 -0.2427 -0.0273
  282MPD2    C5 4258   1.100   3.610  14.729 -0.0558 -0.0763 -0.1623
  282MPD2     H 4259   0.822   3.870  14.781  1.0480  0.8477  0.9612
  282MPD2    H1 4260   1.008   3.564  14.540 -0.4168  0.3192 -0.4625
  282MPD2    H2 4261   1.183   3.664  14.904 -0.0637  0.0416 -1.0795
  282MPD2    H3 4262   1.192   3.555  14.715  0.8965  1.2130  1.0760
  282MPD2     N 4263   0.783   3.732  14.568 -0.4321 -0.8961  0.2100
  282MPD2    H5 4264   0.711   3.797  14.599 -1.0875 -1.4475 -0.1647
  282MPD2    N1 4265   0.987   3.848  14.992  0.1628 -0.0922 -0.1783
  282MPD2    H7 4266   0.902   3.903  14.998 -0.8624 -1.6826 -0.0676
  283TMC3    C1 4267   1.045   3.906  15.204 -0.2049 -0.5152 -0.3350
  283TMC3    C2 4268   1.150   3.961  15.272 -0.7663 -0.5624  0.5576
  283TMC3    C3 4269   1.126   4.001  15.396  0.6518  0.5029  0.1022
  283TMC3    C4 4270   0.915   3.900  15.249 -0.3069  0.3532  0.1801
  283TMC3    C5 4271   0.904   3.939  15.378  0.0436  1.0077  0.1450
  283TMC3    C6 4272   1.001   3.996  15.455  0.2536 -0.1713 -0.5266
  283TMC3     C 4273   1.087   3.844  15.080 -0.1518  0.9448  0.6911
  283TMC3     O 4274   1.202   3.806  15.070 -0.2657 -0.2965  0.0885
  283TMC3     H 4275   1.251   3.955  15.233 -1.0306  2.6482 -0.5800
  283TMC3    H1 4276   0.832   3.860  15.192 -0.4658 -1.1501  1.4617
  283TMC3    H2 4277   1.000   4.001  15.563  0.2350  1.7485 -0.6052
  283TMC3    C7 4278   0.779   3.911  15.446 -0.3272  0.5395 -0.4223
  283TMC3    C8 4279   1.226   4.068  15.472 -0.4367  1.3313  0.2928
  283TMC3    O1 4280   0.776   3.946  15.562 -0.3715  0.3541  0.8123
  283TMC3    O2 4281   1.233   4.049  15.593 -0.4251 -0.4384 -0.2818
  284MPD2     C 4282   3.821   3.517  11.706  0.0411 -0.4368  0.1599
  284MPD2    C1 4283   3.941   3.474  11.646  0.0048 -0.2388  1.2873
  284MPD2    C2 4284   4.025   3.398  11.728  0.1405 -0.2690  0.0306
  284MPD2    C3 4285   3.991   3.361  11.861  0.1361 -0.7768 -0.8630
  284MPD2    C4 4286   3.863   3.398  11.910  0.6095 -0.4672  0.5261
  284MPD2    C5 4287   3.778   3.475  11.835 -0.3693 -0.7743 -0.5435
  284MPD2     H 4288   4.115   3.366  11.677 -0.1719 -0.1279 -0.6073
  284MPD2    H1 4289   3.824   3.363  12.005  0.8243 -2.9692 -0.2859
  284MPD2    H2 4290   3.746   3.572  11.650 -0.4255 -0.2728  0.9359
  284MPD2    H3 4291   3.680   3.493  11.877  0.1051  1.1124 -0.2625
  284MPD2     N 4292   4.085   3.287  11.938  0.1501  0.1034 -0.3210
  284MPD2    H5 4293   4.180   3.277  11.904  1.0802  2.9778  1.4116
  284MPD2    N1 4294   3.983   3.503  11.516  0.6553 -0.0140  0.2103
  284MPD2    H7 4295   4.067   3.458  11.482  0.4303  0.0986 -0.5039
  285TMC3    C1 4296   3.991   3.560  11.300 -0.0905  0.1216 -0.2966
  285TMC3    C2 4297   4.037   3.432  11.267  0.8775 -0.0526 -0.6912
  285TMC3    C3 4298   4.145   3.425  11.192 -0.1046  0.1527 -0.1189
  285TMC3    C4 4299   4.038   3.674  11.244  0.0036 -0.7682  0.3811
  285TMC3    C5 4300   4.157   3.657  11.176 -0.2571  0.4100  0.3459
  285TMC3    C6 4301   4.210   3.535  11.149  0.2624  0.1331 -0.0949
  285TMC3     C 4302   3.918   3.574  11.423  0.4089  0.5769 -0.1069
  285TMC3     O 4303   3.816   3.643  11.418  0.2959 -0.1919 -0.4791
  285TMC3     H 4304   3.984   3.345  11.304 -0.3361  0.8577 -0.3054
  285TMC3    H1 4305   4.003   3.770  11.281  0.7400 -0.4075  0.1345
  285TMC3    H2 4306   4.294   3.524  11.081  0.8711  0.4366  0.6106
  285TMC3    C7 4307   4.231   3.779  11.139  0.2726  0.0003  0.3774
  285TMC3    C8 4308   4.193   3.291  11.161 -0.0651 -0.1425 -0.1695
  285TMC3    O1 4309   4.352   3.772  11.115 -0.0017  0.0494  0.4807
  285TMC3    O2 4310   4.113   3.199  11.174  0.2634  0.3273  0.8994
  286MPD2     C 4311   3.645   1.378   1.420  0.2857 -0.4021  0.2166
  286MPD2    C1 4312   3.704   1.422   1.302  0.6644  0.1503  0.1522
  286MPD2    C2 4313   3.834   1.376   1.272 -0.2026  0.3901  0.2480
  286MPD2    C3 4314   3.898   1.286   1.358  0.3262 -0.0790  0.2681
  286MPD2    C4 4315   3.827   1.250   1.472 -0.0933  0.5159 -0.2878
  286MPD2    C5 4316   3.704   1.293   1.500 -0.7409  0.1302  0.0558
  286MPD2     H 4317   3.882   1.404   1.179  1.9029 -2.3523  0.5067
  286MPD2    H1 4318   3.868   1.172   1.536 -0.3581 -0.2927 -1.0998
  286MPD2    H2 4319   3.541   1.405   1.434 -0.1167 -1.7092 -0.3186
  286MPD2    H3 4320   3.657   1.262   1.593 -2.0593 -0.9846 -0.9967
  286MPD2     N 4321   4.022   1.217   1.329  0.1830  0.2705  0.1381
  286MPD2    H5 4322   4.064   1.164   1.405 -0.3283 -2.3356 -1.4194
  286MPD2    N1 4323   3.633   1.523   1.229 -0.1008  0.3035  0.1650
  286MPD2    H7 4324   3.532   1.512   1.232 -0.1369  0.6620  0.2469
  287TMC3    C1 4325   4.176   1.102   1.183  0.2861 -0.5488  0.1348
  287TMC3    C2 4326   4.194   1.060   1.053 -0.0232 -0.5553 -0.2981
  287TMC3    C3 4327   4.269   0.949   1.033 -0.5161  0.5232  0.2568
  287TMC3    C4 4328   4.241   1.047   1.287 -0.3338  0.4462  0.1541
  287TMC3    C5 4329   4.317   0.938   1.269  0.4211 -0.6325 -0.8203
  287TMC3    C6 4330   4.332   0.891   1.143  0.9613 -0.5512  0.2693
  287TMC3     C 4331   4.082   1.212   1.204 -0.0240  0.0001  0.2372
  287TMC3     O 4332   4.052   1.274   1.108 -0.1361 -0.6969  0.1545
  287TMC3     H 4333   4.164   1.124   0.971  2.1077  0.9868  0.1237
  287TMC3    H1 4334   4.242   1.090   1.387 -1.1497 -0.6769  0.6511
  287TMC3    H2 4335   4.400   0.810   1.121  1.5778 -0.0733  0.4141
  287TMC3    C7 4336   4.425   0.906   1.363  0.1998  0.2864 -0.5206
  287TMC3    C8 4337   4.263   0.880   0.909 -0.4235  0.0357 -0.0688
  287TMC3    O1 4338   4.481   0.995   1.426 -0.0769 -0.0876 -0.1942
  287TMC3    O2 4339   4.350   0.803   0.885  0.4907  0.4170  0.3989
  288TMC3    C1 4340   1.007   1.323  14.452  0.3846 -0.1052  0.1422
  288TMC3    C2 4341   0.969   1.272  14.577 -0.3300 -0.4493  0.0793
  288TMC3    C3 4342   0.973   1.362  14.682 -0.6105  0.5825  1.0811
  288TMC3    C4 4343   1.043   1.453  14.435 -0.6913  0.3001  0.7866
  288TMC3    C5 4344   1.048   1.538  14.546 -0.2194 -0.4490  0.6633
  288TMC3    C6 4345   1.009   1.495  14.668 -0.5259 -0.5843 -0.3715
  288TMC3     C 4346   0.972   1.236  14.337  0.0484 -0.0287 -0.7168
  288TMC3     O 4347   0.896   1.141  14.355  0.1257 -0.0986 -0.0708
  288TMC3     H 4348   0.957   1.166  14.594  0.0119 -0.9743 -2.8908
  288TMC3    H1 4349   1.061   1.494  14.336 -0.4183 -1.1060  0.2517
  288TMC3    H2 4350   1.010   1.556  14.758  2.0839 -0.3670 -0.5534
  288TMC3    C7 4351   1.050   1.681  14.518 -0.4971 -0.7766  0.1733
  288TMC3    C8 4352   0.970   1.315  14.824  0.8245 -0.2153  0.4410
  288TMC3    O1 4353   1.068   1.710  14.401 -0.5228 -0.3540  0.0050
  288TMC3    O2 4354   1.022   1.377  14.914  0.4459 -0.0748  0.2121
  289MPD2     C 4355   1.462   1.019  14.518  0.2237  0.4669 -0.0037
  289MPD2    C1 4356   1.398   1.103  14.432 -0.1471 -0.5587  0.2644
  289MPD2    C2 4357   1.279   1.061  14.371 -1.1837  0.7378  0.1702
  289MPD2    C3 4358   1.230   0.934  14.394  0.6772  0.1284  1.1855
  289MPD2    C4 4359   1.298   0.842  14.477  0.1349  0.0835 -0.1578
  289MPD2    C5 4360   1.407   0.888  14.539  0.0594  0.2400  0.1740
  289MPD2     H 4361   1.225   1.130  14.307 -1.6228  1.2810  1.1135
  289MPD2    H1 4362   1.260   0.745  14.507 -1.9583  1.0286  0.2428
  289MPD2    H2 4363   1.552   1.045  14.573  0.6217 -0.9405  0.0150
  289MPD2    H3 4364   1.458   0.835  14.619  1.8620 -0.3829 -1.3907
  289MPD2     N 4365   1.108   0.886  14.338  0.4905 -0.2528  0.0957
  289MPD2    H5 4366   1.044   0.958  14.306  2.4904  1.6410  0.2956
  289MPD2    N1 4367   1.443   1.233  14.423 -0.1935 -0.3516 -0.1467
  289MPD2    H7 4368   1.522   1.262  14.480  2.2219 -3.7518 -1.7880
  290TMC3    C1 4369   0.947   0.738  14.243  0.2254  1.1651  0.0747
  290TMC3    C2 4370   0.853   0.837  14.242 -0.9956  0.0825 -1.0085
  290TMC3    C3 4371   0.739   0.821  14.159 -0.4805 -0.5302 -0.6751
  290TMC3    C4 4372   0.930   0.616  14.185  0.4284  0.2110  0.2046
  290TMC3    C5 4373   0.811   0.598  14.115 -0.6869  0.2946 -0.4943
  290TMC3    C6 4374   0.720   0.705  14.092  0.0244 -0.1419  0.5230
  290TMC3     C 4375   1.062   0.755  14.328 -0.0584  0.3810  0.2545
  290TMC3     O 4376   1.111   0.652  14.365  0.2182 -0.0004 -0.0149
  290TMC3     H 4377   0.856   0.901  14.330  0.3767  0.3591 -1.2564
  290TMC3    H1 4378   1.014   0.548  14.181  0.8490  0.6310  2.2004
  290TMC3    H2 4379   0.635   0.697  14.026  0.4281  1.8783 -0.2453
  290TMC3    C7 4380   0.800   0.484  14.027  0.1223  0.8844  0.7227
  290TMC3    C8 4381   0.645   0.928  14.159  0.2352 -0.0283 -0.0135
  290TMC3    O1 4382   0.719   0.505  13.938  0.2928  0.0380  0.6050
  290TMC3    O2 4383   0.559   0.911  14.075 -0.1931  0.4782  0.7936
  291MPD2     C 4384   0.471   0.540   0.411 -0.2826  0.6599  0.3760
  291MPD2    C1 4385   0.497   0.416   0.368 -0.4738  0.3874 -0.0464
  291MPD2    C2 4386   0.613   0.380   0.305 -0.4204 -0.1042 -0.0645
  291MPD2    C3 4387   0.713   0.478   0.303 -0.1074  0.6035 -0.3506
  291MPD2    C4 4388   0.684   0.611   0.340 -0.8155 -0.1090  0.7216
  291MPD2    C5 4389   0.565   0.639   0.398  0.8113 -0.5355  0.1246
  291MPD2     H 4390   0.618   0.277   0.271 -1.9212 -0.0088 -0.5577
  291MPD2    H1 4391   0.759   0.688   0.331  0.8132 -1.6908  0.7460
  291MPD2    H2 4392   0.388   0.562   0.478  0.1101 -1.0042  1.4176
  291MPD2    H3 4393   0.559   0.740   0.437  0.1517 -0.9169  0.9777
  291MPD2     N 4394   0.837   0.438   0.240  0.1900 -0.1246  0.1546
  291MPD2    H5 4395   0.832   0.344   0.202 -1.4373 -0.5102  1.3232
  291MPD2    N1 4396   0.417   0.304   0.398  0.0242 -0.4272  0.0548
  291MPD2    H7 4397   0.441   0.209   0.372  0.5525 -0.5455  0.9916
  292TMC3    C1 4398   0.237   0.181   0.479 -0.4526  0.6908 -0.0140
  292TMC3    C2 4399   0.175   0.157   0.603  0.4823 -0.7101  0.0733
  292TMC3    C3 4400   0.164   0.027   0.649 -0.2319 -0.5449  0.5317
  292TMC3    C4 4401   0.281   0.074   0.405 -0.1436  0.2616  0.1490
  292TMC3    C5 4402   0.233   4.667   0.446 -0.4195 -0.3037  0.6243
  292TMC3    C6 4403   0.178   4.640   0.569 -0.0977  0.0001 -0.4491
  292TMC3     C 4404   0.295   0.317   0.468 -0.3236 -0.2750 -0.2135
  292TMC3     O 4405   0.236   0.409   0.524 -0.2773  0.2253 -0.5059
  292TMC3     H 4406   0.164   0.235   0.679  0.5963 -0.9359  0.3209
  292TMC3    H1 4407   0.337   0.081   0.313  0.9149 -0.9899  0.6887
  292TMC3    H2 4408   0.152   4.537   0.593  2.1134  0.3374  3.3964
  292TMC3    C7 4409   0.250   4.556   0.354 -0.7915  0.7816  0.5149
  292TMC3    C8 4410   0.230   0.010   0.778 -0.5330 -0.2675  0.3952
  292TMC3    O1 4411   0.360   4.553   0.297 -0.0045  0.2088  0.1174
  292TMC3    O2 4412   0.317   0.092   0.812 -0.2323 -0.3671  0.3942
  293MPD2     C 4413   2.145   2.062  12.208 -0.2649 -0.4209 -0.2191
  293MPD2    C1 4414   2.065   2.007  12.305 -0.3411  0.0996  0.4573
  293MPD2    C2 4415   2.094   2.018  12.443 -0.1222  0.0261 -0.2189
  293MPD2    C3 4416   2.213   2.069  12.486  0.2557  0.3687  0.0622
  293MPD2    C4 4417   2.297   2.113  12.380  0.3785 -0.2993 -0.1208
  293MPD2    C5 4418   2.265   2.114  12.248  0.3012  0.5697 -0.4241
  293MPD2     H 4419   2.023   1.980  12.516 -0.7263  0.8679 -0.3625
  293MPD2    H1 4420   2.388   2.165  12.407 -0.1382  0.3158  0.4121
  293MPD2    H2 4421   2.121   2.065  12.102  0.5165  0.2190 -0.3821
  293MPD2    H3 4422   2.335   2.162  12.180 -0.3086 -0.2072 -1.5898
  293MPD2     N 4423   2.239   2.076  12.622 -0.2207 -0.3581  0.3134
  293MPD2    H5 4424   2.162   2.050  12.683 -1.1354 -0.5940 -0.9506
  293MPD2    N1 4425   1.937   1.952  12.264  0.2029 -0.6827  0.1155
  293MPD2    H7 4426   1.910   1.985  12.172 -0.8429 -3.2396 -0.4994
  294TMC3    C1 4427   1.712   1.875  12.293 -0.3799 -0.9356 -0.4142
  294TMC3    C2 4428   1.633   1.781  12.356  0.4628  0.4000 -0.8014
  294TMC3    C3 4429   1.504   1.763  12.309  0.1562 -0.4165 -0.7696
  294TMC3    C4 4430   1.669   1.945  12.182 -0.5532  0.2963  0.5002
  294TMC3    C5 4431   1.544   1.922  12.140 -0.4806  0.0702  0.1053
  294TMC3    C6 4432   1.459   1.832  12.204  0.4984 -0.7058 -0.2208
  294TMC3     C 4433   1.846   1.888  12.344  0.3101 -0.5477  1.0628
  294TMC3     O 4434   1.862   1.841  12.457  0.1354 -0.2386 -0.2157
  294TMC3     H 4435   1.677   1.715  12.430 -0.1182  1.2512  0.3008
  294TMC3    H1 4436   1.734   2.011  12.125  0.6862 -0.8658  0.5653
  294TMC3    H2 4437   1.368   1.794  12.160  1.8507 -3.0714 -0.9910
  294TMC3    C7 4438   1.499   1.949  12.005 -0.3431 -0.2831  0.6486
  294TMC3    C8 4439   1.456   1.621  12.306 -0.4114  0.1356 -0.1627
  294TMC3    O1 4440   1.394   1.911  11.965  0.1722  0.1171  0.0963
  294TMC3    O2 4441   1.538   1.532  12.297 -0.5526  0.8413  0.3571
  295MPD2     C 4442   2.732   0.308   0.771 -0.1824  0.1517 -0.0669
  295MPD2    C1 4443   2.741   0.179   0.823 -0.5126 -0.4091  0.0350
  295MPD2    C2 4444   2.682   0.162   0.944 -0.1528  0.0301 -0.1107
  295MPD2    C3 4445   2.586   0.245   1.002 -0.0112 -0.3762  0.1945
  295MPD2    C4 4446   2.555   0.357   0.934 -0.1249 -1.0601 -0.6834
  295MPD2    C5 4447   2.629   0.387   0.824 -0.8971 -0.3591 -0.0946
  295MPD2     H 4448   2.693   0.066   0.994  0.8263  0.9966  1.5517
  295MPD2    H1 4449   2.481   0.427   0.971  2.6639  0.8162  1.3901
  295MPD2    H2 4450   2.788   0.344   0.686 -1.9820  1.1369 -0.8201
  295MPD2    H3 4451   2.623   0.486   0.780 -1.7297 -0.7045 -0.7727
  295MPD2     N 4452   2.503   0.227   1.117  0.1051  0.1946  0.2218
  295MPD2    H5 4453   2.448   0.309   1.139 -1.5108 -0.0975 -2.6298
  295MPD2    N1 4454   2.831   0.085   0.775 -0.2680 -0.6802 -0.2586
  295MPD2    H7 4455   2.837   0.000   0.830  1.9332  0.5021  1.3444
  296TMC3    C1 4456   2.414   0.114   1.305 -0.5684 -0.1369  0.1518
  296TMC3    C2 4457   2.339   0.229   1.328 -0.6847  0.5463 -0.2456
  296TMC3    C3 4458   2.277   0.238   1.448 -0.5917  0.2956  0.1622
  296TMC3    C4 4459   2.416   0.005   1.390  0.2013  0.2269  0.1776
  296TMC3    C5 4460   2.359   0.021   1.514 -0.1549  0.4879 -0.5317
  296TMC3    C6 4461   2.288   0.135   1.545  0.6972 -0.2212  0.5327
  296TMC3     C 4462   2.505   0.113   1.194  1.0863 -0.0849  0.0456
  296TMC3     O 4463   2.555   0.005   1.165  0.1810  0.5679  0.3735
  296TMC3     H 4464   2.343   0.314   1.261  0.4752  0.8020  0.1426
  296TMC3    H1 4465   2.469   4.633   1.367  0.0829 -0.0614  1.0264
  296TMC3    H2 4466   2.237   0.128   1.640 -0.6345  2.2937  0.0149
  296TMC3    C7 4467   2.408   4.647   1.620  0.1336 -0.1163  0.0951
  296TMC3    C8 4468   2.219   0.360   1.505  0.3501 -0.3220  0.1085
  296TMC3    O1 4469   2.494   4.573   1.574 -0.4235 -0.1770 -0.0423
  296TMC3    O2 4470   2.195   0.355   1.623 -0.0239 -0.4261  0.1296
  297MPD2     C 4471   4.660   2.773  16.285  0.2033 -0.2398  0.2243
  297MPD2    C1 4472   4.708   2.846  16.176 -0.3945  0.1651  0.7162
  297MPD2    C2 4473   0.121   2.877  16.180  0.1459  0.0953 -0.3446
  297MPD2    C3 4474   0.213   2.835  16.278 -0.1780 -0.2516  0.5027
  297MPD2    C4 4475   0.164   2.752  16.376 -0.0014  0.1084 -0.6379
  297MPD2    C5 4476   0.027   2.729  16.386  0.5460 -0.1234 -0.7300
  297MPD2     H 4477   0.166   2.934  16.100  1.6681 -0.3078  0.2274
  297MPD2    H1 4478   0.224   2.722  16.461 -1.8976  0.4838  0.8403
  297MPD2    H2 4479   4.557   2.741  16.296 -0.4498  1.6553 -0.5191
  297MPD2    H3 4480   4.711   2.680  16.475 -0.8035  0.9057 -0.7051
  297MPD2     N 4481   0.350   2.876  16.275  0.2826 -0.4713  0.6938
  297MPD2    H5 4482   0.376   2.943  16.202 -0.5077  0.6459  1.4455
  297MPD2    N1 4483   4.629   2.910  16.079  0.3894 -0.2930 -0.4816
  297MPD2    H7 4484   4.681   2.964  16.011 -1.2476  0.9467 -0.7497
  298TMC3    C1 4485   4.439   2.974  15.957  0.0437  0.1003  0.8090
  298TMC3    C2 4486   4.517   3.005  15.849 -0.1314  0.2151  0.3189
  298TMC3    C3 4487   4.450   3.074  15.749  0.1255 -0.6816 -0.5552
  298TMC3    C4 4488   4.304   3.003  15.954 -0.2716 -0.0958 -0.3346
  298TMC3    C5 4489   4.255   3.091  15.863  0.4590 -0.7181 -0.0899
  298TMC3    C6 4490   4.328   3.120  15.748 -0.1806  0.2685 -0.4069
  298TMC3     C 4491   4.490   2.901  16.072 -0.5522  0.0876 -0.2167
  298TMC3     O 4492   4.402   2.855  16.141  0.3054  0.0407 -0.5883
  298TMC3     H 4493   4.625   2.990  15.843  0.3368  3.3295  1.0410
  298TMC3    H1 4494   4.244   2.975  16.040 -1.1404 -0.5161 -1.0805
  298TMC3    H2 4495   4.297   3.192  15.674  0.2145  1.0362  0.1780
  298TMC3    C7 4496   4.180   3.197  15.920 -0.2081  0.2629  0.1521
  298TMC3    C8 4497   4.535   3.130  15.654 -0.0613  0.2278  0.2783
  298TMC3    O1 4498   4.177   3.218  16.041  0.6289 -0.4125 -0.3717
  298TMC3    O2 4499   4.507   3.245  15.615  0.3966  0.2225  0.1832
  299MPD2     C 4500   1.051   2.920  10.632  0.5402 -0.7940  0.2443
  299MPD2    C1 4501   0.992   2.848  10.728 -0.0054 -0.6510  0.4410
  299MPD2    C2 4502   0.892   2.753  10.693  0.0875  0.3606  0.5417
  299MPD2    C3 4503   0.849   2.752  10.564 -0.0784 -0.0022  0.2010
  299MPD2    C4 4504   0.908   2.831  10.472  0.5154  0.3038  0.3598
  299MPD2    C5 4505   1.016   2.913  10.498 -0.5156 -0.4847  0.7350
  299MPD2     H 4506   0.844   2.692  10.769 -1.0248  0.5657  0.0147
  299MPD2    H1 4507   0.856   2.842  10.377  1.2163 -0.0230 -0.0550
  299MPD2    H2 4508   1.134   2.987  10.650 -0.4078  0.0932  1.3396
  299MPD2    H3 4509   1.058   2.978  10.422 -1.0272 -0.1352  0.7528
  299MPD2     N 4510   0.739   2.679  10.521  0.2763 -0.4204 -0.7522
  299MPD2    H5 4511   0.699   2.705  10.432 -0.6091 -3.2037 -1.1731
  299MPD2    N1 4512   1.030   2.880  10.862  0.1886 -0.6582  0.2680
  299MPD2    H7 4513   1.107   2.944  10.871  1.2010 -1.3418 -3.5655
  300TMC3    C1 4514   0.562   2.528  10.508  0.5573  0.0733 -0.2970
  300TMC3    C2 4515   0.516   2.600  10.399 -0.6228  0.1611  0.2406
  300TMC3    C3 4516   0.416   2.543  10.321  0.3208  0.0669 -0.0605
  300TMC3    C4 4517   0.511   2.413  10.549  0.9032 -0.1054  0.0135
  300TMC3    C5 4518   0.416   2.354  10.469  0.4127  0.1132 -0.3498
  300TMC3    C6 4519   0.366   2.420  10.354 -0.2354  0.7069 -0.1936
  300TMC3     C 4520   0.677   2.572  10.584  0.0631 -0.5796 -0.4679
  300TMC3     O 4521   0.710   2.508  10.681  0.1373  1.1389 -0.3029
  300TMC3     H 4522   0.546   2.701  10.372  1.1754 -0.8118 -1.4490
  300TMC3    H1 4523   0.558   2.361  10.632  0.7850 -1.7134 -0.9294
  300TMC3    H2 4524   0.303   2.363  10.288 -0.9728 -0.9008  1.9048
  300TMC3    C7 4525   0.337   2.248  10.517  0.3209 -0.0131  0.6229
  300TMC3    C8 4526   0.358   2.630  10.216 -0.2108  0.6946  0.4606
  300TMC3    O1 4527   0.391   2.146  10.557  0.5221  0.0371 -0.3796
  300TMC3    O2 4528   0.406   2.743  10.205 -0.1980  0.0167 -0.3536
  301MPD2     C 4529   2.946   2.907   1.127  0.4169  0.3684  0.4828
  301MPD2    C1 4530   2.832   2.838   1.172  0.7089 -0.1962 -0.3377
  301MPD2    C2 4531   2.823   2.705   1.144 -0.2261  0.3698 -0.0839
  301MPD2    C3 4532   2.923   2.637   1.077 -0.3150 -0.0271  0.2263
  301MPD2    C4 4533   3.040   2.700   1.046  0.0170  0.4907  0.2639
  301MPD2    C5 4534   3.046   2.836   1.066  0.3857 -0.1473 -0.2098
  301MPD2     H 4535   2.740   2.651   1.188 -0.1293 -0.4980 -0.9389
  301MPD2    H1 4536   3.126   2.654   0.999 -0.7547 -0.2313 -0.4314
  301MPD2    H2 4537   2.956   3.015   1.134  2.9276  0.0684  1.7704
  301MPD2    H3 4538   3.144   2.877   1.044 -0.3240  1.5312 -0.2511
  301MPD2     N 4539   2.914   2.492   1.048 -0.4956  0.3205  0.0379
  301MPD2    H5 4540   2.996   2.440   1.021 -0.7206 -0.0952  0.1637
  301MPD2    N1 4541   2.721   2.900   1.221  0.0408 -0.2043 -0.1145
  301MPD2    H7 4542   2.635   2.850   1.240  0.1649  0.0451  1.0943
  302TMC3    C1 4543   2.818   2.279   1.067 -0.1147 -0.6460 -0.0546
  302TMC3    C2 4544   2.928   2.225   1.120  0.2510  0.0342 -0.1337
  302TMC3    C3 4545   2.924   2.094   1.149  0.6896 -0.2838  0.0579
  302TMC3    C4 4546   2.700   2.215   1.038  0.2104 -0.3001  0.3164
  302TMC3    C5 4547   2.699   2.080   1.075  0.1815 -0.4200 -0.3531
  302TMC3    C6 4548   2.812   2.026   1.132 -0.2970 -0.1835 -0.3681
  302TMC3     C 4549   2.795   2.424   1.061 -0.0075  0.7690  0.3044
  302TMC3     O 4550   2.681   2.469   1.055  0.2396 -0.4489 -0.4917
  302TMC3     H 4551   3.007   2.291   1.154  1.3542 -1.1139 -0.4728
  302TMC3    H1 4552   2.618   2.269   0.993  1.1679  0.0864 -0.9878
  302TMC3    H2 4553   2.799   1.922   1.160  0.5401 -0.0953  0.3399
  302TMC3    C7 4554   2.576   2.007   1.084  0.0348  0.5191 -0.9271
  302TMC3    C8 4555   3.042   2.041   1.209 -0.3738  0.2372  0.0230
  302TMC3    O1 4556   2.575   1.897   1.135 -0.2529 -0.4903 -0.2910
  302TMC3    O2 4557   3.144   2.108   1.206 -0.0712 -0.5433 -0.4973
  303MPD2     C 4558   2.329   1.838  10.070  0.1723  0.0100 -0.0085
  303MPD2    C1 4559   2.224   1.781   9.999  0.8916 -0.1379  0.1998
  303MPD2    C2 4560   2.178   1.837   9.881  0.2290  0.5765 -0.4134
  303MPD2    C3 4561   2.249   1.945   9.827 -0.5457 -0.6287  0.0828
  303MPD2    C4 4562   2.356   1.995   9.898  0.0151  0.1453  0.2403
  303MPD2    C5 4563   2.401   1.938  10.015  0.3142 -0.5224  0.1762
  303MPD2     H 4564   2.087   1.808   9.830 -0.3779  0.4780  0.7495
  303MPD2    H1 4565   2.412   2.078   9.855  0.9151  0.7718  2.6634
  303MPD2    H2 4566   2.367   1.800  10.165 -1.2831  0.5995  0.8181
  303MPD2    H3 4567   2.489   1.974  10.067  1.1835 -0.3360 -1.4390
  303MPD2     N 4568   2.217   2.018   9.708  0.1708  0.0226 -0.1426
  303MPD2    H5 4569   2.288   2.075   9.664  0.4474  1.2552  1.9000
  303MPD2    N1 4570   2.157   1.668  10.049  0.2693  0.4386  0.4048
  303MPD2    H7 4571   2.183   1.641  10.143 -1.0319 -0.2976  0.5534
  304TMC3    C1 4572   1.998   1.497  10.076 -0.6671  0.4479  0.4171
  304TMC3    C2 4573   1.924   1.565  10.176  0.9030  0.1565  0.3372
  304TMC3    C3 4574   1.797   1.520  10.202 -0.0292 -0.3557  0.3200
  304TMC3    C4 4575   1.945   1.392  10.007 -0.3400 -0.1427  0.0795
  304TMC3    C5 4576   1.821   1.347  10.035  0.0124 -0.2374 -0.4025
  304TMC3    C6 4577   1.749   1.405  10.138 -0.8146 -0.3668 -0.0510
  304TMC3     C 4578   2.074   1.582   9.986  0.1983  0.4712 -0.3235
  304TMC3     O 4579   2.029   1.588   9.873 -0.0367 -0.0120  0.0302
  304TMC3     H 4580   1.959   1.663  10.206  0.9967  0.5403 -1.0411
  304TMC3    H1 4581   2.002   1.351   9.924 -1.5240  1.4610 -1.5339
  304TMC3    H2 4582   1.650   1.367  10.162 -0.5206  0.0910  1.8416
  304TMC3    C7 4583   1.738   1.321   9.912 -1.1570 -0.0086  0.1051
  304TMC3    C8 4584   1.685   1.620  10.190  0.1011 -0.3482  0.1907
  304TMC3    O1 4585   1.801   1.279   9.817 -0.0730 -0.0612  0.6179
  304TMC3    O2 4586   1.585   1.591  10.123  0.1012 -0.1499 -0.2656
  305MPD2     C 4587   1.293   4.115  14.021  0.9416  0.1568 -0.2569
  305MPD2    C1 4588   1.226   3.993  14.039  0.4566 -1.1631 -0.2886
  305MPD2    C2 4589   1.153   3.933  13.943 -0.2965 -0.6041  0.2726
  305MPD2    C3 4590   1.125   4.011  13.832  1.1929  0.0048 -0.8102
  305MPD2    C4 4591   1.187   4.128  13.813 -0.3817 -0.0687  0.2821
  305MPD2    C5 4592   1.258   4.185  13.908  0.1580  0.0456  0.6262
  305MPD2     H 4593   1.094   3.842  13.948 -0.8282 -0.3025 -0.4684
  305MPD2    H1 4594   1.184   4.192  13.726  0.6344 -1.5532 -0.8502
  305MPD2    H2 4595   1.367   4.155  14.091  0.3972 -0.0015  0.4040
  305MPD2    H3 4596   1.310   4.276  13.879 -3.3026  1.4202 -1.1379
  305MPD2     N 4597   1.042   3.971  13.721  0.3030 -0.1686 -0.1310
  305MPD2    H5 4598   1.025   4.030  13.641 -2.7027 -1.7896 -0.6749
  305MPD2    N1 4599   1.275   3.919  14.153  0.1424 -0.1059 -0.4473
  305MPD2    H7 4600   1.333   3.968  14.221 -1.0638  1.0830 -0.2531
  306TMC3    C1 4601   1.329   3.732  14.281 -0.7312  0.3565 -0.1883
  306TMC3    C2 4602   1.368   3.600  14.275 -0.4852 -0.8217 -0.8259
  306TMC3    C3 4603   1.397   3.532  14.392  0.1677 -0.0071  0.0303
  306TMC3    C4 4604   1.312   3.797  14.398  0.6322 -0.2305 -0.0888
  306TMC3    C5 4605   1.354   3.729  14.511 -0.2236 -0.3343  0.0088
  306TMC3    C6 4606   1.406   3.602  14.512 -0.2150 -0.0832  0.3695
  306TMC3     C 4607   1.280   3.787  14.158 -1.0317  0.1071 -0.2692
  306TMC3     O 4608   1.239   3.706  14.076  0.3895 -0.1137  0.2041
  306TMC3     H 4609   1.385   3.558  14.177  1.0617 -0.7418 -0.6032
  306TMC3    H1 4610   1.284   3.902  14.405  0.6368 -0.3314  1.4439
  306TMC3    H2 4611   1.436   3.553  14.604 -0.1688 -1.1108 -0.1946
  306TMC3    C7 4612   1.367   3.812  14.630 -0.0355  0.4435  0.2406
  306TMC3    C8 4613   1.467   3.404  14.386  0.2948 -0.3731  0.2764
  306TMC3    O1 4614   1.314   3.921  14.634  0.3946  0.2954 -0.3551
  306TMC3    O2 4615   1.523   3.374  14.283  0.0397 -0.3077 -0.0864
  307MPD2     C 4616   3.580   1.300   0.802 -0.5947 -0.0705  0.8537
  307MPD2    C1 4617   3.581   1.413   0.721 -0.1267 -0.4457 -0.2876
  307MPD2    C2 4618   3.460   1.477   0.690  0.6441  0.2574 -0.2984
  307MPD2    C3 4619   3.342   1.447   0.759  0.0755 -0.7547 -0.2290
  307MPD2    C4 4620   3.345   1.334   0.847 -0.0844  0.6125  0.4890
  307MPD2    C5 4621   3.467   1.272   0.877  0.1423  0.4732 -0.1612
  307MPD2     H 4622   3.462   1.547   0.607  0.1719 -1.1564 -1.5012
  307MPD2    H1 4623   3.255   1.298   0.896  0.2268 -1.2095 -0.2743
  307MPD2    H2 4624   3.669   1.246   0.832 -0.2320  0.0107 -0.0801
  307MPD2    H3 4625   3.475   1.209   0.965  0.4886 -0.2880 -0.7312
  307MPD2     N 4626   3.221   1.507   0.712  0.2110 -0.4379 -0.3867
  307MPD2    H5 4627   3.223   1.579   0.640 -0.4784  0.5908  0.6283
  307MPD2    N1 4628   3.694   1.457   0.646 -0.1463  0.1456  0.7715
  307MPD2    H7 4629   3.674   1.536   0.586  1.5130 -0.7750 -0.9850
  308TMC3    C1 4630   2.754   1.519   0.599  0.4080 -0.4643  0.0964
  308TMC3    C2 4631   2.783   1.626   0.522  1.2099 -0.1807 -0.8366
  308TMC3    C3 4632   2.900   1.694   0.528  0.9197 -1.1679  0.1730
  308TMC3    C4 4633   2.857   1.475   0.673  0.1798 -0.3117  0.7994
  308TMC3    C5 4634   2.988   1.531   0.668  0.1478 -0.5696  0.1336
  308TMC3    C6 4635   3.001   1.647   0.606 -0.1607  0.3131 -0.1467
  308TMC3     C 4636   2.639   1.439   0.586  0.0499  0.6249 -0.0326
  308TMC3     O 4637   2.614   1.370   0.683  0.5983  0.2465 -0.1346
  308TMC3     H 4638   2.696   1.674   0.479  0.5403 -2.2710 -1.8186
  308TMC3    H1 4639   2.831   1.395   0.741 -0.3893 -0.8509 -0.0457
  308TMC3    H2 4640   3.100   1.690   0.611  0.2995 -0.7888  0.1723
  308TMC3    C7 4641   3.095   1.462   0.738 -0.0737 -0.2848  0.0916
  308TMC3    C8 4642   2.948   1.778   0.414 -0.5153 -0.0098 -0.2450
  308TMC3    O1 4643   3.067   1.350   0.778  0.5614 -0.0258  1.1513
  308TMC3    O2 4644   2.891   1.755   0.312  0.3619  0.6276 -0.6885
  309MPD2     C 4645   2.942   2.081  16.842 -0.0311  0.5437 -0.2764
  309MPD2    C1 4646   2.886   2.147  16.734  0.7927 -0.0930  0.5605
  309MPD2    C2 4647   2.761   2.206  16.744 -0.5670  0.0216  0.1496
  309MPD2    C3 4648   2.689   2.192  16.862 -0.3391 -0.4159  0.3573
  309MPD2    C4 4649   2.749   2.141  16.969 -0.0640  0.8674  0.1065
  309MPD2    C5 4650   2.877   2.086  16.963 -0.2548 -0.5816  0.1325
  309MPD2     H 4651   2.713   2.243  16.654 -4.1694  0.2930  2.1471
  309MPD2    H1 4652   2.700   2.142  17.065 -1.3425  0.6047 -0.5390
  309MPD2    H2 4653   3.040   2.035  16.842  1.2657  3.3461  1.4554
  309MPD2    H3 4654   2.926   2.061  17.056  2.1822  1.1157 -0.7180
  309MPD2     N 4655   2.552   2.233  16.885 -0.2843  1.2211 -0.3473
  309MPD2    H5 4656   2.525   2.235  16.983 -1.6321  0.7362 -0.7062
  309MPD2    N1 4657   2.956   2.165  16.614 -0.1528  0.2389  0.7153
  309MPD2    H7 4658   2.931   2.243  16.553 -0.1345 -0.0908  0.2879
  310TMC3    C1 4659   3.133   2.140  16.464 -0.7353 -1.1668  0.5264
  310TMC3    C2 4660   3.099   2.255  16.397  0.3314 -0.0548  0.5270
  310TMC3    C3 4661   3.180   2.301  16.300  1.1607  0.2284  0.6168
  310TMC3    C4 4662   3.257   2.076  16.444  0.1365  0.7830 -0.1598
  310TMC3    C5 4663   3.339   2.128  16.350  0.1200  0.0966  0.1609
  310TMC3    C6 4664   3.300   2.243  16.277  0.2589 -0.4060  0.0968
  310TMC3     C 4665   3.068   2.089  16.579 -1.1106  0.6006  0.0243
  310TMC3     O 4666   3.102   1.984  16.629 -0.3733 -0.5749 -0.4694
  310TMC3     H 4667   3.007   2.312  16.402  1.3102  1.5205  0.7025
  310TMC3    H1 4668   3.295   1.992  16.502 -1.5397 -1.1375 -1.8359
  310TMC3    H2 4669   3.359   2.285  16.197  1.0652  3.0333  2.5224
  310TMC3    C7 4670   3.432   2.036  16.292  0.4193  0.7133 -0.0790
  310TMC3    C8 4671   3.130   2.399  16.203  0.7893  0.2648  0.1315
  310TMC3    O1 4672   3.404   1.918  16.308  0.2324 -0.0751  0.5360
  310TMC3    O2 4673   3.009   2.395  16.189 -0.4868 -0.0517  0.1254
  311MPD2     C 4674   4.715   3.758  13.101  0.5298 -0.4357  0.2609
  311MPD2    C1 4675   4.673   3.798  12.978 -0.5618 -0.4106 -0.1994
  311MPD2    C2 4676   4.546   3.797  12.942  1.0226  0.2178 -0.1421
  311MPD2    C3 4677   4.451   3.742  13.024 -0.2010  0.4765 -1.1568
  311MPD2    C4 4678   4.495   3.683  13.142 -0.5516 -0.4263 -0.2194
  311MPD2    C5 4679   4.624   3.700  13.179  0.2699  0.4868  0.1299
  311MPD2     H 4680   4.523   3.827  12.840  0.1501 -1.7522 -0.5299
  311MPD2    H1 4681   4.426   3.625  13.202 -0.4143  0.9122  1.2408
  311MPD2    H2 4682   0.098   3.763  13.137  0.6939  0.5768 -0.3477
  311MPD2    H3 4683   4.647   3.658  13.276  3.5352 -0.6107 -1.1242
  311MPD2     N 4684   4.310   3.739  12.994  0.0625 -0.2624 -0.1771
  311MPD2    H5 4685   4.241   3.709  13.062  1.9294 -2.4133  0.7652
  311MPD2    N1 4686   0.042   3.863  12.897 -0.2157  0.1995 -0.0319
  311MPD2    H7 4687   0.007   3.920  12.820  0.0273  2.6317  1.6622
  312TMC3    C1 4688   4.115   3.784  12.876 -0.0187 -0.3295 -0.4464
  312TMC3    C2 4689   4.050   3.780  12.754 -0.5282 -0.4072  0.1341
  312TMC3    C3 4690   3.916   3.787  12.757  0.2479 -0.2176 -0.5520
  312TMC3    C4 4691   4.047   3.810  12.991 -0.6414  0.1195  0.1912
  312TMC3    C5 4692   3.914   3.832  12.988  0.1091  0.7283 -0.9815
  312TMC3    C6 4693   3.849   3.810  12.873  0.1084  0.4002  0.2800
  312TMC3     C 4694   4.261   3.787  12.873  0.1463  0.6292  0.6412
  312TMC3     O 4695   4.311   3.857  12.784 -0.7976 -0.5335  0.0846
  312TMC3     H 4696   4.106   3.755  12.665 -0.4817 -0.2311  0.1136
  312TMC3    H1 4697   4.100   3.848  13.078 -0.1217  2.5601 -1.1744
  312TMC3    H2 4698   3.741   3.820  12.879 -0.2267 -1.2601 -2.7121
  312TMC3    C7 4699   3.837   3.814  13.106 -0.2492 -0.9630 -0.4221
  312TMC3    C8 4700   3.837   3.735  12.648  0.1189 -0.3949 -0.3925
  312TMC3    O1 4701   3.718   3.838  13.103 -0.2794  0.1869 -0.2729
  312TMC3    O2 4702   3.872   3.624  12.621  0.0610 -0.2027 -0.7690
  313MPD2     C 4703   4.314   2.641  10.364 -0.5070 -0.2412  0.5943
  313MPD2    C1 4704   4.199   2.702  10.388 -0.3711  0.0556  0.4660
  313MPD2    C2 4705   4.089   2.685  10.305 -0.1915 -0.1920  0.7678
  313MPD2    C3 4706   4.098   2.603  10.192  0.2512 -0.5302 -0.0639
  313MPD2    C4 4707   4.224   2.536  10.176 -0.1780 -0.9885  0.5725
  313MPD2    C5 4708   4.323   2.561  10.257 -0.1175  0.0706 -0.1785
  313MPD2     H 4709   3.999   2.741  10.326 -0.9054 -1.3345  0.7102
  313MPD2    H1 4710   4.256   2.464  10.102 -0.1063  1.5886 -1.8839
  313MPD2    H2 4711   4.401   2.662  10.426 -1.0128  0.6140  1.0174
  313MPD2    H3 4712   4.417   2.510  10.238 -1.0075 -1.7642  0.3668
  313MPD2     N 4713   3.993   2.594  10.093  0.2091  0.4212  0.4484
  313MPD2    H5 4714   3.900   2.631  10.110  1.6748  3.7123  1.2074
  313MPD2    N1 4715   4.178   2.782  10.502  0.0141  0.0297 -0.2014
  313MPD2    H7 4716   4.095   2.841  10.493  0.8489  1.3787  0.9098
  314TMC3    C1 4717   4.252   2.932  10.679 -0.3127 -0.4605  0.7673
  314TMC3    C2 4718   4.366   3.000  10.723 -0.7565 -0.0119 -0.9791
  314TMC3    C3 4719   4.358   3.134  10.756  0.5887 -0.9048 -0.4788
  314TMC3    C4 4720   4.135   2.998  10.666 -1.1458  0.0841  0.3719
  314TMC3    C5 4721   4.126   3.132  10.704 -0.3175 -0.4576  0.4891
  314TMC3    C6 4722   4.237   3.202  10.743  0.7351  0.7079  0.1997
  314TMC3     C 4723   4.273   2.813  10.596 -0.3197  0.6021 -0.7713
  314TMC3     O 4724   4.375   2.750  10.628 -0.1353 -0.7822 -0.4886
  314TMC3     H 4725   4.460   2.946  10.727 -1.4338 -1.3900 -3.6477
  314TMC3    H1 4726   4.046   2.942  10.640 -1.2189 -0.2504  1.3634
  314TMC3    H2 4727   4.243   3.307  10.769  0.6757 -0.0511  3.2281
  314TMC3    C7 4728   4.044   3.205  10.600 -0.4317  0.0476  0.0756
  314TMC3    C8 4729   4.473   3.215  10.726  0.4421  0.1447 -0.5776
  314TMC3    O1 4730   3.932   3.163  10.572 -0.1279 -0.1896 -0.4048
  314TMC3    O2 4731   4.446   3.335  10.709  0.6006 -0.2298  0.3184
  315MPD2     C 4732   3.472   2.396   0.001 -0.5462 -0.3246  0.9102
  315MPD2    C1 4733   3.601   2.384  17.636 -0.4508  0.1558  0.5480
  315MPD2    C2 4734   3.656   2.479  17.560 -0.4385  0.9809  0.1459
  315MPD2    C3 4735   3.579   2.588  17.526 -0.5249 -0.3023 -0.7506
  315MPD2    C4 4736   3.447   2.611  17.571 -0.1391  0.1555  0.9106
  315MPD2    C5 4737   3.396   2.507  17.653 -0.1566 -0.2444 -0.3920
  315MPD2     H 4738   3.755   2.468  17.517 -0.7226 -1.1587  0.0358
  315MPD2    H1 4739   3.396   2.706  17.557 -0.1622  0.0653  0.3817
  315MPD2    H2 4740   3.426   2.312   0.052  0.4545 -1.7111 -0.4635
  315MPD2    H3 4741   3.296   2.518   0.011 -0.3795  0.5842 -1.2091
  315MPD2     N 4742   3.639   2.683  17.445  1.1034  0.1834  0.1907
  315MPD2    H5 4743   3.733   2.652  17.423  0.7601 -1.8099  1.5857
  315MPD2    N1 4744   3.675   2.267  17.661 -0.2957  0.3368  0.2949
  315MPD2    H7 4745   3.761   2.248  17.611  0.1938 -0.3739  1.4081
  316TMC3    C1 4746   3.665   2.863  17.285 -0.4998 -0.3599 -0.0953
  316TMC3    C2 4747   3.801   2.854  17.284 -0.2151  0.0464 -0.1865
  316TMC3    C3 4748   3.873   2.913  17.182 -0.4401 -0.1233 -0.0493
  316TMC3    C4 4749   3.598   2.930  17.187  0.7026 -0.4113 -0.5398
  316TMC3    C5 4750   3.673   2.989  17.090  0.8428 -0.1619 -0.1468
  316TMC3    C6 4751   3.810   2.986  17.084 -0.5503 -0.0406  0.1037
  316TMC3     C 4752   3.585   2.795  17.388  0.2952  0.1225  0.3121
  316TMC3     O 4753   3.469   2.830  17.389 -0.2171  0.4490 -0.0235
  316TMC3     H 4754   3.849   2.819  17.375  0.5208 -0.9250 -0.9560
  316TMC3    H1 4755   3.490   2.929  17.174  0.9405  0.5826 -2.6485
  316TMC3    H2 4756   3.862   3.023  16.996 -0.9100 -1.7854 -0.8561
  316TMC3    C7 4757   3.595   3.065  16.999  0.3206 -0.4885  0.2265
  316TMC3    C8 4758   4.017   2.900  17.161 -0.2875  0.4243  0.0239
  316TMC3    O1 4759   3.475   3.049  16.999 -0.1436  0.3390  0.5749
  316TMC3    O2 4760   4.073   2.972  17.084  0.2795 -0.0094 -0.3004
  317MPD2     C 4761   1.026   0.450  12.376  0.1203 -0.0547 -0.0212
  317MPD2    C1 4762   1.165   0.437  12.398  0.0315  0.0816 -0.3351
  317MPD2    C2 4763   1.220   0.438  12.521  0.1019  0.0696 -0.0736
  317MPD2    C3 4764   1.146   0.446  12.634  0.2517  0.2924 -0.0362
  317MPD2    C4 4765   1.006   0.436  12.622 -0.2597  0.3862 -0.3130
  317MPD2    C5 4766   0.947   0.446  12.490 -0.5353  0.4916  0.6566
  317MPD2     H 4767   1.328   0.428  12.521  0.0629 -0.1897 -1.5670
  317MPD2    H1 4768   0.940   0.431  12.708  2.0911  0.0649  1.4711
  317MPD2    H2 4769   0.995   0.439  12.273 -1.7924 -2.1627  0.7755
  317MPD2    H3 4770   0.839   0.434  12.479 -0.7285  1.1771  1.8239
  317MPD2     N 4771   1.197   0.432  12.765 -0.2026 -0.8332  0.7090
  317MPD2    H5 4772   1.135   0.454  12.842 -1.5102 -2.1696  0.0367
  317MPD2    N1 4773   1.256   0.414  12.295 -0.2822  0.0838  0.2514
  317MPD2    H7 4774   1.336   0.366  12.334 -1.1811 -0.9772  0.7728
  318TMC3    C1 4775   1.343   0.362  12.930  0.4149  0.8360 -0.9515
  318TMC3    C2 4776   1.240   0.333  13.014  0.1659  0.1840  0.4142
  318TMC3    C3 4777   1.258   0.309  13.144 -0.0617  0.1391 -0.2426
  318TMC3    C4 4778   1.464   0.379  12.986  0.5068  0.0646  0.4027
  318TMC3    C5 4779   1.480   0.379  13.122 -1.2677 -0.1744 -0.3676
  318TMC3    C6 4780   1.382   0.333  13.201  0.3073 -0.1350  0.0202
  318TMC3     C 4781   1.319   0.379  12.789 -0.0511 -0.2905 -0.0407
  318TMC3     O 4782   1.410   0.354  12.712 -0.1606  0.1622 -0.3322
  318TMC3     H 4783   1.147   0.298  12.971 -0.7210  1.0191  1.6450
  318TMC3    H1 4784   1.536   0.411  12.910  0.4354  0.0877  0.3450
  318TMC3    H2 4785   1.395   0.317  13.307  1.5818 -0.6401 -0.2036
  318TMC3    C7 4786   1.598   0.449  13.175 -0.7138  0.3220  0.1030
  318TMC3    C8 4787   1.154   0.235  13.218 -0.5304  0.3415  0.3864
  318TMC3    O1 4788   1.630   0.433  13.292 -0.4207 -0.2841 -0.0755
  318TMC3    O2 4789   1.188   0.158  13.307  0.2570 -0.4846 -0.2493
  319MPD2     C 4790   2.863   1.723  16.704  0.3609 -0.5110 -0.2281
  319MPD2    C1 4791   2.798   1.605  16.724 -0.2212  0.5712 -0.2066
  319MPD2    C2 4792   2.664   1.593  16.711 -0.0017  0.8895  0.8118
  319MPD2    C3 4793   2.593   1.705  16.675  0.0743 -0.0884  0.2000
  319MPD2    C4 4794   2.662   1.822  16.643 -0.0812  0.1736  0.2746
  319MPD2    C5 4795   2.795   1.828  16.663  0.3961  0.1338 -0.9943
  319MPD2     H 4796   2.620   1.495  16.726 -0.7996  1.1953  0.4567
  319MPD2    H1 4797   2.616   1.911  16.602 -0.8807  0.5013  1.8752
  319MPD2    H2 4798   2.970   1.732  16.688  0.1768  0.1998 -1.0560
  319MPD2    H3 4799   2.847   1.916  16.627  0.0271 -0.2524 -2.4682
  319MPD2     N 4800   2.451   1.705  16.655  0.4732 -0.3432 -0.1141
  319MPD2    H5 4801   2.420   1.778  16.592  0.0587 -0.8310 -0.4739
  319MPD2    N1 4802   2.862   1.486  16.757  0.1658  0.4230 -0.0718
  319MPD2    H7 4803   2.804   1.403  16.761  1.1563 -0.3254 -1.2330
  320TMC3    C1 4804   2.232   1.597  16.633  0.0337  0.1895  0.0580
  320TMC3    C2 4805   2.178   1.704  16.565  0.4470 -0.8630  0.5725
  320TMC3    C3 4806   2.042   1.696  16.526  0.3134  0.5143 -0.6818
  320TMC3    C4 4807   2.145   1.495  16.683 -0.3065  0.1458  0.6081
  320TMC3    C5 4808   2.018   1.490  16.636 -0.1961  0.5954  0.5508
  320TMC3    C6 4809   1.960   1.586  16.555 -0.3300  0.2699  0.6005
  320TMC3     C 4810   2.367   1.599  16.684 -0.5156  0.6238 -0.1754
  320TMC3     O 4811   2.395   1.507  16.758  0.4769  0.1771 -0.4525
  320TMC3     H 4812   2.234   1.795  16.544  1.9227 -2.7872 -4.0073
  320TMC3    H1 4813   2.187   1.411  16.738 -0.3892  0.4134  1.0820
  320TMC3    H2 4814   1.855   1.583  16.529  0.6359  0.5957 -3.3168
  320TMC3    C7 4815   1.959   1.366  16.648  0.4254 -0.3051 -0.7867
  320TMC3    C8 4816   1.982   1.800  16.446  0.7737  0.3081 -0.4297
  320TMC3    O1 4817   1.880   1.336  16.561 -0.2803  0.4550  0.4857
  320TMC3    O2 4818   1.862   1.819  16.473 -0.4451  0.5484 -0.1560
  321TMC3    C1 4819   3.039   1.339  16.807  0.0020 -0.3617  0.7251
  321TMC3    C2 4820   2.955   1.234  16.772 -1.3531  0.3865  0.1154
  321TMC3    C3 4821   3.006   1.111  16.781  0.6453  0.1202  0.9806
  321TMC3    C4 4822   3.169   1.329  16.850 -0.1842 -0.0184 -0.5391
  321TMC3    C5 4823   3.220   1.203  16.851 -0.7432 -0.2776  0.0848
  321TMC3    C6 4824   3.138   1.100  16.813 -0.5588  0.2305 -0.9760
  321TMC3     C 4825   3.001   1.475  16.770  0.2897 -0.3223 -1.1748
  321TMC3     O 4826   3.086   1.562  16.787  0.1159 -0.0054 -0.0318
  321TMC3     H 4827   2.849   1.245  16.752 -1.0034 -0.1214 -2.0306
  321TMC3    H1 4828   3.227   1.417  16.876  0.8834 -0.8560 -0.0824
  321TMC3    H2 4829   3.179   1.001  16.798 -1.1981  0.2386 -2.8177
  321TMC3    C7 4830   3.281   1.163  16.972  0.4477  0.1435  0.1697
  321TMC3    C8 4831   2.916   1.030  16.858 -0.1589 -0.0008 -0.0970
  321TMC3    O1 4832   3.268   1.050  17.014  0.3224 -0.0999 -0.5399
  321TMC3    O2 4833   2.797   1.062  16.860 -0.2415 -0.4368 -0.0496
  322MPD2     C 4834   1.048   3.206  12.945  0.3973 -0.1902  0.0911
  322MPD2    C1 4835   1.051   3.135  13.066  0.2147  0.4905 -0.1541
  322MPD2    C2 4836   1.090   3.001  13.077 -0.3212 -0.0614 -0.3475
  322MPD2    C3 4837   1.117   2.932  12.963 -0.1875  0.7111  0.1709
  322MPD2    C4 4838   1.115   3.001  12.842 -0.6643 -0.4787  0.2974
  322MPD2    C5 4839   1.075   3.137  12.833 -0.0957 -0.4258  0.1707
  322MPD2     H 4840   1.099   2.960  13.177 -0.1425 -0.6469 -0.6085
  322MPD2    H1 4841   1.128   2.945  12.751 -1.1774 -0.5065  0.2415
  322MPD2    H2 4842   1.029   3.313  12.934 -0.8653 -0.2987  1.2023
  322MPD2    H3 4843   1.088   3.197  12.744  1.8913  1.8324  1.9836
  322MPD2     N 4844   1.158   2.794  12.969  0.6131  0.4147 -0.5066
  322MPD2    H5 4845   1.153   2.759  13.064 -0.1954  0.3882 -0.5537
  322MPD2    N1 4846   1.040   3.221  13.183 -0.2042 -0.0173 -0.4114
  322MPD2    H7 4847   1.028   3.320  13.169 -1.2670 -0.0519  0.3114
  323TMC3    C1 4848   1.032   3.279  13.414  0.4879 -0.5967  0.0339
  323TMC3    C2 4849   1.093   3.401  13.393 -0.5154 -0.1775 -0.2441
  323TMC3    C3 4850   1.097   3.494  13.495 -0.0876 -0.1116  0.3934
  323TMC3    C4 4851   0.989   3.246  13.536 -0.6139  0.1068  0.1704
  323TMC3    C5 4852   1.012   3.325  13.641 -0.1236 -0.3332 -0.1221
  323TMC3    C6 4853   1.063   3.455  13.625  0.0570 -0.8320  0.4208
  323TMC3     C 4854   1.032   3.177  13.313 -0.2806  0.4560  0.2235
  323TMC3     O 4855   1.005   3.063  13.352 -0.3680  0.3563  0.7982
  323TMC3     H 4856   1.153   3.419  13.305  0.0491  1.7933  0.5343
  323TMC3    H1 4857   0.949   3.147  13.551 -0.5814  0.3337  1.8091
  323TMC3    H2 4858   1.075   3.522  13.709  0.5118  1.2121 -1.2744
  323TMC3    C7 4859   0.995   3.266  13.772  0.0123  0.3879 -0.1365
  323TMC3    C8 4860   1.155   3.624  13.464 -0.3166  0.6312 -0.9528
  323TMC3    O1 4861   0.966   3.146  13.776 -0.0465 -0.1488  0.0804
  323TMC3    O2 4862   1.150   3.664  13.350 -0.1960 -0.1896 -0.1683
  324MPD2     C 4863   3.171   0.151  14.775  0.3374  0.4453 -0.6405
  324MPD2    C1 4864   3.172   0.213  14.653 -0.1149 -0.0472  0.1164
  324MPD2    C2 4865   3.051   0.244  14.598 -0.0306 -0.3502 -0.1272
  324MPD2    C3 4866   2.930   0.222  14.656 -0.0525 -0.0703  0.1106
  324MPD2    C4 4867   2.928   0.154  14.774  0.5245  0.4225  0.1404
  324MPD2    C5 4868   3.048   0.124  14.836 -0.0327  0.8279 -0.1162
  324MPD2     H 4869   3.047   0.287  14.499 -0.4236  3.5929  1.6307
  324MPD2    H1 4870   2.834   0.136  14.825  0.2294 -2.5736 -1.4892
  324MPD2    H2 4871   3.260   0.128  14.831  0.2168 -0.1024 -0.6738
  324MPD2    H3 4872   3.044   0.098  14.941 -0.4728  0.9776 -0.0967
  324MPD2     N 4873   2.802   0.248  14.599 -0.3106 -0.2826  0.0002
  324MPD2    H5 4874   2.716   0.232  14.650  0.6793 -2.6700  0.9190
  324MPD2    N1 4875   3.292   0.247  14.580  0.5790  0.1062 -0.0234
  324MPD2    H7 4876   3.282   0.281  14.485 -1.1388 -1.5325 -0.4281
  325TMC3    C1 4877   2.636   0.344  14.459  0.7174  0.2460 -0.1912
  325TMC3    C2 4878   2.543   0.244  14.477  0.0675 -0.0359  0.2813
  325TMC3    C3 4879   2.418   0.269  14.437 -0.4411 -0.4367  0.1085
  325TMC3    C4 4880   2.607   0.449  14.385  0.0939  0.0279  0.2282
  325TMC3    C5 4881   2.475   0.475  14.353 -0.1546  0.4063  0.2600
  325TMC3    C6 4882   2.373   0.383  14.377  0.6097 -0.8230  0.5521
  325TMC3     C 4883   2.782   0.327  14.491 -1.0810 -0.4995 -0.2764
  325TMC3     O 4884   2.859   0.385  14.414 -0.1246 -0.3606 -0.3422
  325TMC3     H 4885   2.569   0.148  14.519  0.7241  0.5258  1.1634
  325TMC3    H1 4886   2.681   0.524  14.361 -0.4164  0.5675  0.3322
  325TMC3    H2 4887   2.270   0.401  14.349  1.0500  0.1857 -0.4061
  325TMC3    C7 4888   2.436   0.615  14.336  0.5378  0.5059 -0.3389
  325TMC3    C8 4889   2.341   0.151  14.430  0.0349  0.1626  0.2192
  325TMC3    O1 4890   2.512   0.704  14.374 -0.5065  0.3319 -0.0763
  325TMC3    O2 4891   2.399   0.041  14.430 -0.1332 -0.3284 -0.1994
  326MPD2     C 4892   3.638   0.841  10.665  0.2250  1.0820  0.3073
  326MPD2    C1 4893   3.702   0.882  10.548 -0.0876  0.0029 -0.1186
  326MPD2    C2 4894   3.835   0.918  10.554 -0.5258  0.3598  0.4410
  326MPD2    C3 4895   3.904   0.918  10.672 -0.2513 -0.1202  0.6516
  326MPD2    C4 4896   3.841   0.871  10.788 -0.2314 -0.1180  0.5587
  326MPD2    C5 4897   3.706   0.842  10.785  0.1991 -0.4235  0.1387
  326MPD2     H 4898   3.882   0.958  10.465 -3.1244  0.7912 -0.7458
  326MPD2    H1 4899   3.889   0.888  10.884 -0.5076  2.0356  0.3051
  326MPD2    H2 4900   3.531   0.824  10.666  0.6381 -1.5410 -1.3180
  326MPD2    H3 4901   3.650   0.811  10.872 -1.9817  2.7328 -0.1255
  326MPD2     N 4902   4.039   0.949  10.680  0.3596 -0.1088  0.1897
  326MPD2    H5 4903   4.077   0.957  10.774  0.3344 -1.1158  0.2770
  326MPD2    N1 4904   3.630   0.884  10.425  0.0719  0.3986  0.2879
  326MPD2    H7 4905   3.662   0.939  10.346 -0.2206  0.0075 -0.1014
  327TMC3    C1 4906   3.519   0.817  10.251 -0.3063  0.0361 -0.0964
  327TMC3    C2 4907   3.484   0.932  10.191  0.0694 -0.5395 -0.1517
  327TMC3    C3 4908   3.550   0.963  10.077 -0.1550  0.1601 -0.1883
  327TMC3    C4 4909   3.629   0.747  10.213 -0.1180 -0.3028  0.1396
  327TMC3    C5 4910   3.706   0.800  10.110 -0.5776  0.3022  0.4411
  327TMC3    C6 4911   3.665   0.903  10.033  0.2902  0.1511 -0.0523
  327TMC3     C 4912   3.518   0.819  10.398 -0.2846 -0.1173 -0.1960
  327TMC3     O 4913   3.479   0.722  10.463  0.2631 -0.6190  0.8347
  327TMC3     H 4914   3.404   0.989  10.236 -1.4339 -1.2613 -1.8796
  327TMC3    H1 4915   3.656   0.666  10.280 -1.3122 -1.1481 -0.4180
  327TMC3    H2 4916   3.733   0.952   9.964 -1.0990  0.9653 -0.8492
  327TMC3    C7 4917   3.849   0.763  10.109 -0.9733 -0.3795 -0.3544
  327TMC3    C8 4918   3.537   1.104  10.028 -0.1124 -1.0781 -1.2710
  327TMC3    O1 4919   3.917   0.810  10.019 -0.0077  0.2175  0.5830
  327TMC3    O2 4920   3.601   1.132   9.929  0.5278  0.1318  0.3150
  328MPD2     C 4921   2.044   0.430  17.351  0.4383  0.9006  0.0890
  328MPD2    C1 4922   1.931   0.399  17.283 -0.1369 -0.6334  0.3096
  328MPD2    C2 4923   1.848   0.502  17.237 -0.0146  0.2902  0.5988
  328MPD2    C3 4924   1.873   0.631  17.265  0.0591  0.2627  0.3586
  328MPD2    C4 4925   1.988   0.661  17.340 -0.4656  0.1212  0.0510
  328MPD2    C5 4926   2.076   0.562  17.372  0.3524 -0.5479 -0.4097
  328MPD2     H 4927   1.766   0.467  17.176 -1.0307 -0.3423  2.3106
  328MPD2    H1 4928   2.013   0.766  17.348  1.8357 -0.6095  2.5879
  328MPD2    H2 4929   2.117   0.359  17.387  0.8059  2.1476  1.8377
  328MPD2    H3 4930   2.165   0.600  17.421  0.4362 -0.7493 -0.4072
  328MPD2     N 4931   1.783   0.732  17.216  0.3960  0.2838  0.2614
  328MPD2    H5 4932   1.802   0.824  17.256  2.0351 -0.4285  1.1502
  328MPD2    N1 4933   1.889   0.257  17.271  0.2725  0.5125 -0.5509
  328MPD2    H7 4934   1.956   0.186  17.301  1.6147  1.0287 -2.2975
  329TMC3    C1 4935   1.748   0.072  17.235 -0.3774 -0.6728 -0.0647
  329TMC3    C2 4936   1.652   0.015  17.158 -0.0444 -0.5855 -0.4673
  329TMC3    C3 4937   1.609   4.608  17.183 -0.0975 -0.2790  0.0683
  329TMC3    C4 4938   1.803   0.005  17.342 -0.5185  0.0550 -0.4558
  329TMC3    C5 4939   1.766   4.596  17.359 -0.8338  0.0313  0.0206
  329TMC3    C6 4940   1.675   4.536  17.280  0.7871 -0.7519  0.0511
  329TMC3     C 4941   1.767   0.210  17.214 -0.1549 -0.0520 -0.1569
  329TMC3     O 4942   1.684   0.274  17.154 -0.3644  0.5780 -0.1194
  329TMC3     H 4943   1.589   0.084  17.103 -0.5175  1.6952  2.8895
  329TMC3    H1 4944   1.876   0.052  17.407 -0.1273 -1.3715  0.1361
  329TMC3    H2 4945   1.654   4.431  17.296  2.4445 -1.2174 -0.8775
  329TMC3    C7 4946   1.783   4.558  17.495 -0.3998 -0.8598  0.5178
  329TMC3    C8 4947   1.464   4.609  17.221  0.0514  0.5028  0.3017
  329TMC3    O1 4948   1.878   4.595  17.561  0.1855 -0.3287 -0.0524
  329TMC3    O2 4949   1.430   4.549  17.321  0.3027 -0.4207  0.2829
  330TMC3    C1 4950   4.449   4.260   9.997  0.0145  0.3228 -0.4792
  330TMC3    C2 4951   4.408   4.219   9.875  0.1902 -0.4220 -0.5667
  330TMC3    C3 4952   4.333   4.102   9.869  0.2794 -0.0532  0.7683
  330TMC3    C4 4953   4.422   4.191  10.114  0.5144 -0.2258  0.2850
  330TMC3    C5 4954   4.347   4.075  10.105  0.4754  0.2872 -0.6388
  330TMC3    C6 4955   4.304   4.031   9.984 -0.8518 -0.1719 -0.2314
  330TMC3     C 4956   4.526   4.379  10.014  0.0176 -0.0389 -0.3090
  330TMC3     O 4957   4.526   4.439  10.125  0.0117 -0.1313 -0.5578
  330TMC3     H 4958   4.424   4.282   9.788  0.7090 -0.2399 -0.3386
  330TMC3    H1 4959   4.460   4.219  10.211 -2.3582 -0.8109  1.5964
  330TMC3    H2 4960   4.256   3.934   9.978  0.6806 -1.1821  3.5471
  330TMC3    C7 4961   4.331   3.979  10.210  0.0478 -0.1233 -0.3370
  330TMC3    C8 4962   4.333   4.039   9.738  0.2072  0.2929 -0.1229
  330TMC3    O1 4963   4.224   3.918  10.221 -0.1669  0.4389 -0.1249
  330TMC3    O2 4964   4.388   4.097   9.641 -0.1470 -0.6551  0.7482
  331MPD2     C 4965   1.972   3.520  12.800 -0.3089  0.6108 -1.0805
  331MPD2    C1 4966   2.071   3.565  12.717  0.8242 -0.5631 -0.0841
  331MPD2    C2 4967   2.107   3.481  12.605 -0.5304  0.7614 -0.6682
  331MPD2    C3 4968   2.049   3.361  12.580  0.0637 -0.1673 -0.6699
  331MPD2    C4 4969   1.943   3.324  12.661 -0.3772 -0.2663 -0.4949
  331MPD2    C5 4970   1.907   3.403  12.764 -0.4048 -0.2676 -0.6586
  331MPD2     H 4971   2.183   3.516  12.536 -1.4001  2.1107 -0.9579
  331MPD2    H1 4972   1.890   3.231  12.646 -1.2789  0.2941 -0.7761
  331MPD2    H2 4973   1.929   3.577  12.881 -3.7330 -1.7623 -1.2211
  331MPD2    H3 4974   1.822   3.390  12.830 -0.6692  2.1094 -0.5173
  331MPD2     N 4975   2.104   3.282  12.477 -0.2761  0.1855  0.1673
  331MPD2    H5 4976   2.181   3.322  12.424 -0.9689 -1.0346 -1.7732
  331MPD2    N1 4977   2.137   3.688  12.746  0.0448  0.1739 -0.2218
  331MPD2    H7 4978   2.106   3.743  12.826 -0.0669  1.4674 -1.1663
  332TMC3    C1 4979   2.162   3.100  12.338 -0.0911  0.0539  0.0559
  332TMC3    C2 4980   2.189   3.183  12.241 -0.4928 -0.4063 -0.4406
  332TMC3    C3 4981   2.296   3.161  12.156  0.1112 -0.5056  0.4323
  332TMC3    C4 4982   2.239   2.989  12.370 -0.0249 -0.4523  0.7620
  332TMC3    C5 4983   2.353   2.975  12.293 -0.3672  0.5731  0.4266
  332TMC3    C6 4984   2.373   3.050  12.181 -0.2284  0.1201 -0.8279
  332TMC3     C 4985   2.073   3.152  12.439  0.1209 -0.0145  0.3869
  332TMC3     O 4986   1.995   3.074  12.484  0.5443  0.3697 -0.1889
  332TMC3     H 4987   2.129   3.272  12.222 -0.1157 -0.4301 -1.7365
  332TMC3    H1 4988   2.219   2.942  12.465  0.0746  1.2223  1.6098
  332TMC3    H2 4989   2.455   3.039  12.111 -1.7457  1.9713 -2.9092
  332TMC3    C7 4990   2.442   2.868  12.318  0.0039  0.2625 -0.2138
  332TMC3    C8 4991   2.359   3.268  12.077  0.6743  0.4122 -0.5722
  332TMC3    O1 4992   2.401   2.768  12.377 -1.0043 -0.1419 -0.5651
  332TMC3    O2 4993   2.476   3.254  12.052 -0.2627  0.1809 -0.0807
  333MPD2     C 4994   2.290   3.790  11.277  0.3947 -0.1180 -0.4040
  333MPD2    C1 4995   2.358   3.681  11.236  0.2024 -0.2097 -0.1104
  333MPD2    C2 4996   2.315   3.554  11.265 -0.4038 -0.0997  0.1678
  333MPD2    C3 4997   2.193   3.530  11.325 -1.1184 -0.1276 -1.5893
  333MPD2    C4 4998   2.125   3.641  11.378  0.2913  0.7452  0.5160
  333MPD2    C5 4999   2.186   3.765  11.366 -0.3710  0.2649 -0.8269
  333MPD2     H 5000   2.384   3.475  11.236  0.8985  0.7439  1.0278
  333MPD2    H1 5001   2.028   3.630  11.424 -0.6349  0.6813 -1.4831
  333MPD2    H2 5002   2.325   3.891  11.263  0.1920 -0.3113 -2.2189
  333MPD2    H3 5003   2.126   3.847  11.404 -0.0270  0.2626 -0.2828
  333MPD2     N 5004   2.152   3.393  11.344  0.0156 -0.0803 -0.0786
  333MPD2    H5 5005   2.208   3.324  11.295  1.8400  2.0962 -1.0546
  333MPD2    N1 5006   2.483   3.711  11.173 -0.0063 -0.7223  0.6658
  333MPD2    H7 5007   2.492   3.808  11.144  0.9254 -0.3301  2.3005
  334TMC3    C1 5008   2.696   3.669  11.079 -0.1466  0.2034 -0.1505
  334TMC3    C2 5009   2.791   3.579  11.038  0.4203  0.6201 -0.2133
  334TMC3    C3 5010   2.887   3.620  10.942 -0.4026  0.0611  0.6929
  334TMC3    C4 5011   2.699   3.797  11.022  0.7467 -0.6251  0.4398
  334TMC3    C5 5012   2.796   3.826  10.925 -0.4854  0.5164  0.2290
  334TMC3    C6 5013   2.893   3.742  10.890  0.4217  0.7657 -0.5693
  334TMC3     C 5014   2.591   3.625  11.169  0.2439  0.5096  0.3208
  334TMC3     O 5015   2.604   3.511  11.211  0.0363  0.4341 -0.1831
  334TMC3     H 5016   2.795   3.476  11.072  1.3515  1.2525  1.5804
  334TMC3    H1 5017   2.620   3.865  11.053  1.2552 -0.2798  0.9811
  334TMC3    H2 5018   2.957   3.780  10.811  2.5252 -0.9312  0.3474
  334TMC3    C7 5019   2.779   3.953  10.860  0.7838  0.0247  0.1555
  334TMC3    C8 5020   2.987   3.524  10.911  0.6924  0.4392 -0.4117
  334TMC3    O1 5021   2.760   4.053  10.931  0.7349 -0.1590 -0.0304
  334TMC3    O2 5022   2.987   3.423  10.976 -0.4327  0.9694 -0.3457
  335TMC3    C1 5023   2.523   0.384  17.431 -0.5151  0.1813 -0.0606
  335TMC3    C2 5024   2.419   0.333  17.358 -0.6327 -0.5751  0.2538
  335TMC3    C3 5025   2.375   0.206  17.385 -0.7347 -0.1905 -0.7978
  335TMC3    C4 5026   2.598   0.308  17.510  0.6906 -0.3912  0.4294
  335TMC3    C5 5027   2.555   0.177  17.531 -0.6742  0.5403  0.2738
  335TMC3    C6 5028   2.443   0.128  17.469  0.1128  0.1535  0.6847
  335TMC3     C 5029   2.493   0.509  17.495 -0.4604 -0.3106  0.5779
  335TMC3     O 5030   2.534   0.536  17.608  0.9039 -0.1710 -0.7328
  335TMC3     H 5031   2.363   0.387  17.283 -1.6981 -1.8726  0.1089
  335TMC3    H1 5032   2.671   0.350  17.578 -0.0485 -1.1338  1.6804
  335TMC3    H2 5033   2.429   0.021  17.479  1.3806 -0.0421  0.2738
  335TMC3    C7 5034   2.631   0.089  17.608  0.8995  0.1359 -0.0708
  335TMC3    C8 5035   2.295   0.147  17.285 -0.1406 -0.1611 -0.0985
  335TMC3    O1 5036   2.567   0.010   0.001  0.3269  0.2038 -0.4336
  335TMC3    O2 5037   2.291   0.207  17.177  0.3541 -0.0060  0.2583
  336MPD2     C 5038   1.541   2.969  16.308  0.3658  0.4749  0.7087
  336MPD2    C1 5039   1.579   2.952  16.172 -0.7424 -0.7651  0.5576
  336MPD2    C2 5040   1.662   2.841  16.134 -0.3475 -0.2976 -0.2895
  336MPD2    C3 5041   1.698   2.745  16.224 -1.0471  0.4627  0.0607
  336MPD2    C4 5042   1.661   2.770  16.356 -0.3686  0.0005  0.0291
  336MPD2    C5 5043   1.588   2.876  16.395 -0.2880  0.0869  0.1924
  336MPD2     H 5044   1.691   2.838  16.030 -1.2061 -0.1064 -0.5382
  336MPD2    H1 5045   1.683   2.696  16.432 -1.9710  1.5169  1.9724
  336MPD2    H2 5046   1.484   3.049  16.353 -0.4742 -0.3381  1.1110
  336MPD2    H3 5047   1.556   2.886  16.498 -2.1442 -1.6269 -0.2158
  336MPD2     N 5048   1.777   2.636  16.195  0.5487  0.7690 -0.6985
  336MPD2    H5 5049   1.813   2.587  16.276 -0.2281  3.6621  1.3907
  336MPD2    N1 5050   1.555   3.046  16.068 -0.1216 -0.3059  0.2540
  336MPD2    H7 5051   1.599   3.026  15.979 -1.7213 -2.0392 -0.1562
  337TMC3    C1 5052   1.471   3.249  15.979  0.6003  0.8867 -0.2104
  337TMC3    C2 5053   1.365   3.332  15.957 -0.2213  0.0270 -0.1080
  337TMC3    C3 5054   1.393   3.444  15.885  0.3202  0.0258  0.0134
  337TMC3    C4 5055   1.597   3.272  15.919 -0.7070 -0.0994 -0.6445
  337TMC3    C5 5056   1.619   3.380  15.843 -0.3430 -0.1946  0.1742
  337TMC3    C6 5057   1.515   3.462  15.829  0.1608  0.3171 -0.1316
  337TMC3     C 5058   1.465   3.151  16.083 -0.7197  0.3035  0.1788
  337TMC3     O 5059   1.387   3.182  16.171 -0.3267  0.2126 -0.2056
  337TMC3     H 5060   1.270   3.319  16.008 -0.9038  0.2854 -1.3281
  337TMC3    H1 5061   1.681   3.203  15.926  1.6017  2.7158 -0.5876
  337TMC3    H2 5062   1.532   3.549  15.767  1.6878 -1.1980 -1.8875
  337TMC3    C7 5063   1.752   3.425  15.804 -0.1685  0.0011  0.3682
  337TMC3    C8 5064   1.280   3.520  15.842 -0.3863 -0.1209 -0.4648
  337TMC3    O1 5065   1.844   3.343  15.811  0.2341 -0.6038  0.3506
  337TMC3    O2 5066   1.191   3.522  15.924 -0.2367  0.2725 -0.5668
  338MPD2     C 5067   1.627   1.327   0.087 -0.1806  0.2625 -0.0929
  338MPD2    C1 5068   1.686   1.438   0.052  0.4835  0.7830 -0.3776
  338MPD2    C2 5069   1.687   1.549   0.131  0.4897  0.2660  0.2442
  338MPD2    C3 5070   1.631   1.550   0.256  0.5056 -0.2573  0.4094
  338MPD2    C4 5071   1.562   1.436   0.295  0.6167 -0.3922  0.3947
  338MPD2    C5 5072   1.555   1.335   0.204 -0.3739 -0.6569 -0.5470
  338MPD2     H 5073   1.738   1.641   0.103 -1.6874  0.5267 -2.8264
  338MPD2    H1 5074   1.507   1.425   0.388 -1.2701 -1.6406 -0.8478
  338MPD2    H2 5075   1.612   1.244   0.018 -0.6447  0.8476 -0.6866
  338MPD2    H3 5076   1.498   1.246   0.228 -0.2045 -0.7982 -0.6632
  338MPD2     N 5077   1.660   1.668   0.336  0.6212 -0.2857 -0.0631
  338MPD2    H5 5078   1.720   1.740   0.297 -0.1787  0.3748 -0.0992
  338MPD2    N1 5079   1.765   1.450  17.624 -0.7823 -0.5276 -0.3043
  338MPD2    H7 5080   1.802   1.544  17.616 -0.8861 -0.5555 -1.1060
  339TMC3    C1 5081   1.637   1.817   0.518 -0.1031 -0.2803 -0.0382
  339TMC3    C2 5082   1.645   1.833   0.649 -0.2672 -0.0732 -0.0163
  339TMC3    C3 5083   1.664   1.959   0.695  0.4017  0.2647 -0.5808
  339TMC3    C4 5084   1.655   1.916   0.422  0.6305 -0.7485  0.7193
  339TMC3    C5 5085   1.678   2.040   0.476 -0.3290  0.6357 -0.0153
  339TMC3    C6 5086   1.683   2.066   0.609 -0.2186  0.0225  0.4229
  339TMC3     C 5087   1.618   1.684   0.467  0.0799 -0.2252 -0.1468
  339TMC3     O 5088   1.553   1.611   0.543  0.1322  0.0921 -0.0690
  339TMC3     H 5089   1.646   1.742   0.708 -0.5717  0.1849  0.3938
  339TMC3    H1 5090   1.651   1.903   0.314  2.7113 -0.9735  0.6637
  339TMC3    H2 5091   1.705   2.164   0.652 -1.4586  0.2050  0.6530
  339TMC3    C7 5092   1.690   2.153   0.385  0.5756  0.3600 -0.3949
  339TMC3    C8 5093   1.702   1.981   0.833  0.3727 -0.6892  0.0078
  339TMC3    O1 5094   1.764   2.246   0.420  0.3086 -0.4750  0.4360
  339TMC3    O2 5095   1.755   2.083   0.870 -0.0812 -0.0197 -0.5381
  340MPD2     C 5096   2.454   0.016   9.405 -0.2157  0.8790  0.6525
  340MPD2    C1 5097   2.586   4.689   9.402  0.3366  0.9604 -0.8334
  340MPD2    C2 5098   2.686   0.058   9.443  0.3415  0.4581 -0.5144
  340MPD2    C3 5099   2.661   0.182   9.488  0.3344  1.3350 -0.0556
  340MPD2    C4 5100   2.530   0.226   9.480  0.3487 -0.6630  0.4712
  340MPD2    C5 5101   2.432   0.146   9.439 -0.0915  0.3180 -0.2044
  340MPD2     H 5102   2.786   0.020   9.459 -0.0475 -0.5206 -0.4597
  340MPD2    H1 5103   2.513   0.328   9.514  0.4336 -0.5771  0.2595
  340MPD2    H2 5104   2.374   4.664   9.392 -0.7071  1.7818 -1.3819
  340MPD2    H3 5105   2.329   0.178   9.455 -0.0869  0.4415 -0.4106
  340MPD2     N 5106   2.754   0.275   9.547 -0.1222  0.1398 -0.1915
  340MPD2    H5 5107   2.710   0.353   9.594 -2.8506  0.7501 -3.7056
  340MPD2    N1 5108   2.612   4.552   9.365  0.7258 -0.4640 -0.6097
  340MPD2    H7 5109   2.535   4.495   9.332  0.9703 -1.2989  0.2566
  341TMC3    C1 5110   2.728   4.348   9.339 -0.3944 -0.5040  0.5656
  341TMC3    C2 5111   2.610   4.282   9.359  0.1326 -0.3151  0.2457
  341TMC3    C3 5112   2.604   4.147   9.379  0.0907  1.3454  0.1114
  341TMC3    C4 5113   2.844   4.279   9.336 -0.0717 -0.1793  0.0109
  341TMC3    C5 5114   2.839   4.138   9.353 -0.3454  0.1377  0.4161
  341TMC3    C6 5115   2.724   4.077   9.377  0.1746  0.1170  0.5119
  341TMC3     C 5116   2.736   4.492   9.359  0.6695  0.2022 -0.4180
  341TMC3     O 5117   2.845   4.549   9.363  0.4349  0.4393 -0.2860
  341TMC3     H 5118   2.527   4.336   9.403  1.4068  1.7811  0.0373
  341TMC3    H1 5119   2.937   4.335   9.336 -0.2113  0.0522 -0.2698
  341TMC3    H2 5120   2.717   3.969   9.387 -1.9712  0.1341 -0.7733
  341TMC3    C7 5121   2.957   4.059   9.340 -0.0785  0.2160 -0.0268
  341TMC3    C8 5122   2.482   4.081   9.400  1.1031 -0.0481  0.4076
  341TMC3    O1 5123   2.950   3.941   9.318 -0.5552 -0.2163 -0.4057
  341TMC3    O2 5124   2.492   3.967   9.445 -0.1681 -0.3944  0.0482
  342MPD2     C 5125   0.281   3.195  17.488 -0.6007  0.1259  0.5773
  342MPD2    C1 5126   0.409   3.231  17.460  0.0623 -0.1501 -0.5230
  342MPD2    C2 5127   0.459   3.349  17.505 -0.2732  1.1473 -0.0500
  342MPD2    C3 5128   0.375   3.432  17.586  0.6347  0.8383  0.1568
  342MPD2    C4 5129   0.246   3.392  17.619 -0.5964  0.7050 -0.3156
  342MPD2    C5 5130   0.203   3.275  17.570 -0.1631 -0.1146 -0.1352
  342MPD2     H 5131   0.557   3.383  17.474 -0.1516  0.6312 -0.2379
  342MPD2    H1 5132   0.177   3.447   0.001 -0.6387 -1.5259  1.5981
  342MPD2    H2 5133   0.234   3.100  17.466  0.1118  0.2728 -1.5667
  342MPD2    H3 5134   0.104   3.237  17.593 -0.3988  1.8335  2.1974
  342MPD2     N 5135   0.419   3.551  17.646  0.8272  0.1988  0.6560
  342MPD2    H5 5136   0.362   3.583   0.043 -1.4106  0.5661 -1.1570
  342MPD2    N1 5137   0.501   3.156  17.383  0.0985  0.2797 -0.5376
  342MPD2    H7 5138   0.582   3.202  17.343  0.0845  0.4407 -0.3811
  343TMC3    C1 5139   0.599   2.967  17.284 -0.5297  0.5516 -0.2242
  343TMC3    C2 5140   0.724   3.015  17.308 -0.3553 -0.0302 -0.0213
  343TMC3    C3 5141   0.833   2.962  17.231  0.5880 -0.4884 -0.5117
  343TMC3    C4 5142   0.575   2.878  17.185  0.4510 -0.1337 -0.4899
  343TMC3    C5 5143   0.682   2.823  17.117  0.0247 -0.2075  0.0975
  343TMC3    C6 5144   0.807   2.862  17.137  0.3336 -0.2250 -0.5793
  343TMC3     C 5145   0.484   3.024  17.343  0.3411 -0.4076  0.1043
  343TMC3     O 5146   0.385   2.951  17.361  0.2543 -0.5386 -0.4518
  343TMC3     H 5147   0.746   3.068  17.400 -0.1992 -1.6514  0.8794
  343TMC3    H1 5148   0.473   2.846  17.167  0.5105  0.0435 -1.1369
  343TMC3    H2 5149   0.885   2.824  17.072 -0.3303  0.2128 -1.6333
  343TMC3    C7 5150   0.666   2.681  17.086 -0.1073 -0.0973  0.2000
  343TMC3    C8 5151   0.970   2.979  17.278 -0.0679 -0.3194 -0.2210
  343TMC3    O1 5152   0.772   2.624  17.072 -0.6175 -0.6066 -0.0849
  343TMC3    O2 5153   0.988   3.078  17.350 -0.1214 -0.3102  0.0569
  344MPD2     C 5154   1.518   3.274  11.227 -0.7426  0.8782  0.5234
  344MPD2    C1 5155   1.455   3.229  11.112  0.0750  0.2187 -0.2061
  344MPD2    C2 5156   1.497   3.281  10.993  0.3657  0.4245 -0.2289
  344MPD2    C3 5157   1.612   3.368  10.991 -0.2056  0.1790 -0.6193
  344MPD2    C4 5158   1.675   3.391  11.107  0.3228 -0.2911  0.0031
  344MPD2    C5 5159   1.629   3.345  11.226  0.1410  0.1156 -0.3032
  344MPD2     H 5160   1.439   3.260  10.904 -0.4379  2.5657 -0.2101
  344MPD2    H1 5161   1.760   3.458  11.108  0.7463 -0.8098 -1.8480
  344MPD2    H2 5162   1.492   3.239  11.327 -0.4753  0.7031  0.5340
  344MPD2    H3 5163   1.691   3.365  11.313 -1.1665  0.1199  0.6374
  344MPD2     N 5164   1.658   3.436  10.875  0.2123  0.9826  0.2783
  344MPD2    H5 5165   1.746   3.485  10.883 -0.2017  1.5329  1.4177
  344MPD2    N1 5166   1.343   3.141  11.127 -0.3739 -0.5307  0.0001
  344MPD2    H7 5167   1.290   3.117  11.043 -2.0896  1.1286  0.6008
  345TMC3    C1 5168   1.659   3.548  10.664  0.6126  0.3518  0.4069
  345TMC3    C2 5169   1.711   3.658  10.732  1.1317  0.5343 -0.3579
  345TMC3    C3 5170   1.766   3.753  10.659 -0.2780 -0.2619 -0.3204
  345TMC3    C4 5171   1.692   3.522  10.533 -0.0026  0.5821  0.2579
  345TMC3    C5 5172   1.767   3.616  10.470 -0.2850 -0.8583  0.1260
  345TMC3    C6 5173   1.808   3.729  10.530 -0.7804 -0.7206  0.3630
  345TMC3     C 5174   1.595   3.450  10.755 -0.0022  0.1561 -0.0521
  345TMC3     O 5175   1.512   3.380  10.696  0.3917 -0.3958  0.3360
  345TMC3     H 5176   1.677   3.683  10.832 -0.3034  0.5067 -0.8391
  345TMC3    H1 5177   1.647   3.435  10.484 -0.5757  1.0679 -0.0830
  345TMC3    H2 5178   1.876   3.795  10.477 -0.4250 -0.8434  0.6646
  345TMC3    C7 5179   1.755   3.632  10.330  0.5743  0.3183  0.1356
  345TMC3    C8 5180   1.755   3.892  10.695 -0.4582  0.0723 -0.3393
  345TMC3    O1 5181   1.842   3.702  10.277 -0.3988 -0.1342 -0.1382
  345TMC3    O2 5182   1.778   3.965  10.596 -0.2398 -0.2186  0.0780
  346MPD2     C 5183   1.399   4.714  14.279  0.1977 -0.5989 -0.3621
  346MPD2    C1 5184   1.386   0.097  14.196 -0.1594 -0.3353 -0.4906
  346MPD2    C2 5185   1.420   0.223  14.249  0.1277  0.4690 -0.2839
  346MPD2    C3 5186   1.483   0.242  14.375  0.6423  0.4465  0.3032
  346MPD2    C4 5187   1.506   0.130  14.450 -0.3410 -0.0882 -0.8976
  346MPD2    C5 5188   1.452   0.010  14.405 -0.2504  0.3030 -0.0203
  346MPD2     H 5189   1.406   0.306  14.180 -1.5031 -0.6641 -1.3157
  346MPD2    H1 5190   1.558   0.132  14.545  0.3952  1.8801 -1.3485
  346MPD2    H2 5191   1.379   4.615  14.239 -0.7012 -0.5301 -0.0804
  346MPD2    H3 5192   1.459   4.639  14.464 -0.1166  0.8944  0.8787
  346MPD2     N 5193   1.513   0.376  14.408 -0.5643 -0.3536 -0.3255
  346MPD2    H5 5194   1.488   0.447  14.339  0.5481 -1.4214 -1.8334
  346MPD2    N1 5195   1.326   0.090  14.067 -0.0811  0.8593  0.8114
  346MPD2    H7 5196   1.330   0.176  14.013 -0.8854 -0.2269 -0.9580
  347TMC3    C1 5197   1.608   0.543  14.533 -0.5658 -0.3042  0.0536
  347TMC3    C2 5198   1.627   0.613  14.416  0.5170 -0.0331 -0.2738
  347TMC3    C3 5199   1.702   0.727  14.430  0.8786 -0.2352 -0.1986
  347TMC3    C4 5200   1.651   0.586  14.656 -0.6047  0.5754 -0.2854
  347TMC3    C5 5201   1.711   0.706  14.666 -0.1299 -0.3609  0.6954
  347TMC3    C6 5202   1.739   0.779  14.553 -0.4544  0.5464 -0.6240
  347TMC3     C 5203   1.562   0.407  14.529 -0.1409  0.1286  0.6724
  347TMC3     O 5204   1.575   0.336  14.630  0.2274 -0.3039 -0.2219
  347TMC3     H 5205   1.595   0.579  14.318 -1.1394 -1.4608  0.7730
  347TMC3    H1 5206   1.620   0.538  14.748 -0.3566 -1.3317 -1.2005
  347TMC3    H2 5207   1.814   0.856  14.549  0.2338 -0.1135 -0.4998
  347TMC3    C7 5208   1.799   0.727  14.780  0.7995 -0.4948 -0.0951
  347TMC3    C8 5209   1.807   0.713  14.331 -0.1084 -0.1765  0.3270
  347TMC3    O1 5210   1.861   0.834  14.761  0.4996 -0.1603  0.3370
  347TMC3    O2 5211   1.835   0.601  14.291  0.0144  0.2936 -0.0096
  348MPD2     C 5212   4.039   4.598  12.017  0.4202 -0.2740  0.5411
  348MPD2    C1 5213   4.160   4.597  11.948  0.3650 -0.0334  0.2503
  348MPD2    C2 5214   4.174   4.687  11.840  0.1940  0.3008 -0.4484
  348MPD2    C3 5215   4.069   0.047  11.793 -0.1223  0.6501  0.2021
  348MPD2    C4 5216   3.949   0.031  11.855 -0.2533  0.3971  0.0248
  348MPD2    C5 5217   3.940   4.671  11.968  0.5709 -0.2374  0.1216
  348MPD2     H 5218   4.271   4.690  11.792  0.2201 -0.0474 -0.4202
  348MPD2    H1 5219   3.866   0.095  11.829  0.7660  1.4681 -0.6045
  348MPD2    H2 5220   4.032   4.536  12.106 -0.1809 -2.1250 -0.7870
  348MPD2    H3 5221   3.839   4.668  12.006 -0.3564  3.3580 -1.9796
  348MPD2     N 5222   4.082   0.135  11.681  0.0488 -0.2100 -0.1430
  348MPD2    H5 5223   3.998   0.159  11.630 -1.0646 -0.4318  1.6205
  348MPD2    N1 5224   4.275   4.519  11.980  0.0627  0.2339 -0.5193
  348MPD2    H7 5225   4.355   4.530  11.918 -0.9372  0.3652 -1.7823
  349TMC3    C1 5226   4.400   4.335  12.062 -0.3129 -0.4824 -0.4513
  349TMC3    C2 5227   4.465   4.270  12.171  0.7770  0.3771 -0.2863
  349TMC3    C3 5228   4.581   4.206  12.142  0.3302 -0.2802 -0.5467
  349TMC3    C4 5229   4.449   4.322  11.933 -0.3040 -0.4987  0.3632
  349TMC3    C5 5230   4.560   4.252  11.910  0.3708 -0.3674  0.6452
  349TMC3    C6 5231   4.630   4.198  12.012  0.3471 -0.1623  0.0592
  349TMC3     C 5232   4.282   4.422  12.083 -0.3772 -1.0641  0.0373
  349TMC3     O 5233   4.235   4.425  12.193  0.2498  0.2015 -0.1237
  349TMC3     H 5234   4.423   4.280  12.270 -0.0022 -1.8903 -0.3896
  349TMC3    H1 5235   4.396   4.363  11.848  2.3118 -0.3526 -1.1760
  349TMC3    H2 5236   4.715   4.133  11.995 -0.6946 -1.0183 -1.9131
  349TMC3    C7 5237   4.622   4.275  11.790  0.3185  0.1872  0.2180
  349TMC3    C8 5238   4.636   4.129  12.249  0.6254 -0.2055 -0.1518
  349TMC3    O1 5239   4.557   4.290  11.688  0.0595  0.0736 -0.0733
  349TMC3    O2 5240   4.571   4.115  12.354 -0.0868  0.1083 -0.3404
  350MPD2     C 5241   3.644   2.015   9.216 -0.6995  0.8470 -0.0192
  350MPD2    C1 5242   3.592   1.954   9.329  0.2268 -0.2017  0.0468
  350MPD2    C2 5243   3.601   2.017   9.451  0.4105  0.8615  0.0193
  350MPD2    C3 5244   3.687   2.123   9.462  0.5534 -0.3010 -0.1561
  350MPD2    C4 5245   3.753   2.170   9.351  0.1356  0.2805  0.4309
  350MPD2    C5 5246   3.723   2.117   9.229 -0.3520 -0.2513 -0.2628
  350MPD2     H 5247   3.551   1.980   9.539 -0.7567  1.2708 -0.4752
  350MPD2    H1 5248   3.816   2.258   9.355 -0.6448  0.8524  0.0882
  350MPD2    H2 5249   3.611   1.978   9.120  0.3095 -1.4890  0.5328
  350MPD2    H3 5250   3.765   2.172   9.146  0.0051  2.9167  2.0217
  350MPD2     N 5251   3.709   2.167   9.596 -0.1192 -0.5821 -0.0100
  350MPD2    H5 5252   3.639   2.146   9.667 -0.4248  2.0053  0.4406
  350MPD2    N1 5253   3.526   1.827   9.315  0.3026 -0.2293 -0.1697
  350MPD2    H7 5254   3.466   1.808   9.394  1.3002 -2.3653  0.0594
  351TMC3    C1 5255   3.486   1.613   9.236 -0.0550 -0.5495  0.1746
  351TMC3    C2 5256   3.562   1.509   9.184  0.2407 -0.7828  0.7217
  351TMC3    C3 5257   3.565   1.395   9.249 -0.0446 -0.3867 -0.2435
  351TMC3    C4 5258   3.404   1.598   9.346  0.7661 -0.1795 -0.3176
  351TMC3    C5 5259   3.398   1.470   9.402  0.7847 -0.0007 -0.4724
  351TMC3    C6 5260   3.482   1.368   9.357 -0.1897  1.0341 -0.3264
  351TMC3     C 5261   3.540   1.741   9.209  0.4768  0.0261 -0.8764
  351TMC3     O 5262   3.607   1.753   9.110 -0.4931 -0.2947  0.5248
  351TMC3     H 5263   3.646   1.538   9.121 -0.2556  2.2870  1.4403
  351TMC3    H1 5264   3.331   1.673   9.373  1.5230  0.2546  0.5190
  351TMC3    H2 5265   3.474   1.271   9.404  3.0393 -0.1443 -2.1219
  351TMC3    C7 5266   3.272   1.435   9.469  0.3547 -0.0027  0.5762
  351TMC3    C8 5267   3.706   1.353   9.284 -0.2777 -0.2677 -0.0685
  351TMC3    O1 5268   3.180   1.510   9.441 -0.3630 -0.4285 -0.3541
  351TMC3    O2 5269   3.788   1.443   9.294 -0.4685 -0.1512  0.0144
  352MPD2     C 5270   2.085   3.659   1.654 -0.6458  0.3836  0.4555
  352MPD2    C1 5271   2.065   3.657   1.521  0.0412 -0.1733 -0.1654
  352MPD2    C2 5272   2.133   3.562   1.447 -0.0959 -0.2782  0.1714
  352MPD2    C3 5273   2.228   3.474   1.502 -0.8725  0.0979 -0.1748
  352MPD2    C4 5274   2.250   3.484   1.634  0.1739  0.0063 -0.3329
  352MPD2    C5 5275   2.177   3.575   1.710  0.1338  0.5519 -0.1348
  352MPD2     H 5276   2.115   3.553   1.340  0.6210 -1.9748  0.1937
  352MPD2    H1 5277   2.315   3.421   1.694 -0.8991 -2.4739 -1.7653
  352MPD2    H2 5278   2.034   3.733   1.714  0.0343  1.0206  0.2505
  352MPD2    H3 5279   2.182   3.577   1.818  1.9295 -1.7857 -0.1760
  352MPD2     N 5280   2.286   3.375   1.417  0.0567 -0.0849  0.2286
  352MPD2    H5 5281   2.255   3.374   1.320 -2.4334 -0.1497  1.0352
  352MPD2    N1 5282   1.995   3.766   1.464  0.5600  0.0311  1.0158
  352MPD2    H7 5283   1.945   3.818   1.535 -0.9040  0.9552 -0.6853
  353TMC3    C1 5284   2.409   3.192   1.350 -0.8801  0.3035 -0.4891
  353TMC3    C2 5285   2.535   3.178   1.314  0.2006 -0.3791  0.0850
  353TMC3    C3 5286   2.569   3.069   1.237 -0.6407 -1.1358 -0.1541
  353TMC3    C4 5287   2.306   3.108   1.290  0.7173  0.5053 -0.1295
  353TMC3    C5 5288   2.350   3.007   1.212  0.0047 -0.0688 -0.3286
  353TMC3    C6 5289   2.478   2.982   1.182 -0.2600 -0.1454 -0.7586
  353TMC3     C 5290   2.383   3.287   1.458  0.0845  0.4264 -1.2250
  353TMC3     O 5291   2.451   3.288   1.562 -0.5655  0.3250 -0.2861
  353TMC3     H 5292   2.612   3.232   1.368 -0.3308  0.6873 -0.2087
  353TMC3    H1 5293   2.204   3.141   1.300  0.9096  1.3089 -0.7766
  353TMC3    H2 5294   2.498   2.902   1.112  2.8347  1.1821 -1.3923
  353TMC3    C7 5295   2.251   2.929   1.144 -0.0113  0.4466 -0.0254
  353TMC3    C8 5296   2.710   3.037   1.234  0.0454  0.0932 -0.4388
  353TMC3    O1 5297   2.284   2.864   1.044 -0.2031  0.2101 -0.2821
  353TMC3    O2 5298   2.793   3.125   1.245 -0.4757 -0.0333  0.1928
  354TMC3    C1 5299   3.923   1.283  13.114 -0.0328  0.5325  0.4048
  354TMC3    C2 5300   3.901   1.407  13.062 -0.3801 -0.3053 -0.6759
  354TMC3    C3 5301   4.001   1.446  12.975 -0.2804  0.0951 -0.3631
  354TMC3    C4 5302   4.023   1.195  13.075 -0.5473  0.1136  0.1371
  354TMC3    C5 5303   4.109   1.233  12.980 -0.0066  0.3861  0.4823
  354TMC3    C6 5304   4.104   1.363  12.929 -0.4962  0.4600 -0.2827
  354TMC3     C 5305   3.852   1.261  13.237 -0.6062 -0.0986  0.3034
  354TMC3     O 5306   3.860   1.145  13.275 -0.3034 -0.4210  0.0208
  354TMC3     H 5307   3.819   1.470  13.094  0.6016  1.9437 -2.5252
  354TMC3    H1 5308   4.034   1.101  13.128  2.6411 -1.1243 -2.7474
  354TMC3    H2 5309   4.159   1.397  12.842  1.8736  0.7900  1.3471
  354TMC3    C7 5310   4.177   1.125  12.925 -1.2170  0.8977  0.5595
  354TMC3    C8 5311   4.000   1.572  12.916  0.0218  0.2290 -0.4970
  354TMC3    O1 5312   4.171   1.016  12.983 -0.0450  0.8151  0.4606
  354TMC3    O2 5313   4.044   1.588  12.805 -0.2033  0.0285 -0.5689
  355MPD2     C 5314   3.682   1.961  11.427 -0.0090 -0.5759 -0.0756
  355MPD2    C1 5315   3.769   1.937  11.318  0.0194 -0.7342  0.0740
  355MPD2    C2 5316   3.902   1.949  11.347 -0.1603 -0.3747 -0.5125
  355MPD2    C3 5317   3.956   1.995  11.464 -0.1860 -0.0402 -0.0257
  355MPD2    C4 5318   3.866   2.012  11.563  0.4088 -0.0318 -0.0705
  355MPD2    C5 5319   3.731   1.992  11.547  0.6968  0.4864 -0.4607
  355MPD2     H 5320   3.977   1.932  11.271  0.7633  0.7218  0.1496
  355MPD2    H1 5321   3.894   2.033  11.665  0.7596  0.0643 -0.1851
  355MPD2    H2 5322   3.574   1.970  11.418  0.0797 -1.6112 -2.1858
  355MPD2    H3 5323   3.665   2.015  11.629 -0.3132 -0.8647 -0.9034
  355MPD2     N 5324   4.100   2.005  11.496  0.4110 -0.0353 -0.4090
  355MPD2    H5 5325   4.122   2.024  11.593 -2.5874  2.8932 -0.3178
  355MPD2    N1 5326   3.707   1.915  11.195 -0.0002 -0.4677 -0.0774
  355MPD2    H7 5327   3.608   1.903  11.213  0.1491 -3.1151 -1.0508
  356TMC3    C1 5328   4.337   2.010  11.472  0.3395  0.3032 -0.8894
  356TMC3    C2 5329   4.422   2.092  11.423  0.0948  0.6140  0.8568
  356TMC3    C3 5330   4.534   2.129  11.499 -0.1428 -0.0279 -0.3971
  356TMC3    C4 5331   4.346   1.964  11.602  0.2791  0.2080  0.2558
  356TMC3    C5 5332   4.464   1.990  11.670  0.1115 -0.2589  0.9335
  356TMC3    C6 5333   4.555   2.084  11.627  0.1765  0.0121 -0.3482
  356TMC3     C 5334   4.205   1.989  11.411  0.2398 -0.1183  0.3768
  356TMC3     O 5335   4.207   1.982  11.286 -0.6201 -0.2449 -0.0587
  356TMC3     H 5336   4.402   2.138  11.327  0.5918 -3.5185 -1.2088
  356TMC3    H1 5337   4.278   1.889  11.641 -0.1377  1.0302  1.1257
  356TMC3    H2 5338   4.648   2.109  11.677  1.3013 -2.4386 -1.2456
  356TMC3    C7 5339   4.449   1.966  11.812 -0.3338  0.2318 -1.1281
  356TMC3    C8 5340   4.640   2.190  11.428  0.0313  0.3869  0.0837
  356TMC3    O1 5341   4.378   1.871  11.842  0.6663  0.1494 -0.0589
  356TMC3    O2 5342   4.650   2.169  11.308  0.0427 -0.2902 -0.2827
  357MPD2     C 5343   3.742   1.042   0.431 -0.2092 -0.7905  0.6713
  357MPD2    C1 5344   3.705   0.944   0.518 -0.7330 -0.3027 -0.4078
  357MPD2    C2 5345   3.581   0.953   0.567 -0.4229  0.5302  0.9994
  357MPD2    C3 5346   3.496   1.058   0.537 -0.2143  0.2782  0.9555
  357MPD2    C4 5347   3.528   1.155   0.448 -0.5847 -0.2501  0.1997
  357MPD2    C5 5348   3.656   1.149   0.395 -0.3026  0.2860 -1.3561
  357MPD2     H 5349   3.538   0.871   0.624 -1.9753  1.7417  1.5982
  357MPD2    H1 5350   3.468   1.241   0.419 -0.9614 -1.3024 -2.1312
  357MPD2    H2 5351   3.834   1.044   0.374 -0.4582  2.4371  0.3944
  357MPD2    H3 5352   3.685   1.229   0.328  1.1514 -0.9005 -2.1429
  357MPD2     N 5353   3.362   1.065   0.590  0.1883  0.3021  0.2057
  357MPD2    H5 5354   3.294   1.123   0.542  0.4728 -1.1010 -1.9118
  357MPD2    N1 5355   3.791   0.843   0.547 -0.0426  0.3607 -0.4479
  357MPD2    H7 5356   3.885   0.836   0.509 -0.8144 -1.7758 -1.9890
  358TMC3    C1 5357   3.848   0.632   0.634 -0.8169 -0.0285 -0.2265
  358TMC3    C2 5358   3.892   0.582   0.516 -0.2925  0.3503  0.0862
  358TMC3    C3 5359   3.941   0.454   0.502 -0.4150 -0.0901  0.5277
  358TMC3    C4 5360   3.856   0.548   0.745 -0.4699 -0.8747 -0.0875
  358TMC3    C5 5361   3.905   0.424   0.731  0.3848  0.2201  0.4114
  358TMC3    C6 5362   3.958   0.376   0.615 -0.1209 -0.6119 -0.7527
  358TMC3     C 5363   3.762   0.744   0.636 -0.1115  0.0425 -0.0795
  358TMC3     O 5364   3.689   0.738   0.738 -1.0512  0.2228  0.6871
  358TMC3     H 5365   3.869   0.633   0.423  2.1277  1.6446  0.1687
  358TMC3    H1 5366   3.835   0.591   0.842 -1.0697  0.3974 -0.7717
  358TMC3    H2 5367   3.982   0.270   0.615 -2.5149 -1.1422  0.9793
  358TMC3    C7 5368   3.927   0.345   0.853  0.6325 -0.1955 -0.0536
  358TMC3    C8 5369   3.931   0.385   0.369 -0.4953  0.0724  0.2867
  358TMC3    O1 5370   4.033   0.282   0.850 -0.2933 -0.3489 -0.0050
  358TMC3    O2 5371   3.940   0.464   0.276  0.0180  0.2156  0.4011
  359MPD2     C 5372   4.048   1.228  12.057  0.5000 -0.5578  0.7005
  359MPD2    C1 5373   4.063   1.091  12.069 -0.2951 -0.5698  0.7027
  359MPD2    C2 5374   3.998   1.013  12.164 -0.5098  0.2523  0.5575
  359MPD2    C3 5375   3.906   1.069  12.245 -0.2946  0.0718 -0.6875
  359MPD2    C4 5376   3.880   1.207  12.223 -0.7272 -0.8021  0.5260
  359MPD2    C5 5377   3.947   1.285  12.136  0.0050  0.0197  0.2397
  359MPD2     H 5378   4.020   0.907  12.172 -1.4066  0.1594  1.6635
  359MPD2    H1 5379   3.800   1.254  12.280  0.0429 -0.2243  1.1222
  359MPD2    H2 5380   4.102   1.295  11.991  0.1909 -1.2591 -0.2603
  359MPD2    H3 5381   3.930   1.390  12.115  0.2178  0.2740  1.3514
  359MPD2     N 5382   3.818   1.004  12.327 -0.1720 -0.8190  0.6195
  359MPD2    H5 5383   3.752   1.068  12.369 -1.3827 -2.3701  1.1029
  359MPD2    N1 5384   4.144   1.021  11.976  0.2001 -0.2312  0.2897
  359MPD2    H7 5385   4.157   0.926  12.010  0.9099 -0.2450 -0.0203
  360TMC3    C1 5386   4.308   0.979  11.822  0.9315  0.6923  0.0887
  360TMC3    C2 5387   4.441   1.023  11.798  0.1874 -0.6211 -0.6154
  360TMC3    C3 5388   4.525   0.918  11.765  0.5217  0.0834  0.0986
  360TMC3    C4 5389   4.265   0.855  11.804 -0.6320 -0.3395 -0.2251
  360TMC3    C5 5390   4.350   0.762  11.748 -0.1895 -0.6221 -0.5930
  360TMC3    C6 5391   4.481   0.792  11.726 -0.8049  0.1992 -0.3300
  360TMC3     C 5392   4.221   1.074  11.876 -0.2095 -0.1453 -0.5063
  360TMC3     O 5393   4.236   1.187  11.834 -0.4290  0.0877 -0.2517
  360TMC3     H 5394   4.474   1.119  11.838  0.1627 -0.6041 -0.6361
  360TMC3    H1 5395   4.158   0.842  11.817 -0.5759 -0.5563  0.0094
  360TMC3    H2 5396   4.547   0.717  11.685 -0.2748  0.4114  0.1421
  360TMC3    C7 5397   4.282   0.662  11.668 -0.2630 -0.0799 -0.0607
  360TMC3    C8 5398   4.653   0.971  11.705 -0.1363 -1.0110 -1.0073
  360TMC3    O1 5399   4.354   0.611  11.583  0.2645  0.0529 -0.1228
  360TMC3    O2 5400   4.654   1.088  11.672 -0.1776  0.1090 -0.8367
  361MPD2     C 5401   1.628   4.127  17.438 -0.0706 -0.0235 -0.8193
  361MPD2    C1 5402   1.581   4.073  17.318 -0.8872 -0.2059  0.7644
  361MPD2    C2 5403   1.626   3.944  17.279 -0.2214 -0.4463  0.2217
  361MPD2    C3 5404   1.717   3.871  17.366 -0.0782 -0.2221 -0.0198
  361MPD2    C4 5405   1.761   3.932  17.475  0.1413 -0.5136  0.0670
  361MPD2    C5 5406   1.722   4.059  17.514  0.3560  0.8643 -0.5584
  361MPD2     H 5407   1.591   3.895  17.190  2.1143  0.1405 -1.0320
  361MPD2    H1 5408   1.823   3.878  17.546  0.2106 -1.1892 -0.5041
  361MPD2    H2 5409   1.594   4.223  17.475  1.7486  0.3194 -0.0616
  361MPD2    H3 5410   1.761   4.104  17.604  2.1460 -2.3103  0.2701
  361MPD2     N 5411   1.750   3.730  17.344  0.8053  0.8116 -0.2492
  361MPD2    H5 5412   1.808   3.692  17.418  0.4163 -1.0451 -0.9124
  361MPD2    N1 5413   1.488   4.134  17.234 -0.0300  0.4646 -0.1841
  361MPD2    H7 5414   1.479   4.095  17.141 -0.2479  3.0785 -1.2565
  362TMC3    C1 5415   1.311   4.280  17.176  0.1768 -0.3312  0.6827
  362TMC3    C2 5416   1.184   4.313  17.211 -0.5756 -0.0404 -0.3228
  362TMC3    C3 5417   1.096   4.334  17.116 -0.2141  0.7760 -0.2006
  362TMC3    C4 5418   1.355   4.274  17.048  0.6792  0.4860 -0.1282
  362TMC3    C5 5419   1.270   4.311  16.950  0.5157  0.2253 -0.5731
  362TMC3    C6 5420   1.140   4.350  16.985  0.4316  0.0853  0.0024
  362TMC3     C 5421   1.402   4.234  17.275 -0.1911 -0.2653 -0.1472
  362TMC3     O 5422   1.378   4.269  17.390 -0.4487 -0.4490 -0.6857
  362TMC3     H 5423   1.154   4.296  17.314  1.4983  1.1325  0.4714
  362TMC3    H1 5424   1.459   4.249  17.033  0.9370  1.1616  0.5277
  362TMC3    H2 5425   1.064   4.357  16.909  0.2984  0.6968  0.1904
  362TMC3    C7 5426   1.303   4.378  16.829 -0.6895  0.2030  0.0677
  362TMC3    C8 5427   0.991   4.228  17.124  0.7380  0.3960  0.6480
  362TMC3    O1 5428   1.260   4.493  16.819  0.2213 -0.4135 -0.5815
  362TMC3    O2 5429   0.985   4.144  17.035 -0.0656 -0.1361  0.5255
  363TMC3    C1 5430   0.303   1.568   9.002 -0.3453 -0.8599 -0.1366
  363TMC3    C2 5431   0.362   1.519   9.117  0.2526  0.1519  0.4888
  363TMC3    C3 5432   0.304   1.565   9.233 -0.1503  0.5249  0.0966
  363TMC3    C4 5433   0.194   1.654   8.995  0.5775  0.4945  0.2719
  363TMC3    C5 5434   0.137   1.688   9.123  0.0193  0.6607 -0.0010
  363TMC3    C6 5435   0.195   1.648   9.238 -0.8708 -0.4950 -0.0515
  363TMC3     C 5436   0.331   1.496   8.876  0.0040 -0.2260  0.3108
  363TMC3     O 5437   0.378   1.383   8.884  0.0247  0.5640  0.3226
  363TMC3     H 5438   0.452   1.458   9.119 -1.0801 -1.9342 -2.6587
  363TMC3    H1 5439   0.144   1.681   8.903  0.0974  2.2735  1.0431
  363TMC3    H2 5440   0.155   1.670   9.336 -1.9673  1.3221 -0.9177
  363TMC3    C7 5441   0.074   1.820   9.136  0.2604 -0.0987 -0.3414
  363TMC3    C8 5442   0.350   1.509   9.360  0.1150  0.5903  0.2774
  363TMC3    O1 5443   0.059   1.866   9.248  0.0850  0.3739 -0.2420
  363TMC3    O2 5444   0.296   1.563   9.457 -0.0375  0.1754 -0.4776
  364MPD2     C 5445   3.364   1.586  10.038 -0.5093  0.4990 -0.3984
  364MPD2    C1 5446   3.426   1.516   9.940 -0.8940 -0.1247  0.4543
  364MPD2    C2 5447   3.452   1.374   9.945  0.0874 -0.3681 -0.1475
  364MPD2    C3 5448   3.409   1.317  10.064 -0.0736 -0.3376  0.2217
  364MPD2    C4 5449   3.327   1.377  10.159  0.4045 -0.3204 -0.1852
  364MPD2    C5 5450   3.312   1.515  10.145 -0.5011 -0.2264 -0.3704
  364MPD2     H 5451   3.520   1.328   9.874 -0.1615  1.4002 -1.5470
  364MPD2    H1 5452   3.301   1.334  10.255 -0.5517 -1.4796 -0.9647
  364MPD2    H2 5453   3.345   1.693  10.041  3.4763  1.1899  0.6630
  364MPD2    H3 5454   3.254   1.565  10.222  0.8982 -0.6641  0.9546
  364MPD2     N 5455   3.452   1.188  10.106 -0.3827 -0.3774 -1.3600
  364MPD2    H5 5456   3.414   1.149  10.192 -0.7398 -1.1295 -1.8657
  364MPD2    N1 5457   3.487   1.595   9.842 -0.0499 -0.0364 -0.7175
  364MPD2    H7 5458   3.493   1.694   9.861  0.8395 -0.0782 -0.7614
  365TMC3    C1 5459   3.650   1.640   9.670 -0.0518 -0.4793  0.0023
  365TMC3    C2 5460   3.740   1.597   9.573  0.0605 -0.3572  0.0538
  365TMC3    C3 5461   3.871   1.650   9.566 -0.1818  0.4424  0.2413
  365TMC3    C4 5462   3.683   1.750   9.741 -0.1451 -0.3340  0.0936
  365TMC3    C5 5463   3.805   1.812   9.720  0.2591 -1.0028  0.8019
  365TMC3    C6 5464   3.900   1.763   9.634 -0.1589 -0.3214  0.0749
  365TMC3     C 5465   3.562   1.541   9.731  0.0142  0.2332 -0.1546
  365TMC3     O 5466   3.575   1.430   9.679 -0.2437  0.0171 -0.2834
  365TMC3     H 5467   3.714   1.511   9.513  0.8538 -2.2124  2.3892
  365TMC3    H1 5468   3.621   1.798   9.816  0.7554  1.7305 -0.4988
  365TMC3    H2 5469   3.993   1.817   9.622  1.4384 -3.5831 -2.3313
  365TMC3    C7 5470   3.861   1.900   9.818  0.1514  0.2452  0.1623
  365TMC3    C8 5471   3.982   1.560   9.561 -0.9958 -0.0393  1.2897
  365TMC3    O1 5472   3.982   1.923   9.818  0.1778 -0.2488 -0.0491
  365TMC3    O2 5473   4.094   1.614   9.572 -0.2094 -0.4099  0.0509
  366MPD2     C 5474   1.433   2.752  15.779 -0.2764 -0.1548  0.4206
  366MPD2    C1 5475   1.444   2.783  15.643 -0.8983 -0.3119  0.3892
  366MPD2    C2 5476   1.413   2.687  15.541 -0.1311 -0.4825  0.2250
  366MPD2    C3 5477   1.384   2.553  15.581 -0.5707 -0.2415  0.2635
  366MPD2    C4 5478   1.370   2.524  15.715  0.0700  0.4665 -0.1390
  366MPD2    C5 5479   1.395   2.623  15.808 -0.1516 -0.5069 -0.4023
  366MPD2     H 5480   1.421   2.726  15.440  0.8756  2.5139  1.4630
  366MPD2    H1 5481   1.353   2.423  15.750  2.9265  0.2993  0.8085
  366MPD2    H2 5482   1.447   2.817  15.865 -2.9034 -0.0490  0.7541
  366MPD2    H3 5483   1.394   2.607  15.915 -2.2846  0.4586 -0.2678
  366MPD2     N 5484   1.348   2.460  15.478 -0.3053 -0.3019 -0.3335
  366MPD2    H5 5485   1.357   2.501  15.386  3.6207 -2.4846 -0.9220
  366MPD2    N1 5486   1.494   2.913  15.595 -0.7280 -0.4684  0.4244
  366MPD2    H7 5487   1.499   2.935  15.496  0.6240 -0.7434  0.4262
  367TMC3    C1 5488   1.611   3.117  15.609  0.2854  0.5851 -0.0651
  367TMC3    C2 5489   1.745   3.109  15.635  0.0735 -0.2360 -0.3474
  367TMC3    C3 5490   1.827   3.129  15.527 -0.1001  0.1187 -0.7143
  367TMC3    C4 5491   1.567   3.118  15.476  0.1613  0.1190 -0.0685
  367TMC3    C5 5492   1.657   3.148  15.378 -0.6748 -0.4602 -0.3201
  367TMC3    C6 5493   1.786   3.128  15.396 -0.7071 -0.3495 -0.3433
  367TMC3     C 5494   1.550   3.004  15.681 -0.0215 -0.1301 -0.0041
  367TMC3     O 5495   1.575   2.996  15.800 -0.0629  0.1340 -0.8931
  367TMC3     H 5496   1.784   3.092  15.734  0.9649 -0.1810 -0.6920
  367TMC3    H1 5497   1.461   3.135  15.464  0.3547  1.8047  0.5119
  367TMC3    H2 5498   1.861   3.125  15.317  0.3866  0.5517  0.6623
  367TMC3    C7 5499   1.595   3.175  15.245  0.6638 -0.8686 -0.2721
  367TMC3    C8 5500   1.973   3.110  15.548 -0.2307  1.0628 -0.6351
  367TMC3    O1 5501   1.495   3.239  15.259  0.6954  0.3445 -0.2488
  367TMC3    O2 5502   2.040   3.059  15.458 -0.1613 -0.6029 -0.0670
  368MPD2     C 5503   2.912   4.408  13.000 -0.0851 -0.0889 -0.2297
  368MPD2    C1 5504   2.872   4.509  12.916  0.2006 -0.6387 -0.5820
  368MPD2    C2 5505   2.949   4.536  12.803 -0.5675 -0.1987  0.4559
  368MPD2    C3 5506   3.064   4.469  12.771 -0.0388  0.1541 -0.7223
  368MPD2    C4 5507   3.114   4.383  12.871 -0.1645  0.0761 -0.6035
  368MPD2    C5 5508   3.043   4.360  12.977 -0.1988 -0.3528  0.0567
  368MPD2     H 5509   2.922   4.600  12.720 -0.0526  0.4330  0.7795
  368MPD2    H1 5510   3.206   4.327  12.859 -0.8540 -0.8958 -1.3886
  368MPD2    H2 5511   2.854   4.375  13.085 -0.8520  0.4912 -0.5306
  368MPD2    H3 5512   3.078   4.283  13.045 -1.5077 -1.8957 -1.0033
  368MPD2     N 5513   3.138   4.488  12.651 -0.1752  0.6661 -0.0293
  368MPD2    H5 5514   3.229   4.441  12.650  0.2510  1.5064 -1.2299
  368MPD2    N1 5515   2.744   4.563  12.941  0.4010  0.3322 -0.3528
  368MPD2    H7 5516   2.708   4.538  13.032  1.2705 -0.3658 -0.1953
  369TMC3    C1 5517   2.549   4.678  12.908 -0.4559  0.1625 -0.7482
  369TMC3    C2 5518   2.470   0.026  12.822  0.4657  0.6195 -0.5183
  369TMC3    C3 5519   2.335   0.048  12.858  0.4285  0.6252 -0.2259
  369TMC3    C4 5520   2.490   4.611  13.012 -0.1923  0.2384  0.3501
  369TMC3    C5 5521   2.355   4.625  13.040  0.4153  0.7226  0.1763
  369TMC3    C6 5522   2.277   4.704  12.964  0.5192 -0.0880  0.3074
  369TMC3     C 5523   2.684   4.661  12.871  0.6361 -0.4469 -0.6899
  369TMC3     O 5524   2.739   0.016  12.788  0.5044 -0.0574 -0.0878
  369TMC3     H 5525   2.512   0.067  12.731 -0.8194 -1.3990 -2.0043
  369TMC3    H1 5526   2.554   4.551  13.076  1.2114  0.5609 -0.7647
  369TMC3    H2 5527   2.173   0.011  12.982  0.2629 -1.5890  1.0034
  369TMC3    C7 5528   2.303   4.580  13.166 -0.3329 -0.7880 -0.0232
  369TMC3    C8 5529   2.260   0.135  12.766  0.2522  0.0264 -0.0012
  369TMC3    O1 5530   2.380   4.520  13.241 -0.3257 -0.3039  0.1981
  369TMC3    O2 5531   2.160   0.096  12.719  0.0071  0.5145  0.0177
  370TMC3    C1 5532   2.335   4.605  16.360  0.0053 -0.5127 -0.2566
  370TMC3    C2 5533   2.306   4.519  16.468 -0.3402 -0.2576  0.4260
  370TMC3    C3 5534   2.305   4.385  16.438  0.2889 -0.0285 -0.1565
  370TMC3    C4 5535   2.375   4.561  16.238 -0.3628  0.3518 -0.1003
  370TMC3    C5 5536   2.392   4.432  16.219 -0.0491 -0.3988  0.2508
  370TMC3    C6 5537   2.347   4.341  16.316  0.6805 -1.0326  0.3917
  370TMC3     C 5538   2.419   4.705  16.417  0.4382 -0.1286 -0.7839
  370TMC3     O 5539   2.472   4.675  16.523 -0.0041  0.0899 -0.3970
  370TMC3     H 5540   2.284   4.560  16.566  2.1592 -1.4018  1.4792
  370TMC3    H1 5541   2.389   4.635  16.160 -0.2944 -0.9329 -1.2942
  370TMC3    H2 5542   2.352   4.235  16.297  0.2538 -1.0571  0.4181
  370TMC3    C7 5543   2.411   4.387  16.083  0.3629  0.3354  0.8196
  370TMC3    C8 5544   2.287   4.284  16.547  0.1136 -0.2877 -0.3860
  370TMC3    O1 5545   2.359   4.451  15.993 -0.2027 -0.8081 -0.7587
  370TMC3    O2 5546   2.261   4.170  16.503  0.3815 -0.0378  0.3249
  371TMC3    C1 5547   3.757   3.045  15.296 -0.5485 -0.2263 -0.8586
  371TMC3    C2 5548   3.630   3.056  15.342 -0.9760  0.2907 -0.0164
  371TMC3    C3 5549   3.574   3.186  15.335 -0.0514 -0.3069 -1.0048
  371TMC3    C4 5550   3.826   3.158  15.252  0.0716  0.1240  0.5168
  371TMC3    C5 5551   3.765   3.274  15.240 -0.2487  0.0869  0.1543
  371TMC3    C6 5552   3.638   3.302  15.288  0.1489  0.1581  0.9784
  371TMC3     C 5553   3.830   2.920  15.276  0.0921  0.1376 -0.3566
  371TMC3     O 5554   3.933   2.922  15.209  0.0583  0.7679 -0.1213
  371TMC3     H 5555   3.583   2.970  15.389 -0.3362  0.5913  1.1696
  371TMC3    H1 5556   3.929   3.146  15.220 -0.5462 -0.1880 -1.3038
  371TMC3    H2 5557   3.593   3.399  15.271 -1.4403 -1.0355 -1.5655
  371TMC3    C7 5558   3.829   3.394  15.181 -0.6493  0.3012  0.1418
  371TMC3    C8 5559   3.432   3.184  15.383  0.3822 -0.1449  0.1051
  371TMC3    O1 5560   3.766   3.496  15.210 -0.1982 -0.0498 -0.3579
  371TMC3    O2 5561   3.375   3.078  15.363 -0.0153 -0.6196 -0.8797
  372MPD2     C 5562   2.924   0.200  13.367  0.1780  0.2952 -0.2367
  372MPD2    C1 5563   2.998   0.216  13.479  0.4366  0.2628 -0.2030
  372MPD2    C2 5564   2.952   0.156  13.594  0.4150 -0.1864  0.2751
  372MPD2    C3 5565   2.831   0.088  13.593 -0.0119  0.4036  0.4955
  372MPD2    C4 5566   2.753   0.085  13.477 -0.6708 -0.0942  0.6205
  372MPD2    C5 5567   2.805   0.135  13.363  0.2559  0.4003  0.1020
  372MPD2     H 5568   3.008   0.163  13.687  1.0495  0.1354 -0.1308
  372MPD2    H1 5569   2.658   0.035  13.489 -1.3607  0.3830 -2.6792
  372MPD2    H2 5570   2.954   0.225  13.266  1.0438 -0.5024 -0.1767
  372MPD2    H3 5571   2.752   0.121  13.270 -0.1389 -2.0421  0.6873
  372MPD2     N 5572   2.790   0.018  13.710 -0.1224 -0.0505 -0.3918
  372MPD2    H5 5573   2.861   0.018  13.782 -1.7233 -0.4010  1.1691
  372MPD2    N1 5574   3.126   0.272  13.476  0.6278 -0.3603 -0.1676
  372MPD2    H7 5575   3.191   0.254  13.552 -0.0018 -1.0776  0.1986
  373TMC3    C1 5576   2.665   4.616  13.865  0.0622  0.5383 -1.0673
  373TMC3    C2 5577   2.740   4.680  13.956 -0.0459  1.3847 -0.1924
  373TMC3    C3 5578   2.786   4.622  14.067 -0.2900 -0.2594 -0.2149
  373TMC3    C4 5579   2.664   4.482  13.878  0.6107  0.1038  0.0309
  373TMC3    C5 5580   2.729   4.417  13.982 -0.6110 -0.3439 -1.4357
  373TMC3    C6 5581   2.781   4.487  14.082 -0.3398  0.2775 -0.6658
  373TMC3     C 5582   2.675   4.661  13.725  0.0310 -0.2343  0.5437
  373TMC3     O 5583   2.598   4.611  13.648 -0.1504 -0.2341  0.1216
  373TMC3     H 5584   2.754   0.067  13.940 -0.5309  0.8945 -3.8754
  373TMC3    H1 5585   2.609   4.428  13.802  0.8569  1.6745 -1.2593
  373TMC3    H2 5586   2.848   4.437  14.152 -1.6636 -0.6594 -0.0594
  373TMC3    C7 5587   2.789   4.285  13.940 -0.4143  0.5435  0.3062
  373TMC3    C8 5588   2.878   4.699  14.150 -0.4586 -0.4405  0.9758
  373TMC3    O1 5589   2.774   4.248  13.822  0.0110  0.5533  0.3660
  373TMC3    O2 5590   2.949   0.064  14.096 -0.2058 -0.6879 -0.0082
  374TMC3    C1 5591   3.641   4.043   9.618  0.3637 -0.3476 -0.5543
  374TMC3    C2 5592   3.754   4.110   9.645 -0.5205  0.0628  0.0592
  374TMC3    C3 5593   3.867   4.064   9.582 -0.3008  0.7633  0.2083
  374TMC3    C4 5594   3.635   3.933   9.532  0.1802  0.6418 -0.3345
  374TMC3    C5 5595   3.752   3.895   9.467  0.7982 -0.3196 -0.3939
  374TMC3    C6 5596   3.867   3.967   9.482  0.2311  0.0922  0.0525
  374TMC3     C 5597   3.517   4.104   9.667  0.5734  0.0846 -0.2588
  374TMC3     O 5598   3.534   4.214   9.721  0.6928 -0.3168 -0.5127
  374TMC3     H 5599   3.760   4.197   9.711  1.3990  0.1410 -0.2008
  374TMC3    H1 5600   3.542   3.880   9.515  2.2885 -3.3355  0.5284
  374TMC3    H2 5601   3.956   3.942   9.426  0.1312 -0.9274  0.3455
  374TMC3    C7 5602   3.756   3.765   9.402 -0.1010  0.2080 -0.5732
  374TMC3    C8 5603   3.977   4.154   9.576  0.3114 -0.3748  0.1045
  374TMC3    O1 5604   3.847   3.739   9.321 -0.3096  0.2930  0.2522
  374TMC3    O2 5605   4.041   4.170   9.475  0.2910  0.5509 -0.2470
  375MPD2     C 5606   4.020   4.499  17.401  0.0211 -0.3906 -0.5685
  375MPD2    C1 5607   3.965   4.594  17.320 -0.6958  0.9851 -0.3748
  375MPD2    C2 5608   4.028   4.616  17.201  0.1148  0.6814  0.0519
  375MPD2    C3 5609   4.125   4.537  17.152 -0.0468 -0.0784  0.0618
  375MPD2    C4 5610   4.178   4.436  17.232 -0.6068 -0.4935  0.0205
  375MPD2    C5 5611   4.120   4.417  17.355  0.0226 -0.2899  0.8172
  375MPD2     H 5612   3.978   4.689  17.139 -1.6085 -0.1988  0.4115
  375MPD2    H1 5613   4.266   4.375  17.215  0.2825  0.4108  1.4059
  375MPD2    H2 5614   3.981   4.476  17.499  0.0778  1.4384 -0.1178
  375MPD2    H3 5615   4.155   4.336  17.418 -0.2860 -1.7111 -0.8256
  375MPD2     N 5616   4.184   4.547  17.022 -0.6379  0.8903 -0.2008
  375MPD2    H5 5617   4.269   4.493  17.011 -0.8703  0.4086  0.3508
  375MPD2    N1 5618   3.857   4.675  17.359 -0.2694 -0.4815  0.3859
  375MPD2    H7 5619   3.839   0.035  17.298 -1.5942 -0.7377  0.4551
  376TMC3    C1 5620   4.193   4.602  16.793  0.7782  0.3384 -0.6040
  376TMC3    C2 5621   4.331   4.594  16.777 -0.0664  0.3686 -0.5380
  376TMC3    C3 5622   4.390   4.648  16.670  0.1453 -0.0583  0.3795
  376TMC3    C4 5623   4.117   4.654  16.689 -0.2416 -0.4618  0.0588
  376TMC3    C5 5624   4.180   4.704  16.577  0.0649 -0.6728 -0.0211
  376TMC3    C6 5625   4.321   4.705  16.561  0.3451 -0.2615 -0.7458
  376TMC3     C 5626   4.132   4.627  16.920 -0.3945  0.0022  0.3781
  376TMC3     O 5627   4.024   4.684  16.913 -0.2791 -0.2883 -0.1211
  376TMC3     H 5628   4.388   4.542  16.854  0.5055  0.8210 -0.6577
  376TMC3    H1 5629   4.010   4.651  16.701 -0.2169  0.9444  0.6589
  376TMC3    H2 5630   4.367   0.022  16.470 -1.1589 -1.5422 -2.0304
  376TMC3    C7 5631   4.089   0.022  16.462  0.1220 -0.2577  0.1624
  376TMC3    C8 5632   4.534   4.677  16.691  0.2832 -0.1516  0.1400
  376TMC3    O1 5633   4.147   0.039  16.358  0.0965 -0.1343  0.1153
  376TMC3    O2 5634   4.579   4.667  16.806 -0.2487 -0.7324 -0.0994
  377MPD2     C 5635   1.408   4.665  12.302  0.3879 -0.1462 -0.3742
  377MPD2    C1 5636   1.468   4.646  12.419  0.9314 -0.0339  0.7183
  377MPD2    C2 5637   1.402   4.685  12.529  0.1197  0.2221 -0.0913
  377MPD2    C3 5638   1.271   0.014  12.517  0.0729 -0.4292  0.0034
  377MPD2    C4 5639   1.213   0.031  12.396 -0.6491 -0.3930  0.3456
  377MPD2    C5 5640   1.283   0.005  12.286  0.5682  0.3652  0.9996
  377MPD2     H 5641   1.454   4.677  12.624 -1.6376 -2.1557  0.6838
  377MPD2    H1 5642   1.121   0.088  12.388 -0.1403  0.1655 -1.3063
  377MPD2    H2 5643   1.451   4.629  12.209 -0.6142 -1.4493 -0.3361
  377MPD2    H3 5644   1.236   0.007  12.188  0.2014 -0.9052  1.1523
  377MPD2     N 5645   1.187   0.041  12.629 -0.4164 -0.2159  0.4891
  377MPD2    H5 5646   1.094   0.073  12.604 -0.1477  0.9722  1.0343
  377MPD2    N1 5647   1.596   4.586  12.428  0.8622 -0.2490  0.0671
  377MPD2    H7 5648   1.635   4.558  12.338 -2.2525 -1.0073 -1.0304
  378TMC3    C1 5649   1.933   4.468  12.304  0.5618 -0.0441 -0.5460
  378TMC3    C2 5650   1.809   4.457  12.356  0.5454  0.4890  0.2525
  378TMC3    C3 5651   1.793   4.481  12.489 -0.2336 -0.0554  0.8917
  378TMC3    C4 5652   2.043   4.477  12.386 -0.1019 -0.3056 -0.1633
  378TMC3    C5 5653   2.022   4.503  12.516 -0.2601 -0.4938  0.1499
  378TMC3    C6 5654   1.896   4.513  12.567  0.0454  0.3569  0.9057
  378TMC3     C 5655   1.935   4.459  12.158  0.0303 -0.1837  0.7598
  378TMC3     O 5656   1.829   4.490  12.103 -1.2143 -0.5791 -0.2988
  378TMC3     H 5657   1.720   4.429  12.302  0.8201  2.3977 -1.2097
  378TMC3    H1 5658   2.139   4.468  12.337  1.0937  1.1996  1.8811
  378TMC3    H2 5659   1.884   4.552  12.667  0.7316  0.8794  0.7836
  378TMC3    C7 5660   2.121   4.453  12.615 -0.3137 -0.3149 -0.4316
  378TMC3    C8 5661   1.666   4.537  12.538  0.2276  0.0839  0.3724
  378TMC3    O1 5662   2.081   4.420  12.728  0.6186  0.3906  0.3234
  378TMC3    O2 5663   1.642   4.556  12.655 -0.3377 -0.0116  0.4347
  379MPD2     C 5664   3.177   2.790  15.879 -0.2056 -0.6108 -0.0077
  379MPD2    C1 5665   3.086   2.693  15.895  0.4240  0.3056  0.0692
  379MPD2    C2 5666   3.098   2.587  15.983  0.4708  0.6065  0.2764
  379MPD2    C3 5667   3.202   2.593  16.070 -0.0655 -0.6494 -0.8312
  379MPD2    C4 5668   3.304   2.684  16.053  0.0307  0.1156 -0.8280
  379MPD2    C5 5669   3.291   2.783  15.959  0.3622 -0.2042  0.5656
  379MPD2     H 5670   3.027   2.505  15.985  1.7626 -0.5192  0.1575
  379MPD2    H1 5671   3.390   2.686  16.119 -1.2155 -1.4118  0.8314
  379MPD2    H2 5672   3.158   2.869  15.806 -1.2212  1.0084  2.0074
  379MPD2    H3 5673   3.370   2.857  15.950 -1.7671  1.9019 -0.7949
  379MPD2     N 5674   3.221   2.498  16.169  0.1146  0.1302 -0.3482
  379MPD2    H5 5675   3.302   2.524  16.224  0.3804  0.3237 -0.8293
  379MPD2    N1 5676   2.981   2.696  15.805  0.0534 -0.4073  0.0750
  379MPD2    H7 5677   2.955   2.787  15.768  2.2444  0.8535  1.6525
  380TMC3    C1 5678   2.789   2.626  15.694 -0.3952 -0.5586  0.3228
  380TMC3    C2 5679   2.716   2.522  15.639 -0.2793  0.0543 -0.1046
  380TMC3    C3 5680   2.585   2.546  15.610 -0.0352  1.0058 -0.5051
  380TMC3    C4 5681   2.729   2.742  15.746  0.1172  0.8852 -0.0255
  380TMC3    C5 5682   2.598   2.771  15.708  0.4939 -0.1138  0.2751
  380TMC3    C6 5683   2.522   2.668  15.643  0.2641 -0.1607  0.3536
  380TMC3     C 5684   2.905   2.584  15.769  0.8110  0.0750  0.3996
  380TMC3     O 5685   2.920   2.464  15.792  0.0989  0.1261 -0.4278
  380TMC3     H 5686   2.770   2.445  15.585 -0.5115 -0.4836  0.4338
  380TMC3    H1 5687   2.769   2.818  15.812 -0.8199  0.0103  1.5524
  380TMC3    H2 5688   2.416   2.678  15.621  0.0730 -1.3365  0.7710
  380TMC3    C7 5689   2.546   2.897  15.768 -0.2778 -0.3608  0.2313
  380TMC3    C8 5690   2.521   2.482  15.498 -0.3503  0.2931 -0.1833
  380TMC3    O1 5691   2.610   2.952  15.859  0.6931  0.0121  0.3777
  380TMC3    O2 5692   2.453   2.561  15.431 -0.6319  0.3834  0.1630
  381TMC3    C1 5693   2.447   3.607  16.207 -0.1955  0.2361  0.5699
  381TMC3    C2 5694   2.489   3.741  16.214  0.6109  0.1181  0.3018
  381TMC3    C3 5695   2.466   3.816  16.336  0.7114 -1.4299 -0.6530
  381TMC3    C4 5696   2.383   3.550  16.316 -0.2094 -0.0192  0.2305
  381TMC3    C5 5697   2.375   3.617  16.437 -1.0023 -0.2358  0.2813
  381TMC3    C6 5698   2.406   3.752  16.445 -0.2625  0.1004 -0.7046
  381TMC3     C 5699   2.505   3.518  16.112 -0.6909 -0.5741 -0.3539
  381TMC3     O 5700   2.527   3.403  16.145 -0.8760 -0.6048  0.5771
  381TMC3     H 5701   2.545   3.794  16.138  0.3847 -0.5607 -0.3344
  381TMC3    H1 5702   2.375   3.442  16.320  2.3164 -0.1854  0.6179
  381TMC3    H2 5703   2.386   3.809  16.536 -0.8009  2.1790 -2.1208
  381TMC3    C7 5704   2.303   3.547  16.550 -0.7769 -0.6113  0.4783
  381TMC3    C8 5705   2.522   3.950  16.332 -0.6954  0.4233  0.5910
  381TMC3    O1 5706   2.307   3.425  16.543  0.3484  0.5969  0.3257
  381TMC3    O2 5707   2.526   3.994  16.216  0.1548  0.6980  0.5792
  382MPD2     C 5708   1.781   1.008   0.441 -0.0874 -0.1221 -1.3615
  382MPD2    C1 5709   1.650   0.995   0.406  0.2001 -0.0765  0.2697
  382MPD2    C2 5710   1.621   0.932   0.292 -0.0634 -0.9608  0.2177
  382MPD2    C3 5711   1.723   0.884   0.203  0.1651 -0.1819  0.0819
  382MPD2    C4 5712   1.853   0.896   0.245 -0.2371 -0.6548  0.1575
  382MPD2    C5 5713   1.883   0.949   0.369 -0.2892 -0.0724  0.0039
  382MPD2     H 5714   1.517   0.910   0.270 -1.0781  2.3955  1.7427
  382MPD2    H1 5715   1.933   0.852   0.187  0.9101  0.7120  0.7204
  382MPD2    H2 5716   1.818   1.066   0.524  0.8437 -0.8564 -1.2694
  382MPD2    H3 5717   1.988   0.951   0.394  0.1831 -0.5331 -1.9393
  382MPD2     N 5718   1.695   0.800   0.096  0.1980 -0.3315 -0.1937
  382MPD2    H5 5719   1.773   0.748   0.057  2.4445  0.7816  2.8315
  382MPD2    N1 5720   1.547   1.053   0.478  0.2555  0.1512  0.4864
  382MPD2    H7 5721   1.456   1.013   0.456  0.1179  0.3891  0.6237
  383TMC3    C1 5722   1.583   0.654  17.628  0.2428  0.7142  0.6329
  383TMC3    C2 5723   1.497   0.652  17.534 -0.1679  0.0376 -0.2649
  383TMC3    C3 5724   1.506   0.551  17.443  0.3340  0.8853 -0.1161
  383TMC3    C4 5725   1.682   0.562  17.648  0.7549 -0.3758  0.2198
  383TMC3    C5 5726   1.687   0.459  17.558 -0.3482  0.1454  0.0541
  383TMC3    C6 5727   1.602   0.449  17.451  0.2909 -0.3273 -0.4446
  383TMC3     C 5728   1.575   0.777   0.030 -0.4195 -0.0803  0.8537
  383TMC3     O 5729   1.464   0.822   0.055 -0.1519 -0.4760  0.3243
  383TMC3     H 5730   1.415   0.722  17.523  2.2732  2.8707 -0.3385
  383TMC3    H1 5731   1.750   0.567   0.051  0.8848  0.7909  0.0551
  383TMC3    H2 5732   1.592   0.365  17.384 -1.4059 -2.0154  1.9527
  383TMC3    C7 5733   1.783   0.359  17.587 -0.6639  0.8362  0.2854
  383TMC3    C8 5734   1.395   0.538  17.352 -0.4314  0.2109 -0.7455
  383TMC3    O1 5735   1.752   0.248  17.535  0.9033 -0.0763  0.4213
  383TMC3    O2 5736   1.284   0.575  17.385  0.2021 -0.5530  0.0298
  384MPD2     C 5737   3.009   3.042  11.887 -0.0142 -0.4046 -0.5273
  384MPD2    C1 5738   2.968   2.940  11.806 -0.8138  0.0699 -0.1443
  384MPD2    C2 5739   3.060   2.883  11.723  0.2368  0.2903  0.2876
  384MPD2    C3 5740   3.197   2.917  11.724 -0.0692 -0.3152  0.0059
  384MPD2    C4 5741   3.242   3.010  11.816  0.5607  1.4496  0.6443
  384MPD2    C5 5742   3.144   3.079  11.892  0.1420  0.4268 -0.1444
  384MPD2     H 5743   3.037   2.793  11.667  0.3566  0.5917 -0.2444
  384MPD2    H1 5744   3.345   3.025  11.844  0.4045  2.0326  0.9096
  384MPD2    H2 5745   2.937   3.093  11.951  1.7204  0.9850  0.3380
  384MPD2    H3 5746   3.175   3.142  11.975 -1.1373 -0.2799  0.8760
  384MPD2     N 5747   3.286   2.840  11.650  0.1237  0.5563 -1.0825
  384MPD2    H5 5748   3.250   2.771  11.584 -1.0611  0.3454 -0.2027
  384MPD2    N1 5749   2.836   2.894  11.786 -0.0877 -0.0335  0.4572
  384MPD2    H7 5750   2.822   2.828  11.710 -0.9132 -0.9726  1.4300
  385TMC3    C1 5751   3.478   2.777  11.533 -0.4965 -0.2142  0.6085
  385TMC3    C2 5752   3.513   2.840  11.420  0.6985 -0.0264  0.4826
  385TMC3    C3 5753   3.484   2.773  11.306 -0.0981 -0.8417 -0.3729
  385TMC3    C4 5754   3.419   2.653  11.534 -0.0785 -0.0241 -0.0260
  385TMC3    C5 5755   3.386   2.584  11.420 -0.1999  0.1485 -0.0254
  385TMC3    C6 5756   3.424   2.642  11.301 -0.5370  0.8558  0.1539
  385TMC3     C 5757   3.419   2.869  11.629 -0.4972 -0.1145  0.1078
  385TMC3     O 5758   3.482   2.972  11.654 -0.5816  0.3023 -0.7366
  385TMC3     H 5759   3.551   2.941  11.422  1.3722 -0.3354  2.9570
  385TMC3    H1 5760   3.401   2.614  11.634  2.7262 -1.4832 -0.0831
  385TMC3    H2 5761   3.397   2.591  11.210  0.6054 -0.3445  0.5019
  385TMC3    C7 5762   3.255   2.515  11.427 -0.6139 -0.5465 -0.0746
  385TMC3    C8 5763   3.544   2.823  11.182 -0.0733 -0.6640 -0.5286
  385TMC3    O1 5764   3.161   2.569  11.369 -0.1996  0.0067 -0.0391
  385TMC3    O2 5765   3.645   2.889  11.189  0.0294 -0.1740  0.2035
  386TMC3    C1 5766   2.907   4.587  11.793  0.5751 -0.9241 -1.0311
  386TMC3    C2 5767   2.952   4.570  11.666  0.1994 -0.2518  0.0207
  386TMC3    C3 5768   2.866   4.586  11.554 -0.0397  0.2928 -0.5925
  386TMC3    C4 5769   2.775   4.602  11.815 -0.0830  0.1664 -0.1364
  386TMC3    C5 5770   2.686   4.608  11.701 -0.2647  0.4409  0.7550
  386TMC3    C6 5771   2.731   4.595  11.571  0.2087 -0.0228  0.6253
  386TMC3     C 5772   2.990   4.538  11.903 -0.9434  0.0876  0.6741
  386TMC3     O 5773   2.934   4.509  12.007 -0.5283  0.2168 -0.1186
  386TMC3     H 5774   3.051   4.536  11.639  0.5643  0.4944  0.4340
  386TMC3    H1 5775   2.728   4.612  11.912  0.3353  1.5651 -0.0689
  386TMC3    H2 5776   2.674   4.612  11.480  1.3344  3.9140  0.6839
  386TMC3    C7 5777   2.552   4.645  11.725 -0.1088  0.0095  0.0436
  386TMC3    C8 5778   2.916   4.605  11.420  0.0827 -0.5130  0.3306
  386TMC3    O1 5779   2.534   4.705  11.830  0.3118 -0.2671  0.1535
  386TMC3    O2 5780   2.846   4.571  11.326  0.2420  0.0552  0.2655
  387MPD2     C 5781   1.120   4.685   9.454  0.4063  0.1825  0.1464
  387MPD2    C1 5782   1.244   4.719   9.499  0.0499 -0.2960 -0.3501
  387MPD2    C2 5783   1.337   4.619   9.504 -0.5329  0.1585 -0.2118
  387MPD2    C3 5784   1.312   4.488   9.480 -0.2672 -0.1411  0.3586
  387MPD2    C4 5785   1.189   4.453   9.438 -0.0935 -0.4376  0.2345
  387MPD2    C5 5786   1.093   4.550   9.427 -0.1008 -0.0972  0.3596
  387MPD2     H 5787   1.440   4.641   9.532 -0.3818  1.0510 -1.4673
  387MPD2    H1 5788   1.159   4.349   9.428 -1.0044 -0.2454  1.0006
  387MPD2    H2 5789   1.050   0.049   9.458 -0.9310 -0.8888 -0.5050
  387MPD2    H3 5790   0.991   4.535   9.394 -0.4150  0.3849  1.1412
  387MPD2     N 5791   1.407   4.388   9.514 -0.6162  0.0444  0.3865
  387MPD2    H5 5792   1.502   4.412   9.542 -0.9615  0.0179  1.5635
  387MPD2    N1 5793   1.284   0.121   9.545  0.2836 -0.4945 -0.7615
  387MPD2    H7 5794   1.381   0.123   9.575 -0.2479 -1.4695  0.9965
  388TMC3    C1 5795   1.258   0.321   9.663 -0.5660  0.8591  0.2837
  388TMC3    C2 5796   1.204   0.450   9.678  0.3239  0.0937 -0.2922
  388TMC3    C3 5797   1.244   0.531   9.786 -0.6969 -0.1255  0.4930
  388TMC3    C4 5798   1.348   0.274   9.757  0.3346  0.3864 -0.1767
  388TMC3    C5 5799   1.399   0.360   9.848 -0.7167 -0.3456  0.1385
  388TMC3    C6 5800   1.347   0.485   9.873 -0.3165 -0.2655  0.9663
  388TMC3     C 5801   1.205   0.230   9.564  0.0742  0.3010 -0.3217
  388TMC3     O 5802   1.104   0.264   9.503  0.2124 -0.0121 -0.0526
  388TMC3     H 5803   1.124   0.491   9.618  0.5094 -0.0441 -0.6340
  388TMC3    H1 5804   1.369   0.167   9.757  0.4159  0.4015 -1.0054
  388TMC3    H2 5805   1.395   0.534   9.957 -2.0833  2.2046  0.5648
  388TMC3    C7 5806   1.499   0.311   9.948  0.5568 -0.7090 -0.3901
  388TMC3    C8 5807   1.164   0.644   9.828  0.2597 -0.4453 -0.9376
  388TMC3    O1 5808   1.519   0.365  10.055  0.1336 -0.1946  0.0900
  388TMC3    O2 5809   1.073   0.674   9.749  0.1480  0.3422 -0.5812
  389MPD2     C 5810   0.609   3.001  10.679 -0.5189 -0.5293  0.0557
  389MPD2    C1 5811   0.488   2.959  10.636 -0.2149 -0.3365 -0.0011
  389MPD2    C2 5812   0.413   2.886  10.721 -0.1286  0.4233 -0.1502
  389MPD2    C3 5813   0.460   2.866  10.847 -0.8716  0.6058  0.4914
  389MPD2    C4 5814   0.584   2.897  10.887 -0.5118 -0.5314  0.0072
  389MPD2    C5 5815   0.662   2.972  10.802  0.1757  0.6100  0.0151
  389MPD2     H 5816   0.311   2.862  10.692  0.5947  1.0036 -3.1335
  389MPD2    H1 5817   0.628   2.871  10.983  0.4998 -2.5486 -1.0220
  389MPD2    H2 5818   0.665   3.078  10.626  1.7150 -0.6911  2.1937
  389MPD2    H3 5819   0.741   3.032  10.845  0.5622 -0.6928  1.1251
  389MPD2     N 5820   0.382   2.809  10.949  0.0046 -0.3974  0.4143
  389MPD2    H5 5821   0.423   2.803  11.042 -0.6828 -0.3216  0.7231
  389MPD2    N1 5822   0.444   3.007  10.514  0.3317 -0.0127  0.6326
  389MPD2    H7 5823   0.502   3.080  10.473 -0.3370 -1.5086 -2.9770
  390TMC3    C1 5824   0.207   2.745  11.067  0.1274  0.6124 -0.2660
  390TMC3    C2 5825   0.113   2.647  11.076 -0.0487 -0.2586  0.7262
  390TMC3    C3 5826   0.034   2.642  11.185  0.7168  0.6306  0.8056
  390TMC3    C4 5827   0.213   2.848  11.154  0.4314  0.0274 -0.5160
  390TMC3    C5 5828   0.128   2.838  11.266 -0.9501  0.6152  0.0548
  390TMC3    C6 5829   0.042   2.732  11.286  0.6416  0.4894 -0.5623
  390TMC3     C 5830   0.254   2.774  10.939  0.1899  0.1335 -0.5527
  390TMC3     O 5831   0.179   2.751  10.839 -0.6378  0.3370 -0.1369
  390TMC3     H 5832   0.113   2.578  10.993  0.5388  0.4408  0.1452
  390TMC3    H1 5833   0.259   2.943  11.131 -2.4958  1.4425 -0.4836
  390TMC3    H2 5834   4.701   2.742  11.375  0.8156  0.9012 -0.4863
  390TMC3    C7 5835   0.129   2.945  11.365  0.2232 -0.0544  0.8239
  390TMC3    C8 5836   4.631   2.557  11.175  0.7345  0.8721 -0.8529
  390TMC3    O1 5837   0.220   3.026  11.349 -0.1961 -0.3238  0.2344
  390TMC3    O2 5838   4.604   2.504  11.070 -0.0704 -0.0114  0.4437
  391MPD2     C 5839   3.881   4.529  11.104  0.6499 -0.2003  0.9664
  391MPD2    C1 5840   3.970   4.633  11.084  0.1493  0.1316  0.5393
  391MPD2    C2 5841   4.032   4.647  10.957  0.1260 -0.5886  0.0719
  391MPD2    C3 5842   4.001   4.558  10.849 -0.1045  0.1779 -0.0464
  391MPD2    C4 5843   3.893   4.476  10.867 -0.1412 -0.7160 -0.7553
  391MPD2    C5 5844   3.842   4.450  10.995  0.0920 -0.3077  0.1905
  391MPD2     H 5845   4.114   4.717  10.946 -0.5846  0.4098  1.0466
  391MPD2    H1 5846   3.839   4.426  10.788 -1.8486 -1.5377  0.9188
  391MPD2    H2 5847   3.832   4.521  11.201 -1.5407 -0.6508 -0.1895
  391MPD2    H3 5848   3.753   4.389  10.999  0.4308 -0.8886 -1.1482
  391MPD2     N 5849   4.078   4.571  10.731  0.4793  0.4047  0.6070
  391MPD2    H5 5850   4.152   4.639  10.748  1.3615 -0.5216  0.4652
  391MPD2    N1 5851   4.011   4.709  11.196  0.2374  0.4077 -0.1928
  391MPD2    H7 5852   3.990   4.681  11.291 -1.7368  0.4412 -0.6187
  392TMC3    C1 5853   4.126   4.570  10.501  0.4477  0.4125  0.5332
  392TMC3    C2 5854   4.082   4.520  10.378  0.3824  0.1234 -0.3139
  392TMC3    C3 5855   4.155   4.537  10.263 -0.1570 -0.0908  0.0074
  392TMC3    C4 5856   4.250   4.622  10.515 -0.0212 -1.0512  1.6963
  392TMC3    C5 5857   4.326   4.632  10.399  0.3993 -0.3378 -0.2327
  392TMC3    C6 5858   4.282   4.599  10.267 -0.1226 -0.1084 -0.4319
  392TMC3     C 5859   4.048   4.515  10.612  0.3826 -0.3432 -1.1461
  392TMC3     O 5860   3.958   4.435  10.584  0.0408  0.0334 -0.0516
  392TMC3     H 5861   3.994   4.459  10.362 -0.5601  1.3547  0.1442
  392TMC3    H1 5862   4.301   4.646  10.608 -0.7424  1.1295  1.5226
  392TMC3    H2 5863   4.349   4.617  10.184  2.6281  0.4898  1.9280
  392TMC3    C7 5864   4.451   4.710  10.411  0.5886  0.2669 -0.2017
  392TMC3    C8 5865   4.130   4.455  10.143 -0.2254 -0.0931 -0.3852
  392TMC3    O1 5866   4.447   0.091  10.479 -0.0503 -0.0265 -0.5539
  392TMC3    O2 5867   4.039   4.375  10.155 -0.1825 -0.2959 -0.3473
  393TMC3    C1 5868   2.701   2.479   9.878  1.4011  0.7062  0.9654
  393TMC3    C2 5869   2.578   2.461   9.935 -0.0345 -0.1944 -0.2367
  393TMC3    C3 5870   2.566   2.485  10.074 -0.2809 -1.1110 -0.1670
  393TMC3    C4 5871   2.816   2.507   9.950  0.5123 -1.1478 -0.2989
  393TMC3    C5 5872   2.803   2.535  10.083  0.0393  0.4036  0.5648
  393TMC3    C6 5873   2.676   2.524  10.141 -0.0762  0.4061 -0.1690
  393TMC3     C 5874   2.721   2.438   9.748  0.0975 -0.3103 -0.1854
  393TMC3     O 5875   2.839   2.405   9.716  0.2249  0.5056  0.8146
  393TMC3     H 5876   2.487   2.438   9.881 -0.1023 -2.2831  0.7445
  393TMC3    H1 5877   2.905   2.536   9.896  0.5356 -1.8142 -0.6213
  393TMC3    H2 5878   2.657   2.564  10.241  1.3287  2.0685 -0.5564
  393TMC3    C7 5879   2.917   2.578  10.160 -0.3814 -0.2557  0.1876
  393TMC3    C8 5880   2.441   2.507  10.140  0.3438 -0.5178 -0.2635
  393TMC3    O1 5881   2.879   2.642  10.260  0.1270 -0.1452  0.4386
  393TMC3    O2 5882   2.433   2.480  10.260 -0.5250  0.6236  0.1437
  394TMC3    C1 5883   0.322   3.043  10.320 -0.7672 -0.9164 -0.4757
  394TMC3    C2 5884   0.212   3.036  10.236 -0.5953  1.1049 -0.0558
  394TMC3    C3 5885   0.215   3.078  10.107  0.1550  0.2074 -0.1060
  394TMC3    C4 5886   0.445   3.077  10.259 -0.5425 -0.0060 -0.2602
  394TMC3    C5 5887   0.440   3.134  10.132 -0.6863 -0.2737 -0.4968
  394TMC3    C6 5888   0.325   3.136  10.055  0.5047  0.6587 -0.4061
  394TMC3     C 5889   0.328   2.973  10.448 -0.5160 -0.2726 -0.0528
  394TMC3     O 5890   0.228   2.914  10.488  0.3560  0.9938 -0.4364
  394TMC3     H 5891   0.134   2.974  10.278  1.9172 -1.1009  1.4274
  394TMC3    H1 5892   0.536   3.093  10.317 -0.4715  0.1271 -0.4091
  394TMC3    H2 5893   0.336   3.180   9.957  1.2217  1.0499 -0.1501
  394TMC3    C7 5894   0.554   3.192  10.062  0.4846 -0.7635 -0.5574
  394TMC3    C8 5895   0.092   3.099  10.045  0.6007 -0.5377 -0.1031
  394TMC3    O1 5896   0.538   3.280   9.983  0.2836 -0.3839 -0.2296
  394TMC3    O2 5897   0.073   3.213  10.008 -0.4173  0.3245 -0.1622
  395TMC3    C1 5898   4.206   0.342  14.465  0.0263 -0.8434 -0.3105
  395TMC3    C2 5899   4.129   0.254  14.536  0.2416  0.1290 -0.0486
  395TMC3    C3 5900   4.101   0.281  14.668  0.0883 -0.5133 -0.4313
  395TMC3    C4 5901   4.243   0.460  14.525 -0.3325 -0.9182 -0.1593
  395TMC3    C5 5902   4.228   0.480  14.658  0.0921 -0.5638 -0.5939
  395TMC3    C6 5903   4.151   0.398  14.731  0.0111  0.5577 -0.2133
  395TMC3     C 5904   4.319   0.278  14.415 -0.4222  0.0679  0.4555
  395TMC3     O 5905   4.425   0.333  14.433  0.0876  0.0018 -0.3298
  395TMC3     H 5906   4.082   0.172  14.484  0.4589 -0.8758  1.3390
  395TMC3    H1 5907   4.294   0.530  14.459 -2.6258  2.3980  1.5787
  395TMC3    H2 5908   4.149   0.404  14.840 -2.6463 -1.0992 -0.1812
  395TMC3    C7 5909   4.341   0.544  14.721  0.7384  1.0072 -0.1171
  395TMC3    C8 5910   4.080   0.176  14.760 -0.4666  0.2753  0.0173
  395TMC3    O1 5911   4.334   0.614  14.821  0.3679 -0.0939 -0.0244
  395TMC3    O2 5912   4.037   0.185  14.875  0.2409 -0.2148  0.1842
  396MPD2     C 5913   4.717   1.191  17.500 -0.1874  0.1057  0.3163
  396MPD2    C1 5914   0.067   1.147  17.392 -0.1101  0.1146 -0.4566
  396MPD2    C2 5915   0.036   1.191  17.266  0.4189  0.2647 -0.0828
  396MPD2    C3 5916   4.682   1.306  17.258 -0.1386 -0.6433  0.1431
  396MPD2    C4 5917   4.622   1.359  17.371 -0.5850 -0.4276  0.2566
  396MPD2    C5 5918   4.641   1.296  17.492 -0.4602  0.2483  0.2460
  396MPD2     H 5919   0.085   1.162  17.175 -0.9790 -2.8120  0.1583
  396MPD2    H1 5920   4.560   1.448  17.366 -0.6680 -0.4675  0.5827
  396MPD2    H2 5921   0.015   1.137  17.592 -1.1842 -1.0756 -0.1837
  396MPD2    H3 5922   4.590   1.328  17.582  1.2298  2.3473  0.4465
  396MPD2     N 5923   4.674   1.389  17.143 -0.1351 -0.0721 -0.9115
  396MPD2    H5 5924   4.640   1.483  17.157  0.9203  0.3216 -1.0686
  396MPD2    N1 5925   0.167   1.050  17.415  0.2317 -0.1427  0.0082
  396MPD2    H7 5926   0.173   1.023  17.513 -0.8711 -0.6021 -0.0509
  397TMC3    C1 5927   0.329   0.890  17.379  0.7375  0.1892 -0.5038
  397TMC3    C2 5928   0.430   0.875  17.292  0.5520  0.0628  0.0376
  397TMC3    C3 5929   0.489   0.751  17.267 -0.7504  0.1164  0.1950
  397TMC3    C4 5930   0.264   0.780  17.412 -0.1391 -0.0225 -0.0345
  397TMC3    C5 5931   0.322   0.653  17.392 -0.1895 -0.5052  0.3971
  397TMC3    C6 5932   0.442   0.642  17.330 -0.4431 -0.0687 -0.3872
  397TMC3     C 5933   0.250   0.998  17.323  0.1505 -0.5734 -0.4193
  397TMC3     O 5934   0.263   1.024  17.203 -0.5246  0.0023  0.2152
  397TMC3     H 5935   0.488   0.964  17.272  0.3332  0.1213 -0.3330
  397TMC3    H1 5936   0.174   0.788  17.471  0.7072  0.6809  1.1613
  397TMC3    H2 5937   0.479   0.543  17.307  0.1122  0.6492 -2.6747
  397TMC3    C7 5938   0.241   0.541  17.369 -0.2107 -0.4813 -0.4306
  397TMC3    C8 5939   0.482   0.731  17.120  0.4993  0.1656 -0.3458
  397TMC3    O1 5940   0.290   0.447  17.301 -0.3898  1.3353  0.2772
  397TMC3    O2 5941   0.492   0.621  17.074 -0.3929  0.0003 -0.2762
  398MPD2     C 5942   2.828   1.144  17.295  0.0443 -0.5173 -0.1488
  398MPD2    C1 5943   2.881   1.181  17.419  0.2159 -0.5302  0.4532
  398MPD2    C2 5944   2.962   1.287  17.428 -0.0568 -0.3905  0.3203
  398MPD2    C3 5945   2.999   1.361  17.317 -0.8122 -0.0490 -0.6900
  398MPD2    C4 5946   2.952   1.323  17.191 -0.3737  0.2502  0.4794
  398MPD2    C5 5947   2.868   1.218  17.187 -0.1018 -0.0490 -0.1181
  398MPD2     H 5948   3.004   1.318  17.522  1.3990  0.0860 -0.4844
  398MPD2    H1 5949   2.986   1.366  17.097  0.3370 -0.6158  0.3402
  398MPD2    H2 5950   2.752   1.067  17.285  1.0512 -1.2557 -2.1924
  398MPD2    H3 5951   2.826   1.183  17.094 -1.1642  0.3320  0.2142
  398MPD2     N 5952   3.088   1.470  17.341  0.1427 -0.4488  0.2192
  398MPD2    H5 5953   3.100   1.501  17.437 -2.4407  2.9364 -0.5579
  398MPD2    N1 5954   2.847   1.111  17.538 -0.1297 -0.1311  0.2276
  398MPD2    H7 5955   2.895   1.143  17.622 -0.2776 -0.5337  0.4660
  399TMC3    C1 5956   2.762   0.954   0.002  0.0586  0.6256  0.1232
  399TMC3    C2 5957   2.878   0.949   0.077  0.6119  0.0872 -0.3193
  399TMC3    C3 5958   2.862   0.894   0.201  0.1823  0.3803  0.7547
  399TMC3    C4 5959   2.644   0.898   0.048 -0.4585 -0.4919  0.1298
  399TMC3    C5 5960   2.639   0.835   0.171  0.1302 -0.2341 -0.1885
  399TMC3    C6 5961   2.757   0.813   0.241 -0.4315  0.6420  0.2256
  399TMC3     C 5962   2.756   1.015  17.555 -0.3810 -0.3076 -0.4009
  399TMC3     O 5963   2.660   0.983  17.483  0.0059  0.6571  0.1432
  399TMC3     H 5964   2.967   1.003   0.047 -0.1483  1.6078  0.1747
  399TMC3    H1 5965   2.555   0.916  17.670  0.7623  0.9648 -1.2660
  399TMC3    H2 5966   2.754   0.772   0.342 -1.7045  2.3580  0.8859
  399TMC3    C7 5967   2.507   0.803   0.226 -0.8328 -0.4894 -0.1635
  399TMC3    C8 5968   2.989   0.869   0.257 -1.3198  0.3150 -0.2033
  399TMC3    O1 5969   2.416   0.881   0.201 -0.5320  0.4432 -0.2306
  399TMC3    O2 5970   3.079   0.948   0.231  0.2118 -0.3479  0.3528
  400TMC3    C1 5971   1.582   0.798  17.113  0.0492  0.7948  0.6586
  400TMC3    C2 5972   1.498   0.791  17.002 -0.0929 -0.1327  0.9007
  400TMC3    C3 5973   1.392   0.878  16.983  0.1221 -0.1848  0.3600
  400TMC3    C4 5974   1.558   0.895  17.210 -0.7043  0.2846  0.2024
  400TMC3    C5 5975   1.457   0.979  17.187 -0.6869 -0.5763  0.3725
  400TMC3    C6 5976   1.369   0.967  17.085 -0.1186 -0.5385  0.1014
  400TMC3     C 5977   1.702   0.720  17.110 -0.1777 -0.0573 -0.3109
  400TMC3     O 5978   1.722   0.648  17.011  0.0750 -0.1052 -0.5285
  400TMC3     H 5979   1.517   0.723  16.919 -1.2200  0.1770  0.3785
  400TMC3    H1 5980   1.623   0.908  17.296 -0.7589  1.8718  0.0082
  400TMC3    H2 5981   1.287   1.037  17.081 -1.0125 -1.6010 -0.0523
  400TMC3    C7 5982   1.436   1.073  17.291 -0.3267  0.4529  0.6679
  400TMC3    C8 5983   1.279   0.866  16.891  0.6015  0.2312  0.5319
  400TMC3    O1 5984   1.478   1.066  17.409 -0.2819 -0.2789  0.0650
  400TMC3    O2 5985   1.192   0.951  16.904  0.3690 -0.1564 -0.4680
  401MPD2     C 5986   4.123   4.015   0.904  0.1368 -0.2632 -0.0797
  401MPD2    C1 5987   4.213   3.930   0.965 -0.4590  0.6571 -0.6016
  401MPD2    C2 5988   4.233   3.811   0.909  0.2914 -0.3091  0.1901
  401MPD2    C3 5989   4.174   3.771   0.790 -0.3033  0.1156 -0.3939
  401MPD2    C4 5990   4.102   3.862   0.708  0.4176  0.8202 -0.2604
  401MPD2    C5 5991   4.075   3.985   0.776 -0.6100  0.1832  0.4960
  401MPD2     H 5992   4.290   3.740   0.966 -0.6604  0.3633  1.9756
  401MPD2    H1 5993   4.070   3.843   0.607  1.8712  0.5228 -0.6700
  401MPD2    H2 5994   4.104   4.115   0.942 -0.3998 -0.8110  1.1022
  401MPD2    H3 5995   4.015   4.056   0.720  0.7040 -0.6158 -1.8945
  401MPD2     N 5996   4.216   3.642   0.748  0.5316  0.4932 -0.0519
  401MPD2    H5 5997   4.284   3.590   0.802  1.2711 -0.1253 -1.5608
  401MPD2    N1 5998   4.284   3.956   1.085  0.4523 -0.5257 -0.2108
  401MPD2    H7 5999   4.364   3.895   1.095  0.8055 -0.3433 -1.9831
  402TMC3    C1 6000   4.235   3.452   0.608 -0.6086  0.6418  0.6237
  402TMC3    C2 6001   4.297   3.393   0.714 -0.1285  0.3276 -0.5093
  402TMC3    C3 6002   4.361   3.273   0.689  0.2452  0.0822  0.9582
  402TMC3    C4 6003   4.260   3.410   0.477  0.3081 -0.4354  0.3345
  402TMC3    C5 6004   4.340   3.300   0.460  0.0089  0.8726 -0.6342
  402TMC3    C6 6005   4.391   3.232   0.565 -0.3008  0.3126 -0.0477
  402TMC3     C 6006   4.181   3.584   0.626 -0.0825 -0.5580  0.6615
  402TMC3     O 6007   4.144   3.638   0.519  0.4221 -0.0600  0.1239
  402TMC3     H 6008   4.274   3.429   0.814  1.2393  0.2585 -0.1685
  402TMC3    H1 6009   4.218   3.465   0.393 -1.6049 -2.9280 -0.3366
  402TMC3    H2 6010   4.445   3.140   0.546 -0.4136  0.3025 -0.3282
  402TMC3    C7 6011   4.388   3.265   0.324  0.4783  0.1180  0.0362
  402TMC3    C8 6012   4.453   3.217   0.786 -0.6168  0.6741 -0.0614
  402TMC3    O1 6013   4.310   3.239   0.240 -0.1496  0.2363  0.8027
  402TMC3    O2 6014   4.515   3.110   0.773 -0.2182 -0.3671  0.0771
  403MPD2     C 6015   2.862   2.437  12.926  0.6581  0.4084 -0.4387
  403MPD2    C1 6016   2.795   2.374  13.029  0.1980 -0.0609  0.9356
  403MPD2    C2 6017   2.840   2.387  13.161 -0.1280 -0.9322 -0.2635
  403MPD2    C3 6018   2.954   2.451  13.194  0.0583 -0.1671 -0.2653
  403MPD2    C4 6019   3.017   2.516  13.091 -0.5108  0.4382  0.2158
  403MPD2    C5 6020   2.974   2.505  12.956  0.1775  0.1248  0.2012
  403MPD2     H 6021   2.783   2.334  13.236 -2.0603  2.9121  0.9695
  403MPD2    H1 6022   3.096   2.586  13.118  0.0553  0.2825 -1.0348
  403MPD2    H2 6023   2.824   2.425  12.825  1.1565  1.1714 -0.7139
  403MPD2    H3 6024   3.006   2.577  12.881  2.5620  2.8821  3.8858
  403MPD2     N 6025   3.004   2.480  13.327  0.0690 -0.2430 -0.3702
  403MPD2    H5 6026   3.091   2.530  13.339 -0.5494  0.8661 -0.5652
  403MPD2    N1 6027   2.670   2.321  12.994 -0.1718  1.0453  0.0175
  403MPD2    H7 6028   2.642   2.329  12.897 -0.0869  0.5013 -0.0538
  404TMC3    C1 6029   2.465   2.223  13.014 -0.5678 -0.1033  0.0514
  404TMC3    C2 6030   2.379   2.153  13.099  0.0568  0.0619 -0.0149
  404TMC3    C3 6031   2.274   2.093  13.039  0.0354  0.0818  0.1959
  404TMC3    C4 6032   2.460   2.206  12.875  0.2946 -0.1642  0.2092
  404TMC3    C5 6033   2.348   2.150  12.824  0.1135 -0.7098 -0.4273
  404TMC3    C6 6034   2.257   2.081  12.903 -0.6067  1.3309  0.4021
  404TMC3     C 6035   2.587   2.260  13.078  0.0777 -0.1938 -0.7184
  404TMC3     O 6036   2.606   2.212  13.190  0.5306 -0.1869 -0.9296
  404TMC3     H 6037   2.392   2.154  13.207 -0.4681 -0.7404  0.0548
  404TMC3    H1 6038   2.539   2.240  12.809  0.5594 -2.4255 -0.6631
  404TMC3    H2 6039   2.171   2.033  12.857  1.5849 -1.0715 -1.1133
  404TMC3    C7 6040   2.354   2.128  12.684  0.6947  0.4503  0.0316
  404TMC3    C8 6041   2.157   2.063  13.116 -0.7454 -0.7665  0.1415
  404TMC3    O1 6042   2.444   2.185  12.626  0.2760 -1.0369  0.3210
  404TMC3    O2 6043   2.060   2.017  13.061  0.3639 -0.4037 -0.0549
  405MPD2     C 6044   3.042   3.091  13.728 -0.5573  0.3403 -0.0998
  405MPD2    C1 6045   3.066   3.194  13.639  0.2057 -0.1834  0.1166
  405MPD2    C2 6046   3.010   3.316  13.684 -0.1681  0.1454  0.2057
  405MPD2    C3 6047   2.957   3.339  13.807  0.1987 -0.1088 -0.0479
  405MPD2    C4 6048   2.932   3.236  13.891 -0.1484  0.6501 -0.0264
  405MPD2    C5 6049   2.971   3.111  13.848 -0.0987 -0.2511  0.0422
  405MPD2     H 6050   3.018   3.404  13.622 -0.5528  0.1445  0.1581
  405MPD2    H1 6051   2.883   3.256  13.986 -2.1816 -0.1263 -0.9050
  405MPD2    H2 6052   3.074   2.988  13.718 -1.3874  0.0639  0.0670
  405MPD2    H3 6053   2.966   3.033  13.923 -0.7860 -0.0932  0.1563
  405MPD2     N 6054   2.927   3.476  13.833  0.0378  0.0770 -0.3590
  405MPD2    H5 6055   2.942   3.547  13.762  0.4370 -0.5523 -0.9109
  405MPD2    N1 6056   3.139   3.178  13.518  0.1081 -0.1251  0.4067
  405MPD2    H7 6057   3.165   3.084  13.491  0.1732  0.0080  0.0151
  406TMC3    C1 6058   2.646   3.812  13.934 -0.0176  0.3460 -0.0262
  406TMC3    C2 6059   2.698   3.877  13.821  0.3352 -0.2443 -0.0014
  406TMC3    C3 6060   2.805   3.830  13.753 -0.1479 -0.0020 -0.0216
  406TMC3    C4 6061   2.714   3.697  13.972  0.1547 -0.2259 -0.4312
  406TMC3    C5 6062   2.834   3.659  13.914 -0.0532  0.0722  0.1721
  406TMC3    C6 6063   2.878   3.721  13.801 -0.0939 -0.0299 -0.2260
  406TMC3     C 6064   2.509   3.819  13.958 -0.0147 -0.2562 -0.1326
  406TMC3     O 6065   2.452   3.925  13.972  0.4013  0.3361  0.3308
  406TMC3     H 6066   2.632   3.947  13.771 -0.7628  0.2295  2.1368
  406TMC3    H1 6067   2.676   3.634  14.051 -0.8543 -0.3143 -0.9875
  406TMC3    H2 6068   2.984   3.710  13.781 -0.3912 -0.0752 -1.7538
  406TMC3    C7 6069   2.884   3.531  13.946 -0.7468 -0.1615 -0.1778
  406TMC3    C8 6070   2.827   3.889  13.623  0.5166  0.3518 -0.2952
  406TMC3    O1 6071   2.875   3.500  14.063 -0.4914 -0.4609  0.2071
  406TMC3    O2 6072   2.792   4.004  13.590  0.4532  0.1274  0.8230
  407MPD2     C 6073   0.824   4.109   9.191  0.3990 -0.7174  0.0759
  407MPD2    C1 6074   0.941   4.121   9.274  0.0039  0.2247 -0.6632
  407MPD2    C2 6075   0.918   4.182   9.392 -0.7563  0.1583  0.0679
  407MPD2    C3 6076   0.790   4.227   9.434 -0.2126 -0.9551  0.1621
  407MPD2    C4 6077   0.682   4.217   9.352 -0.4713 -0.6199  0.2583
  407MPD2    C5 6078   0.695   4.145   9.237  0.5587  0.3973  0.5700
  407MPD2     H 6079   1.010   4.194   9.448  0.8832  0.9819 -2.7639
  407MPD2    H1 6080   0.584   4.259   9.375 -1.0001 -0.8921 -1.4732
  407MPD2    H2 6081   0.838   4.058   9.097 -2.2710 -2.6917  0.7434
  407MPD2    H3 6082   0.607   4.146   9.174  0.7607  0.6726  0.2907
  407MPD2     N 6083   0.780   4.294   9.561 -0.2653 -0.0811 -0.4481
  407MPD2    H5 6084   0.696   4.346   9.585  0.4712 -0.1457  2.2853
  407MPD2    N1 6085   1.071   4.090   9.228 -0.2595 -0.7914 -0.2682
  407MPD2    H7 6086   1.135   4.113   9.303 -0.2216  0.8011 -0.7873
  408TMC3    C1 6087   1.251   4.045   9.081  0.1113  0.3765  0.1067
  408TMC3    C2 6088   1.341   4.114   9.157 -0.0501  0.4229  0.3613
  408TMC3    C3 6089   1.473   4.124   9.124  0.1281 -0.2554  0.2978
  408TMC3    C4 6090   1.296   3.984   8.970 -0.1438  0.1506 -0.5138
  408TMC3    C5 6091   1.427   3.998   8.929 -0.6132  0.2743 -0.4319
  408TMC3    C6 6092   1.516   4.064   9.008 -0.1488 -0.2371  0.5590
  408TMC3     C 6093   1.109   4.040   9.107 -0.0671 -0.0625 -0.5266
  408TMC3     O 6094   1.032   4.007   9.013  0.2477 -0.2885  0.3763
  408TMC3     H 6095   1.308   4.173   9.242 -0.0752 -1.2277  1.4794
  408TMC3    H1 6096   1.222   3.937   8.906 -0.9280 -0.4508  0.8335
  408TMC3    H2 6097   1.622   4.074   8.986 -0.9887  0.5985 -3.0867
  408TMC3    C7 6098   1.462   3.984   8.791  1.2842 -0.6272  1.0554
  408TMC3    C8 6099   1.563   4.216   9.182  0.2958 -0.9356 -0.3536
  408TMC3    O1 6100   1.568   4.031   8.752  0.3936 -0.1343 -0.0012
  408TMC3    O2 6101   1.677   4.181   9.196  0.3218 -0.1129 -0.4418
  409MPD2     C 6102   0.054   0.059  17.080  0.4803 -0.0625  0.0957
  409MPD2    C1 6103   0.181   0.015  17.133 -0.1465  0.2721 -0.7509
  409MPD2    C2 6104   0.289   0.085  17.085  0.2598 -0.0207  0.1664
  409MPD2    C3 6105   0.273   0.204  17.014 -0.7189  0.6771 -0.3744
  409MPD2    C4 6106   0.149   0.242  16.965 -0.1878  0.8568 -0.4155
  409MPD2    C5 6107   0.042   0.165  16.999  0.5436  0.7500  0.2088
  409MPD2     H 6108   0.389   0.053  17.110  0.8348 -0.1002 -2.2345
  409MPD2    H1 6109   0.132   0.327  16.900  0.2240 -0.8750 -2.7867
  409MPD2    H2 6110   4.683   0.010  17.116  1.4598 -1.3005  0.8790
  409MPD2    H3 6111   4.665   0.206  16.971  1.5987  3.8162  1.1199
  409MPD2     N 6112   0.382   0.284  16.968  0.0219 -0.5299  0.2856
  409MPD2    H5 6113   0.355   0.366  16.914  1.5776 -1.0926 -1.3262
  409MPD2    N1 6114   0.198   4.636  17.231 -0.3319  0.0568 -0.1727
  409MPD2    H7 6115   0.291   4.602  17.252 -1.2093 -2.2007  0.0848
  410TMC3    C1 6116   0.603   0.377  16.950 -0.1096 -0.3944 -0.0906
  410TMC3    C2 6117   0.718   0.413  17.014 -0.5160 -0.0754 -0.0539
  410TMC3    C3 6118   0.812   0.486  16.946 -0.4185  0.1730 -0.0039
  410TMC3    C4 6119   0.581   0.397  16.817 -0.3993  0.5031 -0.2687
  410TMC3    C5 6120   0.678   0.462  16.753 -0.7556 -0.0088  0.4337
  410TMC3    C6 6121   0.793   0.507  16.813 -0.0104  0.2667 -0.5820
  410TMC3     C 6122   0.514   0.277  17.008  0.5021 -0.0707  0.3363
  410TMC3     O 6123   0.564   0.212  17.097  0.3010 -0.2272  0.4056
  410TMC3     H 6124   0.732   0.397  17.120 -0.2029  1.9705  0.1984
  410TMC3    H1 6125   0.501   0.355  16.759 -1.5461 -0.4878  2.0316
  410TMC3    H2 6126   0.863   0.561  16.751  1.4012  0.1942  0.9391
  410TMC3    C7 6127   0.677   0.449  16.610  0.0460 -0.0146  0.3141
  410TMC3    C8 6128   0.943   0.504  17.006  0.4980 -0.2534  0.3438
  410TMC3    O1 6129   0.642   0.339  16.562 -0.1411  0.3259  0.5542
  410TMC3    O2 6130   0.945   0.537  17.122 -0.0154  0.0420 -0.5211
  411MPD2     C 6131   0.560   0.720  14.436  0.2363  0.4410 -0.4355
  411MPD2    C1 6132   0.427   0.718  14.391 -0.4906 -0.1597 -0.1432
  411MPD2    C2 6133   0.388   0.607  14.319 -0.3985 -0.0054  0.4850
  411MPD2    C3 6134   0.467   0.495  14.318 -0.4674  0.3195 -0.2348
  411MPD2    C4 6135   0.592   0.494  14.374  0.2525  0.9427  0.0178
  411MPD2    C5 6136   0.643   0.612  14.427 -0.0513  0.6685 -0.2069
  411MPD2     H 6137   0.288   0.616  14.277  0.2495  1.8032 -0.6548
  411MPD2    H1 6138   0.655   0.408  14.389  2.5092  2.5100 -0.4385
  411MPD2    H2 6139   0.597   0.811  14.481 -0.6105  0.3242  0.4942
  411MPD2    H3 6140   0.738   0.627  14.478  0.8339  1.4133 -2.0953
  411MPD2     N 6141   0.426   0.376  14.258  0.1714  0.7105  0.3881
  411MPD2    H5 6142   0.496   0.302  14.258 -0.3059  0.2529 -0.6151
  411MPD2    N1 6143   0.334   0.822  14.404 -0.5452  0.0402 -0.0052
  411MPD2    H7 6144   0.243   0.798  14.367 -1.6481  1.6455  1.6572
  412TMC3    C1 6145   0.356   0.240  14.081  0.1027  0.3401 -0.4990
  412TMC3    C2 6146   0.244   0.186  14.043 -0.7234 -0.0051 -0.5940
  412TMC3    C3 6147   0.237   0.120  13.930 -0.7743  0.9898 -0.3253
  412TMC3    C4 6148   0.461   0.266  13.990 -0.4786 -0.0012 -0.0109
  412TMC3    C5 6149   0.453   0.202  13.872 -0.9309  0.4171  0.2869
  412TMC3    C6 6150   0.349   0.115  13.849 -0.2264  0.1601  0.0646
  412TMC3     C 6151   0.325   0.359  14.170  0.3677  0.3295  0.3348
  412TMC3     O 6152   0.218   0.421  14.164  0.1031  0.1055  0.2985
  412TMC3     H 6153   0.165   0.199  14.116  0.2060 -1.2562  0.6457
  412TMC3    H1 6154   0.558   0.300  14.026  0.5225 -0.9055 -1.8242
  412TMC3    H2 6155   0.346   0.059  13.756  0.9512  1.7727 -0.9569
  412TMC3    C7 6156   0.441   0.304  13.762  0.0647 -0.4827 -0.2432
  412TMC3    C8 6157   0.107   0.141  13.865 -0.5394 -0.0517  0.8389
  412TMC3    O1 6158   0.361   0.272  13.678 -0.2336  0.2358 -0.4469
  412TMC3    O2 6159   0.021   0.196  13.935 -0.0984  0.2099 -0.5386
  413MPD2     C 6160   2.305   3.396  15.392  0.1856  0.4614  0.0440
  413MPD2    C1 6161   2.361   3.416  15.266 -0.4274 -0.2192 -0.6413
  413MPD2    C2 6162   2.464   3.336  15.221  0.4796 -0.6162  0.1206
  413MPD2    C3 6163   2.518   3.241  15.309  0.0748  0.3547 -0.4034
  413MPD2    C4 6164   2.462   3.225  15.434  0.5096  0.4205 -0.2317
  413MPD2    C5 6165   2.363   3.308  15.477  0.0333 -0.3266  0.2967
  413MPD2     H 6166   2.515   3.350  15.126  0.2063  1.5910  0.3015
  413MPD2    H1 6167   2.511   3.161  15.506 -2.5159  1.0476  2.3683
  413MPD2    H2 6168   2.223   3.455  15.432 -0.7909 -0.6293 -0.3741
  413MPD2    H3 6169   2.338   3.312  15.583  0.1351  0.4044  0.2984
  413MPD2     N 6170   2.638   3.167  15.269  0.0642  0.3091 -0.0973
  413MPD2    H5 6171   2.680   3.176  15.177 -2.2483 -0.0717 -1.2022
  413MPD2    N1 6172   2.299   3.527  15.196  0.1744 -0.2367 -0.3856
  413MPD2    H7 6173   2.231   3.575  15.255 -1.2362  0.6477 -2.7662
  414TMC3    C1 6174   2.818   3.009  15.270  0.2529  0.0819 -0.2883
  414TMC3    C2 6175   2.854   2.881  15.306 -0.1899  0.3431 -0.2003
  414TMC3    C3 6176   2.969   2.830  15.248 -0.8028  0.1174  0.3807
  414TMC3    C4 6177   2.900   3.100  15.211 -0.2841  0.4022  0.5732
  414TMC3    C5 6178   3.024   3.049  15.183 -0.5532  0.3788  0.0976
  414TMC3    C6 6179   3.061   2.918  15.198  0.1659 -0.2406 -0.0197
  414TMC3     C 6180   2.706   3.072  15.340  0.6855 -0.3333 -0.5370
  414TMC3     O 6181   2.673   3.008  15.439 -0.3993  0.5583 -0.4340
  414TMC3     H 6182   2.781   2.816  15.353  0.5036  0.6492  1.2790
  414TMC3    H1 6183   2.882   3.206  15.225  0.5095  0.5453  0.5083
  414TMC3    H2 6184   3.152   2.886  15.150  1.1962  0.6326  1.3519
  414TMC3    C7 6185   3.125   3.149  15.127 -0.1261  0.9891 -0.3277
  414TMC3    C8 6186   2.941   2.711  15.174  0.7207  0.0094  0.4222
  414TMC3    O1 6187   3.098   3.267  15.150 -0.1155  0.1296 -0.0369
  414TMC3    O2 6188   2.845   2.646  15.202 -0.2258 -0.1911 -0.1917
  415TMC3    C1 6189   2.111   2.082   9.511 -0.1429  0.3146 -0.7247
  415TMC3    C2 6190   2.219   2.084   9.424  0.0756  0.9702 -0.6378
  415TMC3    C3 6191   2.200   2.152   9.303  0.3224  0.4133  0.9708
  415TMC3    C4 6192   1.987   2.132   9.479 -0.7762 -0.2124 -0.6692
  415TMC3    C5 6193   1.967   2.194   9.359  0.3357  0.0319  0.2574
  415TMC3    C6 6194   2.079   2.217   9.278 -0.2734  0.4043 -0.0133
  415TMC3     C 6195   2.101   2.006   9.635  0.4190 -0.0372  0.4061
  415TMC3     O 6196   1.999   1.961   9.679  0.3099  0.8594  0.1789
  415TMC3     H 6197   2.309   2.026   9.441  0.1186  0.5796 -2.1904
  415TMC3    H1 6198   1.912   2.129   9.557  1.2727 -0.4136  1.2818
  415TMC3    H2 6199   2.065   2.273   9.186  0.8797  1.0484  0.2034
  415TMC3    C7 6200   1.841   2.228   9.311  0.2147  0.0413  0.1934
  415TMC3    C8 6201   2.299   2.148   9.199 -0.7862  0.6095  0.3008
  415TMC3    O1 6202   1.840   2.309   9.216 -0.0895 -0.2556  0.1820
  415TMC3    O2 6203   2.257   2.178   9.084 -0.2193 -0.0677 -0.0220
  416MPD2     C 6204   4.496   1.022  11.388  0.3909 -0.7027 -0.2997
  416MPD2    C1 6205   4.360   1.015  11.385  0.1935  0.5562  0.0912
  416MPD2    C2 6206   4.296   0.914  11.314 -0.5598  0.6489  0.0962
  416MPD2    C3 6207   4.372   0.832  11.237 -0.3604 -0.9641 -0.1183
  416MPD2    C4 6208   4.509   0.837  11.249 -0.3575  0.2267 -0.1495
  416MPD2    C5 6209   4.572   0.925  11.330  1.0173  0.7843  0.0237
  416MPD2     H 6210   4.188   0.905  11.313 -0.3301 -2.1404  0.1752
  416MPD2    H1 6211   4.578   0.785  11.183 -0.0184  1.2280 -0.5838
  416MPD2    H2 6212   4.542   1.099  11.449 -1.1499 -0.3819  0.4634
  416MPD2    H3 6213   4.679   0.936  11.317  0.8824  2.7770  0.6250
  416MPD2     N 6214   4.305   0.735  11.153 -0.7231  0.4234  0.2919
  416MPD2    H5 6215   4.205   0.741  11.141 -0.7594 -1.2609 -0.3429
  416MPD2    N1 6216   4.294   1.130  11.441 -0.6817  0.0530  0.0702
  416MPD2    H7 6217   4.361   1.198  11.476  0.0281  0.3742 -1.9602
  417TMC3    C1 6218   4.119   1.296  11.487 -0.3858  0.2051 -0.1017
  417TMC3    C2 6219   4.180   1.376  11.580 -0.0013  0.3417 -0.1892
  417TMC3    C3 6220   4.129   1.504  11.591 -0.3376  0.2428 -0.3446
  417TMC3    C4 6221   4.020   1.343  11.400 -0.9625 -0.2927 -0.7397
  417TMC3    C5 6222   3.979   1.475  11.411 -0.3122 -0.5546 -0.1555
  417TMC3    C6 6223   4.045   1.558  11.502 -0.0284  0.8296 -0.3736
  417TMC3     C 6224   4.162   1.159  11.451 -0.3547 -0.7732  0.9844
  417TMC3     O 6225   4.069   1.092  11.401  0.3229 -0.0967 -0.0005
  417TMC3     H 6226   4.255   1.326  11.641 -1.5016 -0.7061  0.7939
  417TMC3    H1 6227   3.973   1.278  11.328 -0.3510 -1.6225  0.0576
  417TMC3    H2 6228   4.011   1.661  11.495 -0.0740  0.8260 -0.2015
  417TMC3    C7 6229   3.911   1.530  11.295 -0.8224  0.0087 -0.6100
  417TMC3    C8 6230   4.165   1.586  11.709  0.0926  0.7562  0.7238
  417TMC3    O1 6231   3.959   1.628  11.243 -0.5154 -0.1350  0.3801
  417TMC3    O2 6232   4.130   1.703  11.701 -0.9430 -0.1074 -0.7655
  418TMC3    C1 6233   3.413   1.786  17.335 -0.4093  0.3177  0.6736
  418TMC3    C2 6234   3.346   1.684  17.274 -0.0251 -0.1539  0.1313
  418TMC3    C3 6235   3.223   1.647  17.326 -0.3444  0.6075  0.8389
  418TMC3    C4 6236   3.357   1.838  17.449  0.1955  0.6622 -0.2101
  418TMC3    C5 6237   3.231   1.803  17.496 -0.1792  0.2350 -0.6208
  418TMC3    C6 6238   3.162   1.705  17.434 -0.5505  0.4945 -0.0073
  418TMC3     C 6239   3.558   1.777  17.332  0.0783 -0.4428  0.6168
  418TMC3     O 6240   3.612   1.786  17.223 -0.2530  0.4200  0.1936
  418TMC3     H 6241   3.398   1.641  17.189  1.6160  3.0116 -0.4356
  418TMC3    H1 6242   3.413   1.922  17.488 -1.7135  2.7344 -1.9444
  418TMC3    H2 6243   3.060   1.683  17.462 -0.6544  0.1889 -0.6233
  418TMC3    C7 6244   3.182   1.833  17.631 -0.0105  0.4752 -0.0993
  418TMC3    C8 6245   3.157   1.542  17.253 -0.0783  0.1356 -0.1394
  418TMC3    O1 6246   3.080   1.769  17.665  0.5231  0.4667  0.1943
  418TMC3    O2 6247   3.183   1.530  17.132  0.8632 -0.1860  0.4527
  419MPD2     C 6248   1.598   0.581  12.383  0.8401 -0.8298 -0.0352
  419MPD2    C1 6249   1.493   0.666  12.364 -0.1674  0.4685 -0.0606
  419MPD2    C2 6250   1.422   0.708  12.471 -0.3109 -0.6420  1.0914
  419MPD2    C3 6251   1.465   0.690  12.598  0.5701  0.3014  0.2858
  419MPD2    C4 6252   1.569   0.602  12.627  0.3778 -0.7764  0.6425
  419MPD2    C5 6253   1.635   0.554  12.510 -0.0621  0.3318 -0.1956
  419MPD2     H 6254   1.336   0.768  12.445 -0.4229 -1.7306 -1.0146
  419MPD2    H1 6255   1.591   0.571  12.729 -1.0151 -2.8691  0.3091
  419MPD2    H2 6256   1.662   0.551  12.301  0.9392 -0.2926 -0.1545
  419MPD2    H3 6257   1.719   0.487  12.524 -0.3662  0.5746  2.8376
  419MPD2     N 6258   1.388   0.744  12.702 -0.4449 -0.0058 -0.2653
  419MPD2    H5 6259   1.311   0.804  12.674  0.4887  1.2022 -0.2175
  419MPD2    N1 6260   1.450   0.718  12.235 -0.1585  0.4233 -0.5915
  419MPD2    H7 6261   1.373   0.785  12.239 -0.3679  0.2948 -2.5614
  420TMC3    C1 6262   1.325   0.842  12.909  0.3853  0.6124 -0.0196
  420TMC3    C2 6263   1.220   0.906  12.848 -0.1067 -0.3112  0.1150
  420TMC3    C3 6264   1.180   1.030  12.896 -0.0999 -0.7620 -0.6668
  420TMC3    C4 6265   1.381   0.890  13.023 -0.5988 -0.6836  0.4597
  420TMC3    C5 6266   1.334   1.007  13.069  0.4082 -0.2695  0.1580
  420TMC3    C6 6267   1.237   1.086  13.010  0.3719  0.1461  0.5305
  420TMC3     C 6268   1.409   0.741  12.837  0.1405  0.5579 -0.1543
  420TMC3     O 6269   1.490   0.677  12.906  0.4511 -0.2976  0.3387
  420TMC3     H 6270   1.174   0.861  12.761  0.2800 -0.7407  0.1345
  420TMC3    H1 6271   1.458   0.833  13.074  2.2299  2.0674 -0.7730
  420TMC3    H2 6272   1.195   1.173  13.059 -0.2256  0.0456  0.2028
  420TMC3    C7 6273   1.385   1.066  13.195  0.2406  0.6891 -0.4361
  420TMC3    C8 6274   1.087   1.109  12.819 -0.0507 -0.1219  0.7289
  420TMC3    O1 6275   1.416   0.983  13.280  0.9104  0.2290  0.1534
  420TMC3    O2 6276   1.068   1.222  12.865 -0.6225  0.7844  0.1325
  421TMC3    C1 6277   3.004   2.510  13.560  0.1293  0.2892 -0.1613
  421TMC3    C2 6278   3.044   2.634  13.538 -0.4648 -0.7965  0.1287
  421TMC3    C3 6279   3.111   2.701  13.637  0.2053 -0.5758  0.1692
  421TMC3    C4 6280   3.027   2.445  13.674 -0.3056 -0.4199 -0.0079
  421TMC3    C5 6281   3.111   2.504  13.760  0.0754  0.2176  0.1545
  421TMC3    C6 6282   3.150   2.635  13.745  0.4123 -0.0715  0.1989
  421TMC3     C 6283   2.946   2.436  13.450  1.1962 -0.2970 -0.0043
  421TMC3     O 6284   2.849   2.364  13.469  0.1583  0.0988 -0.2206
  421TMC3     H 6285   3.014   2.686  13.447 -0.7833  1.6236  1.6145
  421TMC3    H1 6286   2.987   2.347  13.698 -0.9573  0.2883  1.8682
  421TMC3    H2 6287   3.202   2.689  13.823 -0.4298 -0.8743  1.3164
  421TMC3    C7 6288   3.189   2.431  13.849 -0.4397 -0.1937  0.6345
  421TMC3    C8 6289   3.190   2.810  13.583 -0.9578 -0.0616 -0.0461
  421TMC3    O1 6290   3.295   2.481  13.877  0.1744  0.4636 -0.7561
  421TMC3    O2 6291   3.150   2.868  13.483  0.3807 -0.3396 -0.4735
  422TMC3    C1 6292   0.463   3.902  12.694  0.5702 -0.2226 -0.3259
  422TMC3    C2 6293   0.432   4.029  12.656  0.0230 -0.4113  0.1199
  422TMC3    C3 6294   0.313   4.084  12.683 -0.2423 -0.0701 -0.3759
  422TMC3    C4 6295   0.367   3.825  12.756  0.2633  0.1267  0.5930
  422TMC3    C5 6296   0.246   3.887  12.785  0.3574  0.5328 -0.5639
  422TMC3    C6 6297   0.211   4.013  12.743  0.9770 -0.2739 -0.0966
  422TMC3     C 6298   0.565   3.838  12.614 -0.0093  0.2237  0.0540
  422TMC3     O 6299   0.640   3.911  12.555  0.1389  0.1752  0.2887
  422TMC3     H 6300   0.509   4.095  12.620 -1.7643  0.1496 -2.6407
  422TMC3    H1 6301   0.382   3.725  12.797  0.8392  0.3460  0.9246
  422TMC3    H2 6302   0.114   4.047  12.778  0.8779  0.1255 -0.7487
  422TMC3    C7 6303   0.174   3.835  12.901  0.8098 -0.1446  0.2995
  422TMC3    C8 6304   0.282   4.219  12.657 -0.1441  0.3142 -0.4727
  422TMC3    O1 6305   0.231   3.747  12.963 -0.5757  0.2638  0.5705
  422TMC3    O2 6306   0.373   4.294  12.675  0.9565  0.0502 -0.1410
  423MPD2     C 6307   1.904   4.207   0.719 -0.1040 -0.6859  0.1378
  423MPD2    C1 6308   1.993   4.119   0.780  0.9852  0.5499  1.1996
  423MPD2    C2 6309   2.099   4.063   0.713  0.2193  0.4030  0.2517
  423MPD2    C3 6310   2.116   4.117   0.583 -0.4047 -0.3694 -0.4073
  423MPD2    C4 6311   2.028   4.201   0.524 -0.8950 -1.4168 -0.2583
  423MPD2    C5 6312   1.919   4.243   0.589 -0.1053  1.5985 -0.3077
  423MPD2     H 6313   2.176   3.994   0.747 -0.9096 -0.6238  0.7421
  423MPD2    H1 6314   2.037   4.233   0.421 -0.6719  0.6005  0.3845
  423MPD2    H2 6315   1.819   4.250   0.771  1.0047 -0.2194  1.5415
  423MPD2    H3 6316   1.842   4.300   0.539 -1.3360 -0.4109 -0.7210
  423MPD2     N 6317   2.222   4.076   0.494 -0.0347 -0.1684  0.4301
  423MPD2    H5 6318   2.223   4.111   0.399  2.0590  0.9600  0.8648
  423MPD2    N1 6319   1.988   4.084   0.914 -0.2683  0.2906 -0.2448
  423MPD2    H7 6320   2.047   4.006   0.943  1.2736  1.0046 -1.4695
  424TMC3    C1 6321   1.930   4.104   1.142  0.0868  0.2818  0.2812
  424TMC3    C2 6322   1.949   3.966   1.161 -0.3334 -0.1577  0.4134
  424TMC3    C3 6323   1.937   3.925   1.294  0.1769 -0.0500  0.5165
  424TMC3    C4 6324   1.915   4.193   1.241 -0.1845 -0.7853  0.0444
  424TMC3    C5 6325   1.910   4.146   1.374 -0.4625 -0.2693  0.5190
  424TMC3    C6 6326   1.921   4.013   1.397  0.7756  0.3122  0.5202
  424TMC3     C 6327   1.935   4.165   1.010 -0.3299  0.4049  0.0978
  424TMC3     O 6328   1.886   4.278   1.001  0.3842  0.5891 -0.1835
  424TMC3     H 6329   1.965   3.897   1.079  0.1389  0.9948 -0.4550
  424TMC3    H1 6330   1.884   4.297   1.234  1.6364 -0.1095  1.9981
  424TMC3    H2 6331   1.906   3.983   1.500 -0.1345 -2.4752 -0.4404
  424TMC3    C7 6332   1.976   4.237   1.465 -0.1862  0.4547 -0.2695
  424TMC3    C8 6333   1.990   3.794   1.325  0.3876  0.6114 -0.7145
  424TMC3    O1 6334   2.062   4.305   1.417  0.0027 -0.1803 -0.3274
  424TMC3    O2 6335   2.014   3.718   1.229  0.1019 -0.0136 -0.4685
  425MPD2     C 6336   1.190   3.860  17.311 -0.1690 -0.2409  0.4194
  425MPD2    C1 6337   1.092   3.776  17.272 -0.0570 -0.1759 -0.0107
  425MPD2    C2 6338   0.965   3.798  17.326 -0.1242 -0.2611 -0.1816
  425MPD2    C3 6339   0.935   3.906  17.412 -0.0527 -0.2180  0.3386
  425MPD2    C4 6340   1.038   4.002  17.433  0.1510  0.3643  0.2718
  425MPD2    C5 6341   1.161   3.969  17.385 -0.3468  0.3304  0.4432
  425MPD2     H 6342   0.892   3.718  17.324  2.8545 -3.0092  2.0557
  425MPD2    H1 6343   1.041   4.087  17.500  0.9027 -0.0219  0.7222
  425MPD2    H2 6344   1.284   3.836  17.264 -0.1950 -1.4832  1.0114
  425MPD2    H3 6345   1.242   4.038  17.404  0.8785 -0.8634 -0.4409
  425MPD2     N 6346   0.820   3.908  17.487 -0.5129  0.5476 -0.0792
  425MPD2    H5 6347   0.755   3.830  17.490 -0.9118  0.9029  0.6117
  425MPD2    N1 6348   1.124   3.660  17.201  0.1115  0.2619  0.4673
  425MPD2    H7 6349   1.222   3.650  17.174 -0.9059 -3.4548 -1.8864
  426TMC3    C1 6350   1.089   3.432  17.124  0.5763  0.1809 -0.3197
  426TMC3    C2 6351   1.007   3.338  17.074 -0.6119 -0.5427 -0.2279
  426TMC3    C3 6352   1.056   3.221  17.043  0.6898 -0.0915  0.0559
  426TMC3    C4 6353   1.219   3.411  17.155 -0.4899  0.3409 -0.2034
  426TMC3    C5 6354   1.273   3.296  17.112  0.1950  0.1548  0.5618
  426TMC3    C6 6355   1.191   3.204  17.052 -0.1664  0.0957 -0.0083
  426TMC3     C 6356   1.031   3.560  17.162  0.1741  0.0029 -0.7917
  426TMC3     O 6357   0.906   3.556  17.181  0.3326 -0.0093 -0.4638
  426TMC3     H 6358   0.910   3.371  17.039  0.2601  1.6118 -0.5592
  426TMC3    H1 6359   1.283   3.480  17.207 -1.4435 -0.0829  1.5185
  426TMC3    H2 6360   1.239   3.108  17.034  0.2824 -0.0008  1.7515
  426TMC3    C7 6361   1.382   3.250  17.205  0.2121  0.2535  0.2137
  426TMC3    C8 6362   0.986   3.125  16.963  0.1209 -0.3882 -0.1626
  426TMC3    O1 6363   1.470   3.168  17.170  0.0115  0.1451 -0.4013
  426TMC3    O2 6364   1.049   3.031  16.915  0.4445 -0.3716 -0.2934
  427MPD2     C 6365   4.213   1.009  14.641 -0.0524  0.3546 -0.4508
  427MPD2    C1 6366   4.188   1.006  14.774 -0.2230 -0.5166 -0.4508
  427MPD2    C2 6367   4.059   1.023  14.824 -0.4072 -0.3836 -0.2624
  427MPD2    C3 6368   3.952   1.044  14.745  0.2193 -0.3823  0.8810
  427MPD2    C4 6369   3.971   1.035  14.607  0.0476  0.3746  0.1577
  427MPD2    C5 6370   4.103   1.018  14.563 -0.6437 -0.5986  0.1472
  427MPD2     H 6371   4.054   1.034  14.932 -0.0464 -1.4178 -0.1375
  427MPD2    H1 6372   3.891   1.048  14.535 -0.0651 -0.0356  0.2082
  427MPD2    H2 6373   4.312   0.998  14.599  1.1438 -0.5729  2.5922
  427MPD2    H3 6374   4.127   0.996  14.459 -0.1358  0.6160  0.0079
  427MPD2     N 6375   3.817   1.057  14.799 -0.7524 -0.3000 -0.2895
  427MPD2    H5 6376   3.743   1.070  14.731  0.7895  1.2864 -1.6713
  427MPD2    N1 6377   4.288   1.001  14.877 -0.1103 -0.0801 -0.2827
  427MPD2    H7 6378   4.254   1.008  14.972  1.3092 -2.7381  0.4133
  428TMC3    C1 6379   4.506   0.966  14.975  0.3121 -0.2659  0.5381
  428TMC3    C2 6380   4.461   0.855  15.048  0.1063  1.2996 -0.1585
  428TMC3    C3 6381   4.554   0.801  15.130  0.1041  0.2266 -0.0141
  428TMC3    C4 6382   4.632   1.018  14.995 -0.0214 -0.1223 -0.4104
  428TMC3    C5 6383   4.707   0.974  15.098  0.6289 -0.0086  0.2032
  428TMC3    C6 6384   4.673   0.856  15.154  0.2257 -0.1566 -0.6498
  428TMC3     C 6385   4.427   1.002  14.860 -0.0130 -0.0369  0.4409
  428TMC3     O 6386   4.484   1.008  14.750 -0.2541 -0.8412 -0.0382
  428TMC3     H 6387   4.374   0.797  15.019 -0.0175  1.7025 -0.5846
  428TMC3    H1 6388   4.652   1.109  14.939 -1.8739  0.9053  0.6137
  428TMC3    H2 6389   0.020   0.821  15.232 -0.9007  0.7640  0.7407
  428TMC3    C7 6390   0.122   1.035  15.134 -0.1051 -1.1606  0.3142
  428TMC3    C8 6391   4.567   0.656  15.139 -0.7001 -0.4418 -0.0227
  428TMC3    O1 6392   0.161   1.028  15.246 -0.1624 -0.1735 -0.4940
  428TMC3    O2 6393   4.684   0.617  15.139  0.1157 -0.4068  0.3891
  429MPD2     C 6394   0.257   1.257   0.034  0.4927  0.3876 -0.0902
  429MPD2    C1 6395   0.383   1.204  17.667  0.4426 -0.0035  0.0526
  429MPD2    C2 6396   0.456   1.284  17.590  0.1936  0.0637  1.3152
  429MPD2    C3 6397   0.409   1.406  17.550  0.4085 -0.2126  0.2449
  429MPD2    C4 6398   0.288   1.457  17.602 -0.5871  0.6800  0.4724
  429MPD2    C5 6399   0.213   1.373  17.674 -0.0007 -0.2513 -0.2879
  429MPD2     H 6400   0.545   1.233  17.555  0.0674  0.2304  0.7427
  429MPD2    H1 6401   0.242   1.553  17.582 -0.0923  0.5743 -1.1668
  429MPD2    H2 6402   0.189   1.202   0.100  0.8594  0.9327  0.7444
  429MPD2    H3 6403   0.112   1.390   0.030  1.1173  3.2331  1.2252
  429MPD2     N 6404   0.475   1.480  17.451 -0.4042 -0.2849  0.2178
  429MPD2    H5 6405   0.567   1.448  17.425 -0.5354 -1.0682  0.7271
  429MPD2    N1 6406   0.437   1.079   0.022 -0.0318  0.1575 -0.0203
  429MPD2    H7 6407   0.537   1.066   0.013 -0.1705 -0.7552 -0.2725
  430TMC3    C1 6408   0.546   1.619  17.296  0.0200  0.2779  0.2428
  430TMC3    C2 6409   0.517   1.608  17.166 -0.3149  0.1087 -0.3181
  430TMC3    C3 6410   0.619   1.593  17.077 -0.5593  0.3116 -0.8218
  430TMC3    C4 6411   0.670   1.609  17.347 -0.1587  0.0473  0.7959
  430TMC3    C5 6412   0.780   1.590  17.258  0.3428  0.5717 -0.6762
  430TMC3    C6 6413   0.750   1.578  17.121  0.0447 -0.5291  0.7430
  430TMC3     C 6414   0.431   1.586  17.380  0.5055 -0.4088 -0.5725
  430TMC3     O 6415   0.321   1.641  17.373 -0.0922  0.2849  0.4953
  430TMC3     H 6416   0.414   1.614  17.132 -0.1024 -3.4757 -1.5551
  430TMC3    H1 6417   0.693   1.608  17.453  3.5551  1.6518 -0.0251
  430TMC3    H2 6418   0.826   1.572  17.045  0.6463 -0.8281  1.3620
  430TMC3    C7 6419   0.917   1.590  17.319  0.1793 -0.6399 -0.3617
  430TMC3    C8 6420   0.597   1.526  16.958  0.5698  0.3219  0.0609
  430TMC3    O1 6421   0.923   1.643  17.429  0.1417 -0.1989  0.2193
  430TMC3    O2 6422   0.687   1.513  16.873 -0.1216 -0.2475 -0.1819
  431MPD2     C 6423   1.194   1.454  12.459  0.6458 -0.2825  0.4929
  431MPD2    C1 6424   1.269   1.489  12.350 -0.0552 -0.1265  0.8039
  431MPD2    C2 6425   1.300   1.386  12.262 -0.0336  0.0531  0.6760
  431MPD2    C3 6426   1.245   1.256  12.282 -0.1828  0.2371  0.3993
  431MPD2    C4 6427   1.172   1.223  12.397  0.5835  0.2325  0.1372
  431MPD2    C5 6428   1.146   1.331  12.482 -0.2079  0.1631 -0.1164
  431MPD2     H 6429   1.363   1.410  12.177 -2.4219  0.2524 -1.0500
  431MPD2    H1 6430   1.137   1.125  12.427 -0.1354 -0.5144 -3.1483
  431MPD2    H2 6431   1.181   1.533  12.532  0.0492 -1.2887  1.4603
  431MPD2    H3 6432   1.094   1.315  12.576 -2.2466  1.8621 -0.9633
  431MPD2     N 6433   1.261   1.150  12.189 -0.7818 -0.0069 -0.7101
  431MPD2    H5 6434   1.229   1.058  12.218 -0.1414 -0.4315 -1.3622
  431MPD2    N1 6435   1.327   1.618  12.345 -0.6580  0.3226 -0.0054
  431MPD2    H7 6436   1.296   1.699  12.397 -0.6067  1.1442 -1.2468
  432TMC3    C1 6437   1.375   1.038  12.000  0.0493  0.6299  0.4708
  432TMC3    C2 6438   1.421   1.040  11.874  0.7959  0.3159  0.8260
  432TMC3    C3 6439   1.486   0.931  11.820  0.3113 -0.0890 -0.2953
  432TMC3    C4 6440   1.388   0.924  12.078 -0.2609 -0.0604  0.7858
  432TMC3    C5 6441   1.462   0.818  12.020  0.3637 -0.5317 -0.4410
  432TMC3    C6 6442   1.502   0.821  11.894  0.2361 -0.6107 -0.2852
  432TMC3     C 6443   1.337   1.164  12.075 -0.0377  0.4100 -0.2078
  432TMC3     O 6444   1.362   1.268  12.019  0.1957  0.1319  0.0829
  432TMC3     H 6445   1.416   1.135  11.821  2.4133  1.1246  2.1145
  432TMC3    H1 6446   1.398   0.944  12.184  0.4609  1.9095  0.3435
  432TMC3    H2 6447   1.552   0.731  11.860  0.2216 -0.4755 -0.6619
  432TMC3    C7 6448   1.500   0.705  12.111  0.0968  0.2428 -1.1894
  432TMC3    C8 6449   1.533   0.921  11.679 -0.4180  0.5159 -0.4613
  432TMC3    O1 6450   1.588   0.625  12.070 -0.3560 -0.2352 -0.1106
  432TMC3    O2 6451   1.544   0.815  11.620  0.2500  0.1740  0.3996
  433MPD2     C 6452   0.631   0.229  10.644 -0.0853 -0.3404 -0.0570
  433MPD2    C1 6453   0.527   0.151  10.693  0.4179  0.6088 -0.6534
  433MPD2    C2 6454   0.466   0.183  10.818 -0.1841  0.7900  0.2096
  433MPD2    C3 6455   0.505   0.301  10.888  0.2610 -0.7503  0.0264
  433MPD2    C4 6456   0.616   0.363  10.843 -0.6033 -0.3082 -0.2047
  433MPD2    C5 6457   0.682   0.328  10.724 -0.1816  0.0649 -0.1065
  433MPD2     H 6458   0.386   0.128  10.866  0.9084  0.3858  1.5727
  433MPD2    H1 6459   0.653   0.449  10.897  0.7693 -0.9718 -0.0712
  433MPD2    H2 6460   0.674   0.220  10.545 -0.8234 -0.9719 -0.3289
  433MPD2    H3 6461   0.768   0.387  10.695  0.6258  0.0006  2.1635
  433MPD2     N 6462   0.450   0.319  11.020  0.3022 -0.2154 -0.6782
  433MPD2    H5 6463   0.381   0.254  11.056  2.1874 -1.4594  0.6935
  433MPD2    N1 6464   0.487   0.027  10.635 -0.0433  0.1123 -0.5809
  433MPD2    H7 6465   0.436   4.684  10.697 -0.6910  0.3986 -0.8248
  434TMC3    C1 6466   0.537   4.554  10.527  0.0625  0.2878  0.6052
  434TMC3    C2 6467   0.589   4.496  10.640  0.6025  0.2017 -0.3698
  434TMC3    C3 6468   0.643   4.372  10.638 -0.7165  0.0585 -0.9486
  434TMC3    C4 6469   0.549   4.496  10.405  0.6056 -0.0718 -0.5939
  434TMC3    C5 6470   0.591   4.365  10.404  0.1465 -0.0938  0.5131
  434TMC3    C6 6471   0.646   4.295  10.516 -0.5330 -0.2229 -0.5229
  434TMC3     C 6472   0.524   4.696  10.519 -0.4376  0.0151  0.4399
  434TMC3     O 6473   0.565   0.028  10.417  0.2321 -0.0948 -0.2457
  434TMC3     H 6474   0.598   4.551  10.733  1.6970 -0.2294 -0.2224
  434TMC3    H1 6475   0.500   4.540  10.319 -0.1946  2.9720  1.4348
  434TMC3    H2 6476   0.654   4.187  10.511 -0.8625 -0.2284 -0.9368
  434TMC3    C7 6477   0.573   4.285  10.284  0.2159 -0.1103 -0.3588
  434TMC3    C8 6478   0.708   4.310  10.759 -0.3572 -0.5970  0.2218
  434TMC3    O1 6479   0.498   4.331  10.198 -0.2920 -0.6931 -0.5217
  434TMC3    O2 6480   0.672   4.358  10.864  0.9702  0.0656  0.5640
  435MPD2     C 6481   2.509   0.003  15.604 -0.5350  0.2296 -0.2672
  435MPD2    C1 6482   2.482   4.668  15.734 -0.0145 -0.2421  0.5706
  435MPD2    C2 6483   2.584   4.607  15.802  0.2279  0.5761  0.5142
  435MPD2    C3 6484   2.716   4.598  15.749 -0.1940 -0.2243  0.6542
  435MPD2    C4 6485   2.738   4.638  15.622  0.6091  0.3670 -0.1890
  435MPD2    C5 6486   2.639   4.706  15.556 -0.5166  0.0776  0.2814
  435MPD2     H 6487   2.570   4.572  15.903  0.5412 -2.2817 -0.4352
  435MPD2    H1 6488   2.844   4.640  15.600 -0.2149  2.4256 -4.0044
  435MPD2    H2 6489   2.433   0.053  15.544 -1.6343 -2.0157 -0.7324
  435MPD2    H3 6490   2.663   0.034  15.461  1.8466  0.6689  1.1670
  435MPD2     N 6491   2.810   4.519  15.816  0.2268  0.2376  0.0020
  435MPD2    H5 6492   2.785   4.485  15.908  1.2839  1.1292  0.6208
  435MPD2    N1 6493   2.351   4.653  15.792 -0.3565 -0.3018 -0.2386
  435MPD2    H7 6494   2.345   4.598  15.878  0.0984  0.7337  0.4488
  436TMC3    C1 6495   2.029   4.488  15.932 -0.7077 -0.0719  0.6770
  436TMC3    C2 6496   2.111   4.592  15.913  0.3558  0.3354 -0.1117
  436TMC3    C3 6497   2.120   4.652  15.789 -0.5998 -0.4618  0.1149
  436TMC3    C4 6498   1.956   4.433  15.832  0.9389  0.4098 -0.6729
  436TMC3    C5 6499   1.958   4.504  15.711  0.3949 -0.8481  0.4042
  436TMC3    C6 6500   2.045   4.610  15.686 -0.7132  0.0058  0.2948
  436TMC3     C 6501   2.000   4.442  16.062  0.3452 -0.4311 -0.0705
  436TMC3     O 6502   1.967   4.328  16.077 -0.0875  0.5506  0.2581
  436TMC3     H 6503   2.166   4.635  15.996  2.5391 -1.1343 -0.7831
  436TMC3    H1 6504   1.893   4.346  15.845  0.4242  0.8535 -0.1363
  436TMC3    H2 6505   2.057   4.651  15.586 -1.0547  0.9974  0.6582
  436TMC3    C7 6506   1.904   4.428  15.601 -0.4918  0.5533 -0.4346
  436TMC3    C8 6507   2.234   4.719  15.744  0.2890  0.0203 -0.2512
  436TMC3    O1 6508   1.824   4.341  15.624  0.0130  0.1259  0.1079
  436TMC3    O2 6509   2.222   0.085  15.654 -0.3584  0.1846 -0.5285
  437TMC3    C1 6510   1.041   1.862  12.497 -0.0661 -0.6165 -0.2368
  437TMC3    C2 6511   0.972   1.937  12.588  0.1004 -0.0754 -0.0715
  437TMC3    C3 6512   0.872   2.020  12.545 -0.4431  0.5531 -0.4422
  437TMC3    C4 6513   1.012   1.873  12.366 -0.0861 -0.2063 -0.3168
  437TMC3    C5 6514   0.918   1.958  12.320  0.7523  0.2105  0.2774
  437TMC3    C6 6515   0.846   2.034  12.412 -0.3921 -0.5803  0.0947
  437TMC3     C 6516   1.183   1.860  12.529  0.2250 -0.8888  0.1914
  437TMC3     O 6517   1.258   1.897  12.443  0.0250 -0.0525  0.1693
  437TMC3     H 6518   0.990   1.937  12.695  1.2381 -4.8624 -0.2883
  437TMC3    H1 6519   1.070   1.818  12.293 -1.9002 -0.2807 -1.6815
  437TMC3    H2 6520   0.772   2.108  12.382  0.3264  0.2865  0.4613
  437TMC3    C7 6521   0.974   2.038  12.211  0.0141  0.7166 -0.1588
  437TMC3    C8 6522   0.797   2.094  12.645  0.2424 -0.1270  1.2405
  437TMC3    O1 6523   0.903   2.119  12.153  0.7878 -0.3819  0.6330
  437TMC3    O2 6524   0.798   2.043  12.754 -0.1701  0.3603 -0.4167
  438MPD2     C 6525   3.300   2.486  16.582  0.1105 -0.0666 -0.0407
  438MPD2    C1 6526   3.421   2.428  16.592 -1.1551  0.4512 -0.9628
  438MPD2    C2 6527   3.445   2.336  16.693  0.3762  0.1383  0.3373
  438MPD2    C3 6528   3.349   2.301  16.788 -0.2434  0.5325  0.4899
  438MPD2    C4 6529   3.225   2.357  16.774 -0.2675 -0.8316  0.0218
  438MPD2    C5 6530   3.201   2.439  16.669  0.3488 -0.5351 -0.0017
  438MPD2     H 6531   3.544   2.292  16.692 -0.3081 -1.4031  0.8873
  438MPD2    H1 6532   3.144   2.317  16.834  0.7002 -1.9687  0.5822
  438MPD2    H2 6533   3.284   2.570  16.514 -0.7059 -0.8447 -0.8175
  438MPD2    H3 6534   3.105   2.488  16.658  0.8147  0.5937  1.0223
  438MPD2     N 6535   3.364   2.210  16.890  0.3625  0.0449 -0.1140
  438MPD2    H5 6536   3.287   2.185  16.952 -1.0190  1.7507 -1.1522
  438MPD2    N1 6537   3.530   2.469  16.518 -0.8265 -0.4137 -0.4878
  438MPD2    H7 6538   3.622   2.440  16.550  0.0284  2.2094 -0.6373
  439TMC3    C1 6539   3.647   2.594  16.355 -0.2573  0.1920 -0.3767
  439TMC3    C2 6540   3.661   2.581  16.222 -0.0925  0.2576 -0.5012
  439TMC3    C3 6541   3.792   2.579  16.181  0.0810 -0.7121 -0.4256
  439TMC3    C4 6542   3.751   2.608  16.446  0.8467 -0.4123  0.0469
  439TMC3    C5 6543   3.873   2.600  16.396 -0.1496  0.2125 -0.4517
  439TMC3    C6 6544   3.893   2.574  16.266  0.5919  0.3223 -0.4207
  439TMC3     C 6545   3.519   2.550  16.408  0.1907  0.3573  0.1671
  439TMC3     O 6546   3.421   2.575  16.337 -0.4192 -0.3790 -0.5370
  439TMC3     H 6547   3.579   2.553  16.157  0.7191 -2.1447 -0.4979
  439TMC3    H1 6548   3.735   2.621  16.553  2.8121 -1.6615  0.5006
  439TMC3    H2 6549   3.996   2.574  16.234  0.4607  0.5743 -0.8374
  439TMC3    C7 6550   3.979   2.596  16.488  0.0747 -0.1520  0.1383
  439TMC3    C8 6551   3.805   2.543  16.044 -0.0437  0.1435  0.5624
  439TMC3    O1 6552   3.953   2.566  16.603  0.1203 -0.1804 -0.5879
  439TMC3    O2 6553   3.724   2.587  15.964 -0.1734  0.1507 -0.3556
  440MPD2     C 6554   2.373   3.082  14.395  0.7141  0.5620 -0.8183
  440MPD2    C1 6555   2.286   3.040  14.490  0.0116 -0.0598 -1.1378
  440MPD2    C2 6556   2.276   2.909  14.528 -0.0607 -1.2873  0.6929
  440MPD2    C3 6557   2.360   2.812  14.481 -0.1012 -0.1858  0.7027
  440MPD2    C4 6558   2.456   2.852  14.385 -0.1020  0.6386 -0.2795
  440MPD2    C5 6559   2.463   2.985  14.354  0.3269 -0.0402 -0.4573
  440MPD2     H 6560   2.187   2.880  14.583 -2.4100 -1.8900 -3.3940
  440MPD2    H1 6561   2.526   2.780  14.342  0.7818  1.6731 -0.5820
  440MPD2    H2 6562   2.369   3.185  14.362  1.6027  1.0666  0.6738
  440MPD2    H3 6563   2.537   3.034  14.293  0.6228  2.0890  1.6041
  440MPD2     N 6564   2.360   2.681  14.514 -0.2043 -0.3305 -0.4015
  440MPD2    H5 6565   2.416   2.610  14.468  1.6078  0.0553  1.2136
  440MPD2    N1 6566   2.185   3.120  14.546 -0.1297 -0.1215 -0.0325
  440MPD2    H7 6567   2.115   3.066  14.594 -0.6525 -0.7957 -1.5665
  441TMC3    C1 6568   2.349   2.494  14.654 -0.9335 -0.5307  0.6204
  441TMC3    C2 6569   2.465   2.449  14.590  0.1409 -1.2348  0.9293
  441TMC3    C3 6570   2.542   2.372  14.671 -0.1144 -0.1631 -0.1323
  441TMC3    C4 6571   2.310   2.450  14.783  0.1841 -0.6202  0.0105
  441TMC3    C5 6572   2.387   2.367  14.851  0.6594  0.4173  0.3439
  441TMC3    C6 6573   2.507   2.331  14.796  1.0736 -0.0208  0.1387
  441TMC3     C 6574   2.292   2.619  14.614 -0.3534  0.5440  0.0315
  441TMC3     O 6575   2.204   2.670  14.687  0.2494 -0.3721  0.0801
  441TMC3     H 6576   2.515   2.480  14.499 -0.0261 -0.1127  1.2296
  441TMC3    H1 6577   2.211   2.473  14.821 -0.1566  0.1599 -1.3536
  441TMC3    H2 6578   2.583   2.279  14.853  0.1427 -0.5782  0.8583
  441TMC3    C7 6579   2.364   2.359  14.984 -1.0375  0.4287  0.7751
  441TMC3    C8 6580   2.685   2.395  14.662 -0.3459 -0.1882  0.3594
  441TMC3    O1 6581   2.319   2.454  15.047 -0.2085  0.0804  0.2064
  441TMC3    O2 6582   2.737   2.352  14.559 -0.2852  0.1819 -0.1599
  442MPD2     C 6583   1.044   3.533  16.746  0.1028 -0.2971  0.5466
  442MPD2    C1 6584   0.907   3.529  16.731  0.2873  0.3801 -0.5973
  442MPD2    C2 6585   0.842   3.413  16.689  0.5036 -0.2833 -0.0683
  442MPD2    C3 6586   0.919   3.312  16.626 -0.2823  0.4135  0.1010
  442MPD2    C4 6587   1.056   3.316  16.635 -0.8361 -0.1485  0.3216
  442MPD2    C5 6588   1.119   3.427  16.692 -0.9783 -0.2723  0.7990
  442MPD2     H 6589   0.734   3.407  16.695  0.6564 -3.6888 -0.3114
  442MPD2    H1 6590   1.114   3.241  16.581 -0.0585  0.6076  0.1092
  442MPD2    H2 6591   1.099   3.622  16.774  3.6774 -1.7531 -1.8153
  442MPD2    H3 6592   1.226   3.430  16.708 -0.8602 -0.1600  0.0063
  442MPD2     N 6593   0.863   3.209  16.556 -0.3722  0.2116 -0.0668
  442MPD2    H5 6594   0.935   3.138  16.543 -0.7192  0.2781 -2.2637
  442MPD2    N1 6595   0.822   3.639  16.768  0.2244 -0.1413 -0.1788
  442MPD2    H7 6596   0.723   3.623  16.754 -0.1482  0.0601  2.1719
  443TMC3    C1 6597   0.748   3.853  16.849 -0.5177 -0.2660 -0.8705
  443TMC3    C2 6598   0.744   3.975  16.791  0.0722  0.0943 -0.9683
  443TMC3    C3 6599   0.621   4.038  16.773  0.1816  0.0303  0.7548
  443TMC3    C4 6600   0.640   3.794  16.911  0.0429  0.1107  0.4086
  443TMC3    C5 6601   0.520   3.869  16.909  0.0913 -0.1791 -0.2719
  443TMC3    C6 6602   0.516   3.982  16.838 -0.2765 -0.3801  0.0831
  443TMC3     C 6603   0.866   3.766  16.813 -0.0401 -0.2050  0.2994
  443TMC3     O 6604   0.972   3.822  16.788 -0.1775 -0.7811  0.2732
  443TMC3     H 6605   0.837   4.013  16.750  1.1832 -3.0854 -1.3356
  443TMC3    H1 6606   0.661   3.697  16.954 -0.9660 -1.8462 -3.4940
  443TMC3    H2 6607   0.423   4.038  16.835  0.3992  0.6369 -2.0001
  443TMC3    C7 6608   0.400   3.820  16.960 -0.2291 -0.4423 -1.0028
  443TMC3    C8 6609   0.586   4.108  16.654 -0.4521 -0.1197  0.2137
  443TMC3    O1 6610   0.302   3.884  16.919  0.0599  0.3377  0.2351
  443TMC3    O2 6611   0.470   4.099  16.621 -0.7185  0.1097  0.1236
  444MPD2     C 6612   1.267   2.940  17.364  0.4225 -0.0136  0.3797
  444MPD2    C1 6613   1.198   2.870  17.270  0.0110  0.0110  0.1934
  444MPD2    C2 6614   1.257   2.756  17.217  0.2290  1.0432 -0.5252
  444MPD2    C3 6615   1.386   2.719  17.246  0.1739  0.0352  0.2277
  444MPD2    C4 6616   1.453   2.792  17.339  0.7184 -0.2759  0.6381
  444MPD2    C5 6617   1.391   2.899  17.404 -0.2048 -1.0143 -0.0279
  444MPD2     H 6618   1.198   2.694  17.150 -0.9357 -1.0116  2.4362
  444MPD2    H1 6619   1.561   2.783  17.352  0.9895  2.7425  0.2793
  444MPD2    H2 6620   1.221   3.030  17.403  0.9098  0.0215  0.8731
  444MPD2    H3 6621   1.448   2.972  17.459  0.7498 -1.2870 -0.6636
  444MPD2     N 6622   1.435   2.597  17.191  0.3679  0.3051  0.1595
  444MPD2    H5 6623   1.368   2.550  17.130  0.5066  3.6519 -2.5847
  444MPD2    N1 6624   1.060   2.885  17.234 -0.3290  0.0594  0.4613
  444MPD2    H7 6625   1.030   2.820  17.162  0.0714 -0.4871  0.7822
  445TMC3    C1 6626   1.590   2.453  17.099  0.1603  0.1710 -0.6336
  445TMC3    C2 6627   1.503   2.341  17.116  0.5175 -0.4427  0.6996
  445TMC3    C3 6628   1.536   2.222  17.052 -0.4693  0.1216 -0.2214
  445TMC3    C4 6629   1.712   2.436  17.033 -0.8491  0.1840 -0.1677
  445TMC3    C5 6630   1.733   2.309  16.977  0.5839 -0.4174  0.5587
  445TMC3    C6 6631   1.649   2.203  16.979 -1.2076 -0.2416  0.5245
  445TMC3     C 6632   1.567   2.575  17.173 -0.5880 -0.3417  0.2634
  445TMC3     O 6633   1.665   2.654  17.186 -0.2851  0.1972 -0.2005
  445TMC3     H 6634   1.429   2.336  17.195 -1.6139  1.3385 -1.2111
  445TMC3    H1 6635   1.781   2.519  17.027 -0.5025  0.0179  1.4954
  445TMC3    H2 6636   1.671   2.109  16.929  1.8738  1.5192 -1.4003
  445TMC3    C7 6637   1.824   2.314  16.871  0.4981 -0.1878 -0.0574
  445TMC3    C8 6638   1.506   2.111  17.140  0.3255  1.1543 -0.2019
  445TMC3    O1 6639   1.835   2.427  16.829  0.3515  0.6180 -0.1927
  445TMC3    O2 6640   1.605   2.055  17.177 -0.5715 -0.4780  0.7507
  446MPD2     C 6641   0.434   4.136  11.297  0.8972 -0.1211  0.4083
  446MPD2    C1 6642   0.406   4.186  11.171  0.9360 -0.0387 -1.0270
  446MPD2    C2 6643   0.477   4.296  11.121 -0.0736 -0.2909  0.3088
  446MPD2    C3 6644   0.591   4.348  11.193  0.2207 -0.0549  0.1639
  446MPD2    C4 6645   0.611   4.299  11.323 -0.2659  0.0139 -0.4109
  446MPD2    C5 6646   0.532   4.197  11.375 -1.2354 -0.2512  0.0118
  446MPD2     H 6647   0.472   4.338  11.021 -0.9269 -1.0397  0.0371
  446MPD2    H1 6648   0.687   4.330  11.393  0.0521 -1.5207 -0.0627
  446MPD2    H2 6649   0.390   4.047  11.341 -1.2917  0.0844 -1.3690
  446MPD2    H3 6650   0.547   4.159  11.476  1.3719 -0.4279 -0.4603
  446MPD2     N 6651   0.670   4.453  11.134 -0.3622  0.4412  0.0114
  446MPD2    H5 6652   0.648   4.478  11.039  1.8026 -1.7097 -1.0505
  446MPD2    N1 6653   0.328   4.113  11.078  0.3353 -0.2855 -0.4786
  446MPD2    H7 6654   0.330   4.152  10.984  2.2897  0.4025 -0.1393
  447TMC3    C1 6655   0.872   4.590  11.109 -1.0523  0.3786 -1.1358
  447TMC3    C2 6656   0.850   4.592  10.970 -0.1563  0.2213  0.0125
  447TMC3    C3 6657   0.962   4.616  10.891  0.0171 -0.1751  0.7948
  447TMC3    C4 6658   0.997   4.606  11.160 -0.5268 -0.1617  0.3556
  447TMC3    C5 6659   1.102   4.606  11.078 -1.3667 -0.1560  0.2076
  447TMC3    C6 6660   1.083   4.610  10.942 -0.1392  0.0481  0.3190
  447TMC3     C 6661   0.787   4.501  11.191  0.6322 -0.0450  0.6274
  447TMC3     O 6662   0.836   4.470  11.302 -0.2701  0.1354 -0.2052
  447TMC3     H 6663   0.755   4.602  10.920 -0.3513 -3.8871 -0.4425
  447TMC3    H1 6664   1.023   4.630  11.263 -0.0188 -0.4865  0.3044
  447TMC3    H2 6665   1.170   4.626  10.879 -1.0738  1.2892 -0.6582
  447TMC3    C7 6666   1.230   4.556  11.120 -0.7422 -0.5908 -0.7189
  447TMC3    C8 6667   0.959   4.581  10.746  0.1006  0.0199 -0.1297
  447TMC3    O1 6668   1.313   4.555  11.032 -0.4683  0.0749  0.1358
  447TMC3    O2 6669   0.863   4.620  10.684 -0.6857  0.5601  0.4989
  448TMC3    C1 6670   3.668   4.485  17.199 -0.5545  0.5038  0.0849
  448TMC3    C2 6671   3.738   4.453  17.085  0.1352  0.7795 -0.1018
  448TMC3    C3 6672   3.835   4.357  17.095 -0.2005 -0.0059  0.1492
  448TMC3    C4 6673   3.672   4.406  17.307  0.0942 -0.6882 -0.3306
  448TMC3    C5 6674   3.762   4.311  17.319 -0.3429 -0.3745 -0.9737
  448TMC3    C6 6675   3.832   4.281  17.210  0.2402 -0.1576 -0.1158
  448TMC3     C 6676   3.576   4.593  17.189 -0.2204  0.3518 -0.0847
  448TMC3     O 6677   3.607   4.699  17.139  0.3939 -0.4421  0.3786
  448TMC3     H 6678   3.723   4.520  17.001  0.5779 -1.1060 -1.6906
  448TMC3    H1 6679   3.622   4.432  17.400  2.0400 -1.3825  0.9016
  448TMC3    H2 6680   3.894   4.191  17.212 -1.6059 -1.4099  0.5760
  448TMC3    C7 6681   3.772   4.215  17.432  0.4300 -0.4708  0.6743
  448TMC3    C8 6682   3.910   4.315  16.979  0.0445  0.3930  0.0653
  448TMC3    O1 6683   3.819   4.103  17.423  0.0340  0.1205 -0.0409
  448TMC3    O2 6684   3.955   4.197  16.985 -0.3883  0.2274  0.3688
  449MPD2     C 6685   0.275   1.944  13.958 -0.5568  0.2237  0.1408
  449MPD2    C1 6686   0.143   1.962  13.921 -0.4398 -0.2015  0.0925
  449MPD2    C2 6687   0.073   2.068  13.978  0.4826  0.5515  0.0607
  449MPD2    C3 6688   0.119   2.142  14.081 -0.1986  0.1939  1.1210
  449MPD2    C4 6689   0.248   2.122  14.120 -0.0407 -1.1345  0.1600
  449MPD2    C5 6690   0.323   2.027  14.059  0.0456 -0.9665  0.5712
  449MPD2     H 6691   4.693   2.091  13.941  0.3400  1.3563  0.9596
  449MPD2    H1 6692   0.293   2.192  14.189  0.3169  0.7991 -2.0204
  449MPD2    H2 6693   0.349   1.877  13.916 -0.5633  1.1802 -1.3841
  449MPD2    H3 6694   0.426   2.019  14.092  0.4896 -1.1375 -0.8668
  449MPD2     N 6695   0.034   2.234  14.136  0.3420 -0.3829  0.1550
  449MPD2    H5 6696   4.659   2.226  14.100  0.7346  0.5876 -1.0925
  449MPD2    N1 6697   0.073   1.897  13.816  0.5064  0.5901  0.2556
  449MPD2    H7 6698   4.705   1.939  13.788  0.6661  0.5771 -0.2542
  450TMC3    C1 6699   0.014   1.749  13.644 -0.3431  0.4320  1.1137
  450TMC3    C2 6700   0.060   1.690  13.532 -0.0255  0.2652 -0.2241
  450TMC3    C3 6701   4.706   1.707  13.420  0.2290 -0.6108 -0.6363
  450TMC3    C4 6702   4.612   1.816  13.653 -1.1459  0.5067  0.2379
  450TMC3    C5 6703   4.544   1.835  13.536  0.0388 -0.2188  0.0843
  450TMC3    C6 6704   4.589   1.778  13.420 -0.2685  0.5859  0.5345
  450TMC3     C 6705   0.120   1.794  13.740 -0.5437  0.5421 -0.2691
  450TMC3     O 6706   0.225   1.739  13.738  0.7614  0.6380  0.5976
  450TMC3     H 6707   0.156   1.639  13.528 -0.1450  0.0057  0.2859
  450TMC3    H1 6708   4.570   1.833  13.751 -1.5876  0.5761  0.0354
  450TMC3    H2 6709   4.536   1.794  13.327  1.3051  1.6875 -0.1566
  450TMC3    C7 6710   4.417   1.908  13.542 -0.0194 -0.3612  0.0599
  450TMC3    C8 6711   0.055   1.705  13.293 -0.3013 -0.7839 -0.6422
  450TMC3    O1 6712   4.326   1.881  13.465  0.6944 -0.6999  0.0679
  450TMC3    O2 6713   4.708   1.665  13.200 -0.0032  1.0645  0.0964
  451MPD2     C 6714   1.326   0.963   0.843  0.0093 -0.0802  0.4054
  451MPD2    C1 6715   1.316   0.998   0.976 -0.0507  0.7260 -0.7556
  451MPD2    C2 6716   1.381   0.917   1.071 -0.0905  0.8801  0.2291
  451MPD2    C3 6717   1.466   0.817   1.034 -0.4020  0.2169  0.3384
  451MPD2    C4 6718   1.474   0.782   0.893  0.6146  0.0777  0.9722
  451MPD2    C5 6719   1.407   0.856   0.800 -0.2739 -0.4320  0.2005
  451MPD2     H 6720   1.355   0.924   1.176  0.4920  0.8563  0.3719
  451MPD2    H1 6721   1.537   0.703   0.852  1.6980  1.9793 -1.0280
  451MPD2    H2 6722   1.265   1.026   0.778  1.4432  0.8681 -0.0402
  451MPD2    H3 6723   1.418   0.835   0.694  0.8468 -1.1187  0.4525
  451MPD2     N 6724   1.544   0.745   1.126 -0.0380 -0.1578  0.7872
  451MPD2    H5 6725   1.591   0.664   1.085 -0.3341  0.1727 -0.2141
  451MPD2    N1 6726   1.225   1.104   1.008 -0.1552  0.5718 -0.3208
  451MPD2    H7 6727   1.180   1.149   0.929  0.0389 -1.6771 -1.7403
  452TMC3    C1 6728   1.626   0.671   1.340  0.4014  0.8489 -0.3653
  452TMC3    C2 6729   1.627   0.682   1.477  0.1269 -0.4935  0.3111
  452TMC3    C3 6730   1.690   0.584   1.550  0.4451  0.2762  0.0963
  452TMC3    C4 6731   1.713   0.582   1.278  0.4712  0.6106  0.4385
  452TMC3    C5 6732   1.776   0.490   1.355 -0.2529 -0.0343  0.6561
  452TMC3    C6 6733   1.768   0.484   1.491 -0.0134  0.1692  0.4825
  452TMC3     C 6734   1.533   0.753   1.266 -1.0916 -0.5146  0.0542
  452TMC3     O 6735   1.477   0.836   1.335 -0.2419  0.4512 -0.2913
  452TMC3     H 6736   1.560   0.754   1.523 -1.9048 -1.2162 -1.5455
  452TMC3    H1 6737   1.708   0.561   1.172 -0.3337 -0.5419  0.7161
  452TMC3    H2 6738   1.814   0.401   1.543  1.9259  1.6820  1.1953
  452TMC3    C7 6739   1.863   0.388   1.286 -0.1129 -0.8648  0.1598
  452TMC3    C8 6740   1.661   0.575   1.695 -0.1856 -0.1056 -0.6098
  452TMC3    O1 6741   1.908   0.408   1.173 -0.0305 -0.3372  0.2595
  452TMC3    O2 6742   1.638   0.671   1.764 -0.0616 -0.2528 -0.0765
  453TMC3    C1 6743   2.539   3.255  11.617  1.1113 -0.0219  0.2303
  453TMC3    C2 6744   2.434   3.197  11.696  0.3419 -0.4897 -0.2069
  453TMC3    C3 6745   2.345   3.119  11.621 -0.1576  0.1670  0.2876
  453TMC3    C4 6746   2.528   3.258  11.479 -0.1307  0.0487  0.2075
  453TMC3    C5 6747   2.429   3.192  11.416 -0.2549 -0.5375 -0.3717
  453TMC3    C6 6748   2.343   3.114  11.487 -0.1552  0.3127  0.1885
  453TMC3     C 6749   2.665   3.300  11.676 -0.8454  0.6709 -0.2541
  453TMC3     O 6750   2.749   3.352  11.597 -0.3450 -0.0598  0.3835
  453TMC3     H 6751   2.438   3.197  11.804 -1.4101  1.4364 -0.1356
  453TMC3    H1 6752   2.603   3.310  11.420 -1.4542  0.2978 -1.2755
  453TMC3    H2 6753   2.273   3.051  11.432  0.7691 -2.8162  2.6612
  453TMC3    C7 6754   2.422   3.188  11.278  0.3822  0.2320  0.1791
  453TMC3    C8 6755   2.297   2.994  11.674 -0.2328 -0.1145 -0.0050
  453TMC3    O1 6756   2.314   3.207  11.222  0.0628 -0.0475  0.4552
  453TMC3    O2 6757   2.282   2.994  11.793 -0.0084  0.5686  0.1708
  454MPD2     C 6758   1.377   2.255  16.583  0.2789  0.4470 -0.2211
  454MPD2    C1 6759   1.267   2.198  16.519  0.0504  0.1027 -0.0423
  454MPD2    C2 6760   1.146   2.200  16.573  0.2171 -0.0577 -0.7563
  454MPD2    C3 6761   1.121   2.262  16.695  0.0380  0.1360 -0.4227
  454MPD2    C4 6762   1.231   2.313  16.764  0.6483 -0.2310  0.6328
  454MPD2    C5 6763   1.356   2.316  16.707 -0.4547 -0.8740 -0.9420
  454MPD2     H 6764   1.062   2.161  16.517 -1.5141  1.0603  1.0713
  454MPD2    H1 6765   1.224   2.359  16.862 -0.8422  1.7858 -0.4123
  454MPD2    H2 6766   1.477   2.250  16.543  0.6649 -1.3577  1.0044
  454MPD2    H3 6767   1.443   2.354  16.760 -1.4899 -1.8118  1.4417
  454MPD2     N 6768   0.995   2.292  16.736 -0.1200 -0.0852  0.1503
  454MPD2    H5 6769   0.989   2.360  16.811 -0.1711  0.4946 -0.3723
  454MPD2    N1 6770   1.273   2.137  16.387  0.0963  0.0862  0.1537
  454MPD2    H7 6771   1.184   2.100  16.356 -0.0698  0.7317 -0.1390
  455TMC3    C1 6772   0.765   2.305  16.712  0.0185 -0.2146 -1.0092
  455TMC3    C2 6773   0.795   2.432  16.753  0.4757  0.2042  0.5988
  455TMC3    C3 6774   0.728   2.535  16.694 -0.5794  0.7656 -0.8843
  455TMC3    C4 6775   0.679   2.280  16.605  0.1636  0.2838  0.2484
  455TMC3    C5 6776   0.624   2.394  16.546  0.0523  0.8979  0.3396
  455TMC3    C6 6777   0.640   2.520  16.595 -0.1910  0.1016  0.0908
  455TMC3     C 6778   0.884   2.224  16.691  0.4687  0.7395 -0.0950
  455TMC3     O 6779   0.871   2.107  16.655 -0.5238 -0.3794  0.1827
  455TMC3     H 6780   0.855   2.447  16.842 -0.0306  0.5205  0.8914
  455TMC3    H1 6781   0.677   2.182  16.558 -1.2348  0.4071  0.0492
  455TMC3    H2 6782   0.606   2.603  16.533 -1.3799  0.9790  1.9396
  455TMC3    C7 6783   0.598   2.373  16.403 -0.6368 -0.0784  0.0126
  455TMC3    C8 6784   0.771   2.666  16.744  0.6254 -0.0357 -0.4924
  455TMC3    O1 6785   0.618   2.264  16.356  0.1627 -0.2419  0.2785
  455TMC3    O2 6786   0.885   2.674  16.782  0.6678  0.5642  0.0099
  456MPD2     C 6787   4.001   3.463  15.731  0.3581  0.2193  0.0600
  456MPD2    C1 6788   4.042   3.396  15.846 -0.5340  0.8439  0.3897
  456MPD2    C2 6789   4.009   3.449  15.966  0.1734 -0.4073 -0.4044
  456MPD2    C3 6790   3.945   3.565  15.978 -0.2658 -0.1807 -0.0419
  456MPD2    C4 6791   3.893   3.629  15.867 -0.3205 -0.1861 -0.4709
  456MPD2    C5 6792   3.922   3.576  15.743 -0.0137 -0.3592 -0.2609
  456MPD2     H 6793   4.047   3.408  16.059  0.9401 -1.7652 -1.3181
  456MPD2    H1 6794   3.837   3.721  15.877 -2.0209 -0.8697 -3.6077
  456MPD2    H2 6795   4.034   3.425  15.635  0.9998  1.1314 -0.0762
  456MPD2    H3 6796   3.900   3.630  15.651  0.2529 -0.2534 -0.2604
  456MPD2     N 6797   3.941   3.609  16.113 -0.3215 -0.8410  0.3998
  456MPD2    H5 6798   3.979   3.548  16.185  0.2819  0.3862  1.1248
  456MPD2    N1 6799   4.117   3.272  15.823 -0.4441  0.0899 -0.4249
  456MPD2    H7 6800   4.136   3.242  15.728  0.4872  0.3024 -0.3148
  457TMC3    C1 6801   3.900   3.750  16.300 -0.5767 -0.1146 -0.7239
  457TMC3    C2 6802   3.973   3.852  16.360  0.0211  0.2000  0.0421
  457TMC3    C3 6803   3.996   3.842  16.490  0.1876 -1.0075 -0.2419
  457TMC3    C4 6804   3.861   3.643  16.374  0.1627 -0.2505  0.1162
  457TMC3    C5 6805   3.888   3.638  16.506  0.1326 -0.5016 -0.7172
  457TMC3    C6 6806   3.954   3.738  16.568 -0.1419  0.3891  0.0871
  457TMC3     C 6807   3.906   3.736  16.153  0.0170 -0.2039 -0.5195
  457TMC3     O 6808   3.877   3.837  16.086 -0.3817  0.6339 -0.5726
  457TMC3     H 6809   4.021   3.928  16.300  2.1224  0.0650  1.5737
  457TMC3    H1 6810   3.820   3.557  16.323 -1.8991  1.4204 -1.0261
  457TMC3    H2 6811   3.960   3.750  16.676  0.3540 -1.7437  0.3050
  457TMC3    C7 6812   3.846   3.536  16.603 -0.3369  0.1381 -0.9572
  457TMC3    C8 6813   3.999   3.964  16.570 -0.6525 -0.4171  0.2108
  457TMC3    O1 6814   3.894   3.542  16.712  0.0537  0.0008 -0.0236
  457TMC3    O2 6815   4.046   3.956  16.684 -0.0146  0.1972 -0.1635
  458MPD2     C 6816   1.388   2.324  12.077 -0.4363 -0.8618 -0.9819
  458MPD2    C1 6817   1.420   2.239  12.180 -0.0248  0.3824  0.1147
  458MPD2    C2 6818   1.321   2.158  12.230 -0.3070 -0.9857  1.1088
  458MPD2    C3 6819   1.199   2.149  12.175  0.5618 -0.4192 -0.5875
  458MPD2    C4 6820   1.168   2.222  12.067  0.1233  0.3703 -1.3232
  458MPD2    C5 6821   1.258   2.318  12.024 -0.2649  0.0459 -0.0046
  458MPD2     H 6822   1.340   2.091  12.313 -1.3679 -3.0861 -0.3429
  458MPD2    H1 6823   1.072   2.212  12.018 -1.2219  0.4214  1.3411
  458MPD2    H2 6824   1.464   2.385  12.030  0.1312  1.5213  2.9725
  458MPD2    H3 6825   1.225   2.395  11.955 -3.3306 -0.7047  0.6340
  458MPD2     N 6826   1.110   2.057  12.236  0.1293 -0.4646 -0.1925
  458MPD2    H5 6827   1.145   2.016  12.323  0.9906  1.1909  0.2498
  458MPD2    N1 6828   1.548   2.262  12.238 -0.3127  0.2126 -0.9284
  458MPD2    H7 6829   1.619   2.310  12.183 -0.1763 -1.4275 -2.1805
  459TMC3    C1 6830   1.721   2.233  12.391  0.3866 -0.2506  0.3292
  459TMC3    C2 6831   1.802   2.331  12.332 -0.4556  0.6676  0.5341
  459TMC3    C3 6832   1.929   2.354  12.397  0.6034 -0.0503  0.7951
  459TMC3    C4 6833   1.763   2.169  12.504  1.1137 -0.1515 -0.3200
  459TMC3    C5 6834   1.879   2.199  12.569  0.5092 -0.2344 -0.0810
  459TMC3    C6 6835   1.964   2.297  12.520  0.8540 -0.0125 -0.5621
  459TMC3     C 6836   1.586   2.223  12.364 -0.1430 -0.0211  0.4198
  459TMC3     O 6837   1.517   2.164  12.442 -0.0216  0.2382  1.0007
  459TMC3     H 6838   1.778   2.383  12.240  0.8972 -0.4636 -0.4507
  459TMC3    H1 6839   1.698   2.094  12.548 -1.6156  2.5020  0.1303
  459TMC3    H2 6840   2.050   2.327  12.578  0.3838 -1.5991  0.9466
  459TMC3    C7 6841   1.876   2.188  12.717  0.3642 -0.1918  0.0246
  459TMC3    C8 6842   2.018   2.452  12.340 -0.0618  0.3821  0.2658
  459TMC3    O1 6843   1.984   2.148  12.767 -0.5319  0.4504  0.1960
  459TMC3    O2 6844   2.139   2.434  12.360  0.8571 -0.9611  0.1832
  460MPD2     C 6845   1.175   4.338  10.577 -0.4826 -0.6830  0.3777
  460MPD2    C1 6846   1.070   4.425  10.588 -0.1128 -0.3112  0.3363
  460MPD2    C2 6847   0.990   4.443  10.476  0.0463 -0.3511  0.2382
  460MPD2    C3 6848   1.017   4.384  10.354  0.4698  0.1741  0.1750
  460MPD2    C4 6849   1.130   4.310  10.349  1.0677 -0.4626 -0.4271
  460MPD2    C5 6850   1.213   4.290  10.457  0.4680 -0.3579  0.1361
  460MPD2     H 6851   0.907   4.511  10.487 -0.2616 -0.6287 -0.3512
  460MPD2    H1 6852   1.161   4.267  10.255  1.1406  0.3798 -0.7863
  460MPD2    H2 6853   1.240   4.309  10.658 -0.9391  0.0970  1.0240
  460MPD2    H3 6854   1.308   4.239  10.445  0.7129  0.5691 -1.9095
  460MPD2     N 6855   0.936   4.400  10.237 -0.6476 -0.9811  0.4742
  460MPD2    H5 6856   0.858   4.465  10.247 -1.3768 -1.6349 -0.9659
  460MPD2    N1 6857   1.052   4.493  10.714  0.2137 -0.2511 -0.5830
  460MPD2    H7 6858   1.124   4.473  10.782 -0.1374  1.2656  0.2383
  461TMC3    C1 6859   0.846   4.346  10.020  0.6309 -0.0852 -0.2320
  461TMC3    C2 6860   0.847   4.269   9.907  0.4635  0.5450 -0.3141
  461TMC3    C3 6861   0.813   4.318   9.788  1.0998 -0.4434  0.3093
  461TMC3    C4 6862   0.807   4.481  10.014 -0.3357 -0.9535  0.7181
  461TMC3    C5 6863   0.766   4.534   9.892  0.8533  0.6805 -1.0969
  461TMC3    C6 6864   0.764   4.448   9.782 -0.1408 -0.0926 -0.2082
  461TMC3     C 6865   0.943   4.317  10.126 -0.6181  0.2564  0.3920
  461TMC3     O 6866   0.986   4.201  10.129 -0.6329 -0.0886  0.5921
  461TMC3     H 6867   0.877   4.165   9.917 -1.8736  0.0724  1.8807
  461TMC3    H1 6868   0.806   4.544  10.102  0.9389  2.5793 -1.8244
  461TMC3    H2 6869   0.714   4.488   9.695 -0.9601 -1.2294 -0.2653
  461TMC3    C7 6870   0.784   4.676   9.859 -0.1676 -0.2027 -0.8088
  461TMC3    C8 6871   0.853   4.254   9.674 -0.7372 -0.0155 -0.0823
  461TMC3    O1 6872   0.767   4.704   9.738 -0.2569 -0.4274  0.4130
  461TMC3    O2 6873   0.948   4.177   9.691 -0.4466  0.4260 -0.4575
  462TMC3    C1 6874   1.277   0.446   0.098  0.7920 -0.6353  0.3147
  462TMC3    C2 6875   1.243   0.382  17.658  0.1440 -0.6901 -0.8971
  462TMC3    C3 6876   1.111   0.356  17.636 -0.5390  0.5509  0.0697
  462TMC3    C4 6877   1.183   0.487   0.185 -0.7484 -0.1073  0.1977
  462TMC3    C5 6878   1.051   0.451   0.161  0.4955 -0.2063  0.3099
  462TMC3    C6 6879   1.016   0.390   0.046  0.8337 -0.0332  0.9142
  462TMC3     C 6880   1.411   0.439   0.148 -0.2516  0.6027 -0.5718
  462TMC3     O 6881   1.482   0.364   0.088  0.2552 -0.0149  0.3390
  462TMC3     H 6882   1.327   0.365  17.592 -1.8386 -2.2091 -3.0004
  462TMC3    H1 6883   1.199   0.549   0.273  1.7826 -2.4620  1.3653
  462TMC3    H2 6884   0.920   0.347   0.023 -0.0627  1.3619  2.0087
  462TMC3    C7 6885   0.950   0.510   0.243 -0.5198  0.0665  0.0688
  462TMC3    C8 6886   1.064   0.304  17.504  0.5697 -0.0683  0.4745
  462TMC3    O1 6887   0.976   0.620   0.301 -0.3620 -0.2385  0.1766
  462TMC3    O2 6888   0.945   0.319  17.471  0.5494  0.0643  0.1967
  463MPD2     C 6889   1.647   4.137   2.918 -0.2337  0.1780  0.0343
  463MPD2    C1 6890   1.725   4.100   2.808  0.2135  0.3987 -0.0227
  463MPD2    C2 6891   1.833   4.179   2.772  0.6201 -0.5860  0.1941
  463MPD2    C3 6892   1.851   4.312   2.819 -0.3359  0.3751 -0.3633
  463MPD2    C4 6893   1.777   4.348   2.927  0.8623 -0.3254  0.5107
  463MPD2    C5 6894   1.682   4.259   2.974  0.4931  0.5199  0.1021
  463MPD2     H 6895   1.902   4.143   2.696  3.3603 -1.2176  2.9769
  463MPD2    H1 6896   1.778   4.443   2.979 -0.1269  0.4836 -0.9580
  463MPD2    H2 6897   1.562   4.082   2.956  0.8714  0.2029  2.5436
  463MPD2    H3 6898   1.631   4.291   3.063  0.7218  0.1755  0.3570
  463MPD2     N 6899   1.953   4.401   2.771 -0.0935 -0.7695 -1.0345
  463MPD2    H5 6900   1.951   4.500   2.792  0.8335 -0.6703 -1.3985
  463MPD2    N1 6901   1.718   3.966   2.756  0.8274  0.0414  0.4401
  463MPD2    H7 6902   1.780   3.957   2.676 -0.1954 -3.7956  0.0635
  464TMC3    C1 6903   1.645   3.748   2.691  0.0603 -0.8568 -0.0564
  464TMC3    C2 6904   1.699   3.764   2.565 -0.3766 -0.1133  0.0493
  464TMC3    C3 6905   1.708   3.648   2.488 -0.0708  0.4859 -0.2624
  464TMC3    C4 6906   1.593   3.626   2.726 -1.0632  0.0330 -0.2359
  464TMC3    C5 6907   1.595   3.516   2.646 -0.9115  0.2959 -0.4890
  464TMC3    C6 6908   1.663   3.528   2.525  0.5247 -0.3333  0.1832
  464TMC3     C 6909   1.639   3.861   2.793  0.0234 -0.2208  0.0531
  464TMC3     O 6910   1.584   3.841   2.902  0.3040 -0.1849  0.2875
  464TMC3     H 6911   1.715   3.865   2.529  0.4409 -0.8172 -1.5375
  464TMC3    H1 6912   1.556   3.617   2.827 -0.4879  0.6836  0.0350
  464TMC3    H2 6913   1.678   3.438   2.466  2.4476 -0.0213  0.2046
  464TMC3    C7 6914   1.491   3.420   2.651 -0.4377  0.2535 -0.0017
  464TMC3    C8 6915   1.729   3.656   2.343  0.5229  1.2078 -0.2382
  464TMC3    O1 6916   1.432   3.406   2.757 -0.5514  1.0254  0.3047
  464TMC3    O2 6917   1.674   3.571   2.271  0.4218 -0.0657 -0.0228
  465MPD2     C 6918   3.550   2.892  16.601 -0.0715  0.0001 -0.2360
  465MPD2    C1 6919   3.415   2.854  16.622 -0.2551  0.1151 -0.2909
  465MPD2    C2 6920   3.321   2.882  16.529  0.4041 -0.0363 -0.2146
  465MPD2    C3 6921   3.349   2.934  16.404  0.6440 -0.6297 -0.0546
  465MPD2    C4 6922   3.484   2.956  16.375 -0.3842 -0.1992 -0.1470
  465MPD2    C5 6923   3.582   2.947  16.477 -0.2734 -0.2330 -0.2351
  465MPD2     H 6924   3.218   2.860  16.554  0.2607  1.2236  0.2993
  465MPD2    H1 6925   3.516   3.001  16.282 -1.9066 -1.4526 -1.2783
  465MPD2    H2 6926   3.630   2.878  16.673  0.0343 -1.6790 -0.6769
  465MPD2    H3 6927   3.683   2.979  16.451 -0.5712  0.5171 -0.4680
  465MPD2     N 6928   3.246   2.948  16.310 -0.1337  0.5044 -0.3085
  465MPD2    H5 6929   3.155   2.909  16.333  1.8824 -3.3670  1.0440
  465MPD2    N1 6930   3.377   2.783  16.738  0.0812  0.4986 -0.0706
  465MPD2    H7 6931   3.278   2.779  16.761  0.6569 -1.4251  2.1122
  466TMC3    C1 6932   2.907   2.947  16.109  0.3804 -0.6588  0.3384
  466TMC3    C2 6933   2.858   3.077  16.080 -0.6511 -0.0713  0.0253
  466TMC3    C3 6934   2.951   3.176  16.073 -0.5835 -0.0926  0.6634
  466TMC3    C4 6935   3.031   2.923  16.147 -0.0242  0.7319 -0.0175
  466TMC3    C5 6936   3.119   3.030  16.133 -0.1702 -0.3680 -0.0158
  466TMC3    C6 6937   3.080   3.156  16.102 -0.0343  0.5212 -0.3239
  466TMC3     C 6938   2.820   2.858  16.180 -0.7438 -0.1590  0.1550
  466TMC3     O 6939   2.867   2.778  16.259  0.2218 -0.2281  0.1773
  466TMC3     H 6940   2.753   3.100  16.065 -0.7898 -0.2367  0.7516
  466TMC3    H1 6941   3.059   2.825  16.186  0.1644  1.0829  0.7232
  466TMC3    H2 6942   3.147   3.241  16.111  1.9844 -1.2309  1.4430
  466TMC3    C7 6943   3.251   3.031  16.199  0.7970 -0.5981  0.0857
  466TMC3    C8 6944   2.919   3.319  16.079 -0.6128  0.0456  0.5519
  466TMC3    O1 6945   3.335   3.113  16.163 -0.0233 -0.1656 -0.7411
  466TMC3    O2 6946   2.993   3.390  16.013  0.2746 -0.1151  0.0776
  467TMC3    C1 6947   3.522   2.203  13.754 -0.1892  0.4022 -0.0641
  467TMC3    C2 6948   3.565   2.318  13.701 -0.5823 -0.2003 -0.7854
  467TMC3    C3 6949   3.504   2.363  13.589  0.6215  0.3348  0.5341
  467TMC3    C4 6950   3.424   2.131  13.695  0.6972  0.0565  0.7865
  467TMC3    C5 6951   3.373   2.176  13.576  0.1106  0.1499  0.5006
  467TMC3    C6 6952   3.412   2.296  13.518 -0.4979 -0.3036 -0.1378
  467TMC3     C 6953   3.631   2.125  13.813  0.4416 -0.1959  0.3367
  467TMC3     O 6954   3.718   2.189  13.864 -0.5778  0.6050 -0.2597
  467TMC3     H 6955   3.658   2.359  13.739 -1.0708 -0.0869  0.2764
  467TMC3    H1 6956   3.384   2.046  13.750  0.5983 -0.0891  0.4865
  467TMC3    H2 6957   3.371   2.340  13.428  0.2739 -0.8269 -0.7440
  467TMC3    C7 6958   3.252   2.131  13.517 -0.3301  0.2450 -0.5841
  467TMC3    C8 6959   3.581   2.466  13.518 -0.9268  0.3270 -0.1833
  467TMC3    O1 6960   3.188   2.217  13.459 -0.6682 -0.1316  0.6494
  467TMC3    O2 6961   3.518   2.546  13.452 -0.0555 -0.2539  0.4303
  468MPD2     C 6962   2.795   4.247  10.441 -0.9107  0.1139  0.2349
  468MPD2    C1 6963   2.789   4.281  10.569  0.7421 -0.4824 -0.5589
  468MPD2    C2 6964   2.793   4.185  10.667  0.1378  0.1368 -0.1303
  468MPD2    C3 6965   2.786   4.053  10.629 -0.2604  0.4223  0.0895
  468MPD2    C4 6966   2.774   4.023  10.494  0.2228  0.3190  0.4603
  468MPD2    C5 6967   2.792   4.119  10.398  0.1412  0.0052 -0.2384
  468MPD2     H 6968   2.803   4.218  10.770 -2.3787  0.3612  0.0614
  468MPD2    H1 6969   2.765   3.917  10.473  0.7324  0.4853 -0.5815
  468MPD2    H2 6970   2.812   4.316  10.359  3.7584  0.8509  1.8307
  468MPD2    H3 6971   2.784   4.094  10.293  1.3254  1.3193 -0.6353
  468MPD2     N 6972   2.782   3.941  10.727 -0.3604  0.2151 -0.3167
  468MPD2    H5 6973   2.778   3.846  10.690  1.0992  0.1001 -0.1908
  468MPD2    N1 6974   2.812   4.419  10.612 -0.0223 -0.4431 -0.7642
  468MPD2    H7 6975   2.817   4.427  10.713 -0.0259 -1.3936 -0.6883
  469TMC3    C1 6976   2.856   4.661  10.585  0.3524 -0.2416 -0.7221
  469TMC3    C2 6977   2.927   4.674  10.702 -0.4016  0.5192 -0.3400
  469TMC3    C3 6978   2.993   0.072  10.712 -0.3328 -0.2203 -0.4458
  469TMC3    C4 6979   2.833   0.046  10.495 -0.0349  0.2690 -0.1785
  469TMC3    C5 6980   2.901   0.164  10.515  0.6836 -0.0119 -0.5631
  469TMC3    C6 6981   2.988   0.177  10.616 -0.5388 -0.0938 -0.9345
  469TMC3     C 6982   2.816   4.531  10.534  0.1932 -0.8937 -0.4832
  469TMC3     O 6983   2.755   4.534  10.428 -0.0738  0.2391  0.1036
  469TMC3     H 6984   2.945   4.590  10.768 -0.0252  0.6287 -0.3040
  469TMC3    H1 6985   2.764   0.037  10.412 -0.1382 -1.4192  0.0908
  469TMC3    H2 6986   3.050   0.266  10.618  0.0437 -0.5665  1.3618
  469TMC3    C7 6987   2.888   0.268  10.416  0.1317 -0.1898 -0.3366
  469TMC3    C8 6988   3.097   0.081  10.812 -0.2549  0.7917  0.2496
  469TMC3    O1 6989   2.859   0.235  10.304  0.1202  0.5203 -0.0428
  469TMC3    O2 6990   3.209   0.132  10.780  0.2418  0.4522 -0.3485
  470TMC3    C1 6991   4.636   0.077   1.080  0.1847  0.2336  0.0317
  470TMC3    C2 6992   4.677   0.206   1.102 -0.2415  0.5762  0.4786
  470TMC3    C3 6993   0.039   0.232   1.213  0.0339  0.4698 -0.0103
  470TMC3    C4 6994   4.644   4.704   1.180  0.3578  0.3401 -0.2248
  470TMC3    C5 6995   4.715   0.019   1.298  0.5540  0.1419  1.0975
  470TMC3    C6 6996   0.051   0.139   1.311  0.3281 -0.3383  0.2594
  470TMC3     C 6997   4.602   0.035   0.945 -0.0958 -0.6868 -0.1049
  470TMC3     O 6998   4.635   0.114   0.860 -0.1828 -0.4977  0.6040
  470TMC3     H 6999   4.665   0.282   1.025 -0.7656 -0.4459 -0.4413
  470TMC3    H1 7000   4.615   4.602   1.160 -0.5914  0.7946 -1.1749
  470TMC3    H2 7001   0.068   0.169   1.414  0.9531 -1.7370  0.5605
  470TMC3    C7 7002   0.018   4.648   1.409  0.3230 -0.1207  0.2025
  470TMC3    C8 7003   0.108   0.360   1.216  0.1532  0.1016 -0.9021
  470TMC3    O1 7004   0.112   4.663   1.487  0.1360  0.2002 -0.3304
  470TMC3    O2 7005   0.050   0.448   1.151  0.6973  0.2149 -0.2895
  471MPD2     C 7006   0.304   1.274  16.609  0.3044  0.2647 -0.5768
  471MPD2    C1 7007   0.414   1.367  16.591  0.2011 -0.1031 -0.4928
  471MPD2    C2 7008   0.460   1.437  16.695  0.2175  0.4615  0.5861
  471MPD2    C3 7009   0.419   1.424  16.830  0.6441 -0.3260  0.1059
  471MPD2    C4 7010   0.311   1.336  16.848  0.4896 -0.3970 -0.2895
  471MPD2    C5 7011   0.255   1.266  16.741 -0.0034  0.2877 -0.2293
  471MPD2     H 7012   0.546   1.497  16.669 -2.0348  2.6807 -1.8215
  471MPD2    H1 7013   0.280   1.318  16.950  2.2784 -0.0213  0.3093
  471MPD2    H2 7014   0.259   1.207  16.537  0.2783 -1.3937  0.9951
  471MPD2    H3 7015   0.179   1.195  16.769 -0.5223  0.7884 -0.3783
  471MPD2     N 7016   0.470   1.483  16.943 -0.0475  0.5948 -0.3830
  471MPD2    H5 7017   0.421   1.458  17.028  0.2921 -2.4417 -1.0674
  471MPD2    N1 7018   0.482   1.368  16.471  0.4671 -0.0571 -0.5221
  471MPD2    H7 7019   0.570   1.418  16.480  1.1777 -1.6277  1.0462
  472TMC3    C1 7020   0.555   1.286  16.257 -0.9412 -0.8133 -0.0015
  472TMC3    C2 7021   0.517   1.276  16.124  0.7730 -0.3460  0.4570
  472TMC3    C3 7022   0.591   1.200  16.041 -0.0328  0.4188 -0.4655
  472TMC3    C4 7023   0.663   1.218  16.301  0.2534  0.7262 -0.5550
  472TMC3    C5 7024   0.731   1.135  16.223  0.0446  0.9574  0.2370
  472TMC3    C6 7025   0.703   1.131  16.090  0.2046  0.1367  0.6565
  472TMC3     C 7026   0.444   1.311  16.351 -0.0378 -0.2023 -0.2699
  472TMC3     O 7027   0.336   1.260  16.332 -0.6218 -0.3859 -0.8376
  472TMC3     H 7028   0.424   1.323  16.098 -0.5464 -2.8210  0.6548
  472TMC3    H1 7029   0.689   1.216  16.407  0.0709  0.5655 -0.5142
  472TMC3    H2 7030   0.772   1.077  16.026 -0.0779 -0.0969  0.5504
  472TMC3    C7 7031   0.750   1.014  16.293  0.5534  0.4367 -0.3895
  472TMC3    C8 7032   0.516   1.101  15.963 -0.2350 -0.1171 -0.0235
  472TMC3    O1 7033   0.787   1.014  16.408 -0.0449  0.0679 -0.0773
  472TMC3    O2 7034   0.556   0.990  15.943 -0.1094  0.1090 -0.0798
  473MPD2     C 7035   0.760   3.669  13.997  0.0913  0.8702  0.9503
  473MPD2    C1 7036   0.722   3.791  13.951  0.4338 -0.2344 -0.4133
  473MPD2    C2 7037   0.773   3.904  14.010 -0.3678  0.2019  0.1197
  473MPD2    C3 7038   0.858   3.901  14.117 -0.1461  0.1302  0.7575
  473MPD2    C4 7039   0.886   3.778  14.172 -0.6929 -0.4007 -0.0882
  473MPD2    C5 7040   0.843   3.662  14.107  0.0245 -1.4342 -0.7922
  473MPD2     H 7041   0.742   4.001  13.973 -1.2773 -0.5122 -1.0129
  473MPD2    H1 7042   0.941   3.772  14.265  1.2904 -0.4310 -1.2495
  473MPD2    H2 7043   0.712   3.576  13.970  0.7577  1.0205 -0.7155
  473MPD2    H3 7044   0.861   3.560  14.136 -0.4376 -0.7432  1.8978
  473MPD2     N 7045   0.919   4.018  14.168  0.2624  0.1563 -0.0718
  473MPD2    H5 7046   0.986   4.001  14.242 -0.2698 -0.5347  0.2490
  473MPD2    N1 7047   0.625   3.807  13.855  0.0338 -0.2672  0.7228
  473MPD2    H7 7048   0.607   3.903  13.827 -1.4179 -1.5741 -2.7854
  474TMC3    C1 7049   0.969   4.244  14.201  0.2091  0.5891  0.0834
  474TMC3    C2 7050   0.938   4.377  14.181 -0.0522 -0.7640 -0.1079
  474TMC3    C3 7051   1.032   4.462  14.216  0.1188 -0.4251  0.8748
  474TMC3    C4 7052   1.086   4.212  14.262  0.4432  0.4664  0.2624
  474TMC3    C5 7053   1.175   4.309  14.309 -0.1236 -0.0423 -0.1880
  474TMC3    C6 7054   1.149   4.438  14.286 -0.0717 -0.3129  0.3765
  474TMC3     C 7055   0.895   4.144  14.123  0.2932  0.0481 -0.6185
  474TMC3     O 7056   0.806   4.190  14.053  0.2172 -0.1991  0.4324
  474TMC3     H 7057   0.838   4.396  14.144 -0.2811 -1.6020  0.0870
  474TMC3    H1 7058   1.108   4.107  14.277 -0.9086  0.1197 -0.2142
  474TMC3    H2 7059   1.212   4.523  14.311 -0.2956 -0.0481  0.0419
  474TMC3    C7 7060   1.284   4.265  14.397 -0.0362 -0.0435  0.1897
  474TMC3    C8 7061   1.006   4.601  14.187  0.3415  1.0012  0.0332
  474TMC3    O1 7062   1.292   4.144  14.404  0.3631  0.5725 -0.3625
  474TMC3    O2 7063   1.022   4.681  14.278 -0.3996 -0.1978 -0.1698
  475MPD2     C 7064   3.414   2.676  10.247  0.7828 -0.3173  0.1931
  475MPD2    C1 7065   3.406   2.586  10.142  0.8416  0.0237  0.2308
  475MPD2    C2 7066   3.280   2.543  10.104  0.3748 -0.0426 -0.0128
  475MPD2    C3 7067   3.166   2.596  10.155  0.6291 -0.4689  0.2111
  475MPD2    C4 7068   3.181   2.680  10.264 -0.7025 -0.7574 -0.1260
  475MPD2    C5 7069   3.305   2.714  10.310 -0.1506  0.5268 -0.2231
  475MPD2     H 7070   3.272   2.467  10.027 -1.9456  1.8497 -1.6382
  475MPD2    H1 7071   3.096   2.721  10.316  0.0574  0.2532  0.3177
  475MPD2    H2 7072   3.511   2.716  10.271  1.2352 -0.5015 -1.3256
  475MPD2    H3 7073   3.304   2.779  10.397 -0.4881  0.5666 -0.2565
  475MPD2     N 7074   3.041   2.552  10.103 -1.1171 -0.6290 -0.1708
  475MPD2    H5 7075   3.042   2.491  10.022 -2.5661  0.2648 -0.8537
  475MPD2    N1 7076   3.526   2.546  10.073  0.5300  0.3431  0.5273
  475MPD2    H7 7077   3.616   2.567  10.115  0.1346  0.9925  1.0685
  476TMC3    C1 7078   3.667   2.442   9.917 -0.7626 -0.6502  0.5165
  476TMC3    C2 7079   3.676   2.352   9.809  0.0111 -0.4928 -0.8196
  476TMC3    C3 7080   3.799   2.317   9.764 -0.0142  0.0332 -0.0006
  476TMC3    C4 7081   3.775   2.515   9.963 -0.4746 -0.4959  0.0577
  476TMC3    C5 7082   3.896   2.489   9.905 -0.6739 -0.1206  0.6085
  476TMC3    C6 7083   3.912   2.391   9.807 -0.1792 -0.5781  0.2017
  476TMC3     C 7084   3.528   2.484   9.953 -0.2425 -0.0911  0.2240
  476TMC3     O 7085   3.440   2.445   9.877  0.3493  0.6781 -0.0440
  476TMC3     H 7086   3.580   2.309   9.780  0.5908 -0.7288 -2.3799
  476TMC3    H1 7087   3.764   2.600  10.029 -0.3003 -2.1089  2.1551
  476TMC3    H2 7088   4.008   2.374   9.760 -0.1536 -1.0094  0.4145
  476TMC3    C7 7089   4.019   2.546   9.968  0.0519 -0.0369  0.5414
  476TMC3    C8 7090   3.807   2.254   9.631 -0.2438  0.1302  0.4680
  476TMC3    O1 7091   4.123   2.520   9.910  0.4993  0.0086 -0.4387
  476TMC3    O2 7092   3.904   2.290   9.569 -0.8545 -0.3545  0.2019
  477MPD2     C 7093   1.408   4.028  12.004  0.9368 -0.5125 -0.6200
  477MPD2    C1 7094   1.354   3.942  11.909 -0.1657  0.0206  0.1967
  477MPD2    C2 7095   1.350   3.807  11.940  0.0575 -0.6900  0.2870
  477MPD2    C3 7096   1.407   3.757  12.059 -0.7959  0.3541  0.7049
  477MPD2    C4 7097   1.465   3.841  12.149 -0.3745  0.1483  0.4298
  477MPD2    C5 7098   1.473   3.976  12.114 -0.1549  0.4747 -0.1238
  477MPD2     H 7099   1.321   3.744  11.857  0.5237  0.6098 -0.8628
  477MPD2    H1 7100   1.498   3.819  12.250  2.1537 -0.9703 -0.6320
  477MPD2    H2 7101   1.395   4.134  11.989 -2.0342 -0.1923  4.2127
  477MPD2    H3 7102   1.500   4.049  12.190 -0.0944 -1.2970  1.5511
  477MPD2     N 7103   1.387   3.621  12.090  0.0113  0.5622 -0.5388
  477MPD2    H5 7104   1.343   3.558  12.023 -0.8987 -1.8857  2.3763
  477MPD2    N1 7105   1.280   4.015  11.810  0.9422  0.7285  0.3629
  477MPD2    H7 7106   1.304   4.113  11.807  0.8997  0.7206 -0.2210
  478TMC3    C1 7107   1.163   4.058  11.610 -0.7528  0.4497  0.0846
  478TMC3    C2 7108   1.113   4.167  11.663 -0.6724 -0.5306 -0.7105
  478TMC3    C3 7109   1.022   4.243  11.587 -0.2683  0.0805 -0.3284
  478TMC3    C4 7110   1.139   4.025  11.475 -0.3913 -0.1308  0.0098
  478TMC3    C5 7111   1.053   4.106  11.396 -0.3383  1.5809 -0.3464
  478TMC3    C6 7112   0.996   4.216  11.454 -0.7094  0.4007 -0.4608
  478TMC3     C 7113   1.227   3.960  11.696  0.3569 -0.1937 -0.3441
  478TMC3     O 7114   1.247   3.849  11.649 -0.0085 -0.1481 -0.2293
  478TMC3     H 7115   1.110   4.192  11.769  1.5432  1.0981 -1.0275
  478TMC3    H1 7116   1.177   3.930  11.437  1.2659  0.2606  0.6667
  478TMC3    H2 7117   0.925   4.279  11.400 -0.6390  0.5599 -0.3687
  478TMC3    C7 7118   1.106   4.124  11.258 -0.2576 -0.9121 -0.0019
  478TMC3    C8 7119   0.941   4.339  11.652  0.0060  0.2883  0.3697
  478TMC3    O1 7120   1.217   4.078  11.244 -0.3237 -0.1037 -0.0307
  478TMC3    O2 7121   0.967   4.364  11.769 -0.4063  0.6590  0.6023
  479MPD2     C 7122   0.352   1.181  14.881  0.2160  0.6344 -0.4941
  479MPD2    C1 7123   0.314   1.141  15.008 -0.2224 -0.5668  0.2634
  479MPD2    C2 7124   0.399   1.173  15.114  0.3656 -0.3844 -0.1573
  479MPD2    C3 7125   0.506   1.263  15.086  0.4570 -0.3696  0.7282
  479MPD2    C4 7126   0.540   1.298  14.959  0.7318  0.1112  0.0966
  479MPD2    C5 7127   0.463   1.258  14.856  0.0567 -0.4024 -0.0866
  479MPD2     H 7128   0.395   1.132  15.214 -0.7729 -2.3062 -0.9833
  479MPD2    H1 7129   0.628   1.356  14.935  0.8811 -0.5349 -0.9443
  479MPD2    H2 7130   0.281   1.156  14.803  1.3853  1.9280 -1.9734
  479MPD2    H3 7131   0.485   1.299  14.758  1.7926  0.8630  0.8261
  479MPD2     N 7132   0.584   1.331  15.181  0.2467 -0.2022  0.7031
  479MPD2    H5 7133   0.672   1.362  15.141 -0.0081  0.5574  0.7422
  479MPD2    N1 7134   0.184   1.072  15.020 -0.1559 -0.0335  0.3491
  479MPD2    H7 7135   0.135   1.067  14.931  0.5096  1.6604 -0.1309
  480TMC3    C1 7136   0.337   1.181  15.506 -0.1158 -0.1520 -0.4933
  480TMC3    C2 7137   0.219   1.245  15.462 -0.0209  0.3060  0.1062
  480TMC3    C3 7138   0.233   1.336  15.359 -0.0011  0.2904 -0.2675
  480TMC3    C4 7139   0.459   1.231  15.480 -0.1899 -0.0767  0.4935
  480TMC3    C5 7140   0.462   1.316  15.379 -0.0009  0.2807  0.0938
  480TMC3    C6 7141   0.352   1.378  15.324  0.1679  0.4840  0.4462
  480TMC3     C 7142   0.329   1.053  15.570 -0.0927  0.3438 -0.1998
  480TMC3     O 7143   0.421   1.027  15.649  0.3602  0.1059 -0.3041
  480TMC3     H 7144   0.121   1.213  15.496  0.7380 -1.7334  0.3513
  480TMC3    H1 7145   0.544   1.186  15.529 -0.0957  1.8294  2.0985
  480TMC3    H2 7146   0.372   1.438  15.235 -1.6568  1.7808  0.9218
  480TMC3    C7 7147   0.587   1.321  15.318 -0.2633 -0.7985 -0.0663
  480TMC3    C8 7148   0.111   1.364  15.283  0.1454 -1.0827 -0.9895
  480TMC3    O1 7149   0.683   1.329  15.397  0.2301 -0.3013 -0.1276
  480TMC3    O2 7150   0.004   1.355  15.338 -0.1704 -0.2689 -0.6274
  481MPD2     C 7151   1.951   1.345  14.232  0.1946  0.0794 -0.2996
  481MPD2    C1 7152   1.851   1.258  14.270  0.1459 -0.1311 -0.0803
  481MPD2    C2 7153   1.837   1.237  14.407 -0.7287 -0.2596 -0.2576
  481MPD2    C3 7154   1.931   1.289  14.498  0.4550  0.6931  0.0103
  481MPD2    C4 7155   2.047   1.354  14.457 -0.1798 -0.1503 -0.2596
  481MPD2    C5 7156   2.049   1.385  14.326 -0.1492  0.2371  0.4781
  481MPD2     H 7157   1.758   1.170  14.438  1.8552 -2.7805  0.8825
  481MPD2    H1 7158   2.133   1.381  14.518  0.1686 -0.7731 -0.4720
  481MPD2    H2 7159   1.978   1.353  14.127  1.6217  0.2768  0.0831
  481MPD2    H3 7160   2.130   1.439  14.280 -1.8332  2.7312  0.4640
  481MPD2     N 7161   1.915   1.271  14.640  0.1852  0.1915 -0.7904
  481MPD2    H5 7162   1.995   1.289  14.700 -1.2196  0.7926  0.8816
  481MPD2    N1 7163   1.767   1.206  14.170  0.0632  0.0894 -0.6575
  481MPD2    H7 7164   1.773   1.246  14.077 -2.6203  1.5467 -0.2006
  482TMC3    C1 7165   1.560   1.098  14.096 -0.4505  0.4224 -0.5998
  482TMC3    C2 7166   1.495   0.971  14.077  0.1181  0.0034 -0.1559
  482TMC3    C3 7167   1.400   0.959  13.980  0.5187 -0.2694 -0.0947
  482TMC3    C4 7168   1.534   1.203  14.009 -0.4096 -0.4382  0.9027
  482TMC3    C5 7169   1.447   1.175  13.910 -0.6239  0.4345 -0.4022
  482TMC3    C6 7170   1.375   1.060  13.890 -0.3894 -0.8826 -0.9192
  482TMC3     C 7171   1.675   1.107  14.186  0.4728  0.6297  0.1168
  482TMC3     O 7172   1.677   1.028  14.279  0.8751 -0.1187  0.3814
  482TMC3     H 7173   1.510   0.889  14.147  0.0836 -0.0979 -0.2680
  482TMC3    H1 7174   1.589   1.294  14.028  0.0094 -0.2890 -1.0886
  482TMC3    H2 7175   1.290   1.062  13.822 -1.1203  0.1672  0.0324
  482TMC3    C7 7176   1.460   1.274  13.802  0.2393 -0.1275 -0.7904
  482TMC3    C8 7177   1.325   0.833  13.964 -0.3559 -0.0706  0.2949
  482TMC3    O1 7178   1.490   1.387  13.842 -0.2168 -0.2636 -0.9055
  482TMC3    O2 7179   1.382   0.740  14.020  0.2366  0.4035 -0.1115
  483TMC3    C1 7180   4.387   4.087   1.240  0.3580 -0.0399 -0.2201
  483TMC3    C2 7181   4.444   4.206   1.222 -0.7684  0.3220  0.2379
  483TMC3    C3 7182   4.578   4.226   1.258  0.8016  0.7190  0.4795
  483TMC3    C4 7183   4.458   3.981   1.283 -0.5752 -0.2783 -0.3333
  483TMC3    C5 7184   4.592   3.999   1.306  0.1050 -0.3656  0.3630
  483TMC3    C6 7185   4.653   4.115   1.286 -0.3487 -0.0780  0.6113
  483TMC3     C 7186   4.267   4.064   1.160 -0.0927 -0.7773  0.1163
  483TMC3     O 7187   4.171   4.144   1.160 -0.3509 -0.3717  0.6065
  483TMC3     H 7188   4.388   4.283   1.171  1.7680  1.2864 -1.0772
  483TMC3    H1 7189   4.418   3.882   1.305  2.9138 -2.4628 -3.8907
  483TMC3    H2 7190   0.041   4.122   1.286 -0.5957  3.6268 -0.4359
  483TMC3    C7 7191   4.683   3.884   1.346 -0.3124  0.0058  0.2164
  483TMC3    C8 7192   4.657   4.322   1.178 -0.0826 -0.2165  0.1259
  483TMC3    O1 7193   0.077   3.904   1.310  0.2550  0.1052 -0.3739
  483TMC3    O2 7194   4.589   4.382   1.097 -0.2747  0.0782  0.5840
  484MPD2     C 7195   1.931   2.754  12.167 -0.8479  0.2482 -0.2872
  484MPD2    C1 7196   2.015   2.649  12.204 -0.4020 -0.5015  0.3813
  484MPD2    C2 7197   2.143   2.646  12.157  0.0281  0.5232 -0.0616
  484MPD2    C3 7198   2.194   2.743  12.075  1.2793  0.2003 -0.2246
  484MPD2    C4 7199   2.117   2.854  12.051  0.8349  0.5102  0.1636
  484MPD2    C5 7200   1.986   2.850  12.084  0.3182 -0.1216 -0.0239
  484MPD2     H 7201   2.211   2.567  12.188  1.5204  2.2054  0.9625
  484MPD2    H1 7202   2.162   2.937  11.997 -0.3492  0.7102 -0.5072
  484MPD2    H2 7203   1.823   2.758  12.177 -0.5614  1.6617  2.3285
  484MPD2    H3 7204   1.923   2.931  12.049  1.6447  1.2368  0.7341
  484MPD2     N 7205   2.324   2.743  12.024  0.0382  0.1014  0.1700
  484MPD2    H5 7206   2.359   2.825  11.977  0.3934 -0.6140 -0.8308
  484MPD2    N1 7207   1.955   2.559  12.279 -0.0062  0.3298 -0.6506
  484MPD2    H7 7208   1.854   2.558  12.294  0.0120 -0.3236 -0.5537
  485TMC3    C1 7209   2.537   2.672  11.965  0.4941 -0.3089 -0.5176
  485TMC3    C2 7210   2.589   2.587  11.870  0.2903  0.0180  0.5102
  485TMC3    C3 7211   2.638   2.637  11.752 -0.2073 -0.0662 -0.7423
  485TMC3    C4 7212   2.556   2.807  11.939 -0.1874  0.8096 -0.4008
  485TMC3    C5 7213   2.607   2.853  11.822 -0.1912  0.4724  0.3348
  485TMC3    C6 7214   2.631   2.772  11.714  0.2185  0.2512 -0.5758
  485TMC3     C 7215   2.410   2.634  12.020  0.6486  0.8581  0.0243
  485TMC3     O 7216   2.381   2.516  12.031 -0.4371 -0.0284  0.1476
  485TMC3     H 7217   2.588   2.480  11.891 -1.6632 -0.2616 -0.9339
  485TMC3    H1 7218   2.539   2.868  12.027  1.5897  0.2039  0.3631
  485TMC3    H2 7219   2.674   2.812  11.623 -1.6233 -1.1083 -2.0265
  485TMC3    C7 7220   2.723   2.933  11.855  0.5179  0.5463  0.4489
  485TMC3    C8 7221   2.764   2.582  11.697 -0.0842 -0.7065 -0.1016
  485TMC3    O1 7222   2.710   3.013  11.950 -0.2637  0.0617  0.4592
  485TMC3    O2 7223   2.819   2.648  11.606  0.3125 -0.3334 -0.1032
  486MPD2     C 7224   4.359   1.607  13.101  0.6800 -0.2230 -0.3794
  486MPD2    C1 7225   4.408   1.633  12.973 -0.1176 -0.2085 -0.0239
  486MPD2    C2 7226   4.381   1.756  12.915  0.6224  0.2327  0.7911
  486MPD2    C3 7227   4.310   1.848  12.996 -0.0561  0.3559 -0.4640
  486MPD2    C4 7228   4.257   1.811  13.117 -0.5436 -0.2298  0.8215
  486MPD2    C5 7229   4.279   1.687  13.167  0.5813  0.8071  0.2367
  486MPD2     H 7230   4.427   1.789  12.822  1.2084  0.5872  1.2050
  486MPD2    H1 7231   4.199   1.880  13.177 -0.9307  0.2478 -0.0936
  486MPD2    H2 7232   4.387   1.516  13.153 -1.1708  0.2326  1.3921
  486MPD2    H3 7233   4.240   1.654  13.263 -2.0019  0.5521 -0.9014
  486MPD2     N 7234   4.300   1.983  12.948 -0.0322  0.1702 -0.3233
  486MPD2    H5 7235   4.347   1.999  12.859  0.6025 -0.8373 -0.1724
  486MPD2    N1 7236   4.490   1.532  12.908 -0.3715  0.3286 -0.1068
  486MPD2    H7 7237   4.512   1.448  12.961  0.6791 -1.1648 -2.9695
  487TMC3    C1 7238   4.626   1.424  12.747 -0.6610 -0.0737 -0.0213
  487TMC3    C2 7239   4.616   1.389  12.621 -0.4650 -0.6246 -0.8119
  487TMC3    C3 7240   4.667   1.277  12.573  0.3595  0.4140  0.2210
  487TMC3    C4 7241   4.704   1.352  12.833 -0.8277  0.0719 -0.0484
  487TMC3    C5 7242   0.044   1.240  12.783  0.2624 -0.4335 -0.7025
  487TMC3    C6 7243   0.026   1.195  12.655 -0.2256 -0.3492  0.5219
  487TMC3     C 7244   4.553   1.542  12.784 -0.3563 -0.6184  0.8108
  487TMC3     O 7245   4.534   1.630  12.704 -0.2689  0.4769 -0.1049
  487TMC3     H 7246   4.548   1.452  12.565 -0.4418 -0.8631 -1.1129
  487TMC3    H1 7247   4.719   1.389  12.933  1.4974 -1.2912  0.0972
  487TMC3    H2 7248   0.105   1.136  12.610 -0.5087  0.5486 -1.1897
  487TMC3    C7 7249   0.039   1.135  12.883  0.6291  0.1005 -0.2993
  487TMC3    C8 7250   4.616   1.219  12.446  0.0308 -1.0682  0.0293
  487TMC3    O1 7251   0.027   1.169  13.000  0.7334  0.4688  0.5749
  487TMC3    O2 7252   4.648   1.292  12.354 -0.8384  0.4926  0.2029
  488MPD2     C 7253   4.452   3.731  16.130  0.7470  0.5508 -0.7760
  488MPD2    C1 7254   4.519   3.821  16.211  0.2371 -0.0729  0.5096
  488MPD2    C2 7255   4.491   3.841  16.343  0.3452  0.5837  0.3088
  488MPD2    C3 7256   4.394   3.759  16.401  0.7297 -0.3077  1.1545
  488MPD2    C4 7257   4.322   3.679  16.322 -0.3832 -0.0586 -0.0117
  488MPD2    C5 7258   4.351   3.658  16.193  0.7336 -0.0350 -0.1812
  488MPD2     H 7259   4.555   3.909  16.398  1.7443 -0.6347  0.1899
  488MPD2    H1 7260   4.234   3.625  16.355 -1.1757  1.0766 -0.2511
  488MPD2    H2 7261   4.469   3.698  16.028  0.1488  1.9532 -1.3280
  488MPD2    H3 7262   4.302   3.585  16.130  1.0958 -0.3817 -0.0594
  488MPD2     N 7263   4.374   3.771  16.541 -0.4996 -0.3862  0.2625
  488MPD2    H5 7264   4.412   3.847  16.596 -1.8426 -0.5128  1.3749
  488MPD2    N1 7265   4.629   3.897  16.160 -0.2202 -0.6849 -0.1032
  488MPD2    H7 7266   4.660   3.971  16.222 -1.8738 -0.8053  0.8733
  489TMC3    C1 7267   4.304   3.707  16.766 -0.0768 -0.3489 -0.3323
  489TMC3    C2 7268   4.436   3.701  16.802 -0.1027  0.2258 -0.3726
  489TMC3    C3 7269   4.482   3.624  16.906  0.0393 -0.5155  0.1154
  489TMC3    C4 7270   4.215   3.626  16.831 -0.0745 -0.4155 -0.0173
  489TMC3    C5 7271   4.257   3.544  16.933 -0.1866  0.4593 -0.1693
  489TMC3    C6 7272   4.389   3.541  16.969  0.2952 -0.3106 -0.7019
  489TMC3     C 7273   4.301   3.679  16.623 -0.0254 -0.2824  0.5716
  489TMC3     O 7274   4.240   3.580  16.592 -0.3105  0.0494 -0.0709
  489TMC3     H 7275   4.503   3.766  16.747  1.1358 -1.2402 -0.5976
  489TMC3    H1 7276   4.114   3.623  16.790  0.9273 -1.5769 -2.3840
  489TMC3    H2 7277   4.424   3.466  17.040 -0.8648  0.6108  0.8388
  489TMC3    C7 7278   4.191   3.412  16.916  0.3246 -0.3454 -0.0831
  489TMC3    C8 7279   4.622   3.650  16.930 -0.0306  0.1216 -0.0257
  489TMC3    O1 7280   4.201   3.332  17.006  0.1508  0.4157  0.3107
  489TMC3    O2 7281   4.687   3.722  16.859 -0.2077  0.1578 -0.1390
  490MPD2     C 7282   1.128   2.457  17.471  0.3031 -0.0145 -0.4485
  490MPD2    C1 7283   1.089   2.341  17.542  0.1501  0.5323 -0.3820
  490MPD2    C2 7284   1.151   2.326  17.666  0.5044  0.5047  0.2141
  490MPD2    C3 7285   1.245   2.413   0.035 -0.8558  0.0743  0.0616
  490MPD2    C4 7286   1.287   2.517  17.640 -0.1633  0.4833  0.2632
  490MPD2    C5 7287   1.232   2.535  17.517 -0.2015  0.4228  0.0245
  490MPD2     H 7288   1.112   2.244   0.044 -0.0625  2.4752  2.5738
  490MPD2    H1 7289   1.381   2.561  17.673 -0.9475  2.3375  0.0107
  490MPD2    H2 7290   1.076   2.486  17.381 -3.1807 -2.5141  0.7543
  490MPD2    H3 7291   1.265   2.618  17.456 -1.6758  1.0502  0.0749
  490MPD2     N 7292   1.294   2.390   0.167 -1.0708  0.5372  0.4460
  490MPD2    H5 7293   1.249   2.320   0.226  2.6281 -0.7329  1.7553
  490MPD2    N1 7294   0.986   2.250  17.514  0.4540  0.0193 -0.3449
  490MPD2    H7 7295   0.956   2.185  17.585  0.8258  1.3135  0.9863
  491TMC3    C1 7296   0.814   2.157  17.393  0.2211 -0.0620 -0.2924
  491TMC3    C2 7297   0.762   2.133  17.510  0.0718 -1.0679  0.6743
  491TMC3    C3 7298   0.682   2.019  17.526  0.2426  0.7254  0.6650
  491TMC3    C4 7299   0.794   2.073  17.283  0.6021  0.3591 -0.1272
  491TMC3    C5 7300   0.722   1.960  17.306  0.0524 -0.0935 -0.1396
  491TMC3    C6 7301   0.670   1.930  17.426  0.2782  0.0549  0.3380
  491TMC3     C 7302   0.927   2.244  17.390  0.6479  0.1499  0.1870
  491TMC3     O 7303   0.969   2.295  17.286 -1.0223 -0.0723 -0.0156
  491TMC3     H 7304   0.752   2.215  17.580  0.8569  0.5361 -1.0972
  491TMC3    H1 7305   0.849   2.081  17.189 -0.2716 -1.2708 -0.7794
  491TMC3    H2 7306   0.618   1.838  17.450  1.0667 -0.9994 -1.9963
  491TMC3    C7 7307   0.620   1.932  17.203 -0.2158  0.6553  0.0342
  491TMC3    C8 7308   0.559   2.042  17.603  0.1156 -0.2679  0.1509
  491TMC3    O1 7309   0.507   1.924  17.252  0.2148  0.6353 -0.3138
  491TMC3    O2 7310   0.516   2.157  17.591 -0.5225 -0.3415  0.1557
  492MPD2     C 7311   0.854   3.092  11.749 -0.0579  0.6375  0.5415
  492MPD2    C1 7312   0.854   2.979  11.671  0.5911  0.3852 -0.2630
  492MPD2    C2 7313   0.793   2.866  11.718  1.2293  0.0433 -0.2258
  492MPD2    C3 7314   0.710   2.875  11.835 -0.3142  0.1648 -0.0832
  492MPD2    C4 7315   0.706   2.990  11.904  0.1055 -0.4639  0.7337
  492MPD2    C5 7316   0.793   3.090  11.872  0.4857 -0.3675 -0.0502
  492MPD2     H 7317   0.794   2.777  11.657  0.4566  1.1424 -1.8442
  492MPD2    H1 7318   0.649   2.989  11.997 -0.9011  0.1866  0.1326
  492MPD2    H2 7319   0.894   3.189  11.723 -1.7024  0.8907 -1.0094
  492MPD2    H3 7320   0.810   3.170  11.944  2.2358  0.0032 -0.8914
  492MPD2     N 7321   0.639   2.763  11.886  0.4826  0.0321 -0.5894
  492MPD2    H5 7322   0.590   2.777  11.974 -0.1145  0.7463 -1.0460
  492MPD2    N1 7323   0.912   3.000  11.544 -0.0893 -0.0661  0.2812
  492MPD2    H7 7324   0.973   3.081  11.534 -1.9600  1.2614 -0.5403
  493TMC3    C1 7325   0.962   2.952  11.325 -0.0364  0.3589 -0.0465
  493TMC3    C2 7326   1.079   3.025  11.334  0.2978  0.4984  0.3382
  493TMC3    C3 7327   1.159   3.042  11.220 -0.1287 -0.1264  0.5309
  493TMC3    C4 7328   0.925   2.894  11.210 -0.8334  0.7640  0.4700
  493TMC3    C5 7329   1.008   2.911  11.095 -0.4890 -0.1715  0.4789
  493TMC3    C6 7330   1.125   2.983  11.101  0.1179 -0.9527  0.4165
  493TMC3     C 7331   0.884   2.916  11.442  0.1218  0.0981 -0.3448
  493TMC3     O 7332   0.795   2.832  11.423  0.5131  0.4518  0.6180
  493TMC3     H 7333   1.109   3.059  11.433  3.6836 -0.9806 -0.1643
  493TMC3    H1 7334   0.836   2.832  11.212  1.3439 -2.3669 -0.0825
  493TMC3    H2 7335   1.201   2.970  11.025  1.7517  0.8257  1.7204
  493TMC3    C7 7336   0.971   2.835  10.978 -0.4645  0.4047  0.9326
  493TMC3    C8 7337   1.281   3.108  11.246 -0.4295 -1.1837 -0.0478
  493TMC3    O1 7338   0.878   2.760  10.987  0.0007 -0.5275 -0.1957
  493TMC3    O2 7339   1.303   3.144  11.361  0.0680 -0.3382  0.2790
  494TMC3    C1 7340   2.004   3.563   0.729 -0.3889  0.1542 -0.5266
  494TMC3    C2 7341   2.037   3.434   0.715  0.0360  0.6766 -0.7159
  494TMC3    C3 7342   2.061   3.391   0.589 -0.3833 -0.4525  0.1676
  494TMC3    C4 7343   2.016   3.656   0.632  0.4740 -0.3213  0.2048
  494TMC3    C5 7344   2.065   3.613   0.512 -0.4391 -0.4316  0.3484
  494TMC3    C6 7345   2.078   3.479   0.479  0.2469 -0.5264 -0.4053
  494TMC3     C 7346   1.921   3.597   0.846 -0.5740  0.1736 -0.9830
  494TMC3     O 7347   1.910   3.509   0.931 -0.0284  0.1618  0.0789
  494TMC3     H 7348   2.028   3.366   0.798 -1.8234  1.8715  0.0669
  494TMC3    H1 7349   2.006   3.759   0.665  2.0941  0.1904 -0.9224
  494TMC3    H2 7350   2.111   3.446   0.381  3.5760 -0.1839  0.5859
  494TMC3    C7 7351   2.071   3.708   0.408  0.3253  0.2015 -0.2168
  494TMC3    C8 7352   2.052   3.248   0.565 -0.4805 -0.0091 -0.9526
  494TMC3    O1 7353   2.138   3.684   0.309 -0.2143 -0.3104 -0.0497
  494TMC3    O2 7354   1.995   3.184   0.647  0.1581 -0.4051 -0.1740
  495TMC3    C1 7355   0.250   1.041  14.463 -0.5601 -0.3635  0.0431
  495TMC3    C2 7356   0.159   1.036  14.360  0.2164  0.3634  0.0604
  495TMC3    C3 7357   0.068   1.130  14.339  0.3443 -0.2284  0.0871
  495TMC3    C4 7358   0.268   1.158  14.524 -0.2945  0.1725  0.3198
  495TMC3    C5 7359   0.168   1.252  14.517 -0.3824 -0.0568 -0.0799
  495TMC3    C6 7360   0.062   1.239  14.428 -0.4487 -1.2559 -0.0413
  495TMC3     C 7361   0.349   0.943  14.480  0.2577 -0.4121  0.3885
  495TMC3     O 7362   0.441   0.977  14.546 -0.3704  0.1547 -0.1193
  495TMC3     H 7363   0.144   0.936  14.320 -0.7064  0.0513  1.2044
  495TMC3    H1 7364   0.347   1.178  14.596 -0.4661  0.8701  0.3211
  495TMC3    H2 7365   4.703   1.314  14.425 -0.1452 -0.9616 -0.6012
  495TMC3    C7 7366   0.149   1.343  14.627 -0.2198 -0.1709  0.0930
  495TMC3    C8 7367   4.708   1.145  14.229 -0.2454  1.0186 -0.1168
  495TMC3    O1 7368   0.254   1.378  14.680  0.7298  0.0788 -0.1826
  495TMC3    O2 7369   4.605   1.211  14.241  0.0427  0.2298  0.4125
  496MPD2     C 7370   2.242   1.742  15.082  0.3041 -0.1351 -0.0682
  496MPD2    C1 7371   2.305   1.683  15.190  0.2063  0.0486 -0.1397
  496MPD2    C2 7372   2.260   1.688  15.320  0.0995 -0.5293 -0.0335
  496MPD2    C3 7373   2.145   1.764  15.342  0.8124  1.0323 -0.7569
  496MPD2    C4 7374   2.083   1.829  15.239  0.7427  0.8750  0.4753
  496MPD2    C5 7375   2.135   1.820  15.116 -0.2829 -0.6063 -0.1696
  496MPD2     H 7376   2.311   1.644  15.405  1.9312  1.5735 -0.0420
  496MPD2    H1 7377   1.998   1.895  15.251  0.2238  0.8862 -3.3633
  496MPD2    H2 7378   2.276   1.733  14.979 -0.4116  0.7470 -0.3854
  496MPD2    H3 7379   2.097   1.881  15.035  1.8691  1.6727  0.5397
  496MPD2     N 7380   2.091   1.793  15.472  0.1779  0.3794  0.1963
  496MPD2    H5 7381   2.012   1.856  15.481 -2.1796 -2.3404 -1.5862
  496MPD2    N1 7382   2.408   1.593  15.151  0.5538  0.7450 -0.5959
  496MPD2    H7 7383   2.426   1.591  15.051 -0.5274 -0.9733 -0.7409
  497TMC3    C1 7384   2.055   1.777  15.709  0.3955 -0.1863  0.5664
  497TMC3    C2 7385   1.940   1.859  15.693  0.6587  0.6140 -0.0693
  497TMC3    C3 7386   1.864   1.881  15.805  0.0120  0.0998 -0.5921
  497TMC3    C4 7387   2.084   1.715  15.825  0.5607  0.1000  0.5021
  497TMC3    C5 7388   2.004   1.740  15.933  0.2962  0.6741 -0.0087
  497TMC3    C6 7389   1.889   1.815  15.928  0.3995 -0.9406  0.0376
  497TMC3     C 7390   2.132   1.744  15.593  0.7365  1.0113 -0.3183
  497TMC3     O 7391   2.221   1.661  15.607 -0.1103 -0.4360  0.7663
  497TMC3     H 7392   1.916   1.906  15.599  0.4274  1.9918  0.6731
  497TMC3    H1 7393   2.162   1.640  15.828  1.0083  0.5370 -0.1643
  497TMC3    H2 7394   1.835   1.823  16.022  1.1542 -2.6398  0.6045
  497TMC3    C7 7395   2.011   1.646  16.043 -0.5126 -0.7910 -0.5449
  497TMC3    C8 7396   1.727   1.927  15.776 -0.2611  0.0476  0.8815
  497TMC3    O1 7397   1.913   1.587  16.083  0.7400  0.3289 -0.4134
  497TMC3    O2 7398   1.710   2.006  15.685  0.7358  0.6641 -0.6627
  498MPD2     C 7399   2.779   2.094   9.024  0.2345 -0.2922 -0.6744
  498MPD2    C1 7400   2.784   2.102   9.156  0.1293  0.1453  0.3382
  498MPD2    C2 7401   2.662   2.112   9.224  0.7022 -0.7277  0.0641
  498MPD2    C3 7402   2.538   2.120   9.160  0.5694  0.0614  0.8290
  498MPD2    C4 7403   2.542   2.103   9.023 -0.1035 -0.2221 -0.6044
  498MPD2    C5 7404   2.660   2.085   8.961 -0.0207 -0.4744  0.1628
  498MPD2     H 7405   2.659   2.127   9.331  0.3083 -1.8401  0.2095
  498MPD2    H1 7406   2.449   2.089   8.969 -0.2709 -1.4383 -0.0079
  498MPD2    H2 7407   2.869   2.093   8.964 -0.2725 -1.9321 -1.4028
  498MPD2    H3 7408   2.658   2.065   8.854  0.4618  3.0767 -0.5233
  498MPD2     N 7409   2.427   2.138   9.240  0.2804 -0.3741  0.2562
  498MPD2    H5 7410   2.447   2.143   9.340  1.3705  2.6699 -0.1240
  498MPD2    N1 7411   2.904   2.114   9.235 -0.2966 -0.1035 -0.3006
  498MPD2    H7 7412   2.894   2.142   9.332  0.8969 -3.4244  0.7912
  499TMC3    C1 7413   3.133   2.117   9.275  0.0471 -0.2928 -0.0310
  499TMC3    C2 7414   3.097   2.089   9.409 -0.2600  0.0633  0.3660
  499TMC3    C3 7415   3.174   2.141   9.504 -0.2449  0.2274 -0.0494
  499TMC3    C4 7416   3.240   2.196   9.236  0.0980 -0.3739 -0.4455
  499TMC3    C5 7417   3.313   2.252   9.340 -0.7715 -0.2326  1.1668
  499TMC3    C6 7418   3.271   2.237   9.470 -0.1850 -0.3538 -0.3390
  499TMC3     C 7419   3.033   2.100   9.182 -0.1524 -0.0704 -0.4759
  499TMC3     O 7420   3.064   2.091   9.065 -0.0493  0.1780 -0.6038
  499TMC3     H 7421   3.027   2.009   9.425  0.0017  0.0981  1.6183
  499TMC3    H1 7422   3.261   2.221   9.133 -0.5895  0.1067 -0.4751
  499TMC3    H2 7423   3.322   2.289   9.550 -0.7374 -1.3482  0.6521
  499TMC3    C7 7424   3.424   2.338   9.323 -0.0043  0.4266  0.1043
  499TMC3    C8 7425   3.159   2.096   9.647 -0.8382 -0.3570  0.3760
  499TMC3    O1 7426   3.461   2.408   9.419 -0.2608 -0.6742  0.1164
  499TMC3    O2 7427   3.232   2.145   9.731 -0.0109 -0.1789 -0.0457
  500MPD2     C 7428   0.302   3.329  10.457  0.3585 -0.2339 -0.1017
  500MPD2    C1 7429   0.354   3.420  10.370 -0.1346 -0.4450 -0.0424
  500MPD2    C2 7430   0.266   3.489  10.285  0.0747  0.3350  0.0934
  500MPD2    C3 7431   0.129   3.462  10.276 -0.2798 -0.3369 -0.0248
  500MPD2    C4 7432   0.084   3.374  10.372  0.2706  0.1102  0.6313
  500MPD2    C5 7433   0.166   3.304  10.456  0.2620  0.3997  0.1835
  500MPD2     H 7434   0.307   3.576  10.235  0.1309  0.9353  1.2025
  500MPD2    H1 7435   4.700   3.342  10.378 -0.0048  1.0111  0.6220
  500MPD2    H2 7436   0.361   3.279  10.533  2.2766 -0.7372 -1.9300
  500MPD2    H3 7437   0.122   3.239  10.530 -0.1281  0.3206 -0.1208
  500MPD2     N 7438   0.038   3.526  10.194 -0.2470 -0.3593 -0.2215
  500MPD2    H5 7439   4.667   3.483  10.202 -0.4284  0.2591  1.0469
  500MPD2    N1 7440   0.494   3.463  10.372  0.6542  0.4354 -0.1550
  500MPD2    H7 7441   0.517   3.554  10.333  3.4813 -0.1817  0.0288
  501TMC3    C1 7442   0.733   3.435  10.396 -0.5052 -0.1063  0.4486
  501TMC3    C2 7443   0.748   3.535  10.298  0.1345 -0.0873  0.5322
  501TMC3    C3 7444   0.877   3.570  10.264  0.1560  0.3700  0.1895
  501TMC3    C4 7445   0.838   3.402  10.478  0.2683 -0.3312 -0.4193
  501TMC3    C5 7446   0.961   3.451  10.453 -0.5885  0.4506  0.7449
  501TMC3    C6 7447   0.980   3.531  10.345  0.1099 -0.0442 -0.4721
  501TMC3     C 7448   0.602   3.380  10.423 -0.1827  0.3264 -0.6665
  501TMC3     O 7449   0.599   3.262  10.463  0.4877  0.1707 -0.0904
  501TMC3     H 7450   0.664   3.560  10.234  1.7107  1.3408 -1.0084
  501TMC3    H1 7451   0.824   3.343  10.569 -0.5523  1.1313  0.4103
  501TMC3    H2 7452   1.078   3.572  10.321 -0.7312  1.0239 -2.0193
  501TMC3    C7 7453   1.040   3.485  10.571 -0.2440  0.5890 -0.1142
  501TMC3    C8 7454   0.885   3.708  10.223 -0.4906  0.1306  0.4379
  501TMC3    O1 7455   1.009   3.413  10.668 -0.2402  0.2654  0.3534
  501TMC3    O2 7456   0.943   3.777  10.302  0.6722  0.5203 -0.3532
  502TMC3    C1 7457   4.698   2.166  15.028  0.5580 -0.1092 -0.6730
  502TMC3    C2 7458   4.678   2.302  15.004  0.0551 -0.2251 -0.1554
  502TMC3    C3 7459   4.549   2.350  14.999  0.3526 -0.2104  0.4260
  502TMC3    C4 7460   4.584   2.089  15.047 -0.6360 -0.2822 -0.2209
  502TMC3    C5 7461   4.455   2.139  15.031 -0.1342 -0.6376 -0.1198
  502TMC3    C6 7462   4.435   2.274  15.017 -0.1078 -0.8305 -1.3000
  502TMC3     C 7463   0.076   2.154  15.141 -0.2467  0.3949  0.6986
  502TMC3     O 7464   0.178   2.214  15.127 -0.0750 -0.4347 -0.1298
  502TMC3     H 7465   0.047   2.364  14.999 -1.6459  2.1833 -0.3165
  502TMC3    H1 7466   4.600   1.982  15.052  1.6193  0.1401  1.7050
  502TMC3    H2 7467   4.336   2.313  15.035  0.4466 -0.3083  0.6835
  502TMC3    C7 7468   4.354   2.057  15.095  0.1129  0.0671  0.0109
  502TMC3    C8 7469   4.534   2.488  14.965  0.0956 -0.0054 -0.1288
  502TMC3    O1 7470   4.396   1.968  15.166  0.1967  0.1094  0.0902
  502TMC3    O2 7471   4.636   2.561  14.961 -0.3843 -0.5195  0.5108
  503MPD2     C 7472   1.828   3.029  16.811  0.2290 -0.1960 -0.7365
  503MPD2    C1 7473   1.857   2.999  16.939 -0.3696 -0.0750  0.3744
  503MPD2    C2 7474   1.932   2.879  16.964 -0.0411  0.4140  0.4884
  503MPD2    C3 7475   1.962   2.780  16.867 -0.0071 -0.2815 -0.5204
  503MPD2    C4 7476   1.908   2.810  16.744 -0.5872  0.9006 -0.2880
  503MPD2    C5 7477   1.850   2.933  16.715 -0.4141  0.3959  0.2727
  503MPD2     H 7478   1.961   2.860  17.067  1.1346 -0.1888  0.0450
  503MPD2    H1 7479   1.912   2.740  16.661 -0.2528  0.6494 -0.0546
  503MPD2    H2 7480   1.776   3.121  16.786  1.2427  1.2005  2.3384
  503MPD2    H3 7481   1.818   2.946  16.613  2.9274  0.7707 -0.7252
  503MPD2     N 7482   2.032   2.663  16.899 -0.3066  0.0276  0.4376
  503MPD2    H5 7483   2.043   2.631  16.995  0.2927  3.6360  1.5550
  503MPD2    N1 7484   1.834   3.090  17.044  0.1976  0.9353  0.5769
  503MPD2    H7 7485   1.871   3.070  17.136  0.1591 -1.4287  0.0895
  504TMC3    C1 7486   2.150   2.460  16.869  0.9842 -0.0589  0.8450
  504TMC3    C2 7487   2.116   2.422  16.996  0.4104 -0.6053  0.5489
  504TMC3    C3 7488   2.196   2.323  17.048  0.2092  0.4390  0.2758
  504TMC3    C4 7489   2.256   2.418  16.795  0.7652  0.3950  0.4402
  504TMC3    C5 7490   2.334   2.323  16.857  0.4455 -0.4136  0.3190
  504TMC3    C6 7491   2.302   2.269  16.976 -0.2952  0.1334  0.6594
  504TMC3     C 7492   2.083   2.572  16.808 -0.1528  0.0397  0.0703
  504TMC3     O 7493   2.085   2.582  16.683  0.5031 -0.7793 -0.4603
  504TMC3     H 7494   2.027   2.454  17.049  1.6016  1.8140  1.0898
  504TMC3    H1 7495   2.289   2.441  16.694 -0.0854  0.3484  0.1501
  504TMC3    H2 7496   2.365   2.190  17.016 -0.8725 -1.3786 -1.4192
  504TMC3    C7 7497   2.463   2.290  16.795 -0.1050  0.3107  0.2910
  504TMC3    C8 7498   2.170   2.292  17.188 -0.0472 -0.0758 -0.2146
  504TMC3    O1 7499   2.477   2.312  16.674 -0.1313  0.0606 -0.4465
  504TMC3    O2 7500   2.102   2.366  17.258 -0.6281  0.3729  0.4924
  505MPD2     C 7501   1.516   2.113  10.188 -0.2664  0.1552  0.3030
  505MPD2    C1 7502   1.480   2.001  10.111 -0.2509 -0.6233  0.8374
  505MPD2    C2 7503   1.556   1.884  10.134 -0.9745  0.5432  0.1788
  505MPD2    C3 7504   1.645   1.865  10.237  0.2941 -0.0839 -0.6482
  505MPD2    C4 7505   1.665   1.969  10.317 -0.8062 -0.3934 -0.0668
  505MPD2    C5 7506   1.609   2.092  10.293  0.0977 -0.9809 -0.1879
  505MPD2     H 7507   1.524   1.805  10.067  0.2713  0.1401  0.0724
  505MPD2    H1 7508   1.734   1.964  10.401  2.1168 -0.1707 -2.4347
  505MPD2    H2 7509   1.469   2.209  10.172 -0.0130 -0.2138 -2.5380
  505MPD2    H3 7510   1.638   2.180  10.350 -1.0911 -1.2306  0.7854
  505MPD2     N 7511   1.715   1.740  10.255  0.4076  0.4375  0.3419
  505MPD2    H5 7512   1.798   1.751  10.312  0.5174 -0.8092  0.4318
  505MPD2    N1 7513   1.373   2.013  10.031 -0.0757 -0.0725  0.1820
  505MPD2    H7 7514   1.319   2.097  10.013  0.2993  0.2123  0.3694
  506TMC3    C1 7515   1.189   1.938   9.906  0.0286 -0.0193 -0.7448
  506TMC3    C2 7516   1.197   2.031   9.803  0.0974  0.6362  0.0733
  506TMC3    C3 7517   1.120   2.007   9.686 -1.0060  0.0931 -0.1902
  506TMC3    C4 7518   1.109   1.824   9.890 -0.0836  0.0100 -0.4488
  506TMC3    C5 7519   1.056   1.801   9.771 -0.3205  0.2017  0.2610
  506TMC3    C6 7520   1.046   1.894   9.669  0.3080 -0.4505  0.1123
  506TMC3     C 7521   1.301   1.902   9.990  0.4788 -0.7888  0.6663
  506TMC3     O 7522   1.322   1.781  10.002  0.2633  0.6489  0.2990
  506TMC3     H 7523   1.261   2.118   9.811  0.4799  0.3188  0.5152
  506TMC3    H1 7524   1.100   1.756   9.974 -0.8847  1.7989  0.9102
  506TMC3    H2 7525   1.004   1.873   9.572  0.3932 -0.3661  0.0573
  506TMC3    C7 7526   1.112   1.679   9.716 -0.4234  0.2321 -0.2819
  506TMC3    C8 7527   1.169   2.060   9.560 -0.0209 -0.4262  0.0382
  506TMC3    O1 7528   1.086   1.651   9.601  0.2431  0.4966 -0.2956
  506TMC3    O2 7529   1.096   2.076   9.462 -0.2951 -0.3911 -0.4142
  507TMC3    C1 7530   3.089   3.192  13.107  0.8234 -0.9259 -0.0212
  507TMC3    C2 7531   3.139   3.300  13.049  0.5792  0.1124  0.4563
  507TMC3    C3 7532   3.236   3.372  13.110 -0.8698  0.1032  0.6887
  507TMC3    C4 7533   3.132   3.158  13.235  0.0348 -0.2201  0.1435
  507TMC3    C5 7534   3.231   3.233  13.297 -0.5858 -0.3901 -0.0764
  507TMC3    C6 7535   3.275   3.345  13.235  0.2900  0.3006 -0.4180
  507TMC3     C 7536   2.967   3.142  13.047  0.6353 -0.4375 -0.5348
  507TMC3     O 7537   2.913   3.209  12.961 -0.2656 -0.0923  0.4982
  507TMC3     H 7538   3.103   3.324  12.950  1.2394 -0.4141  0.0867
  507TMC3    H1 7539   3.084   3.074  13.285 -0.8817  0.5865  0.6057
  507TMC3    H2 7540   3.336   3.419  13.286  0.7461 -0.0891 -0.3932
  507TMC3    C7 7541   3.183   3.275  13.431 -0.5323 -0.3511 -1.0460
  507TMC3    C8 7542   3.182   3.512  13.100 -0.0820  0.2610 -0.3484
  507TMC3    O1 7543   3.187   3.393  13.448  0.2354  0.1583 -0.2141
  507TMC3    O2 7544   3.165   3.561  12.990 -0.3600  0.0606 -0.2919
  508MPD2     C 7545   3.726   0.066  16.450  0.0801  0.4562 -0.2546
  508MPD2    C1 7546   3.857   0.075  16.400  0.6644  0.7265  0.0781
  508MPD2    C2 7547   3.875   0.116  16.273 -0.0987 -0.0375  0.4945
  508MPD2    C3 7548   3.764   0.140  16.193 -0.5063 -1.4129  0.1009
  508MPD2    C4 7549   3.638   0.106  16.236  0.1494  0.1575 -0.0193
  508MPD2    C5 7550   3.617   0.081  16.367  0.2298 -0.1404  0.9193
  508MPD2     H 7551   3.972   0.142  16.231 -0.3098 -1.3933 -0.8400
  508MPD2    H1 7552   3.553   0.112  16.169  1.7892 -1.5249 -2.2589
  508MPD2    H2 7553   3.721   0.037  16.554  1.0194 -0.7789 -0.5611
  508MPD2    H3 7554   3.518   0.064  16.407  0.6726 -1.1280  1.6358
  508MPD2     N 7555   3.789   0.197  16.064 -0.8716  0.5537  0.1063
  508MPD2    H5 7556   3.883   0.235  16.058 -0.8836  0.5714  0.0326
  508MPD2    N1 7557   3.956   0.030  16.493 -0.5993 -0.4740 -0.4663
  508MPD2    H7 7558   3.918   0.009  16.585  0.7858 -1.8108 -0.1940
  509TMC3    C1 7559   3.694   0.543  15.803  0.2812 -0.3952 -0.5154
  509TMC3    C2 7560   3.828   0.563  15.758 -0.2149 -0.4786  0.7736
  509TMC3    C3 7561   3.911   0.454  15.774 -0.2022 -0.0586 -0.2945
  509TMC3    C4 7562   3.657   0.434  15.875  0.2418 -0.0627  0.1158
  509TMC3    C5 7563   3.736   0.324  15.869  0.2599 -0.2425 -0.1580
  509TMC3    C6 7564   3.866   0.331  15.832 -0.5754 -0.6012 -0.1324
  509TMC3     C 7565   3.589   0.643  15.778 -0.1073 -0.0563  0.3345
  509TMC3     O 7566   3.496   0.642  15.863 -0.2848  0.2989  0.7223
  509TMC3     H 7567   3.843   0.658  15.708 -2.3682 -0.8139 -0.5155
  509TMC3    H1 7568   3.555   0.423  15.909  0.9075  2.4472  2.9388
  509TMC3    H2 7569   3.939   0.251  15.832 -0.1560 -0.2174 -0.1593
  509TMC3    C7 7570   3.692   0.229  15.972  0.3016 -0.6812  1.0096
  509TMC3    C8 7571   4.045   0.457  15.712 -0.4563 -0.5325 -0.3855
  509TMC3    O1 7572   3.570   0.204  15.969 -0.4885  0.0441 -1.1035
  509TMC3    O2 7573   4.112   0.356  15.714  0.1213  0.5058  0.0158
  510MPD2     C 7574   1.540   2.359  14.503 -0.2123 -0.5922  0.4538
  510MPD2    C1 7575   1.578   2.228  14.519  0.0227  0.5223 -0.0251
  510MPD2    C2 7576   1.689   2.183  14.439  0.9793  0.7333 -0.2130
  510MPD2    C3 7577   1.745   2.261  14.341 -0.9835 -0.1831 -0.0589
  510MPD2    C4 7578   1.696   2.388  14.325  0.0058  0.3959 -0.0113
  510MPD2    C5 7579   1.596   2.436  14.403  0.4013  0.0868 -0.4354
  510MPD2     H 7580   1.721   2.080  14.450 -1.8043 -0.1453 -0.4152
  510MPD2    H1 7581   1.727   2.438  14.234  2.9768 -1.5840 -0.0890
  510MPD2    H2 7582   1.450   2.404  14.542 -0.2201 -1.6992  1.6883
  510MPD2    H3 7583   1.548   2.530  14.379  1.6058  0.9298  0.4201
  510MPD2     N 7584   1.859   2.201  14.276  0.2750 -0.5705  0.7159
  510MPD2    H5 7585   1.894   2.110  14.305 -2.0546 -1.5811  0.3680
  510MPD2    N1 7586   1.505   2.141  14.598 -0.1723  0.0531 -0.3502
  510MPD2    H7 7587   1.438   2.176  14.665  0.2146  2.8050 -1.4357
  511TMC3    C1 7588   1.452   1.925  14.699  0.1348 -0.2141  0.4251
  511TMC3    C2 7589   1.425   1.978  14.823 -0.0445 -0.6281  0.2706
  511TMC3    C3 7590   1.373   1.898  14.920 -0.2847  0.9011 -0.6246
  511TMC3    C4 7591   1.427   1.796  14.670 -0.0941  0.7796  0.4591
  511TMC3    C5 7592   1.377   1.718  14.768 -0.9307 -0.8558  0.3770
  511TMC3    C6 7593   1.342   1.765  14.892  0.3294  1.0024  0.0289
  511TMC3     C 7594   1.518   2.002  14.596 -0.0455  0.0909  0.1538
  511TMC3     O 7595   1.577   1.931  14.519 -0.1211  0.5011 -0.3848
  511TMC3     H 7596   1.454   2.077  14.856  0.2580 -1.2417  1.8173
  511TMC3    H1 7597   1.464   1.742  14.584 -2.8214 -0.3401 -0.0350
  511TMC3    H2 7598   1.294   1.701  14.966  0.0325  0.0614 -0.9779
  511TMC3    C7 7599   1.358   1.579  14.738 -0.5984  0.3556  0.1342
  511TMC3    C8 7600   1.330   1.959  15.040  0.2465  0.9206 -0.2228
  511TMC3    O1 7601   1.338   1.554  14.621 -0.2618 -0.5459  0.1571
  511TMC3    O2 7602   1.280   2.071  15.029  0.8132 -0.8757 -0.6004
  512TMC3    C1 7603   0.349   1.350  13.343  0.5212  0.0784  0.0698
  512TMC3    C2 7604   0.467   1.410  13.388  0.8796 -0.6664 -0.3792
  512TMC3    C3 7605   0.570   1.401  13.300 -0.2728  0.0853 -0.3390
  512TMC3    C4 7606   0.340   1.272  13.229 -0.1688  0.3635 -0.0870
  512TMC3    C5 7607   0.455   1.268  13.148 -0.2198 -0.0009  0.0767
  512TMC3    C6 7608   0.572   1.331  13.182 -0.5493  0.5167  0.1854
  512TMC3     C 7609   0.228   1.354  13.430 -0.1395  0.5448 -1.1681
  512TMC3     O 7610   0.243   1.399  13.540 -0.2232 -0.1559  0.3834
  512TMC3     H 7611   0.466   1.480  13.470  1.6897  0.7044 -1.5430
  512TMC3    H1 7612   0.243   1.238  13.194 -0.8652  1.9920  0.2645
  512TMC3    H2 7613   0.667   1.309  13.136  0.6472  3.2108  1.3470
  512TMC3    C7 7614   0.453   1.200  13.021  0.5239 -1.0853  0.4124
  512TMC3    C8 7615   0.700   1.436  13.347 -0.0985 -0.3726 -0.3876
  512TMC3    O1 7616   0.531   1.235  12.934  0.7330  0.0328  0.0469
  512TMC3    O2 7617   0.792   1.450  13.263  0.1991  0.3543 -0.1000
  513MPD2     C 7618   2.200   1.046  12.652 -0.5649  0.1964  0.1146
  513MPD2    C1 7619   2.235   1.172  12.662 -0.3814 -0.2730 -0.2314
  513MPD2    C2 7620   2.212   1.247  12.780 -0.5608  0.0930  0.4487
  513MPD2    C3 7621   2.159   1.186  12.886 -0.4174  0.1633 -0.3705
  513MPD2    C4 7622   2.131   1.050  12.880 -0.1806  0.0512 -0.4056
  513MPD2    C5 7623   2.160   0.977  12.763  0.4282 -0.5753 -0.2705
  513MPD2     H 7624   2.231   1.353  12.793  1.6683 -0.1923 -0.3915
  513MPD2    H1 7625   2.073   1.005  12.960  1.0925 -0.6491  0.1409
  513MPD2    H2 7626   2.214   0.997  12.557 -2.0441  0.4820 -0.2512
  513MPD2    H3 7627   2.121   0.876  12.757 -2.5859  0.7121 -1.9704
  513MPD2     N 7628   2.126   1.264  12.997 -0.0242  0.0058  0.1655
  513MPD2    H5 7629   2.138   1.364  12.984 -0.9276 -0.0352 -0.8904
  513MPD2    N1 7630   2.275   1.237  12.545  0.4435 -0.4200 -0.8593
  513MPD2    H7 7631   2.239   1.199  12.458 -0.0986  0.5920 -1.0751
  514TMC3    C1 7632   2.348   1.426  12.427  0.4434  0.1346  0.5402
  514TMC3    C2 7633   2.221   1.411  12.372  0.0135  0.0391  0.0826
  514TMC3    C3 7634   2.159   1.529  12.341  0.0581 -0.3532 -0.2411
  514TMC3    C4 7635   2.401   1.550  12.460 -0.3147 -0.2508  0.3776
  514TMC3    C5 7636   2.321   1.659  12.441 -0.0141 -0.0858 -0.5422
  514TMC3    C6 7637   2.207   1.654  12.364 -0.5159 -0.3884 -1.3635
  514TMC3     C 7638   2.361   1.344  12.550  0.4774 -0.2219 -0.1010
  514TMC3     O 7639   2.435   1.373  12.641  0.4274  0.4045 -0.1136
  514TMC3     H 7640   2.173   1.315  12.354  1.0994 -0.3397 -0.7709
  514TMC3    H1 7641   2.485   1.556  12.529  0.2800 -0.2567 -0.3421
  514TMC3    H2 7642   2.155   1.743  12.332 -1.0927 -0.3091 -0.1801
  514TMC3    C7 7643   2.305   1.749  12.554 -0.6742  0.7633 -0.4989
  514TMC3    C8 7644   2.038   1.527  12.262  0.1264  0.5037  0.5612
  514TMC3    O1 7645   2.197   1.745  12.609 -0.3864  0.2275  0.0242
  514TMC3    O2 7646   1.955   1.440  12.288 -0.1056  0.5606 -0.2728
  515MPD2     C 7647   0.216   3.082  14.962 -0.2023 -0.3785  0.3481
  515MPD2    C1 7648   0.317   3.057  14.869 -0.5986  0.9116  0.1057
  515MPD2    C2 7649   0.442   3.116  14.888  0.3211  0.1340  0.0218
  515MPD2    C3 7650   0.472   3.199  14.992 -0.1759 -0.0747  0.0594
  515MPD2    C4 7651   0.368   3.230  15.073 -0.5576  0.4253  0.1363
  515MPD2    C5 7652   0.246   3.183  15.052  0.3673  0.0337  0.0423
  515MPD2     H 7653   0.524   3.092  14.821  1.3648  0.5757  1.1370
  515MPD2    H1 7654   0.395   3.297  15.154 -0.9525  2.1540 -1.1595
  515MPD2    H2 7655   0.117   3.037  14.963 -0.3528 -0.0636 -0.3797
  515MPD2    H3 7656   0.171   3.211  15.125 -1.0193 -1.5451 -0.7637
  515MPD2     N 7657   0.598   3.250  15.013 -0.2279 -0.5082  0.2484
  515MPD2    H5 7658   0.611   3.296  15.102  0.4327  1.3238 -0.7937
  515MPD2    N1 7659   0.288   2.962  14.764  0.0284  0.2674 -0.2917
  515MPD2    H7 7660   0.212   2.895  14.766  1.9981 -1.8934  0.8903
  516TMC3    C1 7661   0.354   2.818  14.584 -0.4455 -0.0656 -0.5726
  516TMC3    C2 7662   0.397   2.823  14.458 -0.3794  0.0314  0.1308
  516TMC3    C3 7663   0.400   2.704  14.384 -0.3348 -0.1288 -0.0019
  516TMC3    C4 7664   0.313   2.702  14.643 -0.1601 -0.5583 -0.1767
  516TMC3    C5 7665   0.308   2.594  14.563 -0.2832  0.4633 -0.0814
  516TMC3    C6 7666   0.351   2.584  14.435  0.2428 -0.6727  1.2859
  516TMC3     C 7667   0.365   2.948  14.652  0.4227  0.1464 -0.3268
  516TMC3     O 7668   0.454   3.015  14.603 -0.0083  0.0671  0.0309
  516TMC3     H 7669   0.394   2.920  14.410 -1.5918 -0.1046 -0.0655
  516TMC3    H1 7670   0.289   2.709  14.749 -1.3829  0.0728 -0.4899
  516TMC3    H2 7671   0.351   2.490  14.380 -0.8242  0.8088 -1.2833
  516TMC3    C7 7672   0.280   2.473  14.641  0.5046  0.1817 -0.3211
  516TMC3    C8 7673   0.352   2.709  14.252  0.0169  0.5859  0.3118
  516TMC3    O1 7674   0.260   2.484  14.757 -0.0521  0.4990 -0.0548
  516TMC3    O2 7675   0.265   2.628  14.219  0.3331  0.9380  0.2058
  517MPD2     C 7676   0.069   4.180   0.052  0.2237  0.1667 -0.7803
  517MPD2    C1 7677   0.198   4.216   0.086  0.2797  0.2571  0.5307
  517MPD2    C2 7678   0.223   4.313   0.180 -0.2786  0.3695  0.4051
  517MPD2    C3 7679   0.114   4.384   0.235 -0.5250  0.0317  0.2639
  517MPD2    C4 7680   4.704   4.352   0.199  0.0236  0.4543  0.2458
  517MPD2    C5 7681   4.677   4.252   0.107  0.0724  0.2235 -0.1753
  517MPD2     H 7682   0.327   4.325   0.211  0.1179 -3.2430  0.4564
  517MPD2    H1 7683   4.620   4.397   0.251 -0.8153 -0.7173 -0.1013
  517MPD2    H2 7684   0.046   4.094  17.670 -0.4838 -0.3348  0.1652
  517MPD2    H3 7685   4.574   4.219   0.099 -0.3697  1.8651 -1.0696
  517MPD2     N 7686   0.131   4.490   0.330  0.5242  0.2729  0.1127
  517MPD2    H5 7687   0.049   4.526   0.377  0.2052  1.4439 -1.3408
  517MPD2    N1 7688   0.310   4.146   0.041 -0.1014  0.4978 -0.3685
  517MPD2    H7 7689   0.394   4.155   0.098 -1.2161 -0.8262  1.4527
  518TMC3    C1 7690   0.424   3.955  17.658  0.2009  0.6999 -0.3224
  518TMC3    C2 7691   0.411   3.819  17.665 -0.2103  0.1600  0.0368
  518TMC3    C3 7692   0.532   3.747  17.668 -0.9772 -0.3162 -0.7103
  518TMC3    C4 7693   0.545   4.022  17.650 -0.6967  0.0221  0.3501
  518TMC3    C5 7694   0.665   3.944  17.655  0.4657  0.0564 -0.1152
  518TMC3    C6 7695   0.655   3.810  17.661 -0.3502 -0.0222 -0.0699
  518TMC3     C 7696   0.302   4.033  17.654  0.5224  0.4597 -0.1029
  518TMC3     O 7697   0.225   3.996  17.568 -0.0828 -0.0544  0.8241
  518TMC3     H 7698   0.308   3.785  17.662 -0.9317  2.0004  3.4093
  518TMC3    H1 7699   0.569   4.128  17.640 -0.2080  0.1290  2.7303
  518TMC3    H2 7700   0.745   3.749  17.657 -0.4548 -0.1339 -0.7791
  518TMC3    C7 7701   0.789   3.998  17.590  0.0336 -0.0611  0.3400
  518TMC3    C8 7702   0.538   3.607  17.627  0.9925 -0.2274 -0.1974
  518TMC3    O1 7703   0.839   4.104  17.614  0.4954  0.2887 -0.3116
  518TMC3    O2 7704   0.628   3.577  17.550 -0.0660  0.1032 -0.0291
  519MPD2     C 7705   1.621   2.740  14.202 -0.1793  0.6245 -0.3348
  519MPD2    C1 7706   1.624   2.748  14.061 -0.3819  0.0333  0.3372
  519MPD2    C2 7707   1.735   2.699  13.996 -0.1851  0.4437 -0.1176
  519MPD2    C3 7708   1.849   2.664  14.059  0.3804  0.1241 -0.1126
  519MPD2    C4 7709   1.849   2.663  14.195  0.5134 -0.5283  0.4392
  519MPD2    C5 7710   1.742   2.702  14.260  0.6502 -0.4351 -0.1023
  519MPD2     H 7711   1.733   2.682  13.889 -1.6941 -1.2395  0.1937
  519MPD2    H1 7712   1.946   2.632  14.233 -1.0175 -2.2326  2.9007
  519MPD2    H2 7713   1.531   2.751  14.263  0.5218  1.4180  0.5661
  519MPD2    H3 7714   1.741   2.697  14.368 -0.1512 -1.4926 -0.1632
  519MPD2     N 7715   1.970   2.625  13.984  0.0473 -0.4688 -0.1288
  519MPD2    H5 7716   2.053   2.591  14.032  0.1418 -0.4638 -0.2863
  519MPD2    N1 7717   1.507   2.784  13.987  0.6889  0.5727  0.0047
  519MPD2    H7 7718   1.426   2.815  14.039  0.2118  0.6399 -0.7845
  520TMC3    C1 7719   2.102   2.566  13.797  0.5156 -0.8833  0.5204
  520TMC3    C2 7720   2.100   2.556  13.662 -0.2960 -0.2628 -0.1199
  520TMC3    C3 7721   2.161   2.452  13.601 -0.6624  0.5436 -0.1077
  520TMC3    C4 7722   2.155   2.461  13.877 -0.1504  0.1739  0.0818
  520TMC3    C5 7723   2.228   2.370  13.809  0.5117 -0.3106 -0.6513
  520TMC3    C6 7724   2.229   2.358  13.672 -0.4632  0.7137 -0.1507
  520TMC3     C 7725   1.994   2.645  13.848 -0.1822 -0.1613 -0.4096
  520TMC3     O 7726   1.924   2.700  13.763 -0.6651  0.2727  0.3065
  520TMC3     H 7727   2.059   2.638  13.604  0.2570  1.2289  1.6116
  520TMC3    H1 7728   2.159   2.465  13.986 -2.4439 -2.5066  0.2624
  520TMC3    H2 7729   2.269   2.266  13.630 -0.7788  0.6898 -0.3982
  520TMC3    C7 7730   2.335   2.306  13.879 -0.7310 -0.1941 -0.3499
  520TMC3    C8 7731   2.159   2.441  13.461  0.6958 -1.0817 -0.2266
  520TMC3    O1 7732   2.327   2.287  13.999  0.0879 -0.0231 -0.1686
  520TMC3    O2 7733   2.242   2.369  13.405 -0.3791  0.7665  0.4076
  521MPD2     C 7734   2.867   4.696   0.091 -0.6211 -0.7180 -0.6155
  521MPD2    C1 7735   2.871   0.066  17.674  0.2959 -0.6686  0.7038
  521MPD2    C2 7736   2.997   0.106  17.626 -0.3398 -0.6558 -0.0224
  521MPD2    C3 7737   3.119   0.065   0.002  0.7966 -0.1943  0.1672
  521MPD2    C4 7738   3.105   4.695   0.105  0.2772  0.5893 -0.2885
  521MPD2    C5 7739   2.984   4.652   0.148  0.0387  0.5139 -0.1236
  521MPD2     H 7740   2.997   0.175  17.542  0.5727  0.9318  1.3098
  521MPD2    H1 7741   3.185   4.659   0.168 -0.7870  0.7341  1.1499
  521MPD2    H2 7742   2.774   4.656   0.130  0.9055 -3.1747  0.4792
  521MPD2    H3 7743   2.979   4.596   0.240 -1.8545 -0.2092 -0.6739
  521MPD2     N 7744   3.242   0.110  17.627  0.2670  0.1399 -0.1606
  521MPD2    H5 7745   3.241   0.187  17.560  0.4716 -0.6341 -1.0599
  521MPD2    N1 7746   2.761   0.121  17.605  0.0027  0.3697  0.1647
  521MPD2    H7 7747   2.784   0.193  17.538  0.6410  1.1676  1.2548
  522TMC3    C1 7748   3.472   0.081  17.569 -0.6154  0.3136 -0.1226
  522TMC3    C2 7749   3.573   4.711  17.562  0.3138 -0.5150 -0.2077
  522TMC3    C3 7750   3.690   0.033  17.502 -0.3117 -0.2773  0.3109
  522TMC3    C4 7751   3.482   0.210  17.524  0.2807 -0.1379 -0.5344
  522TMC3    C5 7752   3.596   0.250  17.469 -0.7431  0.1762  0.4799
  522TMC3    C6 7753   3.705   0.162  17.455  0.5763 -0.1451  0.0943
  522TMC3     C 7754   3.363   0.047  17.657 -0.5219 -0.2584 -0.2389
  522TMC3     O 7755   3.382   4.658   0.036  0.2684 -0.2500 -0.2147
  522TMC3     H 7756   3.564   4.607  17.591  1.0427 -0.1820  1.2068
  522TMC3    H1 7757   3.414   0.288  17.557 -0.4723 -0.7825 -0.5814
  522TMC3    H2 7758   3.787   0.184  17.388  0.8876  1.4868  1.0250
  522TMC3    C7 7759   3.593   0.372  17.394  0.3791 -0.5783 -0.3933
  522TMC3    C8 7760   3.786   4.654  17.472  0.0063  0.3315 -0.4680
  522TMC3    O1 7761   3.696   0.426  17.358 -0.4884 -0.2892  0.4398
  522TMC3    O2 7762   3.771   4.550  17.534  0.6408  0.4633  0.3579
  523MPD2     C 7763   0.886   0.231  10.076 -0.3321  0.4277  0.2415
  523MPD2    C1 7764   0.840   0.177   9.966  0.0860  0.5859 -0.1915
  523MPD2    C2 7765   0.840   0.249   9.853 -0.0607 -0.3773 -0.1687
  523MPD2    C3 7766   0.865   0.387   9.862 -0.2760  0.4787  0.3335
  523MPD2    C4 7767   0.907   0.439   9.980  0.0799 -0.0456  0.5408
  523MPD2    C5 7768   0.922   0.355  10.090 -0.3999  0.1545  0.0839
  523MPD2     H 7769   0.805   0.208   9.759  0.1556  0.9961 -0.8445
  523MPD2    H1 7770   0.920   0.546   9.984  1.2517 -0.1607 -0.0561
  523MPD2    H2 7771   0.887   0.172  10.167 -0.2075 -0.3775 -0.2845
  523MPD2    H3 7772   0.960   0.391  10.185  0.6147  0.2928 -0.3693
  523MPD2     N 7773   0.841   0.483   9.756 -0.1404 -0.0708  0.2610
  523MPD2    H5 7774   0.890   0.571   9.771 -0.0570 -0.2893  1.2452
  523MPD2    N1 7775   0.817   0.036   9.965  0.4974  0.4872 -0.6111
  523MPD2    H7 7776   0.812   4.709  10.055  2.3323 -2.8209 -2.2007
  524TMC3    C1 7777   0.811   0.581   9.538 -0.2260  0.3289 -0.2657
  524TMC3    C2 7778   0.796   0.563   9.407 -0.3699  0.3841  0.9666
  524TMC3    C3 7779   0.777   0.675   9.325  0.0976  0.1938  0.1590
  524TMC3    C4 7780   0.804   0.705   9.596  0.6007  0.0449  0.4120
  524TMC3    C5 7781   0.782   0.815   9.517  0.1226 -0.1337  0.1691
  524TMC3    C6 7782   0.762   0.797   9.382  0.2381  0.0457 -0.6221
  524TMC3     C 7783   0.804   0.462   9.626  0.0960  0.4576  0.2032
  524TMC3     O 7784   0.781   0.348   9.580  0.4186 -0.3774 -0.3256
  524TMC3     H 7785   0.811   0.467   9.359 -1.8005  0.5889  0.1228
  524TMC3    H1 7786   0.802   0.719   9.703 -1.9216  1.1881  0.2305
  524TMC3    H2 7787   0.758   0.880   9.312 -0.0547  1.7596  1.4546
  524TMC3    C7 7788   0.754   0.941   9.576  0.6216  0.6083 -0.2162
  524TMC3    C8 7789   0.769   0.646   9.184 -0.6219 -0.2226 -0.4521
  524TMC3    O1 7790   0.800   0.978   9.686 -0.3786  0.4634  0.0818
  524TMC3    O2 7791   0.817   0.539   9.150  0.4797 -0.3478  0.3748
  525MPD2     C 7792   3.281   2.277  14.440 -0.5440  0.4337 -0.0834
  525MPD2    C1 7793   3.394   2.241  14.512 -0.8415  0.1576 -0.2875
  525MPD2    C2 7794   3.506   2.325  14.504 -0.3330 -0.0263 -0.6549
  525MPD2    C3 7795   3.499   2.446  14.443  0.0202 -0.1665  0.8485
  525MPD2    C4 7796   3.378   2.490  14.392 -0.6550 -0.5868  0.9237
  525MPD2    C5 7797   3.277   2.405  14.384 -0.3821 -0.2353  0.6131
  525MPD2     H 7798   3.595   2.276  14.541 -0.3575 -1.0964 -2.0181
  525MPD2    H1 7799   3.378   2.584  14.339 -0.8947  0.9093  3.5928
  525MPD2    H2 7800   3.197   2.210  14.429 -0.6838  0.5555  0.2564
  525MPD2    H3 7801   3.193   2.431  14.321 -2.0100 -1.4673  2.2503
  525MPD2     N 7802   3.609   2.534  14.440 -0.6610  0.6214  0.0551
  525MPD2    H5 7803   3.577   2.627  14.417 -1.3857  0.6353  1.1300
  525MPD2    N1 7804   3.405   2.110  14.566  0.0262 -0.5668  0.4134
  525MPD2    H7 7805   3.494   2.077  14.601  0.4227  1.4732  1.3180
  526TMC3    C1 7806   3.360   1.899  14.645 -0.1056  0.1026  0.2115
  526TMC3    C2 7807   3.309   1.835  14.756  0.3987  0.2701  0.1902
  526TMC3    C3 7808   3.382   1.743  14.819 -0.1983 -0.3932  0.2265
  526TMC3    C4 7809   3.483   1.860  14.582  1.0991  0.1007 -0.1901
  526TMC3    C5 7810   3.548   1.762  14.648 -0.0687 -0.0866  0.2661
  526TMC3    C6 7811   3.507   1.712  14.770 -0.1322 -0.2641  0.4160
  526TMC3     C 7812   3.305   2.025  14.598  0.4846 -0.0203  0.0887
  526TMC3     O 7813   3.182   2.039  14.588 -0.1448  0.4582 -0.1559
  526TMC3     H 7814   3.204   1.856  14.777 -0.3904 -0.0291 -3.3072
  526TMC3    H1 7815   3.522   1.905  14.492  0.9154  0.0665 -0.2874
  526TMC3    H2 7816   3.572   1.640  14.816 -1.1477 -0.7509  1.0812
  526TMC3    C7 7817   3.687   1.738  14.616 -0.6332 -0.6187  0.4333
  526TMC3    C8 7818   3.357   1.729  14.960  0.2675 -0.7716 -0.0521
  526TMC3    O1 7819   3.763   1.742  14.714 -0.3978 -0.1361  0.2526
  526TMC3    O2 7820   3.449   1.687  15.028 -0.3233  0.3218 -0.3323
  527MPD2     C 7821   2.138   4.339   1.932  0.2282  1.3220  0.1765
  527MPD2    C1 7822   2.012   4.291   1.949  0.5841  0.1240  0.2752
  527MPD2    C2 7823   1.941   4.250   1.834 -0.1116  0.6656  0.2846
  527MPD2    C3 7824   2.008   4.247   1.709 -0.6165  0.4689 -0.3731
  527MPD2    C4 7825   2.135   4.288   1.707 -0.1999  0.0726  0.2154
  527MPD2    C5 7826   2.199   4.338   1.812  0.2286 -0.3317 -0.6165
  527MPD2     H 7827   1.841   4.208   1.841  0.0813 -0.2384 -2.6032
  527MPD2    H1 7828   2.190   4.273   1.615  0.6438 -0.3070  0.7809
  527MPD2    H2 7829   2.199   4.369   2.017  0.8938 -4.0974  1.6114
  527MPD2    H3 7830   2.303   4.367   1.800  0.1441 -0.1579 -0.9050
  527MPD2     N 7831   1.943   4.213   1.595  0.6906 -0.0722  0.5249
  527MPD2    H5 7832   1.852   4.169   1.594  0.9743 -0.6960  1.8544
  527MPD2    N1 7833   1.950   4.277   2.075  0.1653  0.2637 -0.7013
  527MPD2    H7 7834   1.857   4.236   2.074  1.5648 -3.0196  2.7120
  528TMC3    C1 7835   1.898   4.330   2.297 -0.4653  0.2626 -0.2645
  528TMC3    C2 7836   1.890   4.432   2.392  0.3999  0.4112  0.1997
  528TMC3    C3 7837   1.786   4.425   2.485 -0.1252 -0.0014  0.7534
  528TMC3    C4 7838   1.821   4.222   2.300  0.1931 -0.1925  0.1278
  528TMC3    C5 7839   1.720   4.220   2.400  0.1694 -0.1504  0.1008
  528TMC3    C6 7840   1.703   4.321   2.496 -0.2696  0.1381  0.6725
  528TMC3     C 7841   1.994   4.339   2.191  0.1374  0.7832  0.4028
  528TMC3     O 7842   2.091   4.408   2.209  0.0065  0.4604 -0.2084
  528TMC3     H 7843   1.956   4.518   2.393  1.7534 -0.6123 -1.2991
  528TMC3    H1 7844   1.846   4.137   2.238 -1.3554 -0.4869 -0.0963
  528TMC3    H2 7845   1.618   4.314   2.563 -0.8198 -0.4823 -0.0884
  528TMC3    C7 7846   1.618   4.112   2.404 -0.3497  0.7907 -1.1631
  528TMC3    C8 7847   1.743   4.552   2.526 -0.2254 -0.6837 -0.3969
  528TMC3    O1 7848   1.556   4.087   2.508  1.1029  0.0047 -0.4358
  528TMC3    O2 7849   1.754   4.640   2.439  0.1086  0.1865  0.5177
  529MPD2     C 7850   4.003   3.475   1.010  0.4072  0.6261  0.7802
  529MPD2    C1 7851   4.011   3.367   0.924 -0.5399 -0.2389  0.0569
  529MPD2    C2 7852   3.930   3.371   0.807  0.3114  0.0139  0.0994
  529MPD2    C3 7853   3.854   3.489   0.780  0.5837 -0.4037  0.6695
  529MPD2    C4 7854   3.863   3.589   0.869  0.3323  0.1628  0.1110
  529MPD2    C5 7855   3.937   3.585   0.988 -0.8281  0.4394 -0.0279
  529MPD2     H 7856   3.938   3.289   0.737 -0.5149  1.0984 -1.2510
  529MPD2    H1 7857   3.816   3.681   0.837 -0.7775  0.5727  2.9658
  529MPD2    H2 7858   4.060   3.474   1.102  3.8122 -1.4501 -1.3270
  529MPD2    H3 7859   3.936   3.666   1.060  0.2534 -0.7964  1.3689
  529MPD2     N 7860   3.801   3.525   0.655  0.0830 -0.0642  0.5818
  529MPD2    H5 7861   3.749   3.612   0.644  0.3741  0.3192  2.1600
  529MPD2    N1 7862   4.082   3.249   0.949  0.1202  0.5571 -0.0946
  529MPD2    H7 7863   4.096   3.189   0.868 -0.2873  0.9591 -0.4602
  530TMC3    C1 7864   4.200   3.079   1.068 -0.5146  0.1618  0.1416
  530TMC3    C2 7865   4.294   3.042   1.159 -0.1973  0.1647 -0.6867
  530TMC3    C3 7866   4.322   2.909   1.187 -0.2129 -0.1583  0.9256
  530TMC3    C4 7867   4.124   2.987   1.001 -0.4463  0.3909  0.4241
  530TMC3    C5 7868   4.153   2.857   1.035  0.2125 -0.2392 -0.1521
  530TMC3    C6 7869   4.245   2.814   1.128  0.0187 -0.1690  0.0692
  530TMC3     C 7870   4.151   3.216   1.062  0.1152  0.3827  0.7421
  530TMC3     O 7871   4.198   3.295   1.145  0.6763  0.1426 -0.3468
  530TMC3     H 7872   4.359   3.116   1.204  0.1417 -0.6567  0.1859
  530TMC3    H1 7873   4.039   3.014   0.940 -0.0180  3.2392  1.0652
  530TMC3    H2 7874   4.253   2.707   1.145 -0.7180 -0.1867  0.3111
  530TMC3    C7 7875   4.055   2.760   0.985  0.6488  0.2051 -0.2395
  530TMC3    C8 7876   4.420   2.870   1.285 -0.2079  0.0423 -0.2187
  530TMC3    O1 7877   3.994   2.780   0.882 -0.7013 -0.0618 -0.4897
  530TMC3    O2 7878   4.448   2.960   1.362  0.1997  0.1092  0.4754
  531MPD2     C 7879   2.503   1.848  13.001  0.0511  0.0199  0.0896
  531MPD2    C1 7880   2.390   1.773  12.968  0.6844 -0.1456 -0.0027
  531MPD2    C2 7881   2.360   1.757  12.841  0.2293  0.0740  1.3002
  531MPD2    C3 7882   2.443   1.804  12.740 -0.2413  0.4429  0.7373
  531MPD2    C4 7883   2.559   1.881  12.771  0.2418  0.3847  0.0642
  531MPD2    C5 7884   2.579   1.904  12.907  0.0101  0.3517  0.2061
  531MPD2     H 7885   2.293   1.678  12.810 -0.5076  1.7487 -1.4054
  531MPD2    H1 7886   2.616   1.933  12.695  1.1549  1.1156  1.2653
  531MPD2    H2 7887   2.529   1.867  13.105 -1.7166 -0.6174  0.6425
  531MPD2    H3 7888   2.664   1.967  12.929 -0.3277  0.8502  0.0833
  531MPD2     N 7889   2.428   1.789  12.602  0.9081  0.4980 -0.5823
  531MPD2    H5 7890   2.515   1.781  12.551 -0.3329  1.1287 -2.7499
  531MPD2    N1 7891   2.326   1.701  13.075 -0.6389  0.2054  0.7471
  531MPD2    H7 7892   2.347   1.736  13.168  0.4170  0.2789  0.4841
  532TMC3    C1 7893   2.186   1.538  13.188  0.7082 -0.1803 -0.2867
  532TMC3    C2 7894   2.088   1.444  13.163 -0.2300  0.3676  0.0703
  532TMC3    C3 7895   2.085   1.318  13.211 -0.5770  0.3093 -0.3817
  532TMC3    C4 7896   2.287   1.513  13.281 -0.5767 -0.1983  0.2018
  532TMC3    C5 7897   2.266   1.394  13.349 -0.5183  0.6314  0.2588
  532TMC3    C6 7898   2.176   1.292  13.310  0.1160  0.5598  0.0238
  532TMC3     C 7899   2.236   1.596  13.067 -0.3893 -0.1950  1.0167
  532TMC3     O 7900   2.198   1.536  12.967  0.4489  0.2652 -0.4548
  532TMC3     H 7901   2.011   1.463  13.089  0.9394  2.7317 -0.5349
  532TMC3    H1 7902   2.367   1.581  13.307  0.2496 -1.8148  1.8541
  532TMC3    H2 7903   2.181   1.192  13.350 -3.3509 -0.1035 -1.2120
  532TMC3    C7 7904   2.356   1.346  13.453  0.3205 -0.7323  0.5192
  532TMC3    C8 7905   2.078   1.215  13.116 -0.6194 -0.2850 -0.7181
  532TMC3    O1 7906   2.311   1.278  13.547 -0.1610  0.3889  0.0149
  532TMC3    O2 7907   2.061   1.101  13.162 -0.1580 -0.3600 -0.6516
  533TMC3    C1 7908   3.821   2.619  14.491 -0.1815  0.7383  0.6736
  533TMC3    C2 7909   3.948   2.586  14.445  0.3679  0.1513  0.0787
  533TMC3    C3 7910   4.057   2.606  14.529 -0.2905 -0.1018 -0.7647
  533TMC3    C4 7911   3.806   2.670  14.616  0.3346  0.1538 -0.2756
  533TMC3    C5 7912   3.917   2.679  14.693  0.0463  0.0491 -0.6459
  533TMC3    C6 7913   4.044   2.639  14.658 -0.2251  0.5193 -0.5620
  533TMC3     C 7914   3.737   2.504  14.467  0.2208  0.7139  0.1948
  533TMC3     O 7915   3.789   2.402  14.498  0.5937  0.4258  0.5469
  533TMC3     H 7916   3.968   2.535  14.351 -0.2818  0.9767 -0.5181
  533TMC3    H1 7917   3.708   2.663  14.660  0.3305 -0.5588 -0.3983
  533TMC3    H2 7918   4.123   2.637  14.732 -1.6827 -0.4210  0.9579
  533TMC3    C7 7919   3.894   2.681  14.836 -0.0731  0.0748  0.6056
  533TMC3    C8 7920   4.189   2.605  14.474 -0.4293  0.6772  0.2038
  533TMC3    O1 7921   3.950   2.605  14.913  0.1704  0.4017  0.6269
  533TMC3    O2 7922   4.209   2.628  14.355  0.3874 -0.4578  0.2014
  534MPD2     C 7923   1.278   3.229   2.557 -0.4720  0.0373 -0.0029
  534MPD2    C1 7924   1.343   3.317   2.472 -0.2944  0.8157 -0.0360
  534MPD2    C2 7925   1.309   3.311   2.336  0.8490  0.5608 -0.1326
  534MPD2    C3 7926   1.199   3.229   2.299  0.7642 -0.3936  0.5037
  534MPD2    C4 7927   1.135   3.148   2.391 -0.0672 -0.0677  0.3697
  534MPD2    C5 7928   1.176   3.150   2.519  0.1030 -0.1397  0.1117
  534MPD2     H 7929   1.366   3.369   2.264 -0.9841 -0.0745 -2.0852
  534MPD2    H1 7930   1.059   3.080   2.354  3.3720 -2.5208 -2.2355
  534MPD2    H2 7931   1.317   3.213   2.656 -0.2370 -0.1293 -0.1223
  534MPD2    H3 7932   1.126   3.077   2.582 -0.7768 -1.5096 -2.1953
  534MPD2     N 7933   1.149   3.229   2.169 -0.4637  0.2808  0.4828
  534MPD2    H5 7934   1.076   3.161   2.149  1.0144 -1.3944  0.8805
  534MPD2    N1 7935   1.451   3.396   2.517  0.3940  0.0295  0.5477
  534MPD2    H7 7936   1.493   3.441   2.436  0.2909 -0.1060  0.4190
  535TMC3    C1 7937   1.115   3.302   1.945  0.3110 -0.1134 -0.7465
  535TMC3    C2 7938   0.981   3.264   1.940  0.3565 -0.0827 -0.1426
  535TMC3    C3 7939   0.914   3.274   1.819  0.8602  0.0809  0.5088
  535TMC3    C4 7940   1.179   3.348   1.829 -0.7114 -0.3708  0.1122
  535TMC3    C5 7941   1.103   3.363   1.714  0.6746  0.4094 -0.3649
  535TMC3    C6 7942   0.972   3.327   1.706 -0.2615  0.5914  0.0380
  535TMC3     C 7943   1.186   3.318   2.071  0.5277 -0.4978  0.4828
  535TMC3     O 7944   1.291   3.384   2.059  0.3562 -0.9589 -0.7107
  535TMC3     H 7945   0.924   3.227   2.024 -0.1154  0.1853 -0.3447
  535TMC3    H1 7946   1.286   3.346   1.816 -0.5701  0.9100  1.1752
  535TMC3    H2 7947   0.928   3.320   1.607 -0.4458 -0.0026  0.1647
  535TMC3    C7 7948   1.174   3.397   1.589 -0.6079  0.3834  0.6089
  535TMC3    C8 7949   0.794   3.190   1.788 -0.0594  0.0076  0.6098
  535TMC3    O1 7950   1.280   3.341   1.567 -0.1882  0.8947  0.5698
  535TMC3    O2 7951   0.737   3.213   1.681 -0.1863  0.2012  0.2796
  536MPD2     C 7952   4.649   1.277  16.317 -0.5747  0.3325 -0.6716
  536MPD2    C1 7953   4.631   1.399  16.363  0.0084 -0.1998 -0.5803
  536MPD2    C2 7954   4.573   1.499  16.289  0.2446  0.4935 -0.5425
  536MPD2    C3 7955   4.544   1.477  16.160  0.1861  0.3138  0.2548
  536MPD2    C4 7956   4.565   1.348  16.111 -0.7436 -0.4450 -0.0768
  536MPD2    C5 7957   4.622   1.258  16.185  0.0113  0.4947 -0.2653
  536MPD2     H 7958   4.569   1.602  16.323  1.4029  0.8117 -1.3389
  536MPD2    H1 7959   4.543   1.331  16.006  0.2434 -0.6262 -0.2551
  536MPD2    H2 7960   4.702   1.195  16.364 -0.3493  0.7925 -0.1274
  536MPD2    H3 7961   4.626   1.158  16.144 -0.0146 -0.1616  1.3503
  536MPD2     N 7962   4.496   1.573  16.072 -0.9093  0.6371  0.4191
  536MPD2    H5 7963   4.471   1.541  15.979 -0.9819 -0.5323  0.8483
  536MPD2    N1 7964   4.662   1.425  16.496  0.4153  0.1888 -0.5532
  536MPD2    H7 7965   4.686   1.343  16.550 -0.0413  0.7890  0.5626
  537TMC3    C1 7966   0.010   1.531  16.698  0.2223 -0.3381 -0.1309
  537TMC3    C2 7967   0.090   1.635  16.745 -0.3112  0.2068  0.0755
  537TMC3    C3 7968   0.122   1.640  16.877 -0.1564  0.0514  0.1397
  537TMC3    C4 7969   4.680   1.446  16.793 -0.6353 -0.2530  0.5855
  537TMC3    C5 7970   4.712   1.456  16.922 -0.0309 -0.1660  0.8915
  537TMC3    C6 7971   0.075   1.553  16.972 -0.4967  0.6761  0.7945
  537TMC3     C 7972   4.673   1.544  16.563 -0.6095  0.2723  0.5551
  537TMC3     O 7973   4.652   1.658  16.520  0.4394  0.0078  0.3798
  537TMC3     H 7974   0.135   1.703  16.674  0.0332 -0.3728 -0.2645
  537TMC3    H1 7975   4.618   1.362  16.763 -0.5683  0.1963 -0.7996
  537TMC3    H2 7976   0.119   1.558  17.071 -1.7231 -0.5440  1.4085
  537TMC3    C7 7977   4.692   1.348  17.013  0.6987  0.2449 -0.3272
  537TMC3    C8 7978   0.225   1.732  16.915 -0.0591 -0.1296 -0.0467
  537TMC3    O1 7979   4.706   1.235  16.973 -0.2818 -0.7619 -0.5009
  537TMC3    O2 7980   0.225   1.762  17.031 -0.4222 -0.4887 -0.3184
  538TMC3    C1 7981   1.390   0.592  10.752  0.0767 -0.2890  0.5222
  538TMC3    C2 7982   1.483   0.599  10.654  0.0378 -0.3620  0.2631
  538TMC3    C3 7983   1.442   0.655  10.532  0.3330 -0.2404 -0.0017
  538TMC3    C4 7984   1.263   0.638  10.735 -0.5494 -0.6410 -0.1132
  538TMC3    C5 7985   1.220   0.686  10.611  0.0918  0.3040  0.5153
  538TMC3    C6 7986   1.315   0.692  10.509 -0.4951 -0.5589  0.1991
  538TMC3     C 7987   1.446   0.621  10.885 -0.2762 -0.5607  0.3364
  538TMC3     O 7988   1.423   0.736  10.919 -0.2273 -0.1685 -0.0684
  538TMC3     H 7989   1.588   0.588  10.678  0.4523  2.5891 -0.2873
  538TMC3    H1 7990   1.188   0.629  10.813 -1.3887  0.6620 -0.7649
  538TMC3    H2 7991   1.291   0.742  10.416  1.6879 -1.6534 -0.9344
  538TMC3    C7 7992   1.083   0.653  10.573 -0.0287 -0.0187  0.2681
  538TMC3    C8 7993   1.541   0.659  10.426 -0.3798  0.7499 -0.1548
  538TMC3    O1 7994   1.008   0.642  10.668  0.3649  0.0829  0.8839
  538TMC3    O2 7995   1.594   0.553  10.402 -0.1017 -0.1722  0.3261
  539MPD2     C 7996   0.711   4.459  11.777 -0.0129 -0.0887  0.2726
  539MPD2    C1 7997   0.750   4.484  11.645 -0.1716  0.2272 -0.0523
  539MPD2    C2 7998   0.683   4.571  11.570 -0.2428 -0.1037  0.2713
  539MPD2    C3 7999   0.577   4.650  11.628 -0.4378  0.2066 -0.5858
  539MPD2    C4 8000   0.556   4.641  11.764  1.0400 -0.8914  0.2088
  539MPD2    C5 8001   0.619   4.544  11.833  0.0604 -0.0877 -0.4122
  539MPD2     H 8002   0.710   4.587  11.466 -1.0346 -0.7292 -0.0299
  539MPD2    H1 8003   0.481   4.701  11.813  2.0296  1.9150 -1.6744
  539MPD2    H2 8004   0.750   4.393  11.853  0.9895  0.2064  0.0273
  539MPD2    H3 8005   0.577   4.525  11.931 -1.2215  0.1894 -0.9121
  539MPD2     N 8006   0.504   0.036  11.565 -1.2810 -0.4823  0.3140
  539MPD2    H5 8007   0.436   0.091  11.617 -0.8064 -0.5715  1.0412
  539MPD2    N1 8008   0.850   4.412  11.585  0.5539  0.0880  0.4774
  539MPD2    H7 8009   0.864   4.432  11.486 -0.2554 -0.4844  0.2410
  540TMC3    C1 8010   0.475   0.211  11.411  0.5575  0.3301 -0.0430
  540TMC3    C2 8011   0.479   0.246  11.277 -0.0204  0.3363 -0.2205
  540TMC3    C3 8012   0.452   0.373  11.241  0.2205  0.2990 -0.6936
  540TMC3    C4 8013   0.460   0.305  11.511 -0.7817  0.3267 -0.0018
  540TMC3    C5 8014   0.445   0.432  11.467  0.1865 -0.2559  0.0843
  540TMC3    C6 8015   0.439   0.468  11.333  0.0997  0.0297  0.1217
  540TMC3     C 8016   0.526   0.081  11.439 -0.2007 -0.7423  0.4780
  540TMC3     O 8017   0.596   0.037  11.349 -0.3795  0.0629  0.0496
  540TMC3     H 8018   0.492   0.165  11.207  3.3710  0.8270 -0.1733
  540TMC3    H1 8019   0.473   0.289  11.618  0.2544 -1.1714 -0.3413
  540TMC3    H2 8020   0.403   0.564  11.296  1.8682  0.7051  0.1229
  540TMC3    C7 8021   0.391   0.527  11.552 -0.2664  0.1061 -0.0394
  540TMC3    C8 8022   0.486   0.419  11.107 -1.2116 -0.0852  0.0730
  540TMC3    O1 8023   0.317   0.486  11.641 -0.0067  0.8763  0.3589
  540TMC3    O2 8024   0.541   0.529  11.090 -0.4582 -0.3270  0.0752
  541MPD2     C 8025   3.875   1.884  13.054 -0.3864  0.6419 -0.0653
  541MPD2    C1 8026   3.938   1.804  12.960 -0.3921 -0.1017  0.7105
  541MPD2    C2 8027   3.986   1.868  12.847  0.0388  0.1003 -0.2735
  541MPD2    C3 8028   3.962   2.005  12.825  0.4215  0.0446 -0.3356
  541MPD2    C4 8029   3.889   2.080  12.913  0.1801 -0.5624 -0.9448
  541MPD2    C5 8030   3.846   2.019  13.029 -0.1301  0.0256 -0.2168
  541MPD2     H 8031   4.044   1.813  12.773  0.4949 -0.5562  0.5643
  541MPD2    H1 8032   3.843   2.177  12.895 -2.5495 -1.5398  0.8000
  541MPD2    H2 8033   3.832   1.835  13.141 -0.0196 -1.9230 -1.3163
  541MPD2    H3 8034   3.787   2.075  13.102  0.1704  0.6329 -0.4386
  541MPD2     N 8035   3.996   2.074  12.703  0.2577  0.1319  0.5150
  541MPD2    H5 8036   3.952   2.162  12.677  2.6013  0.9944 -0.4502
  541MPD2    N1 8037   3.937   1.668  12.991  0.6984 -0.3292 -0.1691
  541MPD2    H7 8038   3.903   1.655  13.086 -0.5447  1.4299 -0.3654
  542TMC3    C1 8039   4.060   2.057  12.476 -0.0627  0.0980 -0.2120
  542TMC3    C2 8040   4.116   1.973  12.379  0.1834 -0.3305 -0.6266
  542TMC3    C3 8041   4.102   1.999  12.244 -0.4375 -0.6643  0.0763
  542TMC3    C4 8042   4.002   2.179  12.439 -1.6351  0.6177 -0.2692
  542TMC3    C5 8043   4.007   2.209  12.301  0.3679  0.3994 -0.1325
  542TMC3    C6 8044   4.055   2.125  12.202 -0.2010  0.2364 -0.0084
  542TMC3     C 8045   4.085   2.019  12.613 -0.2509 -1.4044 -0.5785
  542TMC3     O 8046   4.161   1.923  12.617 -0.9029  0.5664  0.0599
  542TMC3     H 8047   4.143   1.874  12.415  1.0944 -0.3351 -1.3066
  542TMC3    H1 8048   3.961   2.249  12.511  0.0552 -0.6381  1.8987
  542TMC3    H2 8049   4.060   2.138  12.095 -2.5735 -1.3755 -0.3141
  542TMC3    C7 8050   4.007   2.352  12.269 -0.0113 -0.6486  0.0890
  542TMC3    C8 8051   4.126   1.900  12.148  0.4386  0.4573  0.1515
  542TMC3    O1 8052   3.968   2.431  12.353 -0.5733 -0.0461 -0.3010
  542TMC3    O2 8053   4.077   1.921  12.036  0.3030  0.3699 -0.5895
  543TMC3    C1 8054   3.437   2.011  16.983 -0.5418 -1.1726 -0.0258
  543TMC3    C2 8055   3.494   1.896  16.926 -0.6407  0.0817 -0.4063
  543TMC3    C3 8056   3.423   1.779  16.923  0.4620 -0.7847  0.4379
  543TMC3    C4 8057   3.311   2.005  17.035 -0.3231  0.0813 -0.1401
  543TMC3    C5 8058   3.243   1.892  17.020 -0.6731 -0.4436  0.6292
  543TMC3    C6 8059   3.289   1.778  16.959 -0.3016 -0.0010  0.2251
  543TMC3     C 8060   3.473   2.122  16.903  0.2855  0.3995  0.1321
  543TMC3     O 8061   3.570   2.111  16.829 -0.3317  0.0422  0.0876
  543TMC3     H 8062   3.596   1.898  16.888 -1.5844  0.3765 -2.9103
  543TMC3    H1 8063   3.264   2.093  17.078 -2.8717 -0.0614 -2.6051
  543TMC3    H2 8064   3.232   1.686  16.965  0.5532 -0.6890 -2.5057
  543TMC3    C7 8065   3.129   1.875  17.106  0.1774 -0.3050  0.2356
  543TMC3    C8 8066   3.490   1.647  16.912 -0.2841 -0.1543  0.3827
  543TMC3    O1 8067   3.123   1.964  17.189  0.3071  0.3456 -0.2902
  543TMC3    O2 8068   3.425   1.550  16.877 -0.0507  0.0892 -0.4385
  544MPD2     C 8069   3.890   1.345  17.018  0.2281 -0.2784 -0.4688
  544MPD2    C1 8070   3.789   1.326  16.930 -0.5365 -0.3922 -0.1960
  544MPD2    C2 8071   3.692   1.422  16.909 -0.0602  0.1620 -0.2976
  544MPD2    C3 8072   3.707   1.546  16.968 -0.2050 -0.0354  0.2500
  544MPD2    C4 8073   3.816   1.565  17.049  0.1819 -0.0981  0.2181
  544MPD2    C5 8074   3.907   1.471  17.068 -0.1594  0.2142  0.1188
  544MPD2     H 8075   3.610   1.408  16.839 -0.2118 -0.0239 -0.0836
  544MPD2    H1 8076   3.837   1.656  17.103 -1.8892  1.1446 -1.0575
  544MPD2    H2 8077   3.965   1.270  17.040 -0.6060 -1.5922 -2.0992
  544MPD2    H3 8078   3.994   1.495  17.128  0.0767 -1.2047  0.3354
  544MPD2     N 8079   3.618   1.655  16.965  0.3792 -0.5164  0.5866
  544MPD2    H5 8080   3.635   1.735  17.025  0.6701 -0.1595  0.0231
  544MPD2    N1 8081   3.792   1.203  16.864  0.3861 -0.6477 -0.2024
  544MPD2    H7 8082   3.869   1.140  16.884  0.9558  0.3978  0.8938
  545TMC3    C1 8083   3.708   1.037  16.726 -0.8577  0.5628  0.0068
  545TMC3    C2 8084   3.799   1.030  16.632 -0.3717 -0.1891  0.5228
  545TMC3    C3 8085   3.821   0.908  16.572 -0.7094 -0.0316  0.1450
  545TMC3    C4 8086   3.618   0.934  16.740 -0.1739 -0.2433 -0.2508
  545TMC3    C5 8087   3.624   0.825  16.669  0.3597  0.7007 -0.4518
  545TMC3    C6 8088   3.739   0.802  16.595 -0.2883 -0.5754  0.4573
  545TMC3     C 8089   3.679   1.149  16.795 -0.0044 -0.1203 -0.1263
  545TMC3     O 8090   3.561   1.181  16.804  0.7396  0.5283  0.3376
  545TMC3     H 8091   3.865   1.114  16.613 -0.7978  0.0789  0.2501
  545TMC3    H1 8092   3.536   0.923  16.810  1.6454  1.2265  2.0783
  545TMC3    H2 8093   3.758   0.706  16.547  0.2089 -2.0652  3.6286
  545TMC3    C7 8094   3.578   0.705  16.738  0.3947 -0.2481  0.1707
  545TMC3    C8 8095   3.955   0.871  16.527  0.3725 -0.2515  0.0311
  545TMC3    O1 8096   3.458   0.696  16.761 -0.4253  0.2033 -0.0228
  545TMC3    O2 8097   3.980   0.754  16.548  0.3300  0.2186  0.2233
  546MPD2     C 8098   0.385   2.253  17.097 -1.0950  0.2690 -0.2851
  546MPD2    C1 8099   0.307   2.359  17.065 -0.6645  0.0597  0.4262
  546MPD2    C2 8100   0.366   2.483  17.046 -0.3013 -0.0265 -0.8250
  546MPD2    C3 8101   0.502   2.500  17.063 -0.2571 -0.2992  0.7328
  546MPD2    C4 8102   0.583   2.392  17.087  0.0143  0.7525  0.5815
  546MPD2    C5 8103   0.519   2.268  17.107  0.0394  0.2536  0.9648
  546MPD2     H 8104   0.303   2.567  17.021  3.0556  3.5114  2.4933
  546MPD2    H1 8105   0.689   2.400  17.106  0.5366  2.3019 -3.0109
  546MPD2    H2 8106   0.339   2.155  17.110  1.5438 -0.8204  0.8476
  546MPD2    H3 8107   0.578   2.179  17.129  2.8594  1.0635 -3.3874
  546MPD2     N 8108   0.540   2.633  17.081  0.0212  0.1206 -0.0054
  546MPD2    H5 8109   0.463   2.700  17.075 -0.5893 -0.6184 -0.3868
  546MPD2    N1 8110   0.174   2.326  17.053 -0.3957 -1.1899 -0.3430
  546MPD2    H7 8111   0.144   2.232  17.076  1.8126 -1.9821 -0.7243
  547TMC3    C1 8112   4.657   2.356  17.011  1.0441 -0.2550  0.1270
  547TMC3    C2 8113   4.570   2.436  16.947  0.5513  0.0353  0.6120
  547TMC3    C3 8114   4.434   2.412  16.957 -0.1556  0.3773  0.3227
  547TMC3    C4 8115   4.612   2.269  17.105  0.0086 -0.2308  0.1957
  547TMC3    C5 8116   4.477   2.251  17.126 -0.2362  0.0248  0.3704
  547TMC3    C6 8117   4.391   2.323  17.045 -0.3805 -0.3262 -0.3712
  547TMC3     C 8118   0.071   2.416  17.020 -0.5865 -0.1722 -0.3192
  547TMC3     O 8119   0.078   2.534  16.988 -0.3010 -0.0406 -0.3559
  547TMC3     H 8120   4.618   2.486  16.864  3.2065  0.7477  2.5517
  547TMC3    H1 8121   4.685   2.214  17.164  0.4228 -1.1857 -1.2073
  547TMC3    H2 8122   4.285   2.300  17.047 -0.7866  1.4571 -1.1710
  547TMC3    C7 8123   4.417   2.188  17.246 -0.3120  0.1219 -0.5433
  547TMC3    C8 8124   4.344   2.465  16.848  0.0160  0.2803  0.3117
  547TMC3    O1 8125   4.297   2.196  17.253 -0.2904  0.0791 -0.2984
  547TMC3    O2 8126   4.224   2.438  16.853 -0.2180  0.1120 -0.2196
  548MPD2     C 8127   4.464   3.298  12.352 -0.1119  0.3190 -0.1896
  548MPD2    C1 8128   4.413   3.202  12.438 -0.0106 -0.5459 -0.0510
  548MPD2    C2 8129   4.481   3.081  12.460 -0.1142  0.0030  0.1149
  548MPD2    C3 8130   4.597   3.055  12.388 -0.4577 -0.5103 -0.0349
  548MPD2    C4 8131   4.646   3.155  12.309  0.1666  0.3452 -0.0451
  548MPD2    C5 8132   4.587   3.277  12.293  0.3555 -0.0401  0.1167
  548MPD2     H 8133   4.430   3.007  12.520 -1.9999  1.1626 -0.0488
  548MPD2    H1 8134   0.025   3.152  12.264  0.4022  0.9217  0.4249
  548MPD2    H2 8135   4.416   3.395  12.346  0.0230  0.4154  0.3310
  548MPD2    H3 8136   4.628   3.349  12.223  2.4541 -0.8988  0.4713
  548MPD2     N 8137   4.659   2.932  12.399  0.1175 -0.8451 -0.2449
  548MPD2    H5 8138   4.625   2.865  12.467 -1.2894 -0.8723 -0.9821
  548MPD2    N1 8139   4.285   3.240  12.493 -0.0532 -0.3580 -0.5473
  548MPD2    H7 8140   4.239   3.323  12.457  1.8679  0.0371 -2.1226
  549TMC3    C1 8141   4.085   3.195  12.584 -0.1638  0.1149  0.3258
  549TMC3    C2 8142   4.026   3.258  12.476  0.1481  0.2984 -0.5290
  549TMC3    C3 8143   3.889   3.261  12.475 -0.2469  0.5366  0.2230
  549TMC3    C4 8144   4.011   3.120  12.674  0.0956 -0.4341 -0.0388
  549TMC3    C5 8145   3.870   3.118  12.653 -0.0379  0.1822  1.0087
  549TMC3    C6 8146   3.807   3.203  12.568 -0.4934 -0.4865  0.9053
  549TMC3     C 8147   4.225   3.177  12.598  0.0123  0.1700 -0.0916
  549TMC3     O 8148   4.276   3.114  12.692  0.2425  0.4191  0.1111
  549TMC3     H 8149   4.078   3.287  12.385  0.7783 -2.1677 -0.9484
  549TMC3    H1 8150   4.061   3.062  12.750 -1.0484 -3.3708 -1.5597
  549TMC3    H2 8151   3.700   3.206  12.548  0.0262 -3.0823 -2.3013
  549TMC3    C7 8152   3.791   3.012  12.721 -0.3229  0.3221  0.3838
  549TMC3    C8 8153   3.832   3.353  12.380 -0.0072 -0.0751 -0.3350
  549TMC3    O1 8154   3.671   3.018  12.724  0.1133  0.5174  0.1142
  549TMC3    O2 8155   3.712   3.334  12.351 -0.4215  0.3529  0.0255
  550TMC3    C1 8156   3.072   1.295  11.342  0.3003 -0.1782 -0.4845
  550TMC3    C2 8157   3.120   1.314  11.466 -0.4132  0.2464 -0.1688
  550TMC3    C3 8158   3.044   1.384  11.558  0.6380 -0.4438 -0.7404
  550TMC3    C4 8159   2.949   1.348  11.301 -0.5343 -0.1644  0.4181
  550TMC3    C5 8160   2.884   1.430  11.391  0.4681  0.1376  0.1470
  550TMC3    C6 8161   2.931   1.448  11.516  0.1244 -0.4697  0.1986
  550TMC3     C 8162   3.142   1.209  11.259 -0.0303 -0.8152  0.0103
  550TMC3     O 8163   3.210   1.121  11.300 -0.2218 -0.4876 -0.2922
  550TMC3     H 8164   3.207   1.255  11.495  1.2442  1.3860 -2.8482
  550TMC3    H1 8165   2.905   1.312  11.208  0.6902  0.9279 -0.5933
  550TMC3    H2 8166   2.886   1.520  11.583 -0.9710  2.1825 -3.4362
  550TMC3    C7 8167   2.750   1.477  11.352 -0.4482 -0.8489 -0.2143
  550TMC3    C8 8168   3.095   1.430  11.687 -0.0733 -0.4223  0.3403
  550TMC3    O1 8169   2.660   1.459  11.424  0.3782  0.2230  0.7469
  550TMC3    O2 8170   3.000   1.451  11.765 -0.2661 -0.4299 -0.2545
  551TMC3    C1 8171   0.752   3.690  13.466 -0.6651 -0.1742  0.1696
  551TMC3    C2 8172   0.771   3.758  13.350  0.0737 -0.0379  0.3764
  551TMC3    C3 8173   0.867   3.856  13.353  0.3373  0.7638  0.2180
  551TMC3    C4 8174   0.823   3.714  13.580  0.4119  0.3753 -0.0096
  551TMC3    C5 8175   0.909   3.822  13.585  0.6827 -0.1321  0.0594
  551TMC3    C6 8176   0.937   3.887  13.468 -0.1490 -0.1966 -0.2231
  551TMC3     C 8177   0.667   3.579  13.458 -0.1805 -0.6505  0.6961
  551TMC3     O 8178   0.692   3.477  13.517  0.2070  0.1325  0.7521
  551TMC3     H 8179   0.733   3.720  13.255  0.1762 -1.3506  0.8637
  551TMC3    H1 8180   0.816   3.645  13.663  1.4900 -0.8917 -0.9934
  551TMC3    H2 8181   1.022   3.954  13.461 -0.3803  0.3461  2.2557
  551TMC3    C7 8182   0.987   3.843  13.707 -0.1546 -0.3727 -0.0592
  551TMC3    C8 8183   0.939   3.871  13.231  0.1339 -0.0432  0.1739
  551TMC3    O1 8184   0.979   3.742  13.779  0.0905  0.0445 -0.1129
  551TMC3    O2 8185   0.954   3.771  13.160  0.1068  0.4592 -0.3190
  552MPD2     C 8186   2.455   1.187  14.163  1.0291 -0.0677  0.5382
  552MPD2    C1 8187   2.530   1.111  14.079 -0.2847  0.1508  0.9200
  552MPD2    C2 8188   2.654   1.063  14.119  0.0982 -0.2306 -0.1739
  552MPD2    C3 8189   2.695   1.074  14.252 -0.2237  0.2874 -0.4699
  552MPD2    C4 8190   2.613   1.144  14.335  0.6680  0.5964  0.7521
  552MPD2    C5 8191   2.498   1.205  14.291  0.4280 -0.5245  0.1349
  552MPD2     H 8192   2.709   1.005  14.045  1.8301  0.6175  0.4631
  552MPD2    H1 8193   2.643   1.158  14.438 -0.2921  0.5348  1.0385
  552MPD2    H2 8194   2.356   1.217  14.131  0.8871 -0.3056  0.7549
  552MPD2    H3 8195   2.440   1.258  14.365  1.4331  1.2172 -0.3397
  552MPD2     N 8196   2.813   1.034  14.307 -0.3043 -0.2097 -0.4852
  552MPD2    H5 8197   2.828   1.042  14.407 -2.2054 -0.7615 -0.1520
  552MPD2    N1 8198   2.482   1.071  13.953  0.1549  0.1677 -0.9490
  552MPD2    H7 8199   2.546   1.018  13.896  0.6889 -1.2679  1.0120
  553TMC3    C1 8200   2.335   0.963  13.813  0.7508  0.0961 -0.1770
  553TMC3    C2 8201   2.394   0.987  13.691  0.3873  0.0635 -0.2938
  553TMC3    C3 8202   2.464   0.888  13.631 -0.2650  0.1593 -0.0390
  553TMC3    C4 8203   2.362   0.844  13.869  0.8012  0.0087 -0.2343
  553TMC3    C5 8204   2.441   0.748  13.813  0.4068 -0.4108  0.1284
  553TMC3    C6 8205   2.501   0.769  13.691  0.6222  0.0221 -0.1429
  553TMC3     C 8206   2.348   1.070  13.910  0.4877 -0.8365 -0.1873
  553TMC3     O 8207   2.244   1.106  13.968 -0.1566  0.0437 -0.2031
  553TMC3     H 8208   2.365   1.077  13.637 -1.5533 -0.1696  0.3687
  553TMC3    H1 8209   2.316   0.821  13.965  2.3213 -0.6429  0.3571
  553TMC3    H2 8210   2.573   0.702  13.645 -0.4091  0.1183 -1.8799
  553TMC3    C7 8211   2.534   0.697  13.913 -0.9246  0.1134  0.5150
  553TMC3    C8 8212   2.535   0.918  13.506  0.2331  0.0790 -0.2446
  553TMC3    O1 8213   2.487   0.612  13.986  0.0668  0.0291  0.4073
  553TMC3    O2 8214   2.637   0.855  13.488 -0.3599 -0.0760  0.1331
  554TMC3    C1 8215   4.207   0.233  11.505 -0.1160  0.2365 -0.4326
  554TMC3    C2 8216   4.132   0.161  11.418 -0.9998  0.3069 -1.1211
  554TMC3    C3 8217   4.171   0.160  11.290  0.0130 -0.2603  0.0891
  554TMC3    C4 8218   4.321   0.286  11.461 -0.2171  0.3211 -0.1161
  554TMC3    C5 8219   4.362   0.274  11.331 -0.5496  0.3480  0.2610
  554TMC3    C6 8220   4.287   0.218  11.239 -0.1333 -0.0510 -0.1846
  554TMC3     C 8221   4.209   0.180  11.641  0.4104 -0.1823  0.6085
  554TMC3     O 8222   4.315   0.183  11.697 -0.2396  0.2676 -0.3133
  554TMC3     H 8223   4.033   0.122  11.436 -1.4036  2.4315  1.2815
  554TMC3    H1 8224   4.368   0.350  11.535 -0.6330  1.7839 -1.1101
  554TMC3    H2 8225   4.319   0.203  11.136 -1.4174 -0.2243 -0.5614
  554TMC3    C7 8226   4.495   0.318  11.284  0.7018 -0.4005 -0.2905
  554TMC3    C8 8227   4.087   0.105  11.181  0.3180  0.6043 -0.4321
  554TMC3    O1 8228   4.521   0.288  11.169 -0.8599 -0.1308 -0.2719
  554TMC3    O2 8229   4.111   0.164  11.077 -0.6194 -0.3120  0.4695
  555TMC3    C1 8230   3.985   4.176  14.797  0.9169 -0.5268 -0.0385
  555TMC3    C2 8231   3.930   4.279  14.872  0.6566  0.0590 -1.0749
  555TMC3    C3 8232   3.889   4.241  14.997  0.6748  0.1419  0.0061
  555TMC3    C4 8233   3.999   4.048  14.852 -0.5665 -0.4995  0.0129
  555TMC3    C5 8234   3.962   4.027  14.983 -0.4469  0.0504 -0.3488
  555TMC3    C6 8235   3.895   4.120  15.055  0.5351 -0.7456 -0.4523
  555TMC3     C 8236   4.034   4.211  14.662 -0.3884  0.0262 -0.2092
  555TMC3     O 8237   4.111   4.135  14.606 -0.0989 -0.2699  0.7263
  555TMC3     H 8238   3.935   4.383  14.842 -2.2712  1.3391  2.9250
  555TMC3    H1 8239   4.053   3.973  14.795 -2.0558 -0.4705 -1.4473
  555TMC3    H2 8240   3.863   4.107  15.158  0.3809 -3.0150 -0.7843
  555TMC3    C7 8241   3.986   3.892  15.034  0.2399  0.1533 -0.3271
  555TMC3    C8 8242   3.801   4.333  15.056 -0.0810 -0.0595  0.1017
  555TMC3    O1 8243   3.916   3.861  15.130  0.1323 -0.2661 -0.2519
  555TMC3    O2 8244   3.701   4.380  15.003 -0.7882  0.1023 -0.2491
  556MPD2     C 8245   0.924   1.344  10.603  0.0036  0.4480 -0.1007
  556MPD2    C1 8246   1.055   1.340  10.582 -0.2218  0.8537  0.4270
  556MPD2    C2 8247   1.111   1.351  10.455 -0.0360 -0.5551 -1.0419
  556MPD2    C3 8248   1.028   1.354  10.349  0.7308 -0.2150  0.3694
  556MPD2    C4 8249   0.889   1.359  10.364  0.2378  0.6573 -0.5201
  556MPD2    C5 8250   0.839   1.353  10.490  0.2149 -0.3891  0.2286
  556MPD2     H 8251   1.219   1.347  10.445 -0.2220 -3.6211 -1.8048
  556MPD2    H1 8252   0.819   1.364  10.281 -0.7263  0.8523  0.3107
  556MPD2    H2 8253   0.878   1.326  10.699 -0.2158  0.7876 -0.1434
  556MPD2    H3 8254   0.732   1.359  10.504  0.4802 -1.1166  2.6649
  556MPD2     N 8255   1.093   1.351  10.222 -0.5066  0.2060 -0.0729
  556MPD2    H5 8256   1.194   1.337  10.227 -0.4004  1.0318  0.0188
  556MPD2    N1 8257   1.152   1.321  10.686  0.1209  0.1791  0.0401
  556MPD2    H7 8258   1.249   1.345  10.668  0.4134 -1.4276 -0.5833
  557TMC3    C1 8259   1.127   1.330   9.990 -0.0262 -0.2455  1.1998
  557TMC3    C2 8260   1.058   1.289   9.881 -0.0261 -0.7747  0.9780
  557TMC3    C3 8261   1.112   1.183   9.811  0.7572 -0.0440  0.6463
  557TMC3    C4 8262   1.247   1.284  10.018 -0.4007 -0.3608 -0.5516
  557TMC3    C5 8263   1.306   1.187   9.939 -0.1665 -0.2021  0.1743
  557TMC3    C6 8264   1.235   1.125   9.842  0.3526  0.1739  0.1730
  557TMC3     C 8265   1.034   1.368  10.099 -0.5010 -0.2923 -0.6045
  557TMC3     O 8266   0.926   1.411  10.066 -0.4079 -0.2988 -0.0983
  557TMC3     H 8267   0.958   1.323   9.854  0.5724  0.7191  0.6763
  557TMC3    H1 8268   1.300   1.320  10.106  0.8107 -0.2108 -1.3436
  557TMC3    H2 8269   1.276   1.041   9.788  1.1148  0.6110  0.0621
  557TMC3    C7 8270   1.423   1.133  10.008  0.5629  0.1794 -0.5667
  557TMC3    C8 8271   1.057   1.172   9.680 -0.1925  0.1508 -0.4157
  557TMC3    O1 8272   1.447   1.171  10.126  0.3594 -0.5441 -0.0705
  557TMC3    O2 8273   0.993   1.265   9.631 -0.0136  0.3398  0.4275
  558TMC3    C1 8274   4.664   3.656  10.026  0.4896  0.1083 -0.1757
  558TMC3    C2 8275   4.536   3.639  10.089  0.4504 -0.2841 -0.0022
  558TMC3    C3 8276   4.429   3.646  10.008 -0.3039 -0.6214  0.2803
  558TMC3    C4 8277   4.667   3.653   9.891  0.0096  0.0646  0.1114
  558TMC3    C5 8278   4.558   3.671   9.814  0.1846  0.6444  0.0030
  558TMC3    C6 8279   4.433   3.668   9.872 -0.0999  0.4493 -0.3739
  558TMC3     C 8280   0.065   3.611  10.090 -0.3574  0.1975  0.8030
  558TMC3     O 8281   0.174   3.650  10.052 -0.4011 -0.7932 -0.0950
  558TMC3     H 8282   4.525   3.628  10.197 -1.0283 -0.8280 -0.2155
  558TMC3    H1 8283   0.040   3.622   9.844 -0.4823 -2.2667  0.6700
  558TMC3    H2 8284   4.343   3.675   9.811 -1.1341 -0.6075  1.0368
  558TMC3    C7 8285   4.565   3.614   9.682 -0.1664  1.2048  0.5342
  558TMC3    C8 8286   4.296   3.635  10.071 -0.0620  0.5700 -0.3349
  558TMC3    O1 8287   4.660   3.651   9.612  0.3247  0.2414  0.6711
  558TMC3    O2 8288   4.204   3.656   9.992  0.2798  0.7749  0.3233
  559MPD2     C 8289   4.256   4.253  10.478  0.5230  0.4093  0.6041
  559MPD2    C1 8290   4.224   4.136  10.545 -0.0891  0.3246 -0.0627
  559MPD2    C2 8291   4.326   4.070  10.617 -0.1285 -0.1873 -0.3801
  559MPD2    C3 8292   4.459   4.115  10.623 -0.0288  0.0912  0.6954
  559MPD2    C4 8293   4.488   4.216  10.531  0.2527  0.4147 -0.3219
  559MPD2    C5 8294   4.391   4.288  10.462  0.0313  0.0273 -0.3432
  559MPD2     H 8295   4.297   3.987  10.679 -1.7631  0.6368 -0.0217
  559MPD2    H1 8296   4.594   4.239  10.527 -0.0190  1.6913 -0.3572
  559MPD2    H2 8297   4.180   4.288  10.410 -0.0360 -2.1611 -0.0894
  559MPD2    H3 8298   4.421   4.371  10.400  0.2424  0.0806 -0.1702
  559MPD2     N 8299   4.549   4.060  10.720  0.5416 -0.1511  0.5227
  559MPD2    H5 8300   4.499   3.993  10.776  0.4388 -1.7080 -1.4389
  559MPD2    N1 8301   4.089   4.090  10.536  0.2278 -0.3336 -0.4274
  559MPD2    H7 8302   4.019   4.146  10.489 -1.3324 -0.8870  1.2091
  560TMC3    C1 8303   0.031   3.993  10.825  0.5065  0.0501 -0.9659
  560TMC3    C2 8304   4.711   3.863  10.810  0.2510 -0.6390 -0.1145
  560TMC3    C3 8305   0.044   3.781  10.904 -0.8429 -0.4796  0.4830
  560TMC3    C4 8306   0.137   4.031  10.900  0.4459 -0.2897  0.1504
  560TMC3    C5 8307   0.193   3.945  10.988  0.3829  0.2025  0.6053
  560TMC3    C6 8308   0.145   3.816  10.993  0.4823  0.1384  1.1571
  560TMC3     C 8309   4.682   4.095  10.745  0.5243 -0.2363  0.2327
  560TMC3     O 8310   0.030   4.183  10.703 -0.3970  0.6054 -0.2431
  560TMC3     H 8311   4.637   3.814  10.747 -1.2161  2.5719 -0.8884
  560TMC3    H1 8312   0.147   4.138  10.914 -2.7576  0.0332  0.0013
  560TMC3    H2 8313   0.199   3.741  11.051  1.1810 -0.0631  0.2395
  560TMC3    C7 8314   0.253   3.995  11.103  0.2747 -0.2065  0.3302
  560TMC3    C8 8315   0.008   3.641  10.880 -0.9779  0.2784  0.4763
  560TMC3    O1 8316   0.212   3.948  11.209  0.2693  0.3776  0.5550
  560TMC3    O2 8317   4.606   3.622  10.874 -0.1833 -0.6731  0.3464
  561TMC3    C1 8318   1.974   3.047  11.257  0.8151 -0.3815 -0.2694
  561TMC3    C2 8319   1.953   2.959  11.362 -0.7522  0.8229  0.4405
  561TMC3    C3 8320   1.955   3.006  11.489  0.1152 -0.2107  0.2569
  561TMC3    C4 8321   2.032   3.174  11.276 -0.3753  0.4160  0.3575
  561TMC3    C5 8322   2.040   3.211  11.412  0.1900  0.0605  0.1161
  561TMC3    C6 8323   1.994   3.133  11.515 -0.1434 -0.6099 -0.1093
  561TMC3     C 8324   1.917   3.016  11.127  0.5914  0.1213 -0.2996
  561TMC3     O 8325   1.809   2.961  11.128 -0.2004 -0.3173 -0.2562
  561TMC3     H 8326   1.926   2.855  11.346  1.2528  0.4494 -0.5739
  561TMC3    H1 8327   2.060   3.239  11.194  1.7636  0.5863  1.2223
  561TMC3    H2 8328   1.988   3.169  11.616  2.8754  1.8784 -0.8492
  561TMC3    C7 8329   2.057   3.356  11.434  0.0570 -0.7179 -0.2112
  561TMC3    C8 8330   1.891   2.927  11.588 -0.2697 -0.4141  0.4549
  561TMC3    O1 8331   2.022   3.413  11.535 -0.7122  0.9085 -0.4135
  561TMC3    O2 8332   1.860   2.809  11.562 -0.3598  0.8113  0.6504
  562TMC3    C1 8333   3.480   4.467  16.189  0.2139  0.3155  0.4818
  562TMC3    C2 8334   3.389   4.569  16.171 -0.9847 -0.1258 -0.0378
  562TMC3    C3 8335   3.367   4.621  16.045  0.4982  0.0143 -0.2452
  562TMC3    C4 8336   3.540   4.402  16.086 -0.4109  0.2702  0.3486
  562TMC3    C5 8337   3.522   4.467  15.963  0.3747  0.3382 -0.1162
  562TMC3    C6 8338   3.444   4.578  15.941  0.4185  0.4656 -0.9973
  562TMC3     C 8339   3.507   4.400  16.314 -0.5682  0.1921 -0.0127
  562TMC3     O 8340   3.583   4.306  16.314 -0.3903 -0.2007  0.1034
  562TMC3     H 8341   3.348   4.622  16.256 -1.1155 -0.2868  0.0006
  562TMC3    H1 8342   3.611   4.321  16.098 -1.8706 -1.3717 -1.9408
  562TMC3    H2 8343   3.424   4.604  15.838 -0.7805 -0.6956 -1.0606
  562TMC3    C7 8344   3.565   4.401  15.839 -0.3580  0.5996  0.3221
  562TMC3    C8 8345   3.236   4.686  16.030 -0.0198  0.1549  0.0058
  562TMC3    O1 8346   3.493   4.425  15.741 -0.0035 -0.3272  0.1062
  562TMC3    O2 8347   3.161   4.664  16.125 -0.1882  0.0427  0.1195
  563MPD2     C 8348   1.570   1.045  15.855 -0.2414 -0.7803  0.5025
  563MPD2    C1 8349   1.566   1.079  15.990 -0.0305  0.3028  0.3060
  563MPD2    C2 8350   1.671   1.036  16.065 -0.1396  0.3267  0.0495
  563MPD2    C3 8351   1.779   0.960  16.010  0.0662 -0.1731  0.4881
  563MPD2    C4 8352   1.783   0.927  15.873  0.0673  0.3330  0.4408
  563MPD2    C5 8353   1.670   0.965  15.800 -0.2805  0.3994 -0.1133
  563MPD2     H 8354   1.667   1.053  16.172  1.2297 -2.0013  0.4880
  563MPD2    H1 8355   1.849   0.853  15.828  0.3019  1.2942 -0.7711
  563MPD2    H2 8356   1.492   1.080  15.788 -0.5587 -0.4180  1.0665
  563MPD2    H3 8357   1.662   0.931  15.697 -1.9826 -1.5720  0.6804
  563MPD2     N 8358   1.873   0.909  16.101  0.2780  0.0245 -0.0406
  563MPD2    H5 8359   1.873   0.942  16.197  0.4613 -1.5167  0.4834
  563MPD2    N1 8360   1.457   1.144  16.053 -0.3735  0.4443  0.0419
  563MPD2    H7 8361   1.465   1.159  16.153  2.5111  2.0433 -0.4389
  564TMC3    C1 8362   1.235   1.196  16.105 -0.1579 -0.1223 -0.0341
  564TMC3    C2 8363   1.119   1.143  16.056 -0.6366 -0.3409 -0.0578
  564TMC3    C3 8364   1.057   1.045  16.124 -0.1109  0.0892 -0.7588
  564TMC3    C4 8365   1.278   1.167  16.234 -0.0888 -0.0380 -0.1648
  564TMC3    C5 8366   1.212   1.070  16.307  0.5304 -0.3139 -0.7005
  564TMC3    C6 8367   1.099   1.020  16.256  0.1241  0.3087 -0.5932
  564TMC3     C 8368   1.339   1.186  15.999  0.7834 -0.8330 -0.4634
  564TMC3     O 8369   1.309   1.178  15.880 -0.2292 -0.4118 -0.2245
  564TMC3     H 8370   1.094   1.176  15.955  1.3311  0.4169 -0.2933
  564TMC3    H1 8371   1.366   1.215  16.275 -0.4062 -0.9048  1.5326
  564TMC3    H2 8372   1.045   0.953  16.322  2.0119 -0.9618 -0.3359
  564TMC3    C7 8373   1.308   0.972  16.348 -0.0966  0.6329 -0.6400
  564TMC3    C8 8374   1.057   0.916  16.061  0.2121 -0.1069 -0.1211
  564TMC3    O1 8375   1.358   0.986  16.459  0.3221 -0.3049  0.1034
  564TMC3    O2 8376   1.022   0.818  16.124 -0.2643 -0.1254 -0.2403
  565TMC3    C1 8377   1.061   2.873   9.522  0.5203 -0.4058  0.6145
  565TMC3    C2 8378   0.976   2.806   9.612 -1.0921 -0.1595 -0.3156
  565TMC3    C3 8379   0.840   2.800   9.600 -0.7623 -0.3139  0.4791
  565TMC3    C4 8380   1.001   2.933   9.418 -0.7407  0.5127 -0.2071
  565TMC3    C5 8381   0.862   2.927   9.410  0.8828  0.4517 -0.9577
  565TMC3    C6 8382   0.776   2.861   9.496 -0.6761 -0.0299  0.7691
  565TMC3     C 8383   1.211   2.879   9.526  0.1591 -0.8139 -0.4185
  565TMC3     O 8384   1.265   2.930   9.432 -0.4912 -0.2244 -0.2525
  565TMC3     H 8385   1.013   2.749   9.697 -0.1745  0.3780 -0.3568
  565TMC3    H1 8386   1.062   2.993   9.351  2.4869 -1.5978  0.8102
  565TMC3    H2 8387   0.669   2.866   9.483 -0.4475 -1.6117 -1.7297
  565TMC3    C7 8388   0.793   2.993   9.301 -0.7302 -0.2068 -0.2275
  565TMC3    C8 8389   0.776   2.679   9.660  0.4696 -0.3276 -0.7727
  565TMC3    O1 8390   0.684   3.049   9.324  0.3023  0.0531 -0.1172
  565TMC3    O2 8391   0.809   2.633   9.770 -0.0579 -0.9876 -0.2824
  566MPD2     C 8392   3.187   4.617  14.538 -0.3144 -0.3853  0.5325
  566MPD2    C1 8393   3.208   4.642  14.409  0.4690  0.3335 -0.7046
  566MPD2    C2 8394   3.098   4.665  14.331 -0.0615 -0.2857  0.0258
  566MPD2    C3 8395   2.969   4.653  14.374 -0.7283 -0.0148 -0.0628
  566MPD2    C4 8396   2.952   4.598  14.500  0.1122 -0.4752  0.0394
  566MPD2    C5 8397   3.059   4.593  14.583  0.1343  0.4005 -0.0453
  566MPD2     H 8398   3.116   4.700  14.230  0.4857 -3.1876 -0.8544
  566MPD2    H1 8399   2.859   4.563  14.545 -0.6488  0.8590 -0.4796
  566MPD2    H2 8400   3.269   4.617  14.609  1.4828 -0.4143 -1.5519
  566MPD2    H3 8401   3.045   4.568  14.687  0.0684  1.2192  0.1462
  566MPD2     N 8402   2.865   4.661  14.283  0.0650  0.5890  0.2399
  566MPD2    H5 8403   2.777   4.614  14.301 -0.6670  1.1971 -1.6496
  566MPD2    N1 8404   3.334   4.649  14.350 -0.5815  0.0513 -0.0612
  566MPD2    H7 8405   3.338   4.665  14.250  0.3714 -1.1192 -0.1970
  567TMC3    C1 8406   3.551   4.562  14.321  0.0134  0.2792  0.1524
  567TMC3    C2 8407   3.553   4.609  14.193 -0.3528  0.1063  0.3303
  567TMC3    C3 8408   3.612   4.531  14.096  0.4076 -0.2525 -0.0602
  567TMC3    C4 8409   3.619   4.452  14.361 -0.1694  0.2978  0.2223
  567TMC3    C5 8410   3.681   4.372  14.262  0.6159 -0.2584  0.6731
  567TMC3    C6 8411   3.676   4.408  14.130 -0.0767  0.1457  0.0818
  567TMC3     C 8412   3.448   4.605  14.411 -0.1706 -0.4126 -0.4749
  567TMC3     O 8413   3.470   4.581  14.528 -0.4267  0.6326 -0.2990
  567TMC3     H 8414   3.507   4.705  14.174  0.3602  0.5849  1.0384
  567TMC3    H1 8415   3.619   4.423  14.465  2.0614 -3.7599 -0.9191
  567TMC3    H2 8416   3.719   4.347  14.051 -0.6649  1.4504 -1.2583
  567TMC3    C7 8417   3.721   4.237  14.299  0.7911 -0.3391 -0.7663
  567TMC3    C8 8418   3.610   4.583  13.961 -0.5538 -0.4671  0.5839
  567TMC3    O1 8419   3.741   4.160  14.207  0.1629 -0.5761  0.4326
  567TMC3    O2 8420   3.514   4.658  13.939 -0.0643 -0.0257  0.0757
  568MPD2     C 8421   1.564   4.303  16.580 -0.1796 -0.6919 -0.1041
  568MPD2    C1 8422   1.455   4.369  16.630  0.0195 -0.4336  0.2254
  568MPD2    C2 8423   1.411   4.479  16.566 -0.1119 -0.0035 -0.4031
  568MPD2    C3 8424   1.480   4.529  16.454 -0.3436 -0.5387 -0.0477
  568MPD2    C4 8425   1.594   4.473  16.416 -0.3168 -0.2277  0.1232
  568MPD2    C5 8426   1.630   4.355  16.469  0.1208  0.1988 -0.3898
  568MPD2     H 8427   1.322   4.533  16.595  0.0522 -0.3820  0.8298
  568MPD2    H1 8428   1.668   4.512  16.348 -0.7106 -0.9011 -0.6991
  568MPD2    H2 8429   1.594   4.204  16.615 -0.0913 -0.3374  0.8277
  568MPD2    H3 8430   1.703   4.298  16.414 -1.1408 -0.6474 -1.1948
  568MPD2     N 8431   1.432   4.647  16.396  0.0273  0.2004 -0.3851
  568MPD2    H5 8432   1.347   4.688  16.433  0.2828  0.2458  0.1647
  568MPD2    N1 8433   1.397   4.318  16.750 -0.1872  0.3210  0.2641
  568MPD2    H7 8434   1.430   4.229  16.785  1.1347  0.0673 -1.5978
  569TMC3    C1 8435   1.393   0.107  16.251  0.3489 -0.3051  0.0567
  569TMC3    C2 8436   1.375   0.193  16.361  0.7007 -0.1070 -1.0757
  569TMC3    C3 8437   1.333   0.321  16.327  0.7164  0.2004 -1.1861
  569TMC3    C4 8438   1.380   0.152  16.118 -0.1036 -1.1520  0.3991
  569TMC3    C5 8439   1.339   0.285  16.104  0.2879  0.4071 -0.1163
  569TMC3    C6 8440   1.317   0.370  16.204  0.4182  0.0102  0.5166
  569TMC3     C 8441   1.471   4.700  16.274  0.0001 -0.8102 -0.1053
  569TMC3     O 8442   1.546   4.657  16.187 -0.0859 -0.0805  0.4705
  569TMC3     H 8443   1.394   0.163  16.463 -0.5057  0.3904 -0.7022
  569TMC3    H1 8444   1.394   0.098  16.025 -0.0782  0.3354 -0.4571
  569TMC3    H2 8445   1.323   0.478  16.199  3.9594 -0.1222  1.5209
  569TMC3    C7 8446   1.349   0.343  15.967 -0.1157 -0.2930 -0.2528
  569TMC3    C8 8447   1.301   0.407  16.441 -0.1847 -0.2361  0.2991
  569TMC3    O1 8448   1.426   0.301  15.884  0.6185 -0.1676 -0.5555
  569TMC3    O2 8449   1.344   0.367  16.546 -0.4759  0.2081  0.2269
  570TMC3    C1 8450   0.076   3.979  15.997  0.1368  0.8598  0.4237
  570TMC3    C2 8451   0.142   3.950  15.879  0.4356 -0.7195 -0.6283
  570TMC3    C3 8452   0.263   4.008  15.855  0.0340  0.1000 -0.0629
  570TMC3    C4 8453   0.125   4.078  16.082  0.7804 -0.5132 -0.7802
  570TMC3    C5 8454   0.246   4.135  16.054  0.0798  0.6654  0.2102
  570TMC3    C6 8455   0.313   4.103  15.940 -0.3818  0.0744 -1.1571
  570TMC3     C 8456   4.681   3.886  16.030 -0.2469 -0.7780 -0.1714
  570TMC3     O 8457   4.653   3.804  15.943  0.5319 -0.7300 -0.0637
  570TMC3     H 8458   0.101   3.881  15.806  0.0028  0.0501 -1.1038
  570TMC3    H1 8459   0.073   4.104  16.173  1.6340  0.2880 -0.5248
  570TMC3    H2 8460   0.409   4.146  15.915 -0.0491  0.5388  0.9362
  570TMC3    C7 8461   0.320   4.161  16.173 -0.7180 -0.0308 -0.2212
  570TMC3    C8 8462   0.350   3.970  15.744  0.1454  0.1155 -0.5085
  570TMC3    O1 8463   0.266   4.133  16.277 -0.5075 -0.2940 -0.0084
  570TMC3    O2 8464   0.439   4.049  15.717  0.1386  0.5611  0.0017
  571MPD2     C 8465   2.543   4.485   0.191  0.0336  0.0188 -0.8826
  571MPD2    C1 8466   2.666   4.428   0.153  0.2648  0.0244 -0.0338
  571MPD2    C2 8467   2.763   4.400   0.247 -0.3946 -0.3023 -0.2499
  571MPD2    C3 8468   2.738   4.430   0.381  0.5234  0.2936  0.3728
  571MPD2    C4 8469   2.622   4.492   0.414  0.2279  0.0416  0.0754
  571MPD2    C5 8470   2.520   4.523   0.327  0.3516  0.0503 -0.4039
  571MPD2     H 8471   2.858   4.366   0.208  0.1576  2.5348 -1.3304
  571MPD2    H1 8472   2.600   4.525   0.515 -0.4625 -1.5371  0.4436
  571MPD2    H2 8473   2.474   4.528   0.119  0.9707  0.0439 -1.7799
  571MPD2    H3 8474   2.429   4.577   0.353  0.7949 -0.3405  1.9617
  571MPD2     N 8475   2.833   4.426   0.490  0.2617 -0.0819 -0.6720
  571MPD2    H5 8476   2.800   4.461   0.579  1.2143 -2.0846  0.4585
  571MPD2    N1 8477   2.690   4.409   0.012 -0.6719  0.1188  0.2898
  571MPD2    H7 8478   2.617   4.436  17.627  1.5466  2.2125 -1.2647
  572TMC3    C1 8479   3.034   4.491   0.554  0.3212  0.1221 -0.1207
  572TMC3    C2 8480   2.955   4.590   0.613  0.1297 -1.0433 -0.8447
  572TMC3    C3 8481   3.014   4.710   0.648 -0.2085  0.3108 -0.2622
  572TMC3    C4 8482   3.158   4.519   0.505  0.2632 -0.4165  0.2439
  572TMC3    C5 8483   3.203   4.653   0.523  0.8419 -0.0355 -1.2223
  572TMC3    C6 8484   3.133   0.029   0.594 -0.1285 -0.5731  0.4513
  572TMC3     C 8485   2.960   4.407   0.461  0.0004  0.2030 -0.3427
  572TMC3     O 8486   3.019   4.365   0.361  0.0026 -0.0864  0.1486
  572TMC3     H 8487   2.875   4.565   0.682 -0.9373  1.8936 -1.0308
  572TMC3    H1 8488   3.212   4.451   0.441 -1.1803 -0.8889 -0.4853
  572TMC3    H2 8489   3.174   0.127   0.611  0.9044 -1.1146  1.0707
  572TMC3    C7 8490   3.314   4.698   0.447  0.3041  0.5414 -0.9163
  572TMC3    C8 8491   2.920   0.106   0.672 -1.0724  0.0829  0.8238
  572TMC3    O1 8492   3.409   4.622   0.435  0.5250  0.2911  0.2799
  572TMC3    O2 8493   2.938   0.205   0.602  0.0931 -0.1374 -0.0670
  573MPD2     C 8494   3.899   0.041   0.254  0.4710  0.3929 -0.0214
  573MPD2    C1 8495   3.936   0.176   0.246 -0.2054  0.5756  0.0241
  573MPD2    C2 8496   4.003   0.224   0.136  0.5291  0.9191  0.0798
  573MPD2    C3 8497   4.042   0.141   0.034 -0.1997 -0.2727  0.0788
  573MPD2    C4 8498   4.004   0.002   0.044 -0.0343 -0.1098  0.3703
  573MPD2    C5 8499   3.928   4.675   0.149  0.1283  0.0809 -0.3590
  573MPD2     H 8500   4.030   0.329   0.129 -1.4219  1.3855 -0.5329
  573MPD2    H1 8501   4.041   4.643  17.659  1.0195  1.2105 -0.6122
  573MPD2    H2 8502   3.844   4.716   0.336  1.3589 -1.2547 -0.3300
  573MPD2    H3 8503   3.902   4.570   0.158 -0.4341  0.2646  0.2151
  573MPD2     N 8504   4.107   0.184  17.602 -0.3001  0.0480 -0.4091
  573MPD2    H5 8505   4.128   0.112  17.534  1.7244  0.4319 -0.1901
  573MPD2    N1 8506   3.920   0.251   0.364 -0.2498 -0.2161 -0.2328
  573MPD2    H7 8507   3.883   0.204   0.445  0.0486 -1.7047 -0.9456
  574TMC3    C1 8508   4.185   0.317  17.438 -0.5622  0.3220  0.0884
  574TMC3    C2 8509   4.101   0.251  17.354 -0.3134 -0.0645 -0.4464
  574TMC3    C3 8510   4.107   0.296  17.221  1.0479 -0.3000  0.1014
  574TMC3    C4 8511   4.278   0.406  17.395 -0.5128 -0.7832 -0.5423
  574TMC3    C5 8512   4.296   0.425  17.261  0.4673 -0.1230 -0.0194
  574TMC3    C6 8513   4.202   0.381  17.171 -0.2616  0.0701  0.1669
  574TMC3     C 8514   4.151   0.315  17.576  0.0205 -0.3192 -0.1806
  574TMC3     O 8515   4.155   0.421  17.639  0.5444  0.3950 -0.2135
  574TMC3     H 8516   4.040   0.167  17.386  1.1894 -1.7339 -1.9650
  574TMC3    H1 8517   4.345   0.440  17.473  0.7902 -1.0916 -1.5374
  574TMC3    H2 8518   4.208   0.394  17.063 -0.8245 -2.5306 -0.1714
  574TMC3    C7 8519   4.409   0.496  17.223  0.1189 -0.3516  0.0442
  574TMC3    C8 8520   3.986   0.268  17.146 -0.1053  0.4126 -0.0810
  574TMC3    O1 8521   4.486   0.529  17.310 -0.3508  0.2924  1.1070
  574TMC3    O2 8522   3.907   0.180  17.176 -0.3735  0.3785 -0.1105
  575TMC3    C1 8523   0.864   1.924  10.098  0.6373 -0.0795  0.5164
  575TMC3    C2 8524   0.765   1.822  10.084  0.8921  0.9417 -0.4053
  575TMC3    C3 8525   0.673   1.829   9.985 -0.1384  0.5814 -0.1079
  575TMC3    C4 8526   0.856   2.033  10.021 -1.1748  0.6355 -0.0407
  575TMC3    C5 8527   0.763   2.034   9.910 -0.6347  0.3161  1.4347
  575TMC3    C6 8528   0.673   1.935   9.892  0.3622 -0.1782  0.8418
  575TMC3     C 8529   0.976   1.908  10.187 -0.3178 -1.0252 -0.2397
  575TMC3     O 8530   1.067   1.988  10.174 -0.9907 -0.2304  0.2282
  575TMC3     H 8531   0.749   1.740  10.152  0.3134  1.2571 -0.1650
  575TMC3    H1 8532   0.937   2.105  10.024 -2.2954  1.9475 -1.1797
  575TMC3    H2 8533   0.625   1.912   9.798  2.3346 -0.8880 -0.0004
  575TMC3    C7 8534   0.756   2.160   9.829 -0.3983  0.8932 -0.4855
  575TMC3    C8 8535   0.571   1.734   9.982  0.0639  0.7859 -0.2798
  575TMC3    O1 8536   0.845   2.240   9.851  0.6285 -0.5789  0.2108
  575TMC3    O2 8537   0.593   1.630  10.046  0.3377  0.1577 -0.1612
  576MPD2     C 8538   0.871   3.299  12.581 -0.5413  0.2622  0.2145
  576MPD2    C1 8539   0.965   3.400  12.586  0.0574 -0.2182 -0.3521
  576MPD2    C2 8540   0.939   3.516  12.663  0.3085 -0.1578  0.1319
  576MPD2    C3 8541   0.827   3.525  12.742 -0.0280 -0.3337  0.7507
  576MPD2    C4 8542   0.735   3.423  12.740 -0.2447  0.5461 -0.0559
  576MPD2    C5 8543   0.758   3.317  12.664 -0.8422  0.7484  0.4904
  576MPD2     H 8544   1.006   3.601  12.670  0.2772 -0.0263 -1.1917
  576MPD2    H1 8545   0.642   3.421  12.795  0.0977  0.4612  0.5230
  576MPD2    H2 8546   0.861   3.212  12.516 -1.6927  1.1011 -0.7219
  576MPD2    H3 8547   0.683   3.239  12.655 -1.2733  1.5476 -2.8031
  576MPD2     N 8548   0.806   3.640  12.809 -0.7892 -0.1219 -0.4781
  576MPD2    H5 8549   0.888   3.699  12.808 -2.6714  2.4653 -2.4972
  576MPD2    N1 8550   1.078   3.390  12.510 -0.3447 -0.4217 -0.1273
  576MPD2    H7 8551   1.148   3.463  12.518 -0.0492 -0.8040  0.7300
  577TMC3    C1 8552   1.250   3.294  12.381  0.6036 -0.1955  0.1727
  577TMC3    C2 8553   1.309   3.181  12.320  0.4672 -0.4504  0.1216
  577TMC3    C3 8554   1.396   3.200  12.214  0.0693 -0.1064 -0.0985
  577TMC3    C4 8555   1.272   3.422  12.328 -0.0664  0.5519  0.6342
  577TMC3    C5 8556   1.365   3.430  12.229  0.6395 -0.7000 -0.6129
  577TMC3    C6 8557   1.427   3.321  12.167  0.2743 -0.1643  0.0444
  577TMC3     C 8558   1.122   3.277  12.448  0.0933 -0.0612 -0.0118
  577TMC3     O 8559   1.091   3.165  12.471 -0.1281  1.0118  0.6594
  577TMC3     H 8560   1.296   3.083  12.363  0.4696 -0.6574 -0.3461
  577TMC3    H1 8561   1.231   3.513  12.370  1.3147  1.0720  0.8570
  577TMC3    H2 8562   1.503   3.338  12.092 -0.2478  1.0552 -0.2216
  577TMC3    C7 8563   1.422   3.565  12.206  0.3082 -0.1389  0.5855
  577TMC3    C8 8564   1.448   3.072  12.146  0.4447  0.7378 -0.4614
  577TMC3    O1 8565   1.496   3.603  12.299  0.0897  0.0345 -0.2662
  577TMC3    O2 8566   1.417   2.969  12.205 -0.2770 -0.5727  0.7893
  578MPD2     C 8567   4.523   3.373   1.111  0.0962 -0.0986 -0.7082
  578MPD2    C1 8568   4.533   3.273   1.014 -0.1257  0.0886  0.4438
  578MPD2    C2 8569   4.602   3.153   1.042 -0.0783  0.2014 -0.3369
  578MPD2    C3 8570   4.669   3.140   1.162  0.2584 -0.0440  0.2820
  578MPD2    C4 8571   4.661   3.244   1.254  0.1350  0.1573 -0.0422
  578MPD2    C5 8572   4.588   3.352   1.222 -0.4605 -0.5250 -0.4716
  578MPD2     H 8573   4.590   3.071   0.972  2.2527 -0.0209 -0.4520
  578MPD2    H1 8574   4.703   3.240   1.354 -0.6757  2.8615  0.3859
  578MPD2    H2 8575   4.475   3.470   1.099 -0.2377 -0.8163 -4.9693
  578MPD2    H3 8576   4.591   3.437   1.289 -1.9821 -0.8688  0.0305
  578MPD2     N 8577   0.030   3.022   1.186  0.4905 -0.2989 -0.2822
  578MPD2    H5 8578   0.007   2.943   1.127 -1.4303  1.3821 -1.7596
  578MPD2    N1 8579   4.461   3.301   0.896  0.6727 -0.6413  0.4294
  578MPD2    H7 8580   4.419   3.392   0.884 -0.2109 -1.1135 -0.0424
  579TMC3    C1 8581   0.166   2.874   1.313 -0.4444 -0.2099  0.4365
  579TMC3    C2 8582   0.223   2.857   1.429 -0.8162  0.3719  0.6310
  579TMC3    C3 8583   0.277   2.738   1.459  0.5036 -0.9181  0.4832
  579TMC3    C4 8584   0.153   2.778   1.222  0.8248  0.2714  0.1186
  579TMC3    C5 8585   0.189   2.654   1.256  0.3110  0.3772 -0.4663
  579TMC3    C6 8586   0.243   2.631   1.382 -0.3119 -0.1111  0.1628
  579TMC3     C 8587   0.116   3.011   1.293 -0.1410  0.6425 -0.3734
  579TMC3     O 8588   0.153   3.097   1.368  0.3697  0.3393 -0.4405
  579TMC3     H 8589   0.217   2.934   1.505  1.3926  0.5796  0.5859
  579TMC3    H1 8590   0.098   2.797   1.130 -2.8740  0.3911  2.3402
  579TMC3    H2 8591   0.271   2.529   1.409 -5.3333 -1.7112 -0.7940
  579TMC3    C7 8592   0.169   2.543   1.166  0.2775  0.3239  0.5287
  579TMC3    C8 8593   0.361   2.724   1.577  0.1104 -0.1566 -0.3815
  579TMC3    O1 8594   0.241   2.446   1.190 -0.3604  0.1365 -0.3428
  579TMC3    O2 8595   0.369   2.610   1.627  0.0408 -0.1536 -0.3396
  580TMC3    C1 8596   4.201   3.198  12.114  0.0327  0.0735  0.3574
  580TMC3    C2 8597   4.307   3.230  12.041  0.5337 -0.4350  0.8193
  580TMC3    C3 8598   4.414   3.140  12.055  0.1775  0.0976 -0.3091
  580TMC3    C4 8599   4.179   3.082  12.188  0.4003  0.1086  0.8592
  580TMC3    C5 8600   4.282   2.996  12.172 -0.2701 -0.4967 -0.6084
  580TMC3    C6 8601   4.399   3.016  12.108  0.0609 -0.3473  0.5118
  580TMC3     C 8602   4.077   3.254  12.069  0.1708 -0.4641 -0.0839
  580TMC3     O 8603   3.976   3.225  12.136  0.1048  0.1688  0.1634
  580TMC3     H 8604   4.333   3.325  11.997  0.0239 -1.7125 -2.2671
  580TMC3    H1 8605   4.104   3.073  12.265  0.9404 -1.5891  1.1763
  580TMC3    H2 8606   4.490   2.968  12.144  0.6328  0.1164 -0.3100
  580TMC3    C7 8607   4.290   2.880  12.260 -0.4738  0.9756  0.7008
  580TMC3    C8 8608   4.533   3.181  11.978  0.8734 -1.1367  0.1840
  580TMC3    O1 8609   4.246   2.892  12.375 -0.5856 -0.2786  0.7601
  580TMC3    O2 8610   4.554   3.300  11.984  0.0832  0.4109 -0.0364
  581MPD2     C 8611   1.622   2.558  14.813  0.5544  0.5082 -0.6631
  581MPD2    C1 8612   1.499   2.516  14.857  0.2715 -0.0268  0.2215
  581MPD2    C2 8613   1.388   2.563  14.790 -0.0417  0.5292  0.4424
  581MPD2    C3 8614   1.400   2.660  14.687 -0.3689 -0.9090  0.1681
  581MPD2    C4 8615   1.527   2.700  14.649  0.5160  0.2794 -0.2710
  581MPD2    C5 8616   1.635   2.652  14.715  0.2461 -0.2767  1.0352
  581MPD2     H 8617   1.292   2.517  14.809 -0.2084  0.7159  0.0575
  581MPD2    H1 8618   1.545   2.772  14.569 -0.4346 -0.8889 -1.5343
  581MPD2    H2 8619   1.715   2.512  14.845 -0.1786 -1.2958 -1.0831
  581MPD2    H3 8620   1.739   2.677  14.693 -0.1921  1.5675  1.0340
  581MPD2     N 8621   1.283   2.714  14.634  0.4335  0.7091  0.3360
  581MPD2    H5 8622   1.287   2.790  14.568 -2.2836  0.9291  0.4273
  581MPD2    N1 8623   1.507   2.417  14.955  0.0913 -0.3270  0.2192
  581MPD2    H7 8624   1.602   2.392  14.981  0.5447  0.5670 -0.6027
  582TMC3    C1 8625   1.444   2.305  15.147  0.4538  0.7725 -0.7327
  582TMC3    C2 8626   1.544   2.220  15.146 -0.7787  0.1856 -0.6662
  582TMC3    C3 8627   1.573   2.157  15.266 -0.3592  0.0284 -0.2212
  582TMC3    C4 8628   1.356   2.324  15.254 -0.6779 -0.2018  0.2697
  582TMC3    C5 8629   1.392   2.266  15.371 -0.4040 -0.1949 -0.0304
  582TMC3    C6 8630   1.499   2.178  15.376 -0.1457 -0.0023 -0.8451
  582TMC3     C 8631   1.400   2.367  15.027  0.2930 -0.4116  0.3948
  582TMC3     O 8632   1.281   2.396  15.015 -0.1291  0.7685  0.6564
  582TMC3     H 8633   1.617   2.216  15.066 -0.0500 -0.7313  0.0403
  582TMC3    H1 8634   1.274   2.394  15.242 -0.1939  0.2560 -0.3993
  582TMC3    H2 8635   1.521   2.130  15.471 -0.3278 -0.5079 -1.0568
  582TMC3    C7 8636   1.345   2.323  15.491 -0.4395  0.6493 -0.3598
  582TMC3    C8 8637   1.715   2.132  15.288  0.1278 -0.1042 -0.1707
  582TMC3    O1 8638   1.358   2.256  15.593  0.1157 -0.1852 -0.2394
  582TMC3    O2 8639   1.782   2.103  15.195 -0.0991  0.5085  0.0092
  583MPD2     C 8640   2.156   3.454  16.791 -0.2035  0.0718 -0.3502
  583MPD2    C1 8641   2.176   3.587  16.754 -0.1127  0.0779 -0.3630
  583MPD2    C2 8642   2.129   3.682  16.844  0.3755  0.7730 -0.0081
  583MPD2    C3 8643   2.093   3.646  16.975 -0.0682 -0.2492  0.9379
  583MPD2    C4 8644   2.077   3.510  17.007 -0.1311  0.5235  0.0273
  583MPD2    C5 8645   2.102   3.410  16.909  0.7967 -0.0554 -0.6884
  583MPD2     H 8646   2.135   3.788  16.821 -2.8570  0.9943  0.1533
  583MPD2    H1 8647   2.049   3.472  17.105  0.2015 -0.4616 -0.2609
  583MPD2    H2 8648   2.178   3.380  16.715 -0.4598  0.9729 -1.2965
  583MPD2    H3 8649   2.088   3.304  16.922  1.1814  0.1073  1.0586
  583MPD2     N 8650   2.072   3.747  17.064 -0.3812 -0.1685 -0.2657
  583MPD2    H5 8651   2.077   3.844  17.033  0.3948 -0.0587  0.1952
  583MPD2    N1 8652   2.238   3.632  16.635 -0.2354  0.1615  0.3384
  583MPD2    H7 8653   2.246   3.730  16.609  1.9440  0.4255  1.9892
  584TMC3    C1 8654   2.036   3.865  17.276  0.3668 -0.0195  0.3118
  584TMC3    C2 8655   1.998   3.978  17.216 -0.3623  0.2083 -0.5983
  584TMC3    C3 8656   2.007   4.095  17.287 -0.0644 -0.4192  0.2886
  584TMC3    C4 8657   2.090   3.866  17.400 -0.1777 -0.0179 -0.1384
  584TMC3    C5 8658   2.125   3.982  17.467  0.3794 -0.3119 -0.2006
  584TMC3    C6 8659   2.070   4.097  17.413  0.3720  0.1552 -0.4655
  584TMC3     C 8660   2.046   3.736  17.201  0.1222  0.2959 -0.0310
  584TMC3     O 8661   2.053   3.637  17.274 -0.2241 -0.2711  0.0520
  584TMC3     H 8662   1.952   3.977  17.118 -2.8429 -1.5726  0.6087
  584TMC3    H1 8663   2.119   3.771  17.444 -1.7882 -0.0857  0.7983
  584TMC3    H2 8664   2.097   4.188  17.465 -2.4137  1.1903 -0.8353
  584TMC3    C7 8665   2.137   3.966  17.612 -0.2074 -1.0136  0.0938
  584TMC3    C8 8666   1.983   4.221  17.216  0.0162  0.3853  0.1689
  584TMC3    O1 8667   2.171   3.855  17.645 -0.2830  0.1019 -0.2479
  584TMC3    O2 8668   1.930   4.202  17.101 -0.5825 -0.0078  0.3965
  585MPD2     C 8669   1.508   2.819   1.135  0.1695 -0.3781  0.1183
  585MPD2    C1 8670   1.542   2.875   1.012  1.0278 -0.3235 -0.9263
  585MPD2    C2 8671   1.527   2.805   0.894 -0.0082 -0.1206  0.0921
  585MPD2    C3 8672   1.486   2.668   0.906 -0.2473 -0.3707  1.0772
  585MPD2    C4 8673   1.455   2.612   1.025  0.5771  0.1763 -1.2269
  585MPD2    C5 8674   1.461   2.695   1.138 -0.2058 -0.7729 -0.2900
  585MPD2     H 8675   1.544   2.848   0.796  0.1864 -0.0712  0.1481
  585MPD2    H1 8676   1.426   2.508   1.032 -0.9045  0.5335 -2.0140
  585MPD2    H2 8677   1.512   2.878   1.226  0.1779 -0.9868  0.5148
  585MPD2    H3 8678   1.425   2.659   1.233 -0.4321 -1.4369 -0.6273
  585MPD2     N 8679   1.466   2.577   0.797  0.3102  0.0273  0.1681
  585MPD2    H5 8680   1.424   2.488   0.821 -1.0593  0.6717  0.1467
  585MPD2    N1 8681   1.586   3.003   1.006 -0.1331  0.1167 -0.2670
  585MPD2    H7 8682   1.588   3.059   1.091 -0.3649 -1.4848  0.8117
  586TMC3    C1 8683   1.488   2.476   0.575 -0.0909 -0.6225  0.1064
  586TMC3    C2 8684   1.442   2.359   0.625 -0.8962 -0.2134  0.4230
  586TMC3    C3 8685   1.369   2.278   0.541  0.1439 -0.0811 -0.3209
  586TMC3    C4 8686   1.490   2.503   0.442 -0.2497  0.5638 -0.4337
  586TMC3    C5 8687   1.426   2.414   0.358  0.2274 -1.3291 -0.0563
  586TMC3    C6 8688   1.364   2.300   0.404 -0.8503 -0.4589  0.6984
  586TMC3     C 8689   1.502   2.595   0.658  0.1602 -0.2247  0.4979
  586TMC3     O 8690   1.544   2.699   0.615 -0.2768  0.2402  0.4423
  586TMC3     H 8691   1.454   2.346   0.732  0.2038 -0.1926  0.2978
  586TMC3    H1 8692   1.539   2.590   0.401  0.4215  0.4018  0.0133
  586TMC3    H2 8693   1.309   2.229   0.343  1.2654 -1.4156 -0.0896
  586TMC3    C7 8694   1.394   2.456   0.229 -0.1058  0.0989 -0.1595
  586TMC3    C8 8695   1.354   2.140   0.566  0.9238  0.2407  0.1302
  586TMC3    O1 8696   1.445   2.561   0.196 -0.0465 -0.6476 -0.3199
  586TMC3    O2 8697   1.346   2.057   0.476  0.3262 -0.2004 -0.0429
  587TMC3    C1 8698   3.874   1.335  16.223  0.2866  0.5526  0.8904
  587TMC3    C2 8699   3.864   1.471  16.223  0.2630 -0.0301 -0.2165
  587TMC3    C3 8700   3.961   1.536  16.160  0.1586 -0.0954 -0.1863
  587TMC3    C4 8701   3.970   1.255  16.164  0.2029  0.1195 -0.6038
  587TMC3    C5 8702   4.068   1.331  16.103 -0.0128  0.3993 -0.2082
  587TMC3    C6 8703   4.065   1.468  16.101  0.4316 -0.5481 -0.4333
  587TMC3     C 8704   3.786   1.263  16.318  0.1671 -0.9990  0.2395
  587TMC3     O 8705   3.832   1.154  16.360  0.3294  0.2201 -0.1431
  587TMC3     H 8706   3.788   1.523  16.282 -1.4978 -1.1646 -1.4697
  587TMC3    H1 8707   3.951   1.149  16.157  2.9529 -0.4015 -0.0548
  587TMC3    H2 8708   4.126   1.514  16.025 -0.4993  2.2859  0.5317
  587TMC3    C7 8709   4.184   1.265  16.039  0.2256  0.8542 -0.5287
  587TMC3    C8 8710   3.950   1.669  16.113  0.4811  0.2769  0.3634
  587TMC3    O1 8711   4.258   1.325  15.960 -0.6176 -0.4021 -0.2961
  587TMC3    O2 8712   4.056   1.717  16.075 -0.0987 -0.7471  0.2799
  588TMC3    C1 8713   1.490   4.209   9.625 -0.3707 -0.2809  0.3020
  588TMC3    C2 8714   1.515   4.079   9.627  0.2196 -0.0109  0.1308
  588TMC3    C3 8715   1.597   4.024   9.722 -0.0825 -0.4546  0.5105
  588TMC3    C4 8716   1.518   4.291   9.731 -0.4641 -0.6387  0.2923
  588TMC3    C5 8717   1.593   4.239   9.833 -0.2963  0.4744 -0.0879
  588TMC3    C6 8718   1.630   4.106   9.833 -0.2442 -0.3858  0.2345
  588TMC3     C 8719   1.389   4.255   9.529  0.1711 -0.6779  0.4019
  588TMC3     O 8720   1.289   4.188   9.501 -0.8489 -0.7367 -0.2893
  588TMC3     H 8721   1.468   4.016   9.553  0.3632  0.1839 -0.1270
  588TMC3    H1 8722   1.474   4.389   9.746  0.2490 -0.3731  0.6551
  588TMC3    H2 8723   1.655   4.058   9.928  1.6129  0.6541  0.2766
  588TMC3    C7 8724   1.645   4.325   9.940  0.4616 -0.4973 -0.1366
  588TMC3    C8 8725   1.566   3.885   9.747  0.0605 -0.0786  0.3698
  588TMC3    O1 8726   1.673   4.284  10.049 -0.2317 -0.1666  0.3637
  588TMC3    O2 8727   1.489   3.830   9.674 -0.1123 -0.2961 -0.0075
  589TMC3    C1 8728   4.681   1.215   1.203  0.7017 -0.1746  0.7645
  589TMC3    C2 8729   0.040   1.298   1.280 -0.5976  0.2986 -0.0387
  589TMC3    C3 8730   0.151   1.231   1.332  0.0377  0.3898 -0.6931
  589TMC3    C4 8731   4.710   1.084   1.179 -0.1663  0.0796  0.4471
  589TMC3    C5 8732   0.104   1.029   1.231 -0.7771 -0.4825  0.0623
  589TMC3    C6 8733   0.186   1.104   1.308 -0.8494 -0.0683  0.2510
  589TMC3     C 8734   4.556   1.262   1.147 -0.3775 -0.3269  0.5245
  589TMC3     O 8735   4.505   1.202   1.053 -0.0916  0.2683 -0.1811
  589TMC3     H 8736   0.024   1.403   1.300 -1.8638  0.2657 -0.9298
  589TMC3    H1 8737   4.646   1.021   1.118 -1.5362  2.7484 -0.8909
  589TMC3    H2 8738   0.257   1.063   1.379 -0.7952  1.3664  1.0287
  589TMC3    C7 8739   0.131   0.883   1.229 -0.5236 -0.4111 -0.1547
  589TMC3    C8 8740   0.233   1.314   1.417  0.0520  0.4806 -0.1917
  589TMC3    O1 8741   0.041   0.817   1.186 -0.0405  0.6378 -0.5595
  589TMC3    O2 8742   0.186   1.415   1.472 -0.1469 -0.0594  0.0680
  590MPD2     C 8743   0.102   0.051  16.662 -0.2847 -0.2070  0.0074
  590MPD2    C1 8744   0.007   0.056  16.568 -0.0096  0.1139  0.1725
  590MPD2    C2 8745   0.052   0.112  16.446  0.6818  0.8960 -0.2705
  590MPD2    C3 8746   0.183   0.158  16.421  0.1588  0.3003 -0.0798
  590MPD2    C4 8747   0.274   0.141  16.522  0.2096 -0.4337  0.0126
  590MPD2    C5 8748   0.229   0.088  16.639  0.4074 -0.5219  0.0233
  590MPD2     H 8749   4.700   0.127  16.366 -0.8967 -0.6863  0.8465
  590MPD2    H1 8750   0.375   0.176  16.504 -0.1345  0.0487 -1.0103
  590MPD2    H2 8751   0.084   0.024  16.765 -2.4074 -0.0730 -0.3263
  590MPD2    H3 8752   0.307   0.083  16.714 -0.7978 -1.2186  1.2185
  590MPD2     N 8753   0.219   0.201  16.282  0.6163 -0.5009 -0.4696
  590MPD2    H5 8754   0.142   0.187  16.217 -1.2063 -0.0728  1.5610
  590MPD2    N1 8755   4.596   0.005  16.578  0.2538  0.5244  0.2122
  590MPD2    H7 8756   4.541   4.718  16.493 -0.2540  2.4561  0.3814
  591TMC3    C1 8757   0.359   0.265  16.103 -0.0163  0.2755  0.6730
  591TMC3    C2 8758   0.481   0.255  16.035 -0.8747  0.5001 -0.3588
  591TMC3    C3 8759   0.496   0.319  15.919  0.0384 -0.0741 -0.3662
  591TMC3    C4 8760   0.254   0.345  16.057  0.2239 -0.2724  0.0480
  591TMC3    C5 8761   0.285   0.419  15.939  0.2741 -0.1594  1.0835
  591TMC3    C6 8762   0.405   0.412  15.870  0.1516 -0.4023  0.9322
  591TMC3     C 8763   0.352   0.198  16.234 -0.1757  0.2397  0.7555
  591TMC3     O 8764   0.455   0.164  16.287  0.2477  0.2066 -0.6889
  591TMC3     H 8765   0.562   0.191  16.068  0.1606  2.2198  0.4711
  591TMC3    H1 8766   0.158   0.346  16.107  0.7989 -1.4957  1.1855
  591TMC3    H2 8767   0.417   0.448  15.769 -0.2286  1.1988  1.4619
  591TMC3    C7 8768   0.184   0.507  15.901 -0.2809 -0.3160 -0.3727
  591TMC3    C8 8769   0.626   0.320  15.862 -0.3119  0.6492  0.4577
  591TMC3    O1 8770   0.075   0.496  15.951  0.2096 -0.3551  0.1327
  591TMC3    O2 8771   0.697   0.219  15.877  0.4497  0.0064 -0.1856
  592MPD2     C 8772   0.307   2.532  11.391 -0.7179  1.2200 -0.4629
  592MPD2    C1 8773   0.246   2.551  11.514  0.2247  0.1668  0.3725
  592MPD2    C2 8774   0.146   2.462  11.550  0.8195 -0.1430  0.2828
  592MPD2    C3 8775   0.095   2.370  11.464  0.2887 -0.5603 -0.3756
  592MPD2    C4 8776   0.152   2.365  11.340 -0.1484  0.1306 -0.6313
  592MPD2    C5 8777   0.258   2.441  11.304  0.4876  0.3149  0.3450
  592MPD2     H 8778   0.097   2.472  11.646  1.6906  0.2129  0.6901
  592MPD2    H1 8779   0.104   2.303  11.266  0.5167  1.0327 -1.8250
  592MPD2    H2 8780   0.397   2.584  11.363  0.3633 -1.1665 -1.4159
  592MPD2    H3 8781   0.312   2.426  11.212  0.4999  3.3405 -0.1529
  592MPD2     N 8782   4.708   2.283  11.509 -0.2347  0.1556  0.4349
  592MPD2    H5 8783   4.674   2.290  11.604 -0.2234  1.8015  0.3139
  592MPD2    N1 8784   0.283   2.668  11.595  0.2711  0.3568 -0.6573
  592MPD2    H7 8785   0.360   2.715  11.549  0.5076  0.5761 -0.0427
  593TMC3    C1 8786   0.297   2.823  11.785 -0.1349 -0.3492  0.1784
  593TMC3    C2 8787   0.275   2.848  11.915 -0.0511 -0.3801 -0.6005
  593TMC3    C3 8788   0.319   2.966  11.961 -0.8662 -0.4152  0.9184
  593TMC3    C4 8789   0.357   2.915  11.696  0.0004  0.6980  0.2554
  593TMC3    C5 8790   0.379   3.042  11.746 -0.3587  0.6632 -0.3072
  593TMC3    C6 8791   0.379   3.059  11.882  0.3170 -0.0224 -0.1787
  593TMC3     C 8792   0.245   2.692  11.730 -0.3817  0.7219  0.3261
  593TMC3     O 8793   0.173   2.626  11.801  0.1322 -0.5253 -0.1306
  593TMC3     H 8794   0.224   2.778  11.980  0.5862 -1.9083 -1.7207
  593TMC3    H1 8795   0.364   2.899  11.589 -3.0147 -2.4963  0.5242
  593TMC3    H2 8796   0.423   3.147  11.928 -1.9366  0.9686  0.0866
  593TMC3    C7 8797   0.448   3.138  11.663  0.2311 -0.2083  0.1844
  593TMC3    C8 8798   0.365   2.948  12.097 -0.3212  0.6061 -0.2363
  593TMC3    O1 8799   0.498   3.233  11.714 -0.0289 -0.6018  0.2443
  593TMC3    O2 8800   0.443   2.850  12.093  0.5850  0.2845 -0.0804
  594MPD2     C 8801   3.688   0.744  14.126 -0.2276  0.2357  0.4756
  594MPD2    C1 8802   3.609   0.857  14.127  0.1594 -0.8987  0.4444
  594MPD2    C2 8803   3.646   0.964  14.052  0.4773  0.0835  0.6205
  594MPD2    C3 8804   3.764   0.961  13.980  0.3123 -0.0697  0.2210
  594MPD2    C4 8805   3.831   0.836  13.970  0.4451  0.7898  0.1598
  594MPD2    C5 8806   3.791   0.726  14.042 -0.3364 -0.4710 -0.4196
  594MPD2     H 8807   3.602   1.063  14.057 -0.0571 -0.2719  2.9156
  594MPD2    H1 8808   3.919   0.828  13.907 -0.8343  0.1764 -1.5568
  594MPD2    H2 8809   3.652   0.648  14.161 -3.4071  0.6871 -1.5294
  594MPD2    H3 8810   3.854   0.638  14.042  2.5806  1.6429  0.4640
  594MPD2     N 8811   3.802   1.077  13.910 -0.7777 -0.4744 -0.1219
  594MPD2    H5 8812   3.763   1.164  13.946  0.2783  0.5936 -1.5524
  594MPD2    N1 8813   3.487   0.852  14.197 -0.0056 -0.1618 -0.8606
  594MPD2    H7 8814   3.458   0.769  14.247  0.2965  0.5665  0.5252
  595TMC3    C1 8815   4.177   1.301  13.860  0.3777  0.4888  0.2484
  595TMC3    C2 8816   4.096   1.202  13.806  0.0989  0.2817 -0.3140
  595TMC3    C3 8817   3.961   1.216  13.811  0.2202 -0.3697 -0.7636
  595TMC3    C4 8818   4.117   1.401  13.934  0.0249  0.6763 -0.5407
  595TMC3    C5 8819   3.986   1.404  13.948 -0.5700  0.5179  0.3512
  595TMC3    C6 8820   3.903   1.315  13.882  0.0546  0.0236  0.1260
  595TMC3     C 8821   4.318   1.270  13.886  0.4353  0.4616  0.2201
  595TMC3     O 8822   4.368   1.344  13.968  0.3524 -0.0648  0.3510
  595TMC3     H 8823   4.138   1.139  13.729 -0.5998 -0.2051 -0.2944
  595TMC3    H1 8824   4.174   1.487  13.967 -0.1200  0.2363  0.8856
  595TMC3    H2 8825   3.796   1.332  13.883  0.0689 -0.0253  1.8359
  595TMC3    C7 8826   3.925   1.483  14.056  0.9907  0.4233 -0.3724
  595TMC3    C8 8827   3.901   1.078  13.810 -0.1145  0.2920 -0.1814
  595TMC3    O1 8828   3.808   1.463  14.078 -0.0990 -0.1460  0.7214
  595TMC3    O2 8829   3.946   0.989  13.742  0.1815 -0.0100 -0.3059
  596MPD2     C 8830   3.085   3.603  16.667 -0.3085 -0.0130 -0.4551
  596MPD2    C1 8831   3.091   3.740  16.635 -0.3313  0.4119 -0.1317
  596MPD2    C2 8832   3.141   3.777  16.516 -0.3816  0.1933  0.0733
  596MPD2    C3 8833   3.178   3.695  16.413 -0.3014  0.1583 -0.3439
  596MPD2    C4 8834   3.185   3.560  16.454 -0.0409 -0.5731  0.6108
  596MPD2    C5 8835   3.145   3.512  16.579  0.4937  0.2160  0.1283
  596MPD2     H 8836   3.131   3.882  16.488  1.8388 -0.1008 -1.8014
  596MPD2    H1 8837   3.214   3.492  16.375 -0.7491 -1.5952  1.2439
  596MPD2    H2 8838   3.043   3.563  16.758 -1.4952  1.2874 -0.4364
  596MPD2    H3 8839   3.133   3.405  16.593  1.2392  0.1554  0.3033
  596MPD2     N 8840   3.204   3.739  16.281  0.0048  0.1689 -0.5539
  596MPD2    H5 8841   3.235   3.667  16.216 -1.2102 -0.0976 -0.8431
  596MPD2    N1 8842   3.033   3.842  16.712 -0.4813  0.2845  0.8215
  596MPD2    H7 8843   3.056   3.937  16.683  2.0786 -0.8009 -0.6207
  597TMC3    C1 8844   2.911   3.952  16.882 -0.3257 -0.5581 -0.7548
  597TMC3    C2 8845   2.956   4.069  16.820 -0.3182  0.4468 -0.6345
  597TMC3    C3 8846   2.915   4.188  16.880  0.5369 -0.4498 -0.1395
  597TMC3    C4 8847   2.820   3.944  16.977 -0.6913 -0.4491  0.2054
  597TMC3    C5 8848   2.768   4.067  17.019  0.5425 -0.0730  0.3367
  597TMC3    C6 8849   2.825   4.190  16.979 -0.3864 -0.2030  0.6381
  597TMC3     C 8850   2.955   3.824  16.820 -0.1384 -0.1374 -0.0371
  597TMC3     O 8851   2.920   3.722  16.875  0.2948  0.4830 -0.1119
  597TMC3     H 8852   3.039   4.078  16.750  1.4667  0.0358  1.4371
  597TMC3    H1 8853   2.780   3.848  17.010 -0.4249 -0.7717 -0.4116
  597TMC3    H2 8854   2.800   4.282  17.029  1.0888  0.1069  0.7828
  597TMC3    C7 8855   2.685   4.071  17.144  0.1467  0.1405 -0.0658
  597TMC3    C8 8856   2.948   4.321  16.816  1.0906 -0.2128 -0.3937
  597TMC3    O1 8857   2.673   3.966  17.206 -0.0210  0.0785  0.1116
  597TMC3    O2 8858   2.930   4.418  16.893 -0.7325 -0.4911 -0.2040
  598TMC3    C1 8859   1.229   0.852  15.391  0.3402 -0.0205 -0.6893
  598TMC3    C2 8860   1.334   0.769  15.420 -0.3218  0.2521 -0.7279
  598TMC3    C3 8861   1.460   0.822  15.402 -1.2293 -0.0599  0.5027
  598TMC3    C4 8862   1.245   0.980  15.347  0.2504 -0.1075  0.3395
  598TMC3    C5 8863   1.375   1.026  15.335 -0.2877  1.1833 -0.5115
  598TMC3    C6 8864   1.482   0.953  15.376 -0.9477  0.3880  0.5886
  598TMC3     C 8865   1.092   0.813  15.402  1.0941 -0.1765 -0.6337
  598TMC3     O 8866   1.011   0.892  15.452 -0.7334 -0.1741  0.3164
  598TMC3     H 8867   1.322   0.674  15.470 -0.6617  0.0044 -1.2854
  598TMC3    H1 8868   1.158   1.026  15.302  0.0220  1.1283  2.0266
  598TMC3    H2 8869   1.579   1.001  15.375 -0.9697  0.4402  1.2534
  598TMC3    C7 8870   1.410   1.132  15.235 -0.1601 -0.5292 -0.7215
  598TMC3    C8 8871   1.574   0.761  15.461  0.2719 -0.3912 -0.6195
  598TMC3    O1 8872   1.501   1.212  15.250 -0.5745 -0.0571  0.7285
  598TMC3    O2 8873   1.671   0.829  15.491  0.2630 -0.0901  0.1830
  599MPD2     C 8874   1.401   2.564  16.355 -0.3269 -0.5301 -0.1627
  599MPD2    C1 8875   1.293   2.542  16.270 -0.8094 -0.3954 -0.1520
  599MPD2    C2 8876   1.172   2.598  16.285 -0.5993  0.5752 -0.3991
  599MPD2    C3 8877   1.146   2.686  16.391 -1.1489 -0.5630 -0.2130
  599MPD2    C4 8878   1.248   2.700  16.484 -0.1509  0.4239 -0.1606
  599MPD2    C5 8879   1.370   2.638  16.470 -0.6743  0.4924  0.1489
  599MPD2     H 8880   1.095   2.581  16.211 -0.4547 -1.0662 -0.1654
  599MPD2    H1 8881   1.228   2.759  16.573 -1.0584  2.0627 -1.4579
  599MPD2    H2 8882   1.501   2.531  16.332 -0.7773 -1.0369 -1.4024
  599MPD2    H3 8883   1.445   2.654  16.547  0.7659  0.3592 -1.2336
  599MPD2     N 8884   1.034   2.776  16.394  0.5093  0.0914  0.4367
  599MPD2    H5 8885   1.031   2.853  16.460 -0.6637  0.7689 -0.4166
  599MPD2    N1 8886   1.334   2.468  16.154 -0.3149  0.0115  0.1368
  599MPD2    H7 8887   1.426   2.428  16.162 -0.5783 -0.8368 -1.1733
  600TMC3    C1 8888   0.809   2.857  16.355 -0.4823 -0.0018  0.2657
  600TMC3    C2 8889   0.682   2.808  16.339  0.3300  0.0954  0.1605
  600TMC3    C3 8890   0.574   2.894  16.352  0.2827  0.0703  0.5794
  600TMC3    C4 8891   0.836   2.985  16.398 -0.3158 -0.6919  0.0716
  600TMC3    C5 8892   0.720   3.065  16.416 -0.4069  0.2265 -0.1691
  600TMC3    C6 8893   0.598   3.016  16.396  0.5296  0.1908  0.6915
  600TMC3     C 8894   0.913   2.752  16.333  0.1808  0.3489 -0.2736
  600TMC3     O 8895   0.884   2.653  16.265  0.0815 -0.4341 -0.5818
  600TMC3     H 8896   0.658   2.709  16.302 -1.3395  0.2292  0.8457
  600TMC3    H1 8897   0.936   3.026  16.406 -0.5060 -0.3088  0.4421
  600TMC3    H2 8898   0.518   3.089  16.403 -1.9279 -2.5735  1.3463
  600TMC3    C7 8899   0.737   3.187  16.497  0.1911  0.0415  0.5058
  600TMC3    C8 8900   0.446   2.830  16.365 -0.1729  0.4454 -0.4094
  600TMC3    O1 8901   0.642   3.263  16.481 -0.6917 -0.3831 -0.3752
  600TMC3    O2 8902   0.452   2.730  16.432 -0.2499  0.1710 -0.4463
  601MPD2     C 8903   3.539   0.335   0.147  0.2368  0.1940 -0.4656
  601MPD2    C1 8904   3.409   0.372   0.171 -0.4160  0.2317 -0.2108
  601MPD2    C2 8905   3.325   0.287   0.249 -0.4131 -1.1010  0.0629
  601MPD2    C3 8906   3.374   0.172   0.306 -0.6663  0.1002 -1.2879
  601MPD2    C4 8907   3.506   0.138   0.277 -0.0907 -0.0347  0.6938
  601MPD2    C5 8908   3.581   0.211   0.190 -0.6377 -0.5320 -0.1356
  601MPD2     H 8909   3.222   0.310   0.272  0.2026  0.7567  0.9553
  601MPD2    H1 8910   3.549   0.046   0.314 -0.9595 -1.1941 -1.2123
  601MPD2    H2 8911   3.601   0.391   0.078 -0.5646 -0.1142 -1.4295
  601MPD2    H3 8912   3.686   0.196   0.168 -0.8298 -0.3845 -1.1660
  601MPD2     N 8913   3.294   0.099   0.392 -0.5864 -0.5099 -0.3742
  601MPD2    H5 8914   3.202   0.140   0.401 -0.3247 -0.1520  0.6151
  601MPD2    N1 8915   3.343   0.486   0.119  0.3806  0.0541  0.9069
  601MPD2    H7 8916   3.245   0.496   0.144  0.6815  1.5964  1.4967
  602TMC3    C1 8917   3.323   0.691   0.013  0.0246 -0.1073  0.3739
  602TMC3    C2 8918   3.380   0.814   0.012  0.3110 -0.1003  0.1984
  602TMC3    C3 8919   3.306   0.914  17.644  0.0926 -0.2121 -0.6016
  602TMC3    C4 8920   3.194   0.671  17.659 -0.1685  0.0503 -0.1350
  602TMC3    C5 8921   3.117   0.773  17.614 -0.0315  0.6402  0.7277
  602TMC3    C6 8922   3.177   0.893  17.596  0.1469 -0.3450 -0.3890
  602TMC3     C 8923   3.405   0.585   0.047  0.6415  0.0861  0.1158
  602TMC3     O 8924   3.525   0.594   0.024  0.5805 -0.8523 -0.1518
  602TMC3     H 8925   3.474   0.828   0.063  1.0484 -0.4755 -1.0464
  602TMC3    H1 8926   3.151   0.571  17.662 -0.6562  0.3814  3.2839
  602TMC3    H2 8927   3.117   0.979  17.568 -3.2492 -2.8499 -0.7407
  602TMC3    C7 8928   3.006   0.737  17.524 -0.0743 -0.0305  0.2072
  602TMC3    C8 8929   3.378   1.038  17.606  0.0734 -0.2529 -0.1031
  602TMC3    O1 8930   2.908   0.668  17.562  0.3141 -0.5239  0.3204
  602TMC3    O2 8931   3.466   1.092  17.668  0.7898  0.1978 -0.2482
  603TMC3    C1 8932   1.023   1.639  11.066  0.6797 -1.2666 -0.4453
  603TMC3    C2 8933   1.009   1.648  11.201  0.4020 -0.5415 -0.1079
  603TMC3    C3 8934   1.093   1.721  11.275 -0.8936 -0.7422 -0.1579
  603TMC3    C4 8935   1.117   1.708  10.999 -0.7296 -0.0787 -0.2063
  603TMC3    C5 8936   1.198   1.788  11.076  0.3116 -0.9171 -0.3541
  603TMC3    C6 8937   1.193   1.789  11.212 -0.2272  0.3099 -0.3422
  603TMC3     C 8938   0.919   1.576  10.993  0.2893  0.5257  0.2280
  603TMC3     O 8939   0.871   1.471  11.038 -0.3499 -0.1655  0.2413
  603TMC3     H 8940   0.926   1.592  11.241  0.1937  0.0556  0.3022
  603TMC3    H1 8941   1.121   1.707  10.891 -2.0581 -3.0794 -0.2332
  603TMC3    H2 8942   1.267   1.842  11.273  0.2889 -0.4172 -0.3327
  603TMC3    C7 8943   1.298   1.867  11.013  0.1864  0.4142 -0.1937
  603TMC3    C8 8944   1.077   1.707  11.422 -0.7903  0.3006 -0.3501
  603TMC3    O1 8945   1.394   1.906  11.078  0.6834 -0.1243  0.6969
  603TMC3    O2 8946   1.031   1.594  11.450  0.1504  0.1470 -0.3497
  604MPD2     C 8947   1.921   4.504  16.576  0.5741  0.3108  0.5898
  604MPD2    C1 8948   1.876   4.617  16.512  0.1632 -0.1831  0.3426
  604MPD2    C2 8949   1.909   4.644  16.375  0.3221  0.8891 -0.0077
  604MPD2    C3 8950   1.957   4.537  16.295  0.0096 -0.0040 -0.0926
  604MPD2    C4 8951   1.996   4.423  16.363  0.4934 -0.3793 -0.4690
  604MPD2    C5 8952   1.980   4.409  16.495 -0.0429  0.1314  0.2020
  604MPD2     H 8953   1.880   0.015  16.323 -0.2686 -0.3116 -1.7466
  604MPD2    H1 8954   2.051   4.343  16.314 -0.9407 -1.5814 -0.1371
  604MPD2    H2 8955   1.897   4.494  16.681  0.3453 -1.2410  0.3904
  604MPD2    H3 8956   2.016   4.318  16.542  2.1075  0.8408 -0.0769
  604MPD2     N 8957   1.971   4.548  16.151  0.1075  0.6222  0.5462
  604MPD2    H5 8958   1.952   4.641  16.116  2.9816  1.4001  0.9945
  604MPD2    N1 8959   1.799   4.710  16.584 -0.4040  0.0490 -0.0513
  604MPD2    H7 8960   1.798   4.687  16.683  1.3868  2.8049  0.6042
  605TMC3    C1 8961   1.695   0.193  16.625  0.7064 -0.4437 -0.0038
  605TMC3    C2 8962   1.774   0.203  16.743 -0.8993 -0.5603 -0.2097
  605TMC3    C3 8963   1.796   0.320  16.803 -0.6421 -0.4047 -0.1352
  605TMC3    C4 8964   1.649   0.309  16.567 -0.5442 -0.4920 -0.1224
  605TMC3    C5 8965   1.664   0.422  16.636  0.0898  0.3194  0.6020
  605TMC3    C6 8966   1.739   0.435  16.752  0.1224 -0.2720 -0.4410
  605TMC3     C 8967   1.740   0.103  16.531 -0.2919  0.4264 -0.6240
  605TMC3     O 8968   1.721   0.142  16.419 -0.0843 -0.8780  0.0238
  605TMC3     H 8969   1.825   0.117  16.783  2.5923  0.4696 -2.4508
  605TMC3    H1 8970   1.583   0.300  16.482 -1.4365 -0.7882  0.6027
  605TMC3    H2 8971   1.752   0.537  16.787 -0.7341  0.3846 -2.0273
  605TMC3    C7 8972   1.621   0.548  16.573 -0.1960 -0.0563 -0.6095
  605TMC3    C8 8973   1.928   0.328  16.864  0.3442 -0.0112 -0.0084
  605TMC3    O1 8974   1.596   0.642  16.655 -0.0407 -0.0624 -0.6351
  605TMC3    O2 8975   2.012   0.245  16.841  0.1553 -0.3082  0.3575
  606TMC3    C1 8976   3.444   3.454  17.000  0.0405  0.3982  0.4148
  606TMC3    C2 8977   3.499   3.406  17.114 -0.3130  0.2699  0.2505
  606TMC3    C3 8978   3.432   3.309  17.178 -0.5345 -0.4152 -1.1241
  606TMC3    C4 8979   3.332   3.408  16.951  0.7469 -0.4336  0.0555
  606TMC3    C5 8980   3.259   3.317  17.025 -0.3150 -0.0056 -0.6661
  606TMC3    C6 8981   3.306   3.268  17.144  0.2229  0.3021  0.4441
  606TMC3     C 8982   3.512   3.569  16.945 -0.6388 -0.4455  0.4936
  606TMC3     O 8983   3.592   3.627  17.018  0.4982  0.7786 -0.2385
  606TMC3     H 8984   3.591   3.448  17.153  0.0270  1.6413 -2.0411
  606TMC3    H1 8985   3.291   3.460  16.865  0.1781  0.6720  0.9921
  606TMC3    H2 8986   3.251   3.208  17.217  0.6758 -0.2015  0.3695
  606TMC3    C7 8987   3.110   3.308  17.014 -0.2172 -0.2652 -0.5277
  606TMC3    C8 8988   3.453   3.314  17.321 -0.5408 -0.2724 -1.3402
  606TMC3    O1 8989   3.063   3.391  16.938  0.1301  0.3366  0.0885
  606TMC3    O2 8990   3.494   3.424  17.358  0.2047 -0.6132 -0.1247
  607MPD2     C 8991   0.180   2.022  11.700 -0.0080 -0.4483 -0.4885
  607MPD2    C1 8992   0.168   2.078  11.825 -0.1885 -0.3219  0.0789
  607MPD2    C2 8993   0.124   1.997  11.924  0.5290  0.6381 -0.1100
  607MPD2    C3 8994   0.087   1.869  11.906 -0.4827  0.6486  0.4836
  607MPD2    C4 8995   0.093   1.813  11.781 -0.4026 -0.2905  0.4375
  607MPD2    C5 8996   0.144   1.891  11.681  1.1599 -0.2220  0.2912
  607MPD2     H 8997   0.114   2.031  12.027  0.0141  1.2326 -0.3555
  607MPD2    H1 8998   0.047   1.720  11.751 -0.4521 -0.4578  1.0376
  607MPD2    H2 8999   0.222   2.077  11.616 -0.6018  3.0690  1.5323
  607MPD2    H3 9000   0.142   1.852  11.579  2.4485 -0.3350  0.3106
  607MPD2     N 9001   0.030   1.808  12.019 -0.5730  0.5396  0.2030
  607MPD2    H5 9002   0.051   1.853  12.107  1.6238  1.3521 -0.7260
  607MPD2    N1 9003   0.212   2.205  11.865 -0.1824  0.0571  0.4401
  607MPD2    H7 9004   0.192   2.216  11.964 -1.2181 -0.7815  0.3207
  608TMC3    C1 9005   0.350   2.404  11.872  0.4966 -0.6650  0.1025
  608TMC3    C2 9006   0.328   2.400  12.003 -0.0301 -0.2471  0.0567
  608TMC3    C3 9007   0.417   2.477  12.079  0.2505 -0.6344  0.0706
  608TMC3    C4 9008   0.458   2.466  11.819  0.6241  0.2713 -0.8906
  608TMC3    C5 9009   0.536   2.550  11.899  0.0383 -0.0391 -0.0780
  608TMC3    C6 9010   0.516   2.554  12.034  0.3826  0.5470  0.5294
  608TMC3     C 9011   0.298   2.291  11.802  0.3009  0.0881  0.4488
  608TMC3     O 9012   0.349   2.275  11.693 -0.2208 -0.1150 -0.1890
  608TMC3     H 9013   0.236   2.362  12.045 -2.1150  2.0951 -2.3903
  608TMC3    H1 9014   0.500   2.441  11.722 -0.5787  3.2098 -2.1805
  608TMC3    H2 9015   0.571   2.622  12.098 -0.2433  0.6737  0.9282
  608TMC3    C7 9016   0.614   2.641  11.820  0.0846  0.2246 -0.2379
  608TMC3    C8 9017   0.407   2.453  12.221 -0.9246 -0.0556  0.3656
  608TMC3    O1 9018   0.635   2.615  11.703 -0.0017 -0.2639  0.1294
  608TMC3    O2 9019   0.442   2.536  12.300  0.0054  0.2126 -0.8722
  609TMC3    C1 9020   4.653   0.917   8.899 -0.1514  0.0163 -0.1948
  609TMC3    C2 9021   4.674   0.889   8.769  0.2594 -0.1492 -0.4691
  609TMC3    C3 9022   0.072   0.827   8.733  0.3412  0.6438 -0.4725
  609TMC3    C4 9023   0.003   0.854   9.001  0.0893  0.3088 -0.2782
  609TMC3    C5 9024   0.116   0.789   8.956 -0.0179  0.0862  0.1944
  609TMC3    C6 9025   0.152   0.776   8.827  0.4145 -0.6516  0.1134
  609TMC3     C 9026   4.522   0.976   8.925  0.9570 -0.9783  0.4312
  609TMC3     O 9027   4.466   0.927   9.025  0.2899 -0.5060  0.2166
  609TMC3     H 9028   4.613   0.939   8.694  0.5983 -1.8201 -1.8828
  609TMC3    H1 9029   4.699   0.876   9.104 -0.0381 -1.7995  0.1509
  609TMC3    H2 9030   0.255   0.758   8.799  0.5826  0.1109  0.2471
  609TMC3    C7 9031   0.201   0.736   9.064  0.4456 -0.0077  0.2242
  609TMC3    C8 9032   0.098   0.818   8.591 -0.3490  0.3459  0.2063
  609TMC3    O1 9033   0.174   0.777   9.177  0.3654 -0.2125 -0.5308
  609TMC3    O2 9034   0.015   0.876   8.519 -0.6047  0.6025  0.2568
  610TMC3    C1 9035   0.591   1.834  12.610  0.0802  0.4742  0.0256
  610TMC3    C2 9036   0.547   1.845  12.478 -0.1246  0.2980  0.1574
  610TMC3    C3 9037   0.592   1.754  12.386  0.2294  0.0608  0.0655
  610TMC3    C4 9038   0.668   1.729  12.650  0.4159  0.6430 -0.8317
  610TMC3    C5 9039   0.692   1.635  12.561  0.5867  0.3790 -0.4974
  610TMC3    C6 9040   0.664   1.646  12.426 -0.3729  0.2342 -0.3211
  610TMC3     C 9041   0.494   1.883  12.706 -0.0785 -0.5682  0.7074
  610TMC3     O 9042   0.375   1.878  12.683 -0.0402  0.1702  0.5746
  610TMC3     H 9043   0.492   1.934  12.449 -2.7851 -1.9029 -1.6175
  610TMC3    H1 9044   0.677   1.700  12.755  2.3758 -0.8422 -1.4186
  610TMC3    H2 9045   0.699   1.564  12.364  0.1125 -0.6400  1.1011
  610TMC3    C7 9046   0.752   1.511  12.615  0.4809  0.0958  0.8983
  610TMC3    C8 9047   0.545   1.766  12.247  0.2560 -0.6311 -0.1053
  610TMC3    O1 9048   0.843   1.523  12.698  0.2204  0.1629  0.5776
  610TMC3    O2 9049   0.488   1.873  12.230 -0.1043 -0.4605 -0.4705
  611MPD2     C 9050   0.386   2.353   9.963 -0.1295 -0.0382 -0.6003
  611MPD2    C1 9051   0.426   2.255  10.047 -0.2415  0.0176 -0.0174
  611MPD2    C2 9052   0.556   2.260  10.102 -0.1422 -0.9273  0.4711
  611MPD2    C3 9053   0.639   2.367  10.073 -0.2153  0.3857 -0.0027
  611MPD2    C4 9054   0.593   2.458   9.984  1.6320 -0.2325  0.2707
  611MPD2    C5 9055   0.464   2.452   9.931  0.5332 -1.1660  0.5379
  611MPD2     H 9056   0.583   2.176  10.165  0.0782 -0.3095  1.1890
  611MPD2    H1 9057   0.654   2.546   9.968  0.2535  0.7312  0.3451
  611MPD2    H2 9058   0.294   2.342   9.908 -1.8022  2.0612  1.8242
  611MPD2    H3 9059   0.429   2.530   9.864  0.5648  1.3155  3.3819
  611MPD2     N 9060   0.768   2.384  10.126  0.0922  0.5014  0.1504
  611MPD2    H5 9061   0.811   2.467  10.087 -1.9331  0.4674 -2.2193
  611MPD2    N1 9062   0.329   2.149  10.082 -0.7529  0.2456 -0.3286
  611MPD2    H7 9063   0.239   2.155  10.036 -0.9021 -0.3733 -0.1092
  612TMC3    C1 9064   0.951   2.383  10.276  0.0875  0.0004  0.1952
  612TMC3    C2 9065   1.045   2.305  10.335 -0.4176  0.4901 -0.5046
  612TMC3    C3 9066   1.175   2.357  10.351  0.7829 -0.2360 -0.4671
  612TMC3    C4 9067   0.979   2.516  10.254 -0.1031 -0.3396  0.1121
  612TMC3    C5 9068   1.103   2.561  10.267  0.3276  0.0751  0.2804
  612TMC3    C6 9069   1.202   2.492  10.328  0.2540  0.4859  1.0770
  612TMC3     C 9070   0.822   2.327  10.235 -0.2209  0.2903  0.6666
  612TMC3     O 9071   0.779   2.229  10.299  0.6610  0.4347  0.3894
  612TMC3     H 9072   1.024   2.198  10.336 -1.3316  0.6530 -1.2782
  612TMC3    H1 9073   0.915   2.578  10.193 -0.0760 -1.9430 -1.5497
  612TMC3    H2 9074   1.305   2.527  10.336  0.3647  0.3222  0.3858
  612TMC3    C7 9075   1.128   2.694  10.225 -0.3421  0.2044 -0.0629
  612TMC3    C8 9076   1.281   2.292  10.421 -0.6387  0.2908  0.1843
  612TMC3    O1 9077   1.066   2.743  10.136 -0.5104 -0.4064 -0.4487
  612TMC3    O2 9078   1.391   2.347  10.409 -0.6968 -0.4703  0.2909
  613MPD2     C 9079   4.228   4.392  16.362  0.0462 -0.6135  0.5071
  613MPD2    C1 9080   4.143   4.380  16.257 -0.4425  0.2145  0.9425
  613MPD2    C2 9081   4.136   4.259  16.198  0.0110 -0.9082  0.7904
  613MPD2    C3 9082   4.223   4.162  16.239 -0.0964 -0.1009 -0.2877
  613MPD2    C4 9083   4.311   4.178  16.346 -0.5574  0.5664  0.9924
  613MPD2    C5 9084   4.316   4.298  16.404  0.9698 -0.2964  0.7905
  613MPD2     H 9085   4.087   4.267  16.102 -0.3682 -0.9651  0.9781
  613MPD2    H1 9086   4.385   4.106  16.380 -0.3398  0.5124  0.4145
  613MPD2    H2 9087   4.247   4.488  16.409 -1.9692  0.1701 -0.2739
  613MPD2    H3 9088   4.389   4.315  16.483  1.6284  0.3361  0.0523
  613MPD2     N 9089   4.246   4.054  16.150 -0.3531  0.2693 -0.5997
  613MPD2    H5 9090   4.333   4.006  16.168 -0.7823 -0.3928 -0.2996
  613MPD2    N1 9091   4.075   4.499  16.217 -0.3267 -0.3674 -0.1398
  613MPD2    H7 9092   4.110   4.585  16.258 -1.4004  0.0450 -0.0991
  614TMC3    C1 9093   3.969   4.636  16.062 -0.5446  0.1534  0.4827
  614TMC3    C2 9094   4.097   4.676  16.034 -0.2068 -0.3595  0.1765
  614TMC3    C3 9095   4.140   4.674  15.905  0.1393  0.6118  0.2011
  614TMC3    C4 9096   3.879   4.627  15.956 -0.0896 -0.0453 -0.3237
  614TMC3    C5 9097   3.921   4.634  15.827 -0.4866 -0.7866 -0.3342
  614TMC3    C6 9098   4.054   4.656  15.802 -0.2011 -0.0866 -0.0897
  614TMC3     C 9099   3.973   4.511  16.128  0.2009 -0.0028  0.7735
  614TMC3     O 9100   3.903   4.423  16.085 -0.1434 -0.3173  0.1794
  614TMC3     H 9101   4.167   4.706  16.112  1.8042  0.4566 -1.9530
  614TMC3    H1 9102   3.774   4.629  15.983  0.7027  1.9695  2.6244
  614TMC3    H2 9103   4.095   4.655  15.701 -0.5499 -0.0900 -0.2311
  614TMC3    C7 9104   3.819   4.637  15.726  0.1337  0.5867 -0.8862
  614TMC3    C8 9105   4.280   4.646  15.889 -0.1228  0.6760  0.7499
  614TMC3    O1 9106   3.713   4.683  15.766 -0.8455 -0.2319 -0.5190
  614TMC3    O2 9107   4.332   4.611  15.995 -0.9104  0.4777  0.0152
  615MPD2     C 9108   3.255   0.309  16.338 -0.9062  1.0350 -0.3671
  615MPD2    C1 9109   3.356   0.351  16.249 -0.2881 -0.3880  0.0812
  615MPD2    C2 9110   3.318   0.380  16.124  0.1835  0.2448 -0.2455
  615MPD2    C3 9111   3.186   0.363  16.078 -0.0573 -0.7393 -0.4421
  615MPD2    C4 9112   3.094   0.320  16.167 -0.0589  0.2806  0.6401
  615MPD2    C5 9113   3.125   0.295  16.297 -1.1513  0.4519  0.1097
  615MPD2     H 9114   3.390   0.417  16.052  0.5860 -0.8025 -0.3790
  615MPD2    H1 9115   2.988   0.323  16.146  0.1681 -0.6812 -0.6675
  615MPD2    H2 9116   3.275   0.291  16.443 -0.8048  0.8779 -0.4118
  615MPD2    H3 9117   3.049   0.261  16.366 -2.3945  3.0141 -0.0069
  615MPD2     N 9118   3.146   0.435  15.956  0.2954  0.0702 -0.9523
  615MPD2    H5 9119   3.049   0.463  15.945  0.2691  0.8996  1.3105
  615MPD2    N1 9120   3.490   0.379  16.281 -0.2315 -0.5230 -0.9387
  615MPD2    H7 9121   3.541   0.421  16.204  1.1582 -0.5404 -0.0396
  616TMC3    C1 9122   3.680   0.443  16.413  0.0772  0.5203 -0.6765
  616TMC3    C2 9123   3.763   0.396  16.517 -0.2392  0.5166  0.6730
  616TMC3    C3 9124   3.899   0.401  16.497  0.8923 -0.1752 -0.5361
  616TMC3    C4 9125   3.727   0.509  16.306  0.0617  0.6045  0.2845
  616TMC3    C5 9126   3.859   0.532  16.295  0.5893 -0.1127 -0.2089
  616TMC3    C6 9127   3.949   0.471  16.385 -0.9683 -0.3991 -0.2597
  616TMC3     C 9128   3.549   0.375  16.404  0.9739  0.7828  0.2084
  616TMC3     O 9129   3.511   0.325  16.506  0.0134  0.1183 -0.0591
  616TMC3     H 9130   3.722   0.338  16.599 -2.2599  2.9547  1.3842
  616TMC3    H1 9131   3.664   0.549  16.228 -0.5585  0.9421  0.9590
  616TMC3    H2 9132   4.054   0.495  16.370 -0.5790 -0.9438  1.5865
  616TMC3    C7 9133   3.900   0.629  16.197  0.1361 -0.3083  0.3631
  616TMC3    C8 9134   3.993   0.347  16.596 -0.3475  0.7501  0.0240
  616TMC3    O1 9135   4.019   0.626  16.160 -0.0650 -0.3284  0.2039
  616TMC3    O2 9136   3.951   0.285  16.694  0.2122 -0.4237  0.1934
  617MPD2     C 9137   1.439   4.042  13.597 -0.4124 -0.2928 -0.6138
  617MPD2    C1 9138   1.450   3.949  13.701 -0.2377  0.6220  0.2685
  617MPD2    C2 9139   1.380   3.829  13.686  0.1800 -0.5062 -0.4817
  617MPD2    C3 9140   1.300   3.803  13.579 -1.0036 -0.2782  0.4813
  617MPD2    C4 9141   1.289   3.894  13.472 -0.0027 -0.8408  0.2279
  617MPD2    C5 9142   1.357   4.009  13.491  0.4665  0.0994 -0.2354
  617MPD2     H 9143   1.379   3.760  13.769 -2.3854  0.4093  0.2591
  617MPD2    H1 9144   1.233   3.877  13.380  1.4101 -0.4500 -0.7091
  617MPD2    H2 9145   1.486   4.140  13.604 -1.5227  0.2942 -1.3801
  617MPD2    H3 9146   1.353   4.083  13.413 -1.6796 -0.9096 -1.0725
  617MPD2     N 9147   1.229   3.677  13.572 -0.8457  0.2467  0.3281
  617MPD2    H5 9148   1.235   3.625  13.659 -0.1791 -0.9668 -0.4550
  617MPD2    N1 9149   1.545   3.967  13.800 -0.4252  0.7578  0.5945
  617MPD2    H7 9150   1.592   4.057  13.799  1.0655 -0.0227  0.8705
  618TMC3    C1 9151   1.716   3.892  13.944  0.3470 -0.0585  0.1118
  618TMC3    C2 9152   1.757   3.771  13.991  0.3047 -0.3477  0.6727
  618TMC3    C3 9153   1.839   3.692  13.913  0.3980 -0.5797  0.1406
  618TMC3    C4 9154   1.793   3.951  13.843 -0.7605  0.0011 -0.4184
  618TMC3    C5 9155   1.889   3.880  13.770 -0.4224 -0.5214 -0.1253
  618TMC3    C6 9156   1.905   3.746  13.804  0.0327  1.2653 -0.0139
  618TMC3     C 9157   1.592   3.874  13.888 -0.0213  0.0445 -0.1292
  618TMC3     O 9158   1.554   3.762  13.919  0.0124 -0.5985  0.4280
  618TMC3     H 9159   1.710   3.724  14.077 -0.3577  1.2126  1.1678
  618TMC3    H1 9160   1.783   4.055  13.816  1.3985  0.5324  0.7965
  618TMC3    H2 9161   1.986   3.692  13.757  0.4244  1.4995  0.3997
  618TMC3    C7 9162   1.895   3.903  13.625  0.3549 -0.1131  0.6568
  618TMC3    C8 9163   1.815   3.546  13.909  0.0082 -0.5280  0.4814
  618TMC3    O1 9164   1.936   3.806  13.562  0.1770 -0.4718  0.2472
  618TMC3    O2 9165   1.772   3.492  14.008  0.3632  0.1181  0.2961
  619MPD2     C 9166   3.158   0.660  13.547 -0.3828 -0.4154 -0.5821
  619MPD2    C1 9167   3.080   0.712  13.446 -1.0146 -0.2439  1.2812
  619MPD2    C2 9168   2.951   0.661  13.426  0.5277 -0.1712  0.4679
  619MPD2    C3 9169   2.897   0.571  13.514 -0.1759  0.2400  0.0239
  619MPD2    C4 9170   2.978   0.519  13.610  0.8992  0.5158  0.2460
  619MPD2    C5 9171   3.100   0.570  13.633 -0.0418  0.6012 -0.2467
  619MPD2     H 9172   2.883   0.724  13.369 -2.0124 -2.7225  0.6574
  619MPD2    H1 9173   2.929   0.461  13.688  0.1825  0.9838  0.1463
  619MPD2    H2 9174   3.257   0.700  13.564 -0.9665  0.6161  0.4302
  619MPD2    H3 9175   3.157   0.545  13.721 -1.8089  0.6801  0.9184
  619MPD2     N 9176   2.762   0.531  13.521 -0.2044  0.2133  0.1509
  619MPD2    H5 9177   2.738   0.476  13.603  0.0233 -0.4381 -0.2198
  619MPD2    N1 9178   3.114   0.832  13.378  0.3850 -0.9322  0.1329
  619MPD2    H7 9179   3.048   0.869  13.312 -0.4825 -1.4083  0.7309
  620TMC3    C1 9180   3.231   1.021  13.296  0.3317  0.6253 -0.4070
  620TMC3    C2 9181   3.142   0.994  13.188 -1.2494  0.1649  0.3587
  620TMC3    C3 9182   3.056   1.095  13.151 -0.1394  0.1449 -0.2398
  620TMC3    C4 9183   3.240   1.148  13.355  0.1279 -0.4249 -0.0007
  620TMC3    C5 9184   3.144   1.233  13.321 -0.4000 -0.1091  0.1032
  620TMC3    C6 9185   3.059   1.216  13.217 -0.1682  0.5269  0.3492
  620TMC3     C 9186   3.236   0.907  13.390 -0.4336 -0.0986  0.3336
  620TMC3     O 9187   3.323   0.909  13.475 -0.7362  0.1204  0.1530
  620TMC3     H 9188   3.140   0.905  13.127 -1.1885  0.7010 -0.4291
  620TMC3    H1 9189   3.305   1.160  13.441  1.3029  0.4526 -1.0221
  620TMC3    H2 9190   2.983   1.289  13.192  0.3661  1.1533  0.5525
  620TMC3    C7 9191   3.075   1.277  13.444  0.2736 -0.7820 -0.2683
  620TMC3    C8 9192   2.925   1.045  13.171  0.5498 -0.7405  0.3281
  620TMC3    O1 9193   3.126   1.229  13.547  0.0511 -0.3865  0.2067
  620TMC3    O2 9194   2.915   0.948  13.245 -0.5875 -0.1959  0.2744
  621MPD2     C 9195   3.279   0.490  10.273  0.0985  0.8143 -0.4754
  621MPD2    C1 9196   3.379   0.411  10.229  0.8125 -0.9599 -0.2065
  621MPD2    C2 9197   3.432   0.435  10.104 -0.1991  0.3004  0.0195
  621MPD2    C3 9198   3.393   0.543  10.031  0.4481 -0.3679  0.2598
  621MPD2    C4 9199   3.290   0.622  10.073  0.0617 -0.3013 -0.5593
  621MPD2    C5 9200   3.235   0.595  10.196 -0.1074  0.4209  0.0831
  621MPD2     H 9201   3.526   0.387  10.081 -1.5551 -1.8372 -1.0034
  621MPD2    H1 9202   3.237   0.692  10.010  0.2175  0.1051 -0.2416
  621MPD2    H2 9203   3.226   0.485  10.367  1.7662  1.7423  0.5235
  621MPD2    H3 9204   3.147   0.652  10.225  1.2589  2.6201 -0.0554
  621MPD2     N 9205   3.475   0.561   9.915 -0.3322 -1.2849 -0.1390
  621MPD2    H5 9206   3.545   0.490   9.892  1.1249 -0.2050  0.9583
  621MPD2    N1 9207   3.430   0.304  10.304  0.1626  0.4819 -0.6529
  621MPD2    H7 9208   3.495   0.237  10.264 -0.2422 -0.5842  0.4882
  622TMC3    C1 9209   3.441   0.146  10.462 -0.0889 -0.1274 -0.1285
  622TMC3    C2 9210   3.357   0.047  10.489  0.3825  0.4421 -0.4079
  622TMC3    C3 9211   3.381   4.642  10.443 -0.3080 -0.0191  0.2037
  622TMC3    C4 9212   3.552   0.119  10.390 -0.5871  0.3299 -0.3217
  622TMC3    C5 9213   3.571   4.716  10.339 -0.8324 -0.5587  0.2841
  622TMC3    C6 9214   3.492   4.617  10.370 -0.0083  0.1750  0.1786
  622TMC3     C 9215   3.381   0.268  10.430  0.9112  0.1180  0.2492
  622TMC3     O 9216   3.278   0.300  10.484 -0.2105  0.2246 -0.6408
  622TMC3     H 9217   3.258   0.052  10.535 -0.2043 -1.8483 -1.3846
  622TMC3    H1 9218   3.626   0.197  10.383  0.8518 -0.7128  3.5367
  622TMC3    H2 9219   3.516   4.514  10.347  0.1263 -0.2003  2.0015
  622TMC3    C7 9220   3.702   4.693  10.281  0.1451  0.2416  0.1448
  622TMC3    C8 9221   3.258   4.579  10.395 -0.4477  0.2388 -0.9505
  622TMC3    O1 9222   3.785   0.003  10.365  0.0243 -0.5010  0.1410
  622TMC3    O2 9223   3.272   4.461  10.360  0.2370 -0.0067  0.6058
  623MPD2     C 9224   2.565   0.809  16.271 -0.3381 -0.0865  0.0979
  623MPD2    C1 9225   2.497   0.701  16.323 -0.5610  0.4374  0.4006
  623MPD2    C2 9226   2.558   0.635  16.431 -0.1377  0.1205  0.1231
  623MPD2    C3 9227   2.673   0.684  16.490  0.4373  0.6074 -0.1481
  623MPD2    C4 9228   2.736   0.795  16.432  0.5962 -0.3773 -0.1499
  623MPD2    C5 9229   2.684   0.854  16.320  0.0549 -0.2201 -0.1145
  623MPD2     H 9230   2.518   0.543  16.473  2.3227 -1.2226 -0.4985
  623MPD2    H1 9231   2.820   0.846  16.478 -2.4490  3.7808  0.7537
  623MPD2    H2 9232   2.525   0.860  16.185  0.7235 -0.5683 -0.6864
  623MPD2    H3 9233   2.736   0.940  16.280  2.4882 -1.8787 -0.5905
  623MPD2     N 9234   2.717   0.623  16.612 -0.3534 -0.1035  0.1276
  623MPD2    H5 9235   2.652   0.552  16.643 -0.4878  0.1143  0.3477
  623MPD2    N1 9236   2.377   0.659  16.274 -0.2676  0.0190  0.2450
  623MPD2    H7 9237   2.333   0.704  16.194  3.9668  0.0073 -2.1301
  624TMC3    C1 9238   2.906   0.505  17.012  0.0538 -0.2357  0.7432
  624TMC3    C2 9239   2.781   0.464  17.059  0.3695  0.1036 -0.5254
  624TMC3    C3 9240   2.672   0.461  16.968  0.6044 -0.0156  0.1574
  624TMC3    C4 9241   2.915   0.565  16.889 -0.2812 -0.1690 -0.0520
  624TMC3    C5 9242   2.802   0.582  16.821  0.4131  0.4464 -0.0566
  624TMC3    C6 9243   2.679   0.530  16.850  1.0058  0.0493  0.8165
  624TMC3     C 9244   3.016   0.505  17.103 -0.3066 -0.2446  0.2245
  624TMC3     O 9245   3.005   0.434  17.202  0.2590  0.0525 -0.1526
  624TMC3     H 9246   2.778   0.420  17.158  1.3051  0.8686 -0.1547
  624TMC3    H1 9247   2.997   0.613  16.837 -0.3341 -2.0382 -1.8197
  624TMC3    H2 9248   2.586   0.551  16.799  1.9958 -2.5559 -2.0816
  624TMC3    C7 9249   2.808   0.673  16.701 -0.5849 -0.1826  0.1561
  624TMC3    C8 9250   2.546   0.495  17.036  0.0320  0.8503  0.9461
  624TMC3    O1 9251   2.901   0.750  16.683 -0.0385  0.1894  0.4898
  624TMC3    O2 9252   2.554   0.525  17.153 -0.3768 -0.4869  0.3358
  625MPD2     C 9253   2.261   1.240   0.284  0.4200  0.4634 -0.2872
  625MPD2    C1 9254   2.324   1.336   0.218  0.4365  0.1415  0.2124
  625MPD2    C2 9255   2.412   1.415   0.287  0.0736  0.0159 -0.0857
  625MPD2    C3 9256   2.465   1.376   0.409  0.3103  0.3962 -0.0805
  625MPD2    C4 9257   2.397   1.277   0.476 -0.2731 -0.2040 -0.1594
  625MPD2    C5 9258   2.296   1.214   0.414  0.7223  0.4135  0.3399
  625MPD2     H 9259   2.461   1.498   0.237 -0.3953  0.6067  0.4432
  625MPD2    H1 9260   2.433   1.253   0.575 -1.1687  1.5715  0.5869
  625MPD2    H2 9261   2.183   1.179   0.240 -0.5126  0.2955  1.5949
  625MPD2    H3 9262   2.236   1.138   0.461  1.4527  0.5899  1.5727
  625MPD2     N 9263   2.576   1.452   0.460 -0.1513 -0.2676  0.1517
  625MPD2    H5 9264   2.611   1.527   0.401  0.0383 -1.0311 -0.7034
  625MPD2    N1 9265   2.287   1.364   0.080 -0.1355 -0.2578  0.0142
  625MPD2    H7 9266   2.310   1.444   0.022 -1.0895 -0.8671 -1.1765
  626TMC3    C1 9267   2.142   1.346  17.572  0.5113  0.2175 -0.2477
  626TMC3    C2 9268   2.166   1.480  17.556 -0.3413  0.7559 -0.2242
  626TMC3    C3 9269   2.071   1.556  17.498  0.7416 -0.2877 -0.1484
  626TMC3    C4 9270   2.028   1.291  17.522 -0.0311  0.9617 -1.0223
  626TMC3    C5 9271   1.934   1.375  17.474  0.1941  0.4934  0.1783
  626TMC3    C6 9272   1.951   1.507  17.471  0.4151  0.1108 -0.6780
  626TMC3     C 9273   2.205   1.279   0.006 -0.4333  0.0080  0.0303
  626TMC3     O 9274   2.196   1.157   0.012  0.1211  0.6307 -0.3182
  626TMC3     H 9275   2.262   1.525  17.583 -1.0701  2.3240 -0.2108
  626TMC3    H1 9276   2.006   1.189  17.554 -1.2254  2.0436  1.5769
  626TMC3    H2 9277   1.876   1.571  17.426  1.5659  1.0202 -1.2985
  626TMC3    C7 9278   1.806   1.346  17.541 -0.1217 -0.1387 -0.2240
  626TMC3    C8 9279   2.105   1.680  17.423  0.6215 -0.2031  0.3651
  626TMC3    O1 9280   1.764   1.235  17.522  0.3816 -0.2779 -0.6516
  626TMC3    O2 9281   2.048   1.706  17.317 -0.2555  0.2762 -0.0284
  627MPD2     C 9282   0.600   2.412  14.276 -0.0840  0.0889  0.2383
  627MPD2    C1 9283   0.675   2.412  14.392  0.1775 -0.4241  0.7643
  627MPD2    C2 9284   0.675   2.299  14.473  0.6918  0.0639  0.5428
  627MPD2    C3 9285   0.610   2.189  14.435  0.5982  0.4475  0.1500
  627MPD2    C4 9286   0.522   2.205  14.330 -1.3221  0.4827 -0.0921
  627MPD2    C5 9287   0.526   2.307  14.247  0.3103 -0.0564 -0.7989
  627MPD2     H 9288   0.728   2.301  14.568 -0.7035  0.1209  1.3154
  627MPD2    H1 9289   0.457   2.128  14.290  0.2728 -0.3277 -1.1338
  627MPD2    H2 9290   0.595   2.497  14.208 -2.2682 -0.5603 -0.4101
  627MPD2    H3 9291   0.457   2.311  14.164  1.5156  1.5484 -1.7232
  627MPD2     N 9292   0.620   2.068  14.511  0.1489  0.0172 -0.1070
  627MPD2    H5 9293   0.693   2.071  14.582 -1.3419 -1.2357  1.4959
  627MPD2    N1 9294   0.751   2.524  14.426 -0.3842  0.6311 -0.1394
  627MPD2    H7 9295   0.786   2.526  14.521  0.3184 -1.7949 -0.3501
  628TMC3    C1 9296   0.886   2.714  14.404  0.4028 -0.5824 -0.1902
  628TMC3    C2 9297   0.963   2.652  14.500  0.0606 -0.7328  0.1159
  628TMC3    C3 9298   1.055   2.729  14.563  0.0569 -0.4574 -0.7411
  628TMC3    C4 9299   0.898   2.848  14.373  0.0614  0.1346  0.5054
  628TMC3    C5 9300   0.987   2.922  14.446  0.1803 -0.3849 -0.1453
  628TMC3    C6 9301   1.055   2.863  14.549 -0.6500  0.4672 -0.0556
  628TMC3     C 9302   0.773   2.636  14.349  0.3098  0.3375 -0.6161
  628TMC3     O 9303   0.743   2.679  14.234  0.5708 -0.2270 -0.1869
  628TMC3     H 9304   0.972   2.545  14.513 -2.6220 -1.1890 -1.8219
  628TMC3    H1 9305   0.822   2.895  14.311 -0.0739 -0.2557  0.3719
  628TMC3    H2 9306   1.130   2.913  14.608 -1.1693  1.6758 -0.4214
  628TMC3    C7 9307   1.050   3.039  14.397  0.9516 -0.5692 -0.2750
  628TMC3    C8 9308   1.158   2.656  14.641 -0.3610  0.1588 -0.2267
  628TMC3    O1 9309   1.134   3.093  14.472  0.1217 -0.0976 -0.1607
  628TMC3    O2 9310   1.129   2.536  14.658  0.6555 -0.1661  0.4536
  629MPD2     C 9311   4.470   0.285  16.732  0.4168 -0.2401  0.5676
  629MPD2    C1 9312   4.476   0.342  16.609  0.8781 -0.1933  0.2735
  629MPD2    C2 9313   4.353   0.367  16.552  0.2827  0.6566 -0.2048
  629MPD2    C3 9314   4.236   0.341  16.624 -0.1570 -0.5849 -0.0902
  629MPD2    C4 9315   4.240   0.291  16.751 -0.5564 -0.1606  0.7818
  629MPD2    C5 9316   4.360   0.256  16.806 -0.4256 -0.4225  0.6145
  629MPD2     H 9317   4.350   0.416  16.455  0.4288 -0.9584 -1.0341
  629MPD2    H1 9318   4.148   0.262  16.800 -0.7150 -2.9371 -1.1244
  629MPD2    H2 9319   4.563   0.257  16.781 -0.8173 -1.9379  1.9600
  629MPD2    H3 9320   4.357   0.214  16.905  0.9672  2.5507  1.9065
  629MPD2     N 9321   4.122   0.372  16.557 -0.3968 -0.6749 -0.5739
  629MPD2    H5 9322   4.131   0.403  16.461 -1.6135 -1.3893 -0.9322
  629MPD2    N1 9323   4.602   0.389  16.557  0.1649  0.0403 -0.3014
  629MPD2    H7 9324   4.683   0.352  16.606 -1.7475 -1.9079  1.3824
  630TMC3    C1 9325   0.040   0.496  16.427  0.2111  0.0024  0.0698
  630TMC3    C2 9326   0.069   0.546  16.304  0.3893 -0.4349 -0.1662
  630TMC3    C3 9327   0.201   0.586  16.298 -0.0737  0.3210 -0.0714
  630TMC3    C4 9328   0.134   0.470  16.529 -0.3027 -0.2476 -0.6122
  630TMC3    C5 9329   0.266   0.503  16.508 -0.2217 -0.3223 -0.0184
  630TMC3    C6 9330   0.299   0.552  16.387  0.6336 -0.6009  0.2926
  630TMC3     C 9331   4.620   0.474  16.456 -0.1582 -0.6724  0.2673
  630TMC3     O 9332   4.532   0.511  16.382 -0.0066 -0.2653  0.0231
  630TMC3     H 9333   4.715   0.562  16.226 -0.6239 -0.2449  0.8153
  630TMC3    H1 9334   0.115   0.471  16.636  0.1513  0.6590 -0.5374
  630TMC3    H2 9335   0.402   0.561  16.353 -0.0468 -0.6617 -1.7785
  630TMC3    C7 9336   0.329   0.558  16.622 -1.0231 -0.8540  0.5128
  630TMC3    C8 9337   0.243   0.695  16.206 -0.3703 -0.1186 -0.3188
  630TMC3    O1 9338   0.314   0.502  16.728 -0.4958 -0.0050 -0.1695
  630TMC3    O2 9339   0.348   0.749  16.233  0.2085  0.0096 -0.1897
  631MPD2     C 9340   2.442   0.875  15.428  0.9119 -0.1234  0.1274
  631MPD2    C1 9341   2.553   0.902  15.355  0.1407 -0.0588  0.1084
  631MPD2    C2 9342   2.666   0.825  15.377  0.4191  0.3200  0.0313
  631MPD2    C3 9343   2.675   0.738  15.486 -0.0246 -0.2320 -0.5757
  631MPD2    C4 9344   2.556   0.711  15.561 -0.1426  0.6024  0.4850
  631MPD2    C5 9345   2.443   0.790  15.531 -0.3759 -0.1272  0.1810
  631MPD2     H 9346   2.759   0.840  15.323  0.7506 -0.7538  0.3060
  631MPD2    H1 9347   2.543   0.644  15.645 -1.1422 -0.5331 -0.5713
  631MPD2    H2 9348   2.351   0.928  15.400  0.4916 -1.4490 -1.0183
  631MPD2    H3 9349   2.348   0.773  15.579 -0.6916 -0.4784 -0.5672
  631MPD2     N 9350   2.796   0.670  15.501  0.0245  0.1573  1.1450
  631MPD2    H5 9351   2.880   0.685  15.446 -0.2090 -2.5341  0.0266
  631MPD2    N1 9352   2.551   1.004  15.258  0.7954  0.4623 -0.3276
  631MPD2    H7 9353   2.461   1.050  15.252  0.5369  0.1637  1.3237
  632TMC3    C1 9354   2.616   1.170  15.112  0.1923  0.2957 -0.0076
  632TMC3    C2 9355   2.546   1.256  15.189 -0.1394  0.3381 -0.3563
  632TMC3    C3 9356   2.542   1.384  15.144 -0.1511 -0.3361  0.8935
  632TMC3    C4 9357   2.703   1.205  15.013  0.3296  0.2889 -0.1209
  632TMC3    C5 9358   2.690   1.332  14.967  0.3431  0.1056  0.2887
  632TMC3    C6 9359   2.611   1.426  15.035  0.2038  0.2677  0.1541
  632TMC3     C 9360   2.651   1.050  15.178  0.0370  0.5792  0.2794
  632TMC3     O 9361   2.759   1.003  15.152 -0.4874  0.5076  0.7350
  632TMC3     H 9362   2.483   1.217  15.268 -0.6500  1.6400 -0.1249
  632TMC3    H1 9363   2.771   1.129  14.975 -0.0728 -0.5165  0.7710
  632TMC3    H2 9364   2.606   1.530  15.003 -1.1956 -0.0122 -0.5321
  632TMC3    C7 9365   2.726   1.363  14.827 -0.0265  0.0514 -0.8356
  632TMC3    C8 9366   2.452   1.480  15.224  0.8190 -0.4265 -0.4849
  632TMC3    O1 9367   2.652   1.440  14.764  0.4445 -0.1297  0.4100
  632TMC3    O2 9368   2.422   1.438  15.337  0.0895 -0.2154 -0.0011
  633MPD2     C 9369   2.261   3.247  17.224 -0.2862  0.3554 -0.3454
  633MPD2    C1 9370   2.313   3.236  17.095  0.1703 -0.0916 -0.1786
  633MPD2    C2 9371   2.310   3.117  17.029  0.4539 -0.1515 -0.1598
  633MPD2    C3 9372   2.278   2.995  17.086 -0.2176  0.4204  0.0662
  633MPD2    C4 9373   2.238   3.008  17.220 -0.3360  0.4614  0.6456
  633MPD2    C5 9374   2.228   3.131  17.280  0.0869 -0.2292 -0.3564
  633MPD2     H 9375   2.355   3.113  16.930  0.7303  0.6798 -0.0689
  633MPD2    H1 9376   2.195   2.930  17.281  1.1481 -1.4608 -0.7449
  633MPD2    H2 9377   2.255   3.340  17.279 -2.5348  0.3756 -0.6231
  633MPD2    H3 9378   2.194   3.136  17.382  2.0980  0.3187  0.2908
  633MPD2     N 9379   2.296   2.868  17.034  0.8160  0.2207  0.3577
  633MPD2    H5 9380   2.289   2.789  17.097 -1.1283  0.3330  0.2533
  633MPD2    N1 9381   2.379   3.342  17.020  0.5126  0.3516  0.3807
  633MPD2    H7 9382   2.392   3.332  16.920  1.1070 -0.0124  0.4955
  634TMC3    C1 9383   2.491   3.546  16.976  0.2720  0.1929  0.4135
  634TMC3    C2 9384   2.583   3.485  16.891  0.2926  0.1214  0.8271
  634TMC3    C3 9385   2.653   3.566  16.806  0.2169 -0.2240 -0.4549
  634TMC3    C4 9386   2.476   3.684  16.970  0.2226  0.6448  0.1753
  634TMC3    C5 9387   2.546   3.761  16.882 -0.3877 -0.5159 -0.0361
  634TMC3    C6 9388   2.630   3.703  16.798  0.3285 -0.4437 -0.2975
  634TMC3     C 9389   2.413   3.467  17.069 -1.0034  0.3267  0.6316
  634TMC3     O 9390   2.385   3.515  17.177 -0.0730 -0.6604 -0.1876
  634TMC3     H 9391   2.596   3.379  16.868 -0.0218 -0.2218  2.2699
  634TMC3    H1 9392   2.410   3.727  17.045 -0.0527 -1.1869  0.9945
  634TMC3    H2 9393   2.688   3.769  16.734  1.5060  0.4810  1.7156
  634TMC3    C7 9394   2.486   3.880  16.833  0.0018 -0.2995 -0.2299
  634TMC3    C8 9395   2.698   3.506  16.675  0.1594 -0.4557  0.4909
  634TMC3    O1 9396   2.509   3.911  16.715 -0.4469  0.0607 -0.0141
  634TMC3    O2 9397   2.706   3.383  16.666 -0.2024 -0.3114 -0.5151
  635TMC3    C1 9398   2.822   4.380  17.500  0.1835 -0.1535 -0.1174
  635TMC3    C2 9399   2.767   4.490  17.437 -1.5435 -0.3274  0.0483
  635TMC3    C3 9400   2.821   4.525  17.311 -0.5787 -0.1833  0.4280
  635TMC3    C4 9401   2.917   4.297  17.446 -0.8013  0.2304 -0.0536
  635TMC3    C5 9402   2.939   4.325  17.310  0.3577  0.6014  0.2515
  635TMC3    C6 9403   2.913   4.446  17.247  0.2578 -0.7248  0.0351
  635TMC3     C 9404   2.805   4.356  17.642 -0.6691  0.2456  0.0343
  635TMC3     O 9405   2.886   4.279   0.014  0.3009  0.3226  0.0753
  635TMC3     H 9406   2.688   4.548  17.484 -1.9588  0.5224 -1.6644
  635TMC3    H1 9407   2.948   4.204  17.492 -3.0599 -1.3846 -1.7905
  635TMC3    H2 9408   2.951   4.462  17.147 -1.6313  1.0916 -0.3882
  635TMC3    C7 9409   3.043   4.251  17.237  0.9724 -0.4121 -0.0207
  635TMC3    C8 9410   2.732   4.606  17.228 -0.3666 -0.4776  0.3128
  635TMC3    O1 9411   3.120   4.317  17.171 -0.2598 -0.1029 -0.5192
  635TMC3    O2 9412   2.631   4.646  17.289 -0.3666  0.4886 -0.0300
  636MPD2     C 9413   3.699   4.255  15.619 -0.0121 -0.2463  0.6498
  636MPD2    C1 9414   3.733   4.249  15.751 -0.1062 -0.4390  0.9946
  636MPD2    C2 9415   3.840   4.165  15.787  0.2408  0.1368  0.3425
  636MPD2    C3 9416   3.904   4.081  15.694  0.1746  0.1212 -0.3013
  636MPD2    C4 9417   3.864   4.095  15.560 -0.3506  0.1450  0.7677
  636MPD2    C5 9418   3.770   4.189  15.526  0.4071  0.3782  0.0128
  636MPD2     H 9419   3.873   4.160  15.890  1.8498  0.2931 -0.1727
  636MPD2    H1 9420   3.915   4.059  15.471 -2.6811 -2.3556  0.4486
  636MPD2    H2 9421   3.614   4.308  15.579  0.6363 -1.3949 -2.2307
  636MPD2    H3 9422   3.752   4.209  15.421 -2.3120 -0.2815  0.3519
  636MPD2     N 9423   3.998   3.988  15.739  0.3251 -0.7357  0.2281
  636MPD2    H5 9424   4.017   3.985  15.839 -0.3501  1.4639  0.4177
  636MPD2    N1 9425   3.683   4.331  15.852 -0.0647  0.0463 -0.4923
  636MPD2    H7 9426   3.729   4.313  15.941  2.4511  2.0569 -1.3915
  637TMC3    C1 9427   4.191   3.853  15.740 -0.2496 -0.3592  0.0528
  637TMC3    C2 9428   4.153   3.861  15.873  0.0859 -0.7801  0.3167
  637TMC3    C3 9429   4.235   3.931  15.954 -0.1976 -0.6900  0.0920
  637TMC3    C4 9430   4.319   3.884  15.692  0.1429 -0.2345 -0.0947
  637TMC3    C5 9431   4.399   3.959  15.776  0.8556 -0.3931 -0.7017
  637TMC3    C6 9432   4.353   3.982  15.906  0.0942 -0.1784 -0.1633
  637TMC3     C 9433   4.084   3.908  15.660 -0.1146  0.2824 -0.2283
  637TMC3     O 9434   4.098   3.916  15.538  0.2866 -0.4565  0.4319
  637TMC3     H 9435   4.062   3.824  15.917  1.7050 -4.1875  0.8034
  637TMC3    H1 9436   4.338   3.886  15.585 -2.1609 -0.9434 -0.5241
  637TMC3    H2 9437   4.423   4.030  15.973 -1.1391  0.1034  0.9342
  637TMC3    C7 9438   4.483   4.062  15.708 -0.0256  0.0300  0.0105
  637TMC3    C8 9439   4.168   4.016  16.045  0.0445 -0.5576  0.0009
  637TMC3    O1 9440   4.520   4.039  15.592 -0.3063 -0.2205  0.1762
  637TMC3    O2 9441   4.061   4.057  16.002  0.6380 -0.2366  0.5692
  638MPD2     C 9442   3.643   2.892  14.998  0.7761  0.5765 -0.5725
  638MPD2    C1 9443   3.715   2.779  14.976  0.2827 -0.0503 -0.0191
  638MPD2    C2 9444   3.694   2.664  15.050 -0.3592 -0.2712  0.3111
  638MPD2    C3 9445   3.574   2.659  15.125  0.6771 -0.2391 -0.4003
  638MPD2    C4 9446   3.500   2.775  15.155  0.2162  0.0026  0.4995
  638MPD2    C5 9447   3.539   2.892  15.090  0.0623 -0.5778 -0.2952
  638MPD2     H 9448   3.747   2.573  15.022 -1.4339 -0.4136 -1.2824
  638MPD2    H1 9449   3.420   2.770  15.228 -1.8095 -0.1420 -1.6998
  638MPD2    H2 9450   3.670   2.978  14.937 -0.9151  1.0523 -0.6461
  638MPD2    H3 9451   3.480   2.982  15.100  0.1024 -0.5388 -0.4157
  638MPD2     N 9452   3.545   2.535  15.174 -0.2170  0.0305 -0.4176
  638MPD2    H5 9453   3.612   2.461  15.158 -1.7127 -1.5360  0.6519
  638MPD2    N1 9454   3.806   2.781  14.866  0.4725  0.5723  0.4492
  638MPD2    H7 9455   3.815   2.853  14.794 -0.7796 -0.7853 -1.0764
  639TMC3    C1 9456   3.421   2.357  15.238 -0.0051  0.7827 -0.5697
  639TMC3    C2 9457   3.304   2.309  15.180 -0.3050 -0.7191  0.4650
  639TMC3    C3 9458   3.298   2.182  15.141  0.1921 -0.1822  0.2348
  639TMC3    C4 9459   3.536   2.282  15.243  0.1580  0.0419 -0.3874
  639TMC3    C5 9460   3.531   2.160  15.196 -0.3584  0.0231  0.2213
  639TMC3    C6 9461   3.417   2.105  15.142 -0.0223 -0.8566 -0.4458
  639TMC3     C 9462   3.425   2.499  15.222  0.1516 -0.5047  0.9436
  639TMC3     O 9463   3.324   2.565  15.236  0.8795 -0.8363  0.0971
  639TMC3     H 9464   3.225   2.380  15.157 -1.5356 -1.7660  1.4703
  639TMC3    H1 9465   3.627   2.327  15.282 -0.3779  0.7541  0.0389
  639TMC3    H2 9466   3.405   2.008  15.097 -0.7895 -1.1770  0.4336
  639TMC3    C7 9467   3.632   2.062  15.228 -0.1822 -0.3642  0.0298
  639TMC3    C8 9468   3.204   2.162  15.035  0.3850 -0.1806 -0.7969
  639TMC3    O1 9469   3.601   1.955  15.265 -0.5385 -0.1336 -0.5191
  639TMC3    O2 9470   3.254   2.108  14.938  0.4439 -0.3062 -0.3594
  640MPD2     C 9471   4.062   0.986   9.362  0.1584 -0.4485 -0.4274
  640MPD2    C1 9472   4.081   1.118   9.334 -0.3787  0.8080  0.4090
  640MPD2    C2 9473   3.968   1.201   9.324  0.2093  0.2981  0.1101
  640MPD2    C3 9474   3.838   1.152   9.339 -0.0173 -0.3271 -0.4516
  640MPD2    C4 9475   3.824   1.017   9.371 -0.6377  0.4562  0.4983
  640MPD2    C5 9476   3.934   0.930   9.379 -0.3071 -0.0851 -0.3186
  640MPD2     H 9477   3.980   1.306   9.297  2.0431  0.2602  0.7499
  640MPD2    H1 9478   3.724   0.976   9.372 -0.6068  0.3651 -0.2756
  640MPD2    H2 9479   4.150   0.924   9.372  0.0286 -1.0965 -3.3496
  640MPD2    H3 9480   3.914   0.826   9.401 -2.3939  0.2251 -0.7248
  640MPD2     N 9481   3.717   1.226   9.323 -0.0539 -0.1148  0.4698
  640MPD2    H5 9482   3.626   1.181   9.330  0.4408 -1.0858  0.6736
  640MPD2    N1 9483   4.214   1.158   9.313 -0.2633  0.0202 -0.1560
  640MPD2    H7 9484   4.293   1.095   9.325 -0.2777 -0.0293 -0.3300
  641TMC3    C1 9485   4.407   1.278   9.260  0.4510 -0.4336 -0.0997
  641TMC3    C2 9486   4.486   1.227   9.368  0.5194  0.7327  0.0738
  641TMC3    C3 9487   4.622   1.236   9.345  0.0205 -0.0313  0.2322
  641TMC3    C4 9488   4.467   1.344   9.152 -0.0563 -0.0436 -0.0575
  641TMC3    C5 9489   4.604   1.353   9.148  0.0299 -0.0940  0.0487
  641TMC3    C6 9490   4.686   1.299   9.245  0.0379 -0.5185  0.5703
  641TMC3     C 9491   4.257   1.281   9.266 -0.0785  0.5242  0.5903
  641TMC3     O 9492   4.197   1.379   9.221 -0.0005  0.2692 -0.5210
  641TMC3     H 9493   4.439   1.162   9.441  0.1356  1.5627  0.5671
  641TMC3    H1 9494   4.404   1.380   9.071  0.2823 -1.5435 -0.9897
  641TMC3    H2 9495   0.073   1.282   9.234 -0.0854 -0.5202 -0.5611
  641TMC3    C7 9496   4.664   1.411   9.025  0.4200  0.5203  0.0879
  641TMC3    C8 9497   4.698   1.161   9.442 -0.2104 -0.0631  0.0265
  641TMC3    O1 9498   0.031   1.344   8.971 -0.2360 -0.2562  0.0607
  641TMC3    O2 9499   0.058   1.079   9.398  0.2413 -0.1549 -0.6281
  642TMC3    C1 9500   0.061   2.749  12.346  0.5170  0.2181 -0.2479
  642TMC3    C2 9501   0.071   2.723  12.479 -0.3660 -0.2703  0.1610
  642TMC3    C3 9502   0.086   2.597  12.509 -0.4145  0.4584  1.0911
  642TMC3    C4 9503   0.049   2.647  12.251  0.5485  0.3996  0.0769
  642TMC3    C5 9504   0.050   2.515  12.295  0.6765  0.3470 -0.2881
  642TMC3    C6 9505   0.073   2.491  12.427  0.2058 -0.8725  0.4933
  642TMC3     C 9506   0.028   2.883  12.302  0.1155 -0.0128  0.2890
  642TMC3     O 9507   0.034   2.911  12.185  0.0690 -0.5558 -0.5742
  642TMC3     H 9508   0.083   2.803  12.552 -2.6273 -0.1707  0.4315
  642TMC3    H1 9509   0.013   2.675  12.153  0.5004 -2.5713 -0.7390
  642TMC3    H2 9510   0.085   2.390  12.463  0.8312 -0.4385  1.5007
  642TMC3    C7 9511   0.002   2.418  12.202 -0.4592 -0.0594  1.2347
  642TMC3    C8 9512   0.115   2.556  12.645 -0.3812 -0.0924  0.2113
  642TMC3    O1 9513   0.016   2.441  12.081 -0.4410  0.1588 -0.3966
  642TMC3    O2 9514   0.072   2.446  12.678 -0.3493 -0.1192  0.1274
  643TMC3    C1 9515   3.874   1.932   0.221 -0.6592 -0.4549 -0.2087
  643TMC3    C2 9516   3.775   2.021   0.202 -0.2712 -0.3130 -0.3753
  643TMC3    C3 9517   3.767   2.085   0.081 -0.4125  0.1246 -0.1057
  643TMC3    C4 9518   3.981   1.925   0.131 -0.0250 -0.2086  1.0820
  643TMC3    C5 9519   3.976   1.992   0.015 -0.4520  0.2782  0.1054
  643TMC3    C6 9520   3.869   2.077  17.663 -0.1791  0.4842 -0.2345
  643TMC3     C 9521   3.884   1.875   0.353 -0.0805  0.3897  1.0759
  643TMC3     O 9522   3.783   1.859   0.417 -0.3851  0.4729 -0.5473
  643TMC3     H 9523   3.685   2.026   0.263  1.3050  2.9255  1.6358
  643TMC3    H1 9524   4.073   1.872   0.153 -0.8759 -2.5737 -1.1537
  643TMC3    H2 9525   3.864   2.128  17.567 -0.7648 -1.1301 -1.0591
  643TMC3    C7 9526   4.089   2.013  17.611  0.5602 -0.6574  0.0139
  643TMC3    C8 9527   3.656   2.177   0.080 -0.8192  0.0381 -0.0728
  643TMC3    O1 9528   4.066   2.066  17.505 -0.1020  0.7294 -0.1266
  643TMC3    O2 9529   3.574   2.186   0.172  0.1206  0.4795 -0.0009
  644MPD2     C 9530   0.015   2.050   8.859 -0.1510  0.1540 -0.6859
  644MPD2    C1 9531   0.020   2.015   8.992  0.7411  0.0402  0.5705
  644MPD2    C2 9532   0.008   2.110   9.091  0.1521  0.0142  0.6578
  644MPD2    C3 9533   4.707   2.238   9.062  0.5022 -0.1480  0.6379
  644MPD2    C4 9534   4.702   2.279   8.928 -0.0139 -0.0702  0.7257
  644MPD2    C5 9535   4.708   2.183   8.823  0.7114 -0.7180 -0.3011
  644MPD2     H 9536   0.027   2.083   9.195  0.5521 -1.4293  0.2138
  644MPD2    H1 9537   4.683   2.383   8.904  0.8365  0.3906  2.0097
  644MPD2    H2 9538   0.029   1.973   8.783  1.1162 -0.5466  0.2465
  644MPD2    H3 9539   4.689   2.212   8.721  3.2887 -2.1904 -1.1970
  644MPD2     N 9540   4.709   2.323   9.170 -0.5414 -0.2104 -0.0383
  644MPD2    H5 9541   4.710   2.272   9.258 -0.5005  0.5210  0.3865
  644MPD2    N1 9542   0.049   1.878   9.013  0.2412  0.3547 -0.4273
  644MPD2    H7 9543   0.052   1.813   8.935  1.3815 -0.0518 -0.0454
  645TMC3    C1 9544   0.005   2.520   9.288  0.3640  0.8200  0.8267
  645TMC3    C2 9545   4.643   2.471   9.386  0.1628  0.6151 -0.3086
  645TMC3    C3 9546   4.663   2.530   9.508  0.4216  0.5340  0.3881
  645TMC3    C4 9547   0.095   2.625   9.295 -0.6128 -1.1402  0.0314
  645TMC3    C5 9548   0.100   2.683   9.422  0.9306  0.0827  0.0595
  645TMC3    C6 9549   0.022   2.641   9.526 -0.3715  0.5004  0.1603
  645TMC3     C 9550   0.001   2.460   9.162 -0.1706  0.7341  0.5153
  645TMC3     O 9551   0.023   2.528   9.059  0.1694 -0.0183 -0.0036
  645TMC3     H 9552   4.580   2.384   9.383  0.8672  0.0360  1.3558
  645TMC3    H1 9553   0.140   2.669   9.207 -1.1635 -1.6256 -0.4925
  645TMC3    H2 9554   0.022   2.688   9.623 -1.4440  1.4589 -0.3113
  645TMC3    C7 9555   0.204   2.783   9.456 -0.6253  0.1944 -0.0036
  645TMC3    C8 9556   4.599   2.483   9.634  0.1602  0.1026 -0.7420
  645TMC3    O1 9557   0.245   2.856   9.366 -0.2200  0.1626 -0.2904
  645TMC3    O2 9558   4.606   2.558   9.732 -0.0679 -0.1134 -0.4743
  646MPD2     C 9559   3.515   1.438  14.491  0.3567  0.2103  0.1503
  646MPD2    C1 9560   3.434   1.433  14.602 -0.5843 -0.0678 -0.3067
  646MPD2    C2 9561   3.321   1.504  14.585 -0.2809  0.3176  0.1819
  646MPD2    C3 9562   3.289   1.580  14.474 -0.5030  0.1014  0.5823
  646MPD2    C4 9563   3.380   1.583  14.372 -0.2722  0.4634 -0.0201
  646MPD2    C5 9564   3.491   1.511  14.381 -0.9092 -0.3927 -0.0897
  646MPD2     H 9565   3.247   1.502  14.664 -1.4376 -1.2773 -0.9644
  646MPD2    H1 9566   3.367   1.652  14.289 -0.4056 -0.4006 -0.7187
  646MPD2    H2 9567   3.603   1.376  14.485  0.0645 -0.0613 -1.3483
  646MPD2    H3 9568   3.565   1.517  14.301 -0.3773  0.6768  0.4849
  646MPD2     N 9569   3.166   1.650  14.470 -0.4064  0.9616  0.2069
  646MPD2    H5 9570   3.108   1.636  14.552 -0.8212 -0.8740 -0.4029
  646MPD2    N1 9571   3.463   1.334  14.704 -0.1352 -0.1899 -0.4791
  646MPD2    H7 9572   3.547   1.278  14.692 -1.7757 -3.0422  1.2394
  647TMC3    C1 9573   3.469   1.224  14.907  0.3874 -0.6628  0.1046
  647TMC3    C2 9574   3.410   1.188  15.018  0.0401 -0.0408 -0.4859
  647TMC3    C3 9575   3.462   1.093  15.098  0.6621  0.5232 -0.2439
  647TMC3    C4 9576   3.601   1.187  14.879 -0.3503 -0.0950  0.5482
  647TMC3    C5 9577   3.655   1.098  14.966  0.2063  0.3408 -0.0480
  647TMC3    C6 9578   3.587   1.042  15.077  0.0708 -0.5145  0.9873
  647TMC3     C 9579   3.402   1.325  14.822  0.2864  0.5163 -0.3816
  647TMC3     O 9580   3.288   1.375  14.843  0.4861 -0.0900  0.4053
  647TMC3     H 9581   3.308   1.216  15.041  1.5000  4.4842  0.4542
  647TMC3    H1 9582   3.656   1.233  14.798 -0.3986  1.0574  1.1616
  647TMC3    H2 9583   3.637   0.975  15.146 -1.9860 -2.7855  0.2553
  647TMC3    C7 9584   3.791   1.055  14.935 -0.3623 -0.7200  0.2808
  647TMC3    C8 9585   3.421   1.091  15.243  0.5830 -0.8481  0.6482
  647TMC3    O1 9586   3.846   0.978  15.015 -0.3752 -0.3169  0.2935
  647TMC3    O2 9587   3.345   1.176  15.283 -0.7044  0.4642  0.3780
  648TMC3    C1 9588   3.167   3.844  16.085  0.2069  0.4391  0.3136
  648TMC3    C2 9589   3.271   3.786  16.017  0.0288  0.5936 -0.1658
  648TMC3    C3 9590   3.262   3.789  15.875  0.7425  0.3711 -0.1067
  648TMC3    C4 9591   3.071   3.915  16.026 -0.4004  0.2238 -0.1287
  648TMC3    C5 9592   3.067   3.918  15.888  0.2869 -0.2770  0.4299
  648TMC3    C6 9593   3.153   3.849  15.811 -0.1484 -0.3234  0.9784
  648TMC3     C 9594   3.185   3.863  16.230  0.2167  0.2989 -0.3195
  648TMC3     O 9595   3.159   3.971  16.280 -0.3180  0.3932 -0.1318
  648TMC3     H 9596   3.355   3.740  16.067 -1.0567 -0.9488  0.2246
  648TMC3    H1 9597   3.001   3.964  16.093  0.0422  0.8397 -0.1135
  648TMC3    H2 9598   3.154   3.866  15.704  2.6897 -0.1318  1.0275
  648TMC3    C7 9599   2.951   3.975  15.820 -0.1358  0.5225 -0.9676
  648TMC3    C8 9600   3.289   3.661  15.807 -0.2820 -0.1478  0.3893
  648TMC3    O1 9601   2.967   3.990  15.702 -0.1203  0.2319 -0.3409
  648TMC3    O2 9602   3.407   3.620  15.816 -0.0634 -0.1308  0.2942
  649TMC3    C1 9603   1.822   0.171  12.843 -0.4885  0.2581  0.8995
  649TMC3    C2 9604   1.929   0.229  12.901  0.5216  0.0886 -0.3933
  649TMC3    C3 9605   1.926   0.227  13.041 -0.6730 -0.4758  0.0672
  649TMC3    C4 9606   1.719   0.111  12.911 -0.1078 -0.5090  0.2359
  649TMC3    C5 9607   1.735   0.102  13.046  0.0769  0.4946 -0.5611
  649TMC3    C6 9608   1.835   0.163  13.113 -0.2749 -0.1772  0.6422
  649TMC3     C 9609   1.795   0.213  12.700 -0.7081  0.4816 -0.5132
  649TMC3     O 9610   1.680   0.221  12.666 -0.7046 -0.6181 -0.2868
  649TMC3     H 9611   2.009   0.268  12.839  0.8151  1.0915  0.6223
  649TMC3    H1 9612   1.628   0.081  12.860  1.5033  0.3631 -3.1215
  649TMC3    H2 9613   1.843   0.161  13.221  0.3392 -0.7477  0.5852
  649TMC3    C7 9614   1.627   0.049  13.126  0.0858 -0.3096 -0.1726
  649TMC3    C8 9615   2.044   0.224  13.121 -1.1043 -0.2967  0.5215
  649TMC3    O1 9616   1.628   0.087  13.243  0.0250  0.4407  0.8716
  649TMC3    O2 9617   2.057   0.151  13.218  0.0023 -0.0826 -0.3014
  650TMC3    C1 9618   4.222   2.204  12.926 -0.4446  0.1297 -0.4250
  650TMC3    C2 9619   4.186   2.322  12.996 -0.0762 -0.3594  0.6390
  650TMC3    C3 9620   4.243   2.436  12.947  0.2257 -0.3212  0.4383
  650TMC3    C4 9621   4.292   2.211  12.811  0.3673 -0.3509  0.3028
  650TMC3    C5 9622   4.326   2.332  12.758  0.5962  0.0460 -0.2774
  650TMC3    C6 9623   4.318   2.446  12.834  0.3395 -0.6519  0.0338
  650TMC3     C 9624   4.227   2.082  13.009  0.9052  0.1322  0.4701
  650TMC3     O 9625   4.196   2.091  13.124  0.6009  0.0344 -0.0358
  650TMC3     H 9626   4.130   2.317  13.089 -1.7205 -0.0750 -0.3179
  650TMC3    H1 9627   4.295   2.124  12.747  3.3378 -0.3211  0.4070
  650TMC3    H2 9628   4.350   2.541  12.794 -0.6669 -0.4024 -0.1851
  650TMC3    C7 9629   4.348   2.339  12.612 -0.0283  0.1753  0.2399
  650TMC3    C8 9630   4.172   2.558  12.965 -0.0295 -0.2676  0.4783
  650TMC3    O1 9631   4.389   2.238  12.558  0.6924  0.0924  0.2986
  650TMC3    O2 9632   4.230   2.667  12.952 -0.1488  0.5842  0.3316
  651MPD2     C 9633   3.275   3.437  10.895 -0.8479  0.0135  0.1118
  651MPD2    C1 9634   3.221   3.533  10.815 -0.1239 -0.4822 -0.4387
  651MPD2    C2 9635   3.306   3.609  10.740  0.0319 -0.2785 -0.8263
  651MPD2    C3 9636   3.443   3.590  10.739 -0.0158 -0.5618  0.6800
  651MPD2    C4 9637   3.494   3.496  10.828  0.2441  0.1654 -0.3166
  651MPD2    C5 9638   3.407   3.413  10.894  0.6109 -0.1197  0.4900
  651MPD2     H 9639   3.260   3.690  10.684 -1.3398  0.7312  1.7331
  651MPD2    H1 9640   3.601   3.485  10.841  0.5523  0.3403 -2.6740
  651MPD2    H2 9641   3.212   3.376  10.960  3.0834 -0.7725  3.1632
  651MPD2    H3 9642   3.444   3.333  10.957 -1.9657 -2.2123 -0.6281
  651MPD2     N 9643   3.527   3.679  10.675  0.0637 -0.1118  0.0637
  651MPD2    H5 9644   3.476   3.743  10.615 -0.4180  0.6769  1.3289
  651MPD2    N1 9645   3.086   3.579  10.831 -0.3003 -0.1372 -0.1581
  651MPD2    H7 9646   3.059   3.670  10.796  2.2153  1.2025  1.4398
  652TMC3    C1 9647   3.899   3.964  10.589  0.0418 -0.0485 -0.5674
  652TMC3    C2 9648   3.848   3.840  10.619 -0.5147  0.2293  0.5794
  652TMC3    C3 9649   3.714   3.826  10.627  0.3820 -0.4433 -0.0303
  652TMC3    C4 9650   3.817   4.079  10.596 -0.1595 -0.4187  0.3476
  652TMC3    C5 9651   3.688   4.057  10.623 -0.4344 -0.1635 -0.2864
  652TMC3    C6 9652   3.636   3.933  10.635 -0.2146 -0.3838  0.1619
  652TMC3     C 9653   4.047   3.970  10.586 -0.1298  0.7776 -1.2076
  652TMC3     O 9654   4.107   3.868  10.617 -0.3393 -0.0374 -0.0746
  652TMC3     H 9655   3.907   3.750  10.634 -0.7676  0.0309  0.3664
  652TMC3    H1 9656   3.852   4.181  10.583 -2.7481  0.4469  0.1066
  652TMC3    H2 9657   3.531   3.910  10.649  0.3106 -1.8456  1.7718
  652TMC3    C7 9658   3.614   4.168  10.682 -0.1533 -0.3903 -0.2991
  652TMC3    C8 9659   3.661   3.706  10.696 -0.1963  0.8210 -0.8580
  652TMC3    O1 9660   3.514   4.147  10.749  0.0015  0.2979  0.4425
  652TMC3    O2 9661   3.738   3.649  10.771  0.2184 -0.4701 -0.1693
  653MPD2     C 9662   2.371   3.401   0.071 -0.2652 -0.2677  0.4597
  653MPD2    C1 9663   2.322   3.516   0.025  0.4985  0.4848 -0.2132
  653MPD2    C2 9664   2.218   3.516  17.614  0.2457  0.4917 -0.1622
  653MPD2    C3 9665   2.166   3.395  17.572 -0.2125  0.8982 -0.0719
  653MPD2    C4 9666   2.214   3.278  17.630 -0.1566 -0.7358  0.1953
  653MPD2    C5 9667   2.318   3.277   0.041  0.6635 -0.1868 -0.7528
  653MPD2     H 9668   2.175   3.609  17.577 -3.1956 -0.8146  0.5577
  653MPD2    H1 9669   2.173   3.179  17.615  0.7795 -1.0239 -0.4619
  653MPD2    H2 9670   2.450   3.403   0.144  0.1703 -1.1610  0.0208
  653MPD2    H3 9671   2.359   3.184   0.079 -1.5225 -1.2874 -1.0911
  653MPD2     N 9672   2.052   3.393  17.488 -0.2019 -0.2944  0.0738
  653MPD2    H5 9673   2.039   3.478  17.435 -1.6577 -0.4841  0.1374
  653MPD2    N1 9674   2.352   3.648   0.073  0.9346 -1.0733  0.3721
  653MPD2    H7 9675   2.294   3.726   0.045  0.2438 -1.6498  0.2103
  654TMC3    C1 9676   1.865   3.334  17.368 -0.1784 -0.2105  1.0251
  654TMC3    C2 9677   1.829   3.466  17.364 -0.1738 -0.4639 -0.0215
  654TMC3    C3 9678   1.752   3.503  17.255  1.3122 -0.3087 -0.5616
  654TMC3    C4 9679   1.853   3.249  17.265  0.1379  0.4420 -0.1601
  654TMC3    C5 9680   1.783   3.294  17.158 -0.5065  0.1099  0.6221
  654TMC3    C6 9681   1.727   3.420  17.149 -0.6751  0.3165  0.9181
  654TMC3     C 9682   1.961   3.295  17.464 -0.5162  0.0929 -0.5752
  654TMC3     O 9683   1.967   3.177  17.502  0.0924  0.2763  0.3743
  654TMC3     H 9684   1.825   3.526  17.454  0.8479  1.0838 -1.0096
  654TMC3    H1 9685   1.886   3.146  17.273 -2.9058 -0.6169 -1.2828
  654TMC3    H2 9686   1.690   3.467  17.058  3.0388  1.5085  0.0156
  654TMC3    C7 9687   1.776   3.213  17.035  0.1760 -0.1219  0.1743
  654TMC3    C8 9688   1.709   3.641  17.244 -0.4483 -0.1884  0.0812
  654TMC3    O1 9689   1.724   3.278  16.942 -0.0483  0.1070 -0.0380
  654TMC3    O2 9690   1.654   3.676  17.143 -0.2900  0.4198 -0.2454
  655MPD2     C 9691   3.517   4.015  15.875  0.3900 -0.4043  0.0898
  655MPD2    C1 9692   3.436   4.073  15.786 -0.1278 -0.0370  1.2786
  655MPD2    C2 9693   3.452   4.032  15.656  0.2851 -0.3524 -1.0293
  655MPD2    C3 9694   3.537   3.938  15.608 -0.4083 -0.1517  0.5786
  655MPD2    C4 9695   3.619   3.876  15.707 -0.1006 -0.0070 -0.6210
  655MPD2    C5 9696   3.610   3.920  15.841  0.6835 -0.3760 -0.2365
  655MPD2     H 9697   3.394   4.089  15.585 -1.0136 -1.5977 -0.9673
  655MPD2    H1 9698   3.692   3.801  15.677  0.8356  0.1476  1.2584
  655MPD2    H2 9699   3.505   4.029  15.982 -3.4995 -1.1434 -0.2403
  655MPD2    H3 9700   3.670   3.881  15.923  0.6648 -2.2739 -1.1405
  655MPD2     N 9701   3.538   3.897  15.474 -0.3103 -0.1099  0.5410
  655MPD2    H5 9702   3.595   3.814  15.457  2.9473  1.6780  2.7207
  655MPD2    N1 9703   3.330   4.166  15.817  0.8764 -0.2522 -0.2938
  655MPD2    H7 9704   3.282   4.215  15.742  0.7732 -0.3087 -0.2651
  656TMC3    C1 9705   3.179   4.280  15.967  0.9870  0.4767 -0.4279
  656TMC3    C2 9706   3.130   4.278  16.091  0.3087  0.4054  0.4516
  656TMC3    C3 9707   3.018   4.353  16.121  0.5641  0.9032 -0.5640
  656TMC3    C4 9708   3.114   4.349  15.861  0.6511 -0.6244 -0.3208
  656TMC3    C5 9709   2.996   4.407  15.887 -1.0016 -0.3867  0.0847
  656TMC3    C6 9710   2.948   4.418  16.019 -0.6373 -0.3032 -0.6483
  656TMC3     C 9711   3.298   4.199  15.949  0.3090 -0.2545  0.2927
  656TMC3     O 9712   3.351   4.164  16.053 -0.1659 -0.2687 -1.1839
  656TMC3     H 9713   3.168   4.212  16.168  5.1350  2.7533  0.0996
  656TMC3    H1 9714   3.156   4.342  15.761 -0.5923  0.9949 -0.9531
  656TMC3    H2 9715   2.851   4.457  16.049 -0.6174  0.1116 -1.1114
  656TMC3    C7 9716   2.937   4.479  15.779  0.0815 -0.4834  0.3590
  656TMC3    C8 9717   2.929   4.280  16.200  0.0797  0.7744 -0.7877
  656TMC3    O1 9718   3.003   4.505  15.682 -0.2031  0.2585 -0.1734
  656TMC3    O2 9719   2.937   4.159  16.187  0.0791 -0.7011  0.5488
  657TMC3    C1 9720   2.042   3.307  14.587  0.0242  0.6239 -0.1620
  657TMC3    C2 9721   1.998   3.255  14.699  0.5201  0.3001 -0.3307
  657TMC3    C3 9722   1.897   3.304  14.778  0.4630  0.3427 -0.6595
  657TMC3    C4 9723   1.976   3.409  14.534 -0.0535 -0.5235  0.1330
  657TMC3    C5 9724   1.868   3.451  14.608  0.2728  0.2905 -0.0080
  657TMC3    C6 9725   1.822   3.400  14.726 -0.0740  0.5356  0.8903
  657TMC3     C 9726   2.167   3.256  14.520  0.1826 -0.2404  0.6069
  657TMC3     O 9727   2.215   3.327  14.432  0.1107  0.4285 -0.6663
  657TMC3     H 9728   2.050   3.173  14.748 -2.1819 -1.9988 -1.3352
  657TMC3    H1 9729   2.028   3.458  14.453 -0.0789  0.3626  0.6506
  657TMC3    H2 9730   1.736   3.443  14.776  0.6181  2.7600  0.1441
  657TMC3    C7 9731   1.814   3.580  14.573  1.0134 -0.0092  0.6361
  657TMC3    C8 9732   1.930   3.316  14.916 -0.0978  0.1448  0.1499
  657TMC3    O1 9733   1.701   3.606  14.609 -0.4202 -0.3086  0.3586
  657TMC3    O2 9734   2.030   3.259  14.961  0.1690 -0.8249 -0.5762
  658MPD2     C 9735   3.770   3.846  14.610 -0.7671  0.2059  0.4117
  658MPD2    C1 9736   3.692   3.940  14.676 -0.0093 -0.7021 -0.1970
  658MPD2    C2 9737   3.676   4.064  14.618 -0.3534 -0.0338  0.0014
  658MPD2    C3 9738   3.728   4.087  14.488 -0.0156 -0.1339 -0.4510
  658MPD2    C4 9739   3.793   3.984  14.421  0.0605  0.2908 -0.6315
  658MPD2    C5 9740   3.818   3.864  14.483 -1.2403  0.0781 -0.4663
  658MPD2     H 9741   3.635   4.151  14.669 -1.1539 -0.5587  0.2422
  658MPD2    H1 9742   3.845   4.008  14.329  0.0857  1.0846 -0.4109
  658MPD2    H2 9743   3.792   3.754  14.663  0.5203  0.6316  0.6063
  658MPD2    H3 9744   3.887   3.792  14.440 -1.3294 -0.5431  0.4231
  658MPD2     N 9745   3.705   4.214  14.435 -0.3765 -0.1002  0.2376
  658MPD2    H5 9746   3.668   4.289  14.493  1.9889 -0.6579  2.4623
  658MPD2    N1 9747   3.636   3.904  14.801 -0.0760  0.2604  0.2594
  658MPD2    H7 9748   3.668   3.817  14.842  0.9597  0.7976  0.5875
  659TMC3    C1 9749   3.535   3.919  15.012  0.3769  0.2130 -0.0508
  659TMC3    C2 9750   3.534   3.984  15.129  0.2635 -0.2225  0.1033
  659TMC3    C3 9751   3.525   3.906  15.240 -0.3930 -0.6014  0.0546
  659TMC3    C4 9752   3.506   3.785  15.007  0.0301  0.2531  0.2637
  659TMC3    C5 9753   3.484   3.717  15.115  0.3651 -0.1215 -0.0343
  659TMC3    C6 9754   3.496   3.777  15.237  0.5654  0.6627  0.4968
  659TMC3     C 9755   3.568   3.989  14.885 -0.0012 -0.4911 -0.1272
  659TMC3     O 9756   3.551   4.109  14.870  0.3355 -0.0138 -0.1320
  659TMC3     H 9757   3.563   4.088  15.130 -1.2739  0.2082 -1.0949
  659TMC3    H1 9758   3.477   3.742  14.912 -0.5355 -0.7445  0.8980
  659TMC3    H2 9759   3.448   3.730  15.322  1.5665 -1.5926 -0.1849
  659TMC3    C7 9760   3.452   3.578  15.113  0.1119 -0.5259 -0.5673
  659TMC3    C8 9761   3.505   3.974  15.363 -0.5327  0.6180  0.0235
  659TMC3    O1 9762   3.399   3.533  15.211 -0.3036  0.4669  0.3827
  659TMC3    O2 9763   3.455   4.084  15.344 -0.1572 -0.4117  0.4351
  660MPD2     C 9764   1.227   2.309  12.641  0.0473  0.4724  0.0253
  660MPD2    C1 9765   1.117   2.348  12.700 -0.0537  0.1738 -0.4086
  660MPD2    C2 9766   1.077   2.284  12.815  0.1349 -0.2533 -0.0832
  660MPD2    C3 9767   1.152   2.175  12.860  0.7621 -1.2173  0.2154
  660MPD2    C4 9768   1.258   2.131  12.797 -0.0263  0.2049 -0.2160
  660MPD2    C5 9769   1.296   2.197  12.683 -0.5023  0.2751  0.1085
  660MPD2     H 9770   0.987   2.315  12.867 -0.6883 -1.7200 -0.6335
  660MPD2    H1 9771   1.318   2.048  12.831  1.8614  1.6385 -0.0756
  660MPD2    H2 9772   1.263   2.372  12.560 -0.1851 -2.4226 -2.3276
  660MPD2    H3 9773   1.381   2.158  12.629  0.8123 -0.8056  2.9180
  660MPD2     N 9774   1.115   2.095  12.968 -0.0752 -0.1494  0.0823
  660MPD2    H5 9775   1.170   2.010  12.979  1.5756  0.8827 -0.1206
  660MPD2    N1 9776   1.067   2.469  12.653 -0.2405 -0.2888  0.5089
  660MPD2    H7 9777   1.111   2.513  12.573 -1.8854 -1.7186 -1.1937
  661TMC3    C1 9778   0.928   2.658  12.641  0.3170 -0.6036  0.4287
  661TMC3    C2 9779   0.987   2.694  12.519 -0.4554 -0.0977 -0.2200
  661TMC3    C3 9780   0.949   2.811  12.455  0.0385 -0.5183 -0.4861
  661TMC3    C4 9781   0.839   2.742  12.708 -0.5994 -0.4929  0.6404
  661TMC3    C5 9782   0.811   2.863  12.648  0.8301  0.4784 -0.0768
  661TMC3    C6 9783   0.864   2.896  12.525  0.1739  0.1258 -0.2706
  661TMC3     C 9784   0.969   2.544  12.715  0.3655  0.7583 -0.3113
  661TMC3     O 9785   0.893   2.522  12.812 -0.3977  0.8692  0.1603
  661TMC3     H 9786   1.057   2.633  12.462 -1.0507  0.4028 -1.4810
  661TMC3    H1 9787   0.800   2.717  12.806  0.5286 -2.0422  0.6904
  661TMC3    H2 9788   0.834   2.990  12.480  0.0123  0.0814 -0.2555
  661TMC3    C7 9789   0.679   2.921  12.671  0.4411  0.5105 -0.0295
  661TMC3    C8 9790   1.012   2.841  12.320 -0.6696 -0.1117 -0.2338
  661TMC3    O1 9791   0.655   2.977  12.777 -0.4271 -0.0651 -0.5833
  661TMC3    O2 9792   1.057   2.751  12.250  0.0872 -0.0534  0.3349
  662MPD2     C 9793   1.332   1.774   0.940  0.0715 -0.0815  0.0332
  662MPD2    C1 9794   1.322   1.753   0.804  0.1415 -0.2231 -0.0756
  662MPD2    C2 9795   1.328   1.865   0.718  0.8244  0.8710 -0.0892
  662MPD2    C3 9796   1.335   1.998   0.776 -0.3916 -0.2071  0.4904
  662MPD2    C4 9797   1.331   2.018   0.918 -0.2818  0.3840 -0.1945
  662MPD2    C5 9798   1.329   1.901   0.994  0.5029 -0.4280 -0.0544
  662MPD2     H 9799   1.349   1.856   0.612 -2.4860 -1.6849 -0.5486
  662MPD2    H1 9800   1.330   2.118   0.959  0.7667  1.3467 -2.5200
  662MPD2    H2 9801   1.323   1.690   1.008  0.0869  0.5361  0.8020
  662MPD2    H3 9802   1.327   1.920   1.101  0.3608 -2.3422  0.2898
  662MPD2     N 9803   1.338   2.118   0.697  0.8461  0.0362  0.0939
  662MPD2    H5 9804   1.336   2.205   0.750  1.0554  0.7821 -1.1334
  662MPD2    N1 9805   1.319   1.626   0.747 -0.0511  0.0481  0.1802
  662MPD2    H7 9806   1.311   1.624   0.646  1.0911 -1.1803  0.1180
  663TMC3    C1 9807   1.330   1.391   0.723 -0.1411  0.6370  0.8450
  663TMC3    C2 9808   1.219   1.393   0.638 -0.6604  0.5008 -0.1793
  663TMC3    C3 9809   1.230   1.316   0.523 -0.9048  0.2038  0.1525
  663TMC3    C4 9810   1.428   1.296   0.710 -0.6002  0.2504  0.2160
  663TMC3    C5 9811   1.426   1.212   0.606  0.0350 -0.0081 -0.1183
  663TMC3    C6 9812   1.329   1.225   0.510 -0.7722 -0.0723  0.4543
  663TMC3     C 9813   1.363   1.508   0.801  0.4243  0.1744 -0.1327
  663TMC3     O 9814   1.408   1.493   0.914 -0.1477  0.0333  0.0574
  663TMC3     H 9815   1.145   1.471   0.637 -0.6245  0.5256 -0.6033
  663TMC3    H1 9816   1.509   1.296   0.782  0.6977 -1.6870 -1.2437
  663TMC3    H2 9817   1.315   1.135   0.452  0.8058  0.1044 -0.2126
  663TMC3    C7 9818   1.561   1.151   0.577 -0.2276  0.4707  0.6401
  663TMC3    C8 9819   1.111   1.292   0.445 -0.9428  0.0892  0.1870
  663TMC3    O1 9820   1.660   1.205   0.625 -0.2622 -0.1886  0.3412
  663TMC3    O2 9821   1.135   1.232   0.341  0.3011 -0.1287 -0.1291
  664MPD2     C 9822   0.021   0.329  17.367 -0.0618  0.3115  0.4741
  664MPD2    C1 9823   0.038   0.430  17.460 -0.1967 -0.2541 -0.0242
  664MPD2    C2 9824   4.678   0.415  17.575  0.3516  0.0151  0.0786
  664MPD2    C3 9825   4.581   0.316  17.589 -0.4232 -0.4541 -0.1936
  664MPD2    C4 9826   4.563   0.228  17.487  0.7261 -0.0087 -0.1286
  664MPD2    C5 9827   4.647   0.235  17.387 -0.3394 -0.2714  0.0249
  664MPD2     H 9828   4.692   0.489  17.653  0.7892 -0.5753  0.5624
  664MPD2    H1 9829   4.477   0.162  17.485 -0.1667  1.2109 -2.1330
  664MPD2    H2 9830   0.074   0.327  17.273 -2.9679  1.7970 -1.1947
  664MPD2    H3 9831   4.646   0.162  17.307  1.1071  0.9988 -1.1610
  664MPD2     N 9832   4.500   0.317   0.019  0.5646  0.0209 -0.5013
  664MPD2    H5 9833   4.514   0.396   0.081  1.6691 -1.2099  0.8006
  664MPD2    N1 9834   0.131   0.531  17.455 -0.3191 -0.1336 -0.0591
  664MPD2    H7 9835   0.111   0.612  17.512  2.4593  0.2349  0.4124
  665TMC3    C1 9836   4.365   0.231   0.187  0.3727  0.3591 -0.1590
  665TMC3    C2 9837   4.367   0.138   0.278  0.3007  0.0330  0.1516
  665TMC3    C3 9838   4.332   0.174   0.405  0.0269  0.2760 -0.0727
  665TMC3    C4 9839   4.349   0.361   0.209  0.1533  0.3803 -0.4670
  665TMC3    C5 9840   4.328   0.401   0.339  0.6550  0.2084  0.7757
  665TMC3    C6 9841   4.310   0.306   0.442 -0.2912 -0.5822  0.1951
  665TMC3     C 9842   4.426   0.205   0.058 -0.5541 -0.0037  0.8211
  665TMC3     O 9843   4.410   0.091   0.017  0.3092  0.1170 -0.2175
  665TMC3     H 9844   4.402   0.041   0.245 -1.9404 -0.2364 -1.4691
  665TMC3    H1 9845   4.343   0.442   0.137 -1.3502  0.9723  0.3198
  665TMC3    H2 9846   4.282   0.339   0.541  1.1863 -2.3609  1.2075
  665TMC3    C7 9847   4.258   0.531   0.348  0.0676  0.0125 -0.3365
  665TMC3    C8 9848   4.252   0.082   0.483  0.4520 -0.9342 -0.4118
  665TMC3    O1 9849   4.232   0.591   0.245  0.0835  0.0064 -0.1667
  665TMC3    O2 9850   4.212   0.121   0.592  0.5607 -0.5260 -0.0617
  666TMC3    C1 9851   3.597   0.671   9.745 -0.0045  0.2900  0.1246
  666TMC3    C2 9852   3.689   0.567   9.767 -0.3052  0.5782 -0.5141
  666TMC3    C3 9853   3.826   0.578   9.746 -0.3737  0.0975 -0.9744
  666TMC3    C4 9854   3.648   0.797   9.720 -0.1237  0.0423  0.0396
  666TMC3    C5 9855   3.789   0.807   9.701 -0.3313 -0.0954  0.1809
  666TMC3    C6 9856   3.875   0.699   9.705 -0.0036  0.2383 -0.3507
  666TMC3     C 9857   3.479   0.674   9.837 -0.2274 -0.2557 -0.4661
  666TMC3     O 9858   3.418   0.780   9.849 -0.2073 -0.2053  0.1821
  666TMC3     H 9859   3.636   0.473   9.779  0.4686  0.1882 -0.1448
  666TMC3    H1 9860   3.581   0.882   9.713  0.7546  0.9501  2.4063
  666TMC3    H2 9861   3.981   0.723   9.698  0.5336 -1.8611  0.6532
  666TMC3    C7 9862   3.841   0.953   9.703 -0.0643  0.2780 -0.0109
  666TMC3    C8 9863   3.900   0.517   9.861  0.0155  0.3761 -0.2194
  666TMC3    O1 9864   3.749   1.033   9.708 -0.3569 -0.0640 -0.1966
  666TMC3    O2 9865   3.826   0.481   9.953  0.0795 -0.4056 -0.5872
  667MPD2     C 9866   0.141   0.561  14.701 -0.1956  0.8285  0.1180
  667MPD2    C1 9867   0.059   0.601  14.807 -0.5321 -0.4758  0.4253
  667MPD2    C2 9868   4.642   0.596  14.785  0.6406  0.0157  0.0486
  667MPD2    C3 9869   4.594   0.536  14.671 -0.2893 -0.4276  0.2901
  667MPD2    C4 9870   4.671   0.509  14.563  0.7204 -0.4233 -0.3091
  667MPD2    C5 9871   0.088   0.517  14.580 -0.1884  0.6753 -0.1978
  667MPD2     H 9872   4.578   0.623  14.868 -1.3833  0.1414 -1.5464
  667MPD2    H1 9873   4.629   0.475  14.469 -1.1692 -0.0732  0.4084
  667MPD2    H2 9874   0.243   0.531  14.721 -0.4694  0.2365  0.5913
  667MPD2    H3 9875   0.141   0.474  14.495  0.6917 -0.1778  0.7891
  667MPD2     N 9876   4.455   0.501  14.656 -0.0811 -0.3498 -0.9006
  667MPD2    H5 9877   4.435   0.445  14.573 -1.5767 -1.3845  0.1776
  667MPD2    N1 9878   0.116   0.639  14.926  0.8790  0.2768  0.4499
  667MPD2    H7 9879   0.061   0.641  15.011 -1.5520 -1.8106 -1.0363
  668TMC3    C1 9880   0.282   0.702  15.082 -0.0596  0.3762 -0.8353
  668TMC3    C2 9881   0.388   0.782  15.091 -0.1751  0.3093  0.0479
  668TMC3    C3 9882   0.452   0.791  15.209  0.0535 -0.1943  0.4675
  668TMC3    C4 9883   0.244   0.618  15.183  0.3844  0.0670 -1.0833
  668TMC3    C5 9884   0.313   0.628  15.301  0.1658 -0.4456 -0.6047
  668TMC3    C6 9885   0.416   0.714  15.315  0.0039  0.2078 -0.3386
  668TMC3     C 9886   0.244   0.677  14.943  0.4606  0.6698  0.0088
  668TMC3     O 9887   0.333   0.709  14.863  0.4008  0.6499  0.1184
  668TMC3     H 9888   0.395   0.854  15.011 -1.1184 -1.5865 -1.7357
  668TMC3    H1 9889   0.181   0.537  15.150 -2.7279  1.1956  2.1018
  668TMC3    H2 9890   0.460   0.739  15.411 -1.5308  1.7719 -0.0393
  668TMC3    C7 9891   0.273   0.535  15.409  0.2158 -0.2392 -0.2533
  668TMC3    C8 9892   0.550   0.897  15.234 -0.2556  0.2702  0.7697
  668TMC3    O1 9893   0.352   0.513  15.499  0.3830  0.0123 -0.4632
  668TMC3    O2 9894   0.589   0.919  15.352  0.2092 -0.2879  0.3215
  669TMC3    C1 9895   3.159   0.831  14.467 -0.7952  0.3061 -0.1068
  669TMC3    C2 9896   3.043   0.895  14.422 -0.3057 -0.1015  1.1692
  669TMC3    C3 9897   3.043   0.967  14.302  0.3573 -1.4724 -0.1731
  669TMC3    C4 9898   3.272   0.837  14.390 -0.3467 -0.2245  0.1628
  669TMC3    C5 9899   3.270   0.911  14.272  0.4668  0.4720  0.1199
  669TMC3    C6 9900   3.156   0.977  14.226  0.2866 -0.8083 -0.0612
  669TMC3     C 9901   3.159   0.775  14.600  0.1270 -0.2091 -0.5093
  669TMC3     O 9902   3.061   0.792  14.675 -0.2885 -0.0959  0.1033
  669TMC3     H 9903   2.947   0.872  14.467 -0.2213  0.0670  1.4366
  669TMC3    H1 9904   3.366   0.789  14.413 -0.9019 -1.5895 -0.4290
  669TMC3    H2 9905   3.158   1.027  14.129  0.7600  1.5824  1.1854
  669TMC3    C7 9906   3.392   0.951  14.199  0.1602 -0.3132 -0.1141
  669TMC3    C8 9907   2.922   1.006  14.228 -0.1279 -0.1071 -0.0307
  669TMC3    O1 9908   3.378   1.063  14.144  0.6294  0.7811 -0.1109
  669TMC3    O2 9909   2.927   1.017  14.107  0.2885  0.2053  0.4758
  670MPD2     C 9910   1.503   3.038  13.061  0.6032 -0.1001 -0.2846
  670MPD2    C1 9911   1.494   3.152  13.139 -0.2951  0.5029 -0.1005
  670MPD2    C2 9912   1.444   3.139  13.273 -0.9388  0.1586 -0.8683
  670MPD2    C3 9913   1.396   3.014  13.318  0.8490  0.0345 -0.0321
  670MPD2    C4 9914   1.390   2.908  13.235 -0.4075 -0.1702  0.2385
  670MPD2    C5 9915   1.443   2.925  13.106 -0.3693  1.0927 -0.6651
  670MPD2     H 9916   1.448   3.222  13.343  1.6746 -0.5878 -0.1596
  670MPD2    H1 9917   1.353   2.811  13.265  0.5839  0.0122  2.0306
  670MPD2    H2 9918   1.541   3.036  12.959 -0.8706 -0.1989 -0.8318
  670MPD2    H3 9919   1.436   2.842  13.036 -0.9186  1.3896 -0.9597
  670MPD2     N 9920   1.343   3.002  13.449  0.3277 -0.1268 -0.1600
  670MPD2    H5 9921   1.338   3.089  13.502  1.1727 -0.4528  0.4472
  670MPD2    N1 9922   1.541   3.275  13.102  0.1601 -0.6892  0.5094
  670MPD2    H7 9923   1.540   3.353  13.167 -2.9445  0.8640 -1.3801
  671TMC3    C1 9924   1.231   2.925  13.640  0.1632 -0.2129  0.4395
  671TMC3    C2 9925   1.341   2.935  13.717  0.3487 -0.3750  0.0738
  671TMC3    C3 9926   1.358   2.842  13.812  0.1798 -0.3151  0.8363
  671TMC3    C4 9927   1.133   2.837  13.671 -0.6707 -0.4044 -0.3331
  671TMC3    C5 9928   1.151   2.745  13.774 -0.0159 -0.1792 -0.1610
  671TMC3    C6 9929   1.268   2.745  13.849  0.0187  0.0752 -0.9828
  671TMC3     C 9930   1.260   2.909  13.498 -0.2386  0.6504 -0.6021
  671TMC3     O 9931   1.197   2.821  13.439 -0.1641  0.2563 -1.1123
  671TMC3     H 9932   1.432   2.984  13.683  1.4375 -2.7802 -0.4590
  671TMC3    H1 9933   1.048   2.835  13.604  0.1605  2.2060 -1.4818
  671TMC3    H2 9934   1.303   2.665  13.913 -0.0006 -1.4037 -2.8088
  671TMC3    C7 9935   1.098   2.616  13.738  0.0861  0.6674 -0.2280
  671TMC3    C8 9936   1.500   2.803  13.850  0.0278  0.7142  0.3524
  671TMC3    O1 9937   1.173   2.518  13.731  0.0561  0.3925  0.1993
  671TMC3    O2 9938   1.594   2.838  13.779 -0.2354 -0.2665 -0.6185
  672MPD2     C 9939   1.814   2.674   1.129  0.1223 -0.5584 -0.6484
  672MPD2    C1 9940   1.899   2.710   1.024  0.1370 -0.0874  0.5493
  672MPD2    C2 9941   1.996   2.801   1.057  0.3831  0.7791 -0.3905
  672MPD2    C3 9942   2.020   2.848   1.181  0.5052 -0.2567 -0.5949
  672MPD2    C4 9943   1.930   2.824   1.278  0.4422 -0.6604  0.0178
  672MPD2    C5 9944   1.825   2.734   1.251  0.3491 -0.5170  0.1520
  672MPD2     H 9945   2.059   2.825   0.972  0.5459  1.6811 -0.0191
  672MPD2    H1 9946   1.940   2.849   1.383 -1.0585 -1.0533  0.2624
  672MPD2    H2 9947   1.719   2.625   1.112 -0.5085  1.0092 -1.6703
  672MPD2    H3 9948   1.752   2.707   1.326 -0.4051  1.7439  0.2496
  672MPD2     N 9949   2.137   2.921   1.219  0.3392  0.3822  0.4008
  672MPD2    H5 9950   2.146   2.943   1.318  0.9683 -0.8132  0.6155
  672MPD2    N1 9951   1.901   2.644   0.894  0.4182  0.2259 -0.1447
  672MPD2    H7 9952   1.982   2.673   0.839  1.2313 -0.1889  0.8293
  673TMC3    C1 9953   1.871   2.479   0.740  0.2870  0.4634  0.9831
  673TMC3    C2 9954   1.913   2.350   0.749 -0.7508 -0.6756  0.3738
  673TMC3    C3 9955   1.999   2.315   0.648 -0.1164 -0.2443 -0.9287
  673TMC3    C4 9956   1.886   2.560   0.634 -0.0666  0.3689 -0.5860
  673TMC3    C5 9957   1.960   2.518   0.526  0.0228  0.0832 -0.2204
  673TMC3    C6 9958   2.020   2.393   0.535 -0.4124  0.1095  0.2879
  673TMC3     C 9959   1.829   2.534   0.864  0.3893  0.2598 -0.0042
  673TMC3     O 9960   1.748   2.470   0.932 -0.0254 -0.5061  0.3180
  673TMC3     H 9961   1.904   2.293   0.841 -0.3240 -1.3815 -0.0135
  673TMC3    H1 9962   1.845   2.660   0.634 -0.1865  0.3186 -0.3751
  673TMC3    H2 9963   2.099   2.374   0.463  0.3645  0.3844  1.0593
  673TMC3    C7 9964   2.025   2.617   0.442  0.3057  0.9272  0.1536
  673TMC3    C8 9965   2.106   2.230   0.695  0.0353 -0.2036 -0.3925
  673TMC3    O1 9966   2.075   2.562   0.347  0.3766 -0.5724 -0.9017
  673TMC3    O2 9967   2.215   2.267   0.661  0.7094 -0.5963  0.0423
  674MPD2     C 9968   1.884   3.367   0.134 -0.6653 -0.2606 -0.1282
  674MPD2    C1 9969   1.867   3.239   0.186 -0.2063  0.3382  0.3517
  674MPD2    C2 9970   1.826   3.230   0.318 -0.3891  0.0094  0.5625
  674MPD2    C3 9971   1.771   3.341   0.382  0.3394 -0.5212  0.1216
  674MPD2    C4 9972   1.785   3.464   0.321  0.0827 -0.6052  0.3571
  674MPD2    C5 9973   1.847   3.481   0.205  0.6227  0.1140  0.2354
  674MPD2     H 9974   1.827   3.139   0.377 -0.2470 -0.9435 -0.9165
  674MPD2    H1 9975   1.757   3.553   0.377 -2.2482 -1.1780  0.0755
  674MPD2    H2 9976   1.931   3.387   0.038 -1.5385  1.8635 -0.1072
  674MPD2    H3 9977   1.875   3.579   0.168  0.7756 -0.2767 -0.6738
  674MPD2     N 9978   1.715   3.321   0.511 -0.4113 -0.2416 -0.2810
  674MPD2    H5 9979   1.717   3.226   0.546  2.1018 -0.0639  0.0224
  674MPD2    N1 9980   1.901   3.131   0.104  0.2667  0.2474  0.1026
  674MPD2    H7 9981   1.925   3.150   0.008 -1.9664 -1.4576 -0.8054
  675TMC3    C1 9982   1.933   2.908   0.050  0.4996 -0.1651  0.2903
  675TMC3    C2 9983   1.880   2.784   0.028  0.2376  0.2870  0.2361
  675TMC3    C3 9984   1.951   2.694  17.631  0.0794  0.5381 -1.2751
  675TMC3    C4 9985   2.057   2.936   0.001 -0.2077  0.0384 -0.3819
  675TMC3    C5 9986   2.129   2.845  17.612  0.3064  0.0481  0.0417
  675TMC3    C6 9987   2.070   2.727  17.570  0.2446 -0.1054  0.8280
  675TMC3     C 9988   1.874   2.999   0.144 -1.0748 -0.2708 -1.4530
  675TMC3     O 9989   1.796   2.953   0.228  0.3562 -0.4281  0.0395
  675TMC3     H 9990   1.786   2.772   0.080  0.1370 -1.4439 -0.3456
  675TMC3    H1 9991   2.106   3.029   0.028  1.0989 -0.5084 -0.8860
  675TMC3    H2 9992   2.119   2.646  17.518 -0.8997 -0.1742 -0.1565
  675TMC3    C7 9993   2.264   2.879  17.569  0.1695  0.9730 -0.3223
  675TMC3    C8 9994   1.870   2.575  17.590 -0.9054  0.5374 -0.3537
  675TMC3    O1 9995   2.310   2.988  17.595 -0.5692 -0.1875 -0.5911
  675TMC3    O2 9996   1.868   2.539  17.473 -0.2383  0.5744  1.0020
  676MPD2     C 9997   4.290   1.879  10.582  0.5888 -0.2572  0.2743
  676MPD2    C1 9998   4.238   1.814  10.696  0.0884  0.8304 -0.1506
  676MPD2    C2 9999   4.260   1.683  10.717 -0.7263 -0.1072 -0.2575
  676MPD2    C310000   4.355   1.616  10.643  0.8058 -0.8473  0.3717
  676MPD2    C410001   4.428   1.685  10.548 -0.2778  0.0485 -0.4667
  676MPD2    C510002   4.383   1.813  10.513 -0.2449  0.5393 -0.2972
  676MPD2     H10003   4.205   1.638  10.798 -1.9036  0.7882 -0.5630
  676MPD2    H110004   4.515   1.643  10.498  1.8296  2.4759  1.1768
  676MPD2    H210005   4.283   1.984  10.558  0.5391 -0.6110 -1.2141
  676MPD2    H310006   4.446   1.866  10.442  0.3820  1.2536  0.7739
  676MPD2     N10007   4.390   1.477  10.666 -0.1525  0.1156  0.5551
  676MPD2    H510008   4.466   1.445  10.608  0.2180  0.5136  0.8251
  676MPD2    N110009   4.145   1.882  10.786  0.2233  0.6983  0.3310
  676MPD2    H710010   4.094   1.832  10.857  0.0582 -0.7463 -0.7989
  677TMC3    C110011   4.048   2.056  10.902  0.5662 -0.4791 -0.2236
  677TMC3    C210012   3.944   1.974  10.932  0.1976  0.0525 -0.0525
  677TMC3    C310013   3.867   2.008  11.041 -0.2562  0.1712 -0.1688
  677TMC3    C410014   4.073   2.174  10.970 -0.4470 -0.1697 -0.0757
  677TMC3    C510015   4.002   2.196  11.086 -0.0011 -0.2717  0.0233
  677TMC3    C610016   3.890   2.122  11.113  0.7623  0.4640  0.2013
  677TMC3     C10017   4.143   2.021  10.795  0.8506 -0.3474 -0.3022
  677TMC3     O10018   4.201   2.112  10.737  0.5701  0.3364  0.2498
  677TMC3     H10019   3.919   1.892  10.865  1.5064 -1.6482  1.5383
  677TMC3    H110020   4.167   2.224  10.952 -0.6290  0.5261  0.8918
  677TMC3    H210021   3.823   2.143  11.196  1.2476  0.0665  0.7026
  677TMC3    C710022   4.054   2.258  11.203 -0.5558  0.2096  0.5484
  677TMC3    C810023   3.763   1.909  11.073  0.0985 -0.1007 -0.4894
  677TMC3    O110024   3.976   2.287  11.292  0.6912 -0.4807  0.4985
  677TMC3    O210025   3.711   1.854  10.975 -0.7349  0.1861 -0.0433
  678MPD2     C10026   0.679   1.477   1.564  0.2239 -0.2862 -0.0596
  678MPD2    C110027   0.708   1.379   1.473  0.0463 -0.2141 -0.8711
  678MPD2    C210028   0.596   1.305   1.420 -0.1703 -0.3949 -0.1591
  678MPD2    C310029   0.470   1.325   1.466 -0.8965  0.2215 -0.8852
  678MPD2    C410030   0.448   1.418   1.565  0.1040  0.7230 -0.1618
  678MPD2    C510031   0.549   1.492   1.609 -0.0334 -0.3047  0.4554
  678MPD2     H10032   0.621   1.242   1.335 -0.6343 -1.3071  0.3759
  678MPD2    H110033   0.354   1.433   1.617 -0.7462 -0.2171 -1.4667
  678MPD2    H210034   0.761   1.524   1.616  1.4513 -1.3862 -1.0209
  678MPD2    H310035   0.531   1.556   1.694  2.0328  1.4403 -0.4223
  678MPD2     N10036   0.363   1.271   1.403  0.2123  0.6044  0.8078
  678MPD2    H510037   0.386   1.211   1.324  0.1711  0.7443  0.6903
  678MPD2    N110038   0.829   1.362   1.412  0.0494 -0.1437 -0.9323
  678MPD2    H710039   0.836   1.286   1.345  2.8296  0.5477 -1.3984
  679TMC3    C110040   1.120   1.269   1.155 -0.2169  0.9068  0.4741
  679TMC3    C210041   1.079   1.296   1.290 -0.0659 -0.1456 -0.2187
  679TMC3    C310042   1.040   1.427   1.319  0.0998 -1.0076 -0.6167
  679TMC3    C410043   1.128   1.375   1.062  0.1391 -0.5497  0.2723
  679TMC3    C510044   1.104   1.502   1.101  0.1067 -0.3477  0.2304
  679TMC3    C610045   1.055   1.528   1.230 -0.2797 -0.0621  0.1886
  679TMC3     C10046   1.210   1.152   1.136 -0.8404 -0.5106 -0.3090
  679TMC3     O10047   1.261   1.110   1.238  0.7689 -0.3506  0.3993
  679TMC3     H10048   1.075   1.215   1.362 -1.5742 -2.0319 -2.4397
  679TMC3    H110049   1.165   1.357   0.962 -0.0872  2.0535 -0.2922
  679TMC3    H210050   1.029   1.629   1.260 -1.0127 -0.6323  1.4687
  679TMC3    C710051   1.045   1.592   1.003  0.0153 -1.0975  0.0363
  679TMC3    C810052   0.927   1.452   1.414 -0.0998 -0.2146 -0.2918
  679TMC3    O110053   0.999   1.538   0.903 -0.1784  0.1023  0.6607
  679TMC3    O210054   0.913   1.566   1.447  0.2923 -0.0978 -0.5972
  680MPD2     C10055   0.960   0.560  13.724 -0.1540  0.2246  0.8687
  680MPD2    C110056   1.080   0.524  13.777 -1.1449 -0.3155  0.3395
  680MPD2    C210057   1.164   0.616  13.835 -0.6031 -0.6778  0.9726
  680MPD2    C310058   1.123   0.745  13.843 -0.0574 -0.3666 -0.1504
  680MPD2    C410059   1.002   0.782  13.788 -0.2680  0.6792  0.4695
  680MPD2    C510060   0.926   0.690  13.725  0.1483 -0.2122 -0.3903
  680MPD2     H10061   1.265   0.585  13.857 -0.3894  0.0208  0.9808
  680MPD2    H110062   0.974   0.887  13.785  2.1166  1.2491 -2.4019
  680MPD2    H210063   0.895   0.486  13.678  0.3681  0.2656  0.0470
  680MPD2    H310064   0.839   0.721  13.668  0.0310 -0.2745 -0.2440
  680MPD2     N10065   1.212   0.845  13.893  0.8485  0.5570 -0.2847
  680MPD2    H510066   1.177   0.939  13.877 -1.1311  0.0926  1.2702
  680MPD2    N110067   1.130   0.393  13.777 -0.3695 -0.5496 -0.0690
  680MPD2    H710068   1.198   0.357  13.844 -0.0297 -0.7955 -0.5489
  681TMC3    C110069   1.135   0.160  13.722  0.0618  0.3896 -0.4042
  681TMC3    C210070   1.187   0.140  13.848  0.0651  0.3287 -0.4401
  681TMC3    C310071   1.217   0.012  13.875  0.7657  0.0145  0.0623
  681TMC3    C410072   1.125   0.062  13.625  0.6103  0.1847  0.3127
  681TMC3    C510073   1.159   4.656  13.663  0.0524  0.5819 -0.5185
  681TMC3    C610074   1.210   4.629  13.785 -0.1107  0.3551  0.0715
  681TMC3     C10075   1.088   0.290  13.694  0.0821 -0.8701  0.1762
  681TMC3     O10076   1.013   0.303  13.597  0.2643  0.0242  0.1399
  681TMC3     H10077   1.184   0.218  13.923  0.7555  0.7992 -0.8993
  681TMC3    H110078   1.062   0.075  13.538  0.4530  2.6463  0.7954
  681TMC3    H210079   1.266   4.539  13.809  0.5110  0.3807 -1.2741
  681TMC3    C710080   1.191   4.562  13.557 -0.1378 -0.1624 -0.2093
  681TMC3    C810081   1.282   4.697  14.003  0.0089 -0.4697 -0.2147
  681TMC3    O110082   1.174   4.446  13.596 -0.2661  0.1686 -0.5902
  681TMC3    O210083   1.311   4.580  14.030 -0.2429  0.0647 -0.4834
  682MPD2     C10084   3.918   2.102  10.031  0.1757 -0.2130  0.6300
  682MPD2    C110085   3.788   2.059   9.996 -0.9521 -0.0090 -0.7497
  682MPD2    C210086   3.678   2.119  10.060 -0.0052  0.4247 -0.0420
  682MPD2    C310087   3.696   2.211  10.161  0.4175 -0.0179  0.1994
  682MPD2    C410088   3.823   2.269  10.178 -0.1956 -0.5176 -1.2357
  682MPD2    C510089   3.933   2.212  10.112  0.7828 -0.1916  0.0569
  682MPD2     H10090   3.577   2.091  10.031 -0.2739  1.5703 -0.2358
  682MPD2    H110091   3.844   2.348  10.249 -2.3504 -1.0123 -0.0773
  682MPD2    H210092   4.003   2.056   9.981 -0.0162  2.2267 -1.9347
  682MPD2    H310093   4.033   2.248  10.133  0.7176  0.2341 -0.3759
  682MPD2     N10094   3.588   2.268  10.234  0.2978  0.1234 -0.3026
  682MPD2    H510095   3.625   2.344  10.291 -0.3726  1.8134 -2.1319
  682MPD2    N110096   3.763   1.959   9.899  0.3638 -0.1285 -0.2268
  682MPD2    H710097   3.663   1.944   9.884  0.0246  0.7359  1.1979
  683TMC3    C110098   3.328   2.439  10.513  0.6795 -0.1626  0.2494
  683TMC3    C210099   3.190   2.432  10.491  0.2251  0.5552 -0.1990
  683TMC3    C310100   3.142   2.353  10.390 -0.5759  0.0517 -0.2684
  683TMC3    C410101   3.421   2.377  10.435  0.4988  0.0003 -0.0396
  683TMC3    C510102   3.375   2.297  10.331  0.7935  0.0908  0.0125
  683TMC3    C610103   3.233   2.277  10.312 -0.6326 -0.2666  0.0184
  683TMC3     C10104   3.366   2.522  10.624 -0.4184  0.2477  0.2600
  683TMC3     O10105   3.276   2.561  10.695  0.1249 -0.5510  0.7074
  683TMC3     H10106   3.125   2.470  10.569  0.9646 -1.4686  1.4081
  683TMC3    H110107   3.528   2.375  10.447  0.2722 -0.6058  1.9387
  683TMC3    H210108   3.198   2.211  10.234 -3.6077  0.6564  0.5808
  683TMC3    C710109   3.456   2.233  10.231 -0.0644  0.3584  0.3764
  683TMC3    C810110   3.004   2.299  10.401  0.0521 -0.0907 -1.1276
  683TMC3    O110111   3.398   2.147  10.162 -0.4148 -0.0673 -0.3569
  683TMC3    O210112   2.913   2.369  10.449  0.1989 -0.2735  0.6514
  684MPD2     C10113   1.923   0.877  16.795 -0.2909  0.0527 -0.1517
  684MPD2    C110114   1.918   0.936  16.673 -0.1715  0.4601  0.3067
  684MPD2    C210115   1.924   1.075  16.660  0.0602  0.1959  0.2200
  684MPD2    C310116   1.955   1.153  16.772 -0.2384 -0.1045 -0.0279
  684MPD2    C410117   1.961   1.089  16.889 -1.0826 -0.2127 -0.5087
  684MPD2    C510118   1.947   0.954  16.901 -0.1825 -0.4726  0.3025
  684MPD2     H10119   1.931   1.107  16.557 -0.4614  1.3557  0.5499
  684MPD2    H110120   1.988   1.150  16.975 -2.0432 -0.1287 -0.2600
  684MPD2    H210121   1.917   0.770  16.808 -2.1227  0.4933  2.5217
  684MPD2    H310122   1.956   0.902  16.995  1.8047  1.6879  1.2978
  684MPD2     N10123   1.994   1.290  16.757 -0.1396  0.1802 -0.1577
  684MPD2    H510124   2.036   1.340  16.835 -1.5143  0.7026  0.2510
  684MPD2    N110125   1.921   0.859  16.549 -0.1836  0.0490  0.1669
  684MPD2    H710126   1.920   0.913  16.463  1.0955 -2.4133 -1.4304
  685TMC3    C110127   1.978   0.684  16.408 -0.5748 -0.2591 -0.3515
  685TMC3    C210128   1.934   0.757  16.301  0.2831  0.5054 -0.1973
  685TMC3    C310129   2.005   0.747  16.183  0.4454  0.1292  0.3298
  685TMC3    C410130   2.082   0.595  16.404  0.1686 -0.4402  0.9639
  685TMC3    C510131   2.154   0.583  16.291  0.0963 -0.3452 -0.2917
  685TMC3    C610132   2.119   0.666  16.183 -0.2421 -0.4169  0.7165
  685TMC3     C10133   1.926   0.723  16.539  0.1171 -0.6228 -0.5109
  685TMC3     O10134   1.935   0.633  16.617  0.0794  0.0589  0.6539
  685TMC3     H10135   1.836   0.801  16.316  0.5348  0.6959  0.8812
  685TMC3    H110136   2.116   0.553  16.498 -2.5107 -0.7436  1.8074
  685TMC3    H210137   2.183   0.677  16.096 -0.3782 -0.9172  0.5546
  685TMC3    C710138   2.290   0.557  16.317 -0.2790  0.3899 -0.1703
  685TMC3    C810139   1.981   0.835  16.067 -0.3851 -0.3336  0.2011
  685TMC3    O110140   2.313   0.472  16.402  0.7329 -0.1456 -0.0820
  685TMC3    O210141   2.035   0.809  15.957  0.1265  0.4104 -0.1311
  686MPD2     C10142   2.916   1.040  15.476  0.0438 -0.3361 -0.3913
  686MPD2    C110143   2.958   0.946  15.563  0.4587 -0.2447 -0.3233
  686MPD2    C210144   3.065   0.863  15.533  0.0309  0.1726 -0.6436
  686MPD2    C310145   3.106   0.855  15.401 -0.1585 -0.0598 -0.1240
  686MPD2    C410146   3.068   0.958  15.312  0.3182 -0.1372  0.1300
  686MPD2    C510147   2.978   1.052  15.352 -0.1679  0.1020 -0.4260
  686MPD2     H10148   3.115   0.812  15.616 -0.4380 -0.4175 -0.7206
  686MPD2    H110149   3.102   0.960  15.208  1.1751  0.9145  0.4293
  686MPD2    H210150   2.845   1.120  15.495 -1.9954 -2.1237 -0.5406
  686MPD2    H310151   2.939   1.130  15.288  0.5131 -0.2427 -1.2664
  686MPD2     N10152   3.203   0.768  15.352  0.5562 -0.2226 -0.0278
  686MPD2    H510153   3.256   0.790  15.269 -0.3939  1.2869 -0.2406
  686MPD2    N110154   2.897   0.949  15.694  0.0323  0.9250 -0.4282
  686MPD2    H710155   2.812   1.003  15.699 -1.0484 -0.9506  1.2623
  687TMC3    C110156   3.169   0.589  15.510  0.3773  0.5273  0.5369
  687TMC3    C210157   3.034   0.588  15.496  1.4169  0.2279 -0.1994
  687TMC3    C310158   2.959   0.550  15.601 -0.7635  0.1433  0.0070
  687TMC3    C410159   3.234   0.556  15.629  0.0540  0.4808  0.1310
  687TMC3    C510160   3.150   0.518  15.730  0.1524  0.5198 -0.4749
  687TMC3    C610161   3.014   0.509  15.721 -0.6749  0.0429 -0.3343
  687TMC3     C10162   3.255   0.655  15.417 -0.1503  0.6631 -0.1377
  687TMC3     O10163   3.357   0.604  15.377  0.3494  0.1239  0.2849
  687TMC3     H10164   2.988   0.587  15.398  0.7050  1.0068  0.1253
  687TMC3    H110165   3.342   0.559  15.641  0.3652 -2.8268 -1.6656
  687TMC3    H210166   2.950   0.494  15.807  1.8220  1.2779  1.7781
  687TMC3    C710167   3.214   0.442  15.838  0.3185  0.0870 -0.3239
  687TMC3    C810168   2.822   0.587  15.606  0.2322  0.2567 -0.7605
  687TMC3    O110169   3.321   0.391  15.812  0.5240 -0.3112 -0.0036
  687TMC3    O210170   2.756   0.544  15.698 -0.3506  0.5423 -0.3996
  688MPD2     C10171   2.408   4.334  17.499 -0.6797 -0.2658  0.0078
  688MPD2    C110172   2.480   4.216  17.513 -0.0004 -0.3467  0.7151
  688MPD2    C210173   2.546   4.168  17.404 -0.3808  0.2743 -0.4501
  688MPD2    C310174   2.562   4.246  17.288  0.7240  0.4859  0.3961
  688MPD2    C410175   2.500   4.363  17.279  0.7451 -0.1007  0.4581
  688MPD2    C510176   2.423   4.405  17.385 -0.5548  0.1450  0.4605
  688MPD2     H10177   2.601   4.074  17.413 -0.2611  0.2281 -1.6142
  688MPD2    H110178   2.507   4.426  17.191  1.6018  0.2587  0.7721
  688MPD2    H210179   2.349   4.379  17.578  1.3482  0.2645  1.2163
  688MPD2    H310180   2.377   4.503  17.376 -0.7650 -0.0094 -0.1008
  688MPD2     N10181   2.637   4.199  17.177  0.5013  0.7005  0.6225
  688MPD2    H510182   2.645   4.265  17.100  1.7510  0.2488  0.3567
  688MPD2    N110183   2.463   4.130  17.625 -0.1470  0.7020  0.4928
  688MPD2    H710184   2.515   4.043  17.620  0.0402  0.7330  2.0441
  689TMC3    C110185   2.407   4.043   0.159 -0.0975  0.5165  0.0506
  689TMC3    C210186   2.382   4.073   0.291 -0.2225  0.5600  0.4639
  689TMC3    C310187   2.399   3.972   0.387 -0.4333  0.3272  0.1778
  689TMC3    C410188   2.423   3.916   0.114 -0.1996 -0.5258 -0.6564
  689TMC3    C510189   2.424   3.821   0.214 -0.5997 -0.5564 -0.5974
  689TMC3    C610190   2.420   3.847   0.347 -0.1442  0.1668 -0.2412
  689TMC3     C10191   2.400   4.161   0.066 -0.0544  0.0248 -0.0292
  689TMC3     O10192   2.339   4.259   0.105 -0.0089  0.0977  0.6376
  689TMC3     H10193   2.377   4.176   0.326  1.5821  0.0787  2.1662
  689TMC3    H110194   2.450   3.892   0.011 -1.0771 -0.0834 -0.9889
  689TMC3    H210195   2.417   3.765   0.417  1.4957 -0.9262 -1.4523
  689TMC3    C710196   2.433   3.677   0.185 -0.2183  0.8273  0.5776
  689TMC3    C810197   2.324   3.993   0.512  0.0257 -0.4187 -0.0327
  689TMC3    O110198   2.489   3.603   0.266 -0.2369  0.3530  0.0458
  689TMC3    O210199   2.352   3.931   0.608  0.1453 -0.0117  0.0130
  690MPD2     C10200   0.072   1.549  15.766 -0.0038 -0.6016 -0.4390
  690MPD2    C110201   0.050   1.534  15.637  0.0477 -0.5759  0.1939
  690MPD2    C210202   0.143   1.578  15.546 -0.5437  0.1366 -0.0136
  690MPD2    C310203   0.252   1.655  15.582 -0.3710 -0.2891  0.7758
  690MPD2    C410204   0.254   1.697  15.710 -0.3786  0.9022  0.1719
  690MPD2    C510205   0.172   1.637  15.800  0.0979 -0.0352 -0.4043
  690MPD2     H10206   0.124   1.565  15.440  0.3885 -2.3350  0.1204
  690MPD2    H110207   0.332   1.763  15.745  0.5730 -0.9661  1.5955
  690MPD2    H210208   0.012   1.499  15.842  1.4038 -1.2845  0.2354
  690MPD2    H310209   0.196   1.648  15.905 -1.4220  1.2645 -0.1776
  690MPD2     N10210   0.322   1.717  15.474  0.1610  0.3504 -0.4528
  690MPD2    H510211   0.296   1.690  15.380 -0.6128 -2.2478  0.5301
  690MPD2    N110212   4.658   1.460  15.595  0.0739 -1.1203  0.1209
  690MPD2    H710213   4.657   1.432  15.498 -4.6305  2.1213 -0.7452
  691TMC3    C110214   4.441   1.373  15.595  0.2743 -0.8541  0.0661
  691TMC3    C210215   4.314   1.413  15.639  0.2664  0.0713  0.0393
  691TMC3    C310216   4.214   1.329  15.613 -0.3469 -0.3188  0.4658
  691TMC3    C410217   4.466   1.268  15.518  0.0822  0.2979  0.2310
  691TMC3    C510218   4.357   1.196  15.484  0.1368  0.3174 -0.2938
  691TMC3    C610219   4.229   1.217  15.540  0.0653  0.0820 -0.1531
  691TMC3     C10220   4.548   1.423  15.675 -0.1307 -0.2497  0.3189
  691TMC3     O10221   4.528   1.439  15.795 -0.3709 -0.1881  0.4849
  691TMC3     H10222   4.311   1.491  15.714 -0.8647 -0.5369  0.6078
  691TMC3    H110223   4.566   1.225  15.515  0.2335  0.7241 -0.6827
  691TMC3    H210224   4.149   1.145  15.522 -0.4106  0.1091  1.9134
  691TMC3    C710225   4.386   1.057  15.448 -0.3332 -0.2187 -0.5932
  691TMC3    C810226   4.093   1.338  15.691  0.2260 -0.0151 -0.4227
  691TMC3    O110227   4.496   1.035  15.397 -0.3750 -0.1192 -0.2957
  691TMC3    O210228   4.046   1.224  15.720 -0.0296 -0.4967 -0.3633
  692TMC3    C110229   1.316   2.277  16.027 -0.2902 -0.4383  0.1360
  692TMC3    C210230   1.271   2.186  16.117 -0.0588 -0.1754  1.1452
  692TMC3    C310231   1.353   2.092  16.175  0.0756 -0.3528  0.2726
  692TMC3    C410232   1.450   2.272  15.990 -0.3224  0.1966 -0.1234
  692TMC3    C510233   1.527   2.175  16.050 -0.4843 -0.0371  0.1661
  692TMC3    C610234   1.472   2.068  16.110  0.4650 -0.6689 -0.5399
  692TMC3     C10235   1.256   2.407  16.058  0.1077 -0.0396  0.5382
  692TMC3     O10236   1.135   2.421  16.040  0.0820  0.2043  0.5136
  692TMC3     H10237   1.184   2.210  16.178  1.5269  1.0459  2.9303
  692TMC3    H110238   1.505   2.356  15.950  0.1169 -0.7570 -1.4997
  692TMC3    H210239   1.527   1.984  16.151 -1.4845 -0.9042  1.5837
  692TMC3    C710240   1.672   2.184  16.032  0.8865  0.2275 -0.0460
  692TMC3    C810241   1.381   2.105  16.314  0.0190 -0.2166  0.4584
  692TMC3    O110242   1.718   2.250  15.937  0.0535  0.6110  0.6066
  692TMC3    O210243   1.494   2.133  16.349  0.0026 -0.1887 -0.0692
  693MPD2     C10244   0.680   0.616  10.256 -0.2730  0.0573  0.4117
  693MPD2    C110245   0.691   0.604  10.392 -0.2331 -0.7468 -0.0272
  693MPD2    C210246   0.814   0.625  10.458 -0.6754 -0.3477 -0.0391
  693MPD2    C310247   0.931   0.634  10.380 -0.5959 -0.0818 -0.2576
  693MPD2    C410248   0.912   0.646  10.243 -0.5723  0.8744 -0.8300
  693MPD2    C510249   0.789   0.659  10.188 -0.7336  0.0041  0.1379
  693MPD2     H10250   0.813   0.613  10.565  0.7289  0.0286  0.0188
  693MPD2    H110251   0.995   0.652  10.172 -1.2350 -1.5648 -1.8100
  693MPD2    H210252   0.585   0.617  10.204 -0.2139 -1.6542  0.2699
  693MPD2    H310253   0.787   0.685  10.083 -2.6708  0.4928  0.2917
  693MPD2     N10254   1.059   0.658  10.435 -0.0530 -0.6779 -0.0397
  693MPD2    H510255   1.142   0.676  10.380  2.3788 -0.9899  3.4799
  693MPD2    N110256   0.567   0.576  10.463 -0.4174  0.0549 -0.1538
  693MPD2    H710257   0.485   0.551  10.409 -2.5633  3.3191  1.5884
  694TMC3    C110258   0.409   0.554  10.637 -0.0282  0.4848 -0.2420
  694TMC3    C210259   0.353   0.439  10.588  0.0666 -0.7370  0.6690
  694TMC3    C310260   0.238   0.396  10.651 -0.1899 -0.1586  0.8214
  694TMC3    C410261   0.366   0.603  10.753 -0.3657 -0.2590  0.3878
  694TMC3    C510262   0.257   0.558  10.817 -0.1130 -0.5189  0.3773
  694TMC3    C610263   0.192   0.450  10.769 -0.9206 -0.2493  0.4364
  694TMC3     C10264   0.550   0.586  10.595 -0.2117 -0.0125 -0.1353
  694TMC3     O10265   0.615   0.650  10.679 -0.0449 -0.0942  0.5462
  694TMC3     H10266   0.389   0.399  10.494  0.2899  1.5542 -0.2170
  694TMC3    H110267   0.410   0.686  10.807  0.2906  0.0196 -0.5662
  694TMC3    H210268   0.095   0.417  10.802 -0.2365 -1.0191  1.6957
  694TMC3    C710269   0.243   0.596  10.951  0.4334 -0.0790  0.6398
  694TMC3    C810270   0.142   0.304  10.582  0.2345  0.0223  0.5595
  694TMC3    O110271   0.305   0.693  10.988 -0.2678 -0.3327 -0.1763
  694TMC3    O210272   0.050   0.259  10.650  0.2601  0.3199  0.0358
  695MPD2     C10273   2.070   2.411  13.177 -0.1327  0.2316  0.0266
  695MPD2    C110274   1.995   2.465  13.275  0.2987 -0.0937 -0.0248
  695MPD2    C210275   1.864   2.505  13.241 -0.0213 -0.0504  0.7107
  695MPD2    C310276   1.812   2.486  13.115 -0.2067  0.1221  0.4852
  695MPD2    C410277   1.889   2.436  13.017 -0.4992  0.4864 -0.2650
  695MPD2    C510278   2.016   2.400  13.047 -0.9706  0.4047 -0.2999
  695MPD2     H10279   1.793   2.554  13.307 -0.4231  0.5891 -0.1858
  695MPD2    H110280   1.854   2.416  12.916  1.7141 -0.0975 -0.9219
  695MPD2    H210281   2.169   2.370  13.191 -0.3356  0.0473  0.8974
  695MPD2    H310282   2.080   2.350  12.975 -0.8277 -0.3547  0.3551
  695MPD2     N10283   1.677   2.522  13.098  0.3085 -0.0778  0.1010
  695MPD2    H510284   1.615   2.535  13.177  0.8876 -0.9822  0.7085
  695MPD2    N110285   2.041   2.488  13.412 -0.3965  1.0177 -0.3551
  695MPD2    H710286   1.976   2.525  13.480 -0.6948  0.2668 -0.2313
  696TMC3    C110287   1.467   2.522  13.001 -0.3346  1.5360  0.1216
  696TMC3    C210288   1.413   2.496  13.116 -0.2738 -0.2712 -0.3792
  696TMC3    C310289   1.278   2.514  13.122  0.7034  0.2972 -0.6662
  696TMC3    C410290   1.396   2.576  12.894 -0.7826 -0.4851  0.8623
  696TMC3    C510291   1.257   2.594  12.909 -0.0873 -0.3779  0.1348
  696TMC3    C610292   1.196   2.560  13.022 -0.2761 -0.2706 -0.1220
  696TMC3     C10293   1.614   2.519  12.978  0.8769 -0.1067 -0.1672
  696TMC3     O10294   1.662   2.528  12.868  0.7218 -0.3307 -0.1557
  696TMC3     H10295   1.468   2.455  13.200  0.8014 -2.1895 -1.9928
  696TMC3    H110296   1.450   2.606  12.804  1.4033 -1.4789  1.8337
  696TMC3    H210297   1.088   2.566  13.031 -0.3632  1.4939 -2.4071
  696TMC3    C710298   1.207   2.715  12.865  0.2375 -0.2778  0.0728
  696TMC3    C810299   1.230   2.479  13.253 -0.1079 -0.2601  0.5122
  696TMC3    O110300   1.233   2.745  12.748  0.2998 -0.1901  0.0593
  696TMC3    O210301   1.306   2.499  13.352  0.2910 -0.2469  0.3413
  697MPD2     C10302   1.391   4.288  15.585  0.5601 -0.4774 -0.6137
  697MPD2    C110303   1.357   4.278  15.448 -0.9900  0.0931  0.4800
  697MPD2    C210304   1.387   4.380  15.357 -0.8900 -0.6634 -0.0127
  697MPD2    C310305   1.449   4.491  15.402 -0.3200 -0.3307  0.0276
  697MPD2    C410306   1.496   4.502  15.534 -0.7980  0.2969  0.4861
  697MPD2    C510307   1.456   4.408  15.617  0.0918 -1.4064  0.7461
  697MPD2     H10308   1.350   4.364  15.256 -0.4957  2.1995 -0.5888
  697MPD2    H110309   1.553   4.586  15.572  0.7991  0.8113 -3.1032
  697MPD2    H210310   1.366   4.222  15.667  0.7836  0.0323 -0.1401
  697MPD2    H310311   1.491   4.424  15.718  0.2548 -1.7104  0.7375
  697MPD2     N10312   1.484   4.587  15.303  0.3805 -0.0756  0.4959
  697MPD2    H510313   1.462   4.560  15.208  0.1239 -0.6345  0.7133
  697MPD2    N110314   1.277   4.169  15.400  0.0743 -0.5378  0.2844
  697MPD2    H710315   1.236   4.178  15.307  1.2465  3.3297  0.1655
  698TMC3    C110316   1.574   0.055  15.193 -0.5714 -0.2912  0.4478
  698TMC3    C210317   1.557   0.187  15.202  0.5189 -0.6225 -0.6772
  698TMC3    C310318   1.562   0.251  15.081  0.5332  0.1377 -0.9623
  698TMC3    C410319   1.594   4.706  15.079 -0.5885  0.0509 -0.0572
  698TMC3    C510320   1.582   0.046  14.957  0.0097 -0.1493  0.4023
  698TMC3    C610321   1.570   0.188  14.952  0.1123 -0.4029 -0.9175
  698TMC3     C10322   1.552   4.703  15.320  0.4166 -0.2991 -0.0811
  698TMC3     O10323   1.581   0.047  15.422 -0.1881  1.0874  0.0464
  698TMC3     H10324   1.531   0.234  15.297  0.6338 -1.5284 -0.1980
  698TMC3    H110325   1.600   4.598  15.087 -2.0964  0.0075  0.4705
  698TMC3    H210326   1.553   0.249  14.864 -2.3183  1.7771  1.0671
  698TMC3    C710327   1.540   4.688  14.840 -0.0694  0.0250  0.0786
  698TMC3    C810328   1.627   0.382  15.083  0.7825  0.2694 -0.0601
  698TMC3    O110329   1.455   0.026  14.769 -0.3196  0.5242  0.7097
  698TMC3    O210330   1.626   0.443  14.976 -0.5361 -0.1171 -0.6665
  699TMC3    C110331   0.985   2.016  13.153 -0.6240 -0.2708 -1.3856
  699TMC3    C210332   0.960   2.038  13.286  0.3853  0.1892  0.0126
  699TMC3    C310333   0.888   1.944  13.357  0.0684  0.2572  0.6823
  699TMC3    C410334   0.943   1.910  13.087 -0.4355 -0.0889  0.1108
  699TMC3    C510335   0.881   1.811  13.161 -0.1039 -0.1182  0.7328
  699TMC3    C610336   0.855   1.825  13.289 -0.7459 -0.1883  0.2615
  699TMC3     C10337   1.027   2.125  13.066  0.6667 -0.2236  0.4509
  699TMC3     O10338   0.972   2.235  13.080  0.5900  0.6686 -0.4054
  699TMC3     H10339   0.981   2.135  13.329 -2.0020  0.0854  1.3863
  699TMC3    H110340   0.962   1.897  12.981 -1.6961  0.3281 -0.1558
  699TMC3    H210341   0.821   1.738  13.344 -0.6985 -0.7753 -0.6402
  699TMC3    C710342   0.776   1.741  13.085 -0.7055 -0.0419  0.1536
  699TMC3    C810343   0.827   1.959  13.487  0.8939 -0.0695 -0.5524
  699TMC3    O110344   0.788   1.724  12.968 -0.0718 -0.1273  0.0502
  699TMC3    O210345   0.727   1.892  13.496  0.0235 -0.0212  0.6721
  700TMC3    C110346   0.144   4.513  17.427  0.8690 -0.2170  0.1698
  700TMC3    C210347   0.264   4.450  17.412  0.2131 -0.1739 -0.2931
  700TMC3    C310348   0.346   4.443  17.517 -0.0031 -0.3228  0.4018
  700TMC3    C410349   0.115   4.571  17.545  0.1567  0.5074  0.1874
  700TMC3    C510350   0.213   4.578  17.642 -0.2204  1.1139 -0.6158
  700TMC3    C610351   0.333   4.515  17.628 -0.3069 -0.1967  0.3506
  700TMC3     C10352   0.091   4.580  17.310 -0.6693  0.6438 -0.0727
  700TMC3     O10353   4.695   4.622  17.313 -0.2239 -0.2227  0.6694
  700TMC3     H10354   0.295   4.419  17.313 -1.5230 -4.2549  0.4719
  700TMC3    H110355   0.039   4.647  17.556  1.3252  1.5223  1.1831
  700TMC3    H210356   0.404   4.530   0.028  0.5056  1.7073 -0.7395
  700TMC3    C710357   0.238   4.706   0.021  0.2931 -0.5688 -0.0594
  700TMC3    C810358   0.470   4.380  17.483  0.5646  0.1035  0.2435
  700TMC3    O110359   0.354   0.033   0.026 -0.0263  0.1039 -0.0977
  700TMC3    O210360   0.571   4.438  17.532 -0.3997  0.2719  0.0525
  701TMC3    C110361   0.302   3.972  15.303  0.4640 -0.2299 -0.2781
  701TMC3    C210362   0.329   3.893  15.195 -0.2676 -0.2635  0.5456
  701TMC3    C310363   0.427   3.933  15.103 -0.6258 -0.2955  0.5605
  701TMC3    C410364   0.384   4.076  15.340 -0.6026  0.1784 -0.2414
  701TMC3    C510365   0.484   4.113  15.254  0.1501 -1.1441  0.4205
  701TMC3    C610366   0.495   4.047  15.131 -0.4693 -0.0905  0.1168
  701TMC3     C10367   0.190   3.953  15.384 -0.6671 -0.7979 -0.2759
  701TMC3     O10368   0.184   4.023  15.486  0.1570  0.4229 -0.3384
  701TMC3     H10369   0.294   3.790  15.189 -1.0270  0.0860 -0.9905
  701TMC3    H110370   0.349   4.148  15.413 -1.0965 -0.7250  0.3998
  701TMC3    H210371   0.578   4.075  15.068 -1.0649  3.1522  0.7510
  701TMC3    C710372   0.592   4.206  15.283 -0.4979  0.6370 -0.4677
  701TMC3    C810373   0.485   3.831  15.013  0.6225  0.4091  0.7077
  701TMC3    O110374   0.675   4.243  15.198 -0.4942  0.1279  0.3508
  701TMC3    O210375   0.587   3.871  14.959  1.0068 -0.3350 -0.3194
  702MPD2     C10376   0.087   1.166  10.284 -0.6264  0.4423 -0.0902
  702MPD2    C110377   4.714   1.254  10.328  0.5387 -0.0887 -1.3506
  702MPD2    C210378   0.008   1.391  10.328  0.5350  0.5016 -0.5739
  702MPD2    C310379   0.121   1.447  10.266 -0.8767  0.0364 -0.2405
  702MPD2    C410380   0.215   1.360  10.221  0.8062  0.4815  0.1026
  702MPD2    C510381   0.200   1.221  10.226  0.0721  0.1936  0.6417
  702MPD2     H10382   4.663   1.462  10.379 -1.0159 -1.3121 -0.0190
  702MPD2    H110383   0.311   1.395  10.184  1.4188 -1.2026  0.0483
  702MPD2    H210384   0.086   1.058  10.294  2.7541  0.3653 -0.6597
  702MPD2    H310385   0.284   1.159  10.196  2.7083  3.4086  1.3104
  702MPD2     N10386   0.142   1.584  10.252 -0.4957  0.7559  0.2954
  702MPD2    H510387   0.228   1.609  10.204 -1.0480  1.0747 -0.5159
  702MPD2    N110388   4.605   1.214  10.408 -0.5067  0.1546 -0.5493
  702MPD2    H710389   4.543   1.288  10.435 -1.0053 -0.4504 -0.0290
  703TMC3    C110390   0.078   1.820  10.250  0.2167  0.3007 -1.4470
  703TMC3    C210391   4.682   1.902  10.239  0.2510 -0.5224 -0.5130
  703TMC3    C310392   4.712   2.034  10.224 -0.2483  0.6191  0.2677
  703TMC3    C410393   0.209   1.865  10.244  0.0943  0.0068  0.0446
  703TMC3    C510394   0.222   1.995  10.208  0.7907  0.2534  0.4946
  703TMC3    C610395   0.117   2.084  10.208  0.7854 -0.2103 -1.0983
  703TMC3     C10396   0.046   1.680  10.276 -0.2152 -0.8914  0.3965
  703TMC3     O10397   4.645   1.663  10.296 -0.3724 -0.7611  0.1669
  703TMC3     H10398   4.583   1.870  10.268  0.7226 -0.6790  0.9452
  703TMC3    H110399   0.300   1.807  10.261  0.5147  0.5134 -0.4530
  703TMC3    H210400   0.131   2.191  10.200  0.8841 -0.1390  0.0514
  703TMC3    C710401   0.348   2.040  10.162 -0.1787 -0.4394  0.2538
  703TMC3    C810402   4.607   2.134  10.246  0.0833 -0.7850 -0.5101
  703TMC3    O110403   0.450   1.980  10.192 -0.0148 -0.5869  0.5227
  703TMC3    O210404   4.637   2.255  10.240 -0.4631  0.4707  0.0106
  704TMC3    C110405   2.238   4.040  12.614 -0.3512  0.0959 -0.4207
  704TMC3    C210406   2.362   4.053  12.567  0.9217  0.6424 -0.8220
  704TMC3    C310407   2.457   3.965  12.612  0.9347 -0.1287 -0.4483
  704TMC3    C410408   2.203   3.945  12.704  0.0263  0.3418  0.4552
  704TMC3    C510409   2.298   3.853  12.739 -0.3500 -0.1602 -0.3554
  704TMC3    C610410   2.430   3.867  12.699  0.0249  0.1629 -0.3200
  704TMC3     C10411   2.129   4.084  12.531  0.6238 -0.5025 -0.6083
  704TMC3     O10412   2.016   4.092  12.581 -0.0530 -0.5188  0.5970
  704TMC3     H10413   2.377   4.133  12.495 -2.0941  2.4495  0.5859
  704TMC3    H110414   2.098   3.929  12.725  0.1073 -2.3711 -1.2020
  704TMC3    H210415   2.505   3.798  12.735 -0.2393 -1.2843 -2.5418
  704TMC3    C710416   2.256   3.723  12.692 -0.2599 -0.8337  0.1075
  704TMC3    C810417   2.543   3.936  12.497  0.5808 -0.1015  0.3693
  704TMC3    O110418   2.334   3.659  12.629 -0.0965  0.0868  0.0275
  704TMC3    O210419   2.498   3.942  12.383 -0.2842  0.8489  0.0234
  705MPD2     C10420   2.190   2.185  16.553 -0.3139  0.2485  0.3192
  705MPD2    C110421   2.083   2.273  16.531  0.5003 -0.2765  0.3915
  705MPD2    C210422   1.982   2.270  16.625  0.3221  0.3793  0.2419
  705MPD2    C310423   1.986   2.189  16.738 -0.0266 -0.8866  0.3208
  705MPD2    C410424   2.076   2.084  16.737  0.2645 -0.2751  0.1516
  705MPD2    C510425   2.177   2.086  16.645  0.0675 -0.5520 -0.2271
  705MPD2     H10426   1.908   2.349  16.619 -1.6267 -1.5436 -1.0082
  705MPD2    H110427   2.098   2.022  16.822 -1.7372 -0.6447  0.3971
  705MPD2    H210428   2.284   2.180  16.500  0.2211  1.0756  1.1912
  705MPD2    H310429   2.265   2.030  16.673 -0.5371 -1.6490 -0.5236
  705MPD2     N10430   1.894   2.204  16.849 -0.0444 -0.1518 -0.0927
  705MPD2    H510431   1.887   2.132  16.919  1.9306  0.1103  0.3711
  705MPD2    N110432   2.079   2.363  16.418  0.8731 -0.0318 -0.2996
  705MPD2    H710433   1.988   2.406  16.404  1.2167  1.4203  1.9275
  706TMC3    C110434   2.108   2.413  15.954 -0.5698 -0.5750  0.6268
  706TMC3    C210435   1.982   2.466  15.961  0.0262  0.4231 -0.4653
  706TMC3    C310436   1.928   2.506  16.078 -0.3700  0.0877  0.0893
  706TMC3    C410437   2.184   2.380  16.071 -0.0942 -0.5281  0.0881
  706TMC3    C510438   2.124   2.423  16.191  0.1845  0.0430 -0.0827
  706TMC3    C610439   2.001   2.496  16.191 -0.0643 -0.8590  0.8793
  706TMC3     C10440   2.150   2.343  15.836  0.1612  0.0603  0.9598
  706TMC3     O10441   2.258   2.279  15.843 -0.7597  0.3266 -0.5617
  706TMC3     H10442   1.932   2.503  15.871  0.0602 -0.7296 -0.9606
  706TMC3    H110443   2.283   2.335  16.075  0.5307  0.7901 -0.6465
  706TMC3    H210444   1.980   2.552  16.281 -1.3394 -1.6492  1.0798
  706TMC3    C710445   2.171   2.362  16.313 -0.3309 -0.0927 -0.3993
  706TMC3    C810446   1.829   2.607  16.070  0.6011  0.3605  0.5102
  706TMC3    O110447   2.277   2.299  16.303 -0.3192 -0.4519  0.4808
  706TMC3    O210448   1.794   2.649  15.962  0.5075  0.0936  0.1935
  707TMC3    C110449   3.159   0.986   0.712 -0.0763  0.4641  0.1362
  707TMC3    C210450   3.114   0.897   0.799 -0.1609  0.0073 -0.2179
  707TMC3    C310451   2.980   0.859   0.787 -0.4611  0.5156 -0.3803
  707TMC3    C410452   3.079   1.055   0.631  0.0893 -0.1740  0.3345
  707TMC3    C510453   2.949   1.029   0.626  0.0112 -0.5729 -0.1320
  707TMC3    C610454   2.897   0.921   0.694  0.1744  0.4820  0.0667
  707TMC3     C10455   3.309   0.993   0.696 -0.0741 -0.0321 -0.4598
  707TMC3     O10456   3.369   0.921   0.774  0.3639  0.3838  0.6686
  707TMC3     H10457   3.184   0.848   0.866 -1.8977 -1.8177  0.2570
  707TMC3    H110458   3.119   1.126   0.560 -0.3569  0.9723  1.2334
  707TMC3    H210459   2.794   0.886   0.689 -0.2986  2.1211 -1.6385
  707TMC3    C710460   2.859   1.101   0.539  0.3333  0.1906  0.2759
  707TMC3    C810461   2.934   0.734   0.840 -0.2062 -1.0443  0.2411
  707TMC3    O110462   2.763   1.035   0.510  0.0579 -0.1020 -0.4782
  707TMC3    O210463   2.815   0.719   0.851  0.1586 -0.0175 -0.0986
  708MPD2     C10464   0.391   0.785  13.594  0.3407  0.5014 -0.4268
  708MPD2    C110465   0.296   0.685  13.618  0.7634  0.3831 -0.4438
  708MPD2    C210466   0.339   0.560  13.668 -0.5363 -0.5526 -0.4182
  708MPD2    C310467   0.468   0.542  13.719  0.6373 -0.2805 -0.5263
  708MPD2    C410468   0.553   0.649  13.706 -0.0113 -0.4692  0.7564
  708MPD2    C510469   0.518   0.768  13.650  0.0327  0.6880 -0.3932
  708MPD2     H10470   0.263   0.484  13.684 -0.5739 -0.0386  1.8131
  708MPD2    H110471   0.649   0.640  13.756  0.9264 -0.4071 -1.0053
  708MPD2    H210472   0.370   0.889  13.572  1.1003 -0.0129 -3.6571
  708MPD2    H310473   0.581   0.856  13.639  0.6313  0.3332  0.2207
  708MPD2     N10474   0.506   0.421  13.784 -0.2909  0.5651  0.5758
  708MPD2    H510475   0.578   0.425  13.854 -0.2527 -1.2569  0.6498
  708MPD2    N110476   0.160   0.709  13.587 -0.0576  0.3571  0.1783
  708MPD2    H710477   0.129   0.790  13.533  0.6446  1.1539  0.9817
  709TMC3    C110478   4.644   0.672  13.591  0.5515 -0.8527 -0.0286
  709TMC3    C210479   4.637   0.680  13.454 -0.3451  0.3050 -0.1381
  709TMC3    C310480   4.519   0.643  13.393  0.1792 -0.4040 -0.4782
  709TMC3    C410481   4.532   0.615  13.660 -0.3413 -0.2973 -0.2569
  709TMC3    C510482   4.430   0.557  13.588 -0.6238  0.4413  0.5425
  709TMC3    C610483   4.428   0.564  13.454 -0.5155 -0.1698 -0.2487
  709TMC3     C10484   0.055   0.638  13.647  0.8389 -0.5919 -0.1408
  709TMC3     O10485   0.052   0.560  13.739 -0.0314 -0.0211  0.1303
  709TMC3     H10486   4.718   0.727  13.399 -0.8652  1.1891 -0.1439
  709TMC3    H110487   4.545   0.585  13.763 -0.8802  0.7432  0.1171
  709TMC3    H210488   4.352   0.520  13.391 -0.9323 -2.2286  1.7081
  709TMC3    C710489   4.417   0.418  13.629  0.0603 -0.1270  0.1609
  709TMC3    C810490   4.517   0.631  13.248  0.0100 -0.4169  0.6265
  709TMC3    O110491   4.409   0.395  13.750 -0.0332 -0.0449  0.5520
  709TMC3    O210492   4.477   0.528  13.197 -0.4515  0.0567 -0.1024
  710TMC3    C110493   0.287   1.780   0.571 -0.4902 -0.0345  0.6412
  710TMC3    C210494   0.279   1.658   0.514 -0.7490  0.4675  0.1103
  710TMC3    C310495   0.341   1.553   0.582 -0.3978 -0.2634 -0.9225
  710TMC3    C410496   0.365   1.805   0.686  0.4306 -0.1889 -0.0575
  710TMC3    C510497   0.434   1.695   0.742  0.4367  0.1886  0.6624
  710TMC3    C610498   0.427   1.572   0.688  0.1482  0.0706 -0.0021
  710TMC3     C10499   0.198   1.880   0.519 -0.2934 -0.2669  0.5581
  710TMC3     O10500   0.093   1.849   0.465 -0.0745 -0.0728  0.5021
  710TMC3     H10501   0.218   1.639   0.427 -1.0009 -2.0238  0.8293
  710TMC3    H110502   0.370   1.902   0.733  0.9717  0.6277 -1.8148
  710TMC3    H210503   0.461   1.489   0.748 -0.3005 -0.0835  0.0391
  710TMC3    C710504   0.571   1.714   0.782 -0.2571 -0.1670 -0.1101
  710TMC3    C810505   0.403   1.457   0.494 -0.5273  0.3782  0.0600
  710TMC3    O110506   0.639   1.613   0.779  0.0063 -0.1581 -0.0468
  710TMC3    O210507   0.334   1.406   0.406 -0.3529  0.4244 -0.3279
  711TMC3    C110508   0.819   3.310  14.982  0.2846  0.5871  0.6048
  711TMC3    C210509   0.799   3.422  15.057  0.5498  0.4911  0.1557
  711TMC3    C310510   0.917   3.475  15.101  0.6672 -0.1477 -0.9367
  711TMC3    C410511   0.936   3.274  14.934 -0.0802  1.0369  0.0600
  711TMC3    C510512   1.054   3.329  14.973 -0.0857 -0.1475  0.0108
  711TMC3    C610513   1.040   3.433  15.061  0.0319  0.0370  0.0629
  711TMC3     C10514   0.714   3.229  14.934 -0.0865 -0.1805 -0.4853
  711TMC3     O10515   0.732   3.161  14.835 -0.1159  0.4240 -0.1854
  711TMC3     H10516   0.706   3.478  15.066 -0.9540 -2.0953  0.5784
  711TMC3    H110517   0.947   3.206  14.850  1.0063  1.1482  0.1052
  711TMC3    H210518   1.127   3.496  15.075  0.2881 -0.3426  0.1716
  711TMC3    C710519   1.187   3.285  14.951  0.1609  0.1082  0.1977
  711TMC3    C810520   0.919   3.558  15.215 -0.3132  0.2071 -0.0055
  711TMC3    O110521   1.276   3.368  14.944 -1.0246 -0.1866  0.1102
  711TMC3    O210522   0.820   3.631  15.233 -0.0184 -0.1710  0.1093
  712MPD2     C10523   2.429   0.032  14.090 -0.6388 -0.1526 -0.6174
  712MPD2    C110524   2.368   4.709  13.975 -0.0659  0.2448 -0.4319
  712MPD2    C210525   2.355   0.090  13.874 -0.1807  0.0894 -0.5665
  712MPD2    C310526   2.428   0.213  13.878 -0.0660  0.5385 -0.1677
  712MPD2    C410527   2.480   0.245  14.000  0.5200 -0.6161 -0.4494
  712MPD2    C510528   2.482   0.153  14.099  0.5889 -0.2198 -0.4834
  712MPD2     H10529   2.307   0.060  13.781  0.7312  1.1356 -1.3760
  712MPD2    H110530   2.529   0.339  14.021 -0.3391  0.0565 -1.4641
  712MPD2    H210531   2.444   4.695  14.181 -1.2493  0.1902 -0.3044
  712MPD2    H310532   2.529   0.184  14.192  0.1081  3.7253 -1.5532
  712MPD2     N10533   2.420   0.310  13.777  0.3737  0.1726 -0.4986
  712MPD2    H510534   2.499   0.374  13.780  0.2182  0.4005 -1.2935
  712MPD2    N110535   2.323   4.579  13.952 -0.3097  0.3396 -0.0168
  712MPD2    H710536   2.272   4.559  13.867  0.1405  2.0435 -0.6696
  713TMC3    C110537   2.372   0.413  13.570  0.5144  0.0706  0.5482
  713TMC3    C210538   2.508   0.433  13.552 -0.8918  0.1284  0.4554
  713TMC3    C310539   2.541   0.530  13.458  0.0951  0.8602 -0.3398
  713TMC3    C410540   2.274   0.478  13.496 -0.2249  0.7946 -0.6224
  713TMC3    C510541   2.312   0.574  13.407  0.5824 -0.2310  0.5927
  713TMC3    C610542   2.445   0.608  13.391  0.1480  0.1751  0.1889
  713TMC3     C10543   2.329   0.322  13.673  0.6655 -0.3583  0.4760
  713TMC3     O10544   2.219   0.276  13.657 -0.5584 -0.2517  0.6606
  713TMC3     H10545   2.575   0.350  13.574 -1.0179 -0.8393 -2.9197
  713TMC3    H110546   2.169   0.463  13.517  1.0123 -1.9917  3.7182
  713TMC3    H210547   2.472   0.686  13.321  1.4672 -0.8713 -0.4742
  713TMC3    C710548   2.231   0.633  13.303 -0.7135  0.0609 -0.5539
  713TMC3    C810549   2.675   0.554  13.418  0.4164  0.0813  0.1725
  713TMC3    O110550   2.277   0.729  13.246  0.3023 -0.2229  0.3070
  713TMC3    O210551   2.693   0.611  13.305  0.3110 -0.3780  0.5052
  714MPD2     C10552   4.693   2.553   1.573  0.3377  0.1893 -0.1706
  714MPD2    C110553   4.642   2.477   1.466  0.5271 -0.7077  0.9062
  714MPD2    C210554   4.553   2.542   1.380  0.1935 -0.3066 -1.4866
  714MPD2    C310555   4.527   2.678   1.393  0.4359  0.3283 -0.1629
  714MPD2    C410556   4.584   2.750   1.498  0.3341  0.1505 -0.3054
  714MPD2    C510557   4.666   2.689   1.586  0.3725 -0.3143  0.5497
  714MPD2     H10558   4.498   2.487   1.305 -0.2969 -1.1609 -0.5001
  714MPD2    H110559   4.582   2.858   1.512  1.0029  0.2168 -0.7153
  714MPD2    H210560   0.020   2.500   1.656  4.0948  0.0574 -2.3711
  714MPD2    H310561   4.711   2.749   1.665 -0.7026 -0.3669  1.1914
  714MPD2     N10562   4.445   2.735   1.290 -0.1102  0.1947 -0.3177
  714MPD2    H510563   4.410   2.674   1.216 -0.2971 -0.6251  0.4463
  714MPD2    N110564   4.681   2.343   1.456  0.0519  0.4168 -0.4776
  714MPD2    H710565   0.034   2.313   1.521  1.0654  0.3386 -1.6445
  715TMC3    C110566   0.041   2.171   1.334 -0.5482 -0.5300  0.0154
  715TMC3    C210567   0.008   2.059   1.263  0.3929 -0.0910 -0.2085
  715TMC3    C310568   0.108   1.968   1.251 -0.5804  1.2304 -0.7411
  715TMC3    C410569   0.155   2.196   1.404  0.0377  0.1905  0.2917
  715TMC3    C510570   0.251   2.097   1.388 -0.4871  0.2597 -0.2365
  715TMC3    C610571   0.234   1.979   1.309 -0.2307 -0.2146  0.0931
  715TMC3     C10572   4.662   2.269   1.342 -0.4508  0.4284  0.1947
  715TMC3     O10573   4.558   2.264   1.278 -0.1740 -0.2599  0.3838
  715TMC3     H10574   4.630   2.045   1.217  0.3950  0.2398 -0.3132
  715TMC3    H110575   0.184   2.286   1.457  1.3507 -0.1889  0.2248
  715TMC3    H210576   0.317   1.910   1.300 -1.4748 -1.6761 -0.0275
  715TMC3    C710577   0.382   2.127   1.439 -0.0248 -0.2031  0.1441
  715TMC3    C810578   0.055   1.843   1.193 -0.8232 -0.1903 -0.1921
  715TMC3    O110579   0.410   2.244   1.464  0.2368 -0.1272 -0.6469
  715TMC3    O210580   4.685   1.856   1.116  0.0353  0.1188 -0.5617
  716MPD2     C10581   4.675   1.183   9.797 -0.1502  0.0940 -0.4176
  716MPD2    C110582   0.007   1.140   9.683 -0.0118 -0.1515 -0.3250
  716MPD2    C210583   0.106   1.041   9.684 -0.2248 -0.4183  0.1407
  716MPD2    C310584   0.156   0.992   9.800 -0.8752 -0.2988  0.4212
  716MPD2    C410585   0.090   1.029   9.923 -0.0793 -0.7375 -0.2600
  716MPD2    C510586   4.713   1.124   9.917  0.0741  0.2949  0.3850
  716MPD2     H10587   0.154   1.008   9.593  0.6277  1.3948 -0.0683
  716MPD2    H110588   0.105   0.981  10.019  0.0733 -0.9706 -0.4001
  716MPD2    H210589   4.589   1.247   9.811 -1.1775 -1.3067 -0.3512
  716MPD2    H310590   4.654   1.140  10.006 -0.5720  0.3795 -0.0595
  716MPD2     N10591   0.246   0.887   9.788  0.1901 -0.4100  0.5757
  716MPD2    H510592   0.273   0.855   9.696 -0.8386 -1.0358  0.4882
  716MPD2    N110593   4.672   1.201   9.567  0.2771 -0.1213  0.3888
  716MPD2    H710594   4.603   1.272   9.589  1.4183  0.8557  0.7699
  717TMC3    C110595   0.422   0.745   9.856  0.2402 -0.4885  0.2531
  717TMC3    C210596   0.446   0.751   9.721  0.2631 -0.1625  0.2894
  717TMC3    C310597   0.482   0.638   9.661 -0.8951  0.1236 -0.1118
  717TMC3    C410598   0.441   0.632   9.933 -0.1999  0.1368 -0.0252
  717TMC3    C510599   0.482   0.520   9.867 -0.6741  0.4516 -0.0787
  717TMC3    C610600   0.499   0.517   9.727  0.1625 -0.7227 -0.5140
  717TMC3     C10601   0.312   0.828   9.896  0.8205  0.1143  0.2166
  717TMC3     O10602   0.288   0.825  10.016 -0.3382  0.0729  0.3808
  717TMC3     H10603   0.455   0.847   9.672  0.8853  0.1683  1.0524
  717TMC3    H110604   0.438   0.628  10.041  2.0822 -0.8539 -0.0065
  717TMC3    H210605   0.533   0.422   9.685  2.0574  0.1952 -1.0388
  717TMC3    C710606   0.511   0.398   9.946  0.7502  0.0855  0.3530
  717TMC3    C810607   0.451   0.640   9.522 -0.5252 -0.0168  0.2153
  717TMC3    O110608   0.531   0.405  10.068 -0.7369  0.3500 -0.0809
  717TMC3    O210609   0.427   0.751   9.468  0.6975 -0.3304 -0.3151
  718MPD2     C10610   3.857   0.270  12.756  0.4466 -0.1178 -0.3255
  718MPD2    C110611   3.756   0.327  12.680 -0.1528  0.2470  0.0987
  718MPD2    C210612   3.666   0.237  12.619 -0.4531 -0.5223  0.6292
  718MPD2    C310613   3.674   0.096  12.638 -0.4422  0.1849 -0.3860
  718MPD2    C410614   3.775   0.049  12.719  0.1700 -0.4153  0.3962
  718MPD2    C510615   3.866   0.133  12.776  0.0454 -0.7726 -0.7591
  718MPD2     H10616   3.587   0.278  12.556 -0.3142 -2.1148 -0.5675
  718MPD2    H110617   3.766   4.662  12.741 -1.8011 -0.2849  0.2482
  718MPD2    H210618   3.935   0.330  12.801 -0.8436  0.2687  1.3583
  718MPD2    H310619   3.937   0.095  12.848 -0.1048 -0.2249 -0.3190
  718MPD2     N10620   3.588   0.010  12.563  0.5852  0.6564 -0.0536
  718MPD2    H510621   3.581   4.629  12.579  0.5181  0.8476  1.0991
  718MPD2    N110622   3.747   0.466  12.672 -0.2868 -0.5580 -0.2486
  718MPD2    H710623   3.814   0.525  12.720 -0.3304  0.1901 -1.0930
  719TMC3    C110624   3.641   0.679  12.616 -0.5406  0.1117 -0.1433
  719TMC3    C210625   3.510   0.719  12.598 -0.1763 -0.3185 -0.0316
  719TMC3    C310626   3.485   0.812  12.505 -0.1418  0.0329  0.4260
  719TMC3    C410627   3.740   0.744  12.542 -0.5958 -0.1507 -0.3676
  719TMC3    C510628   3.713   0.843  12.459  0.6237 -0.6409  0.4740
  719TMC3    C610629   3.580   0.891  12.451  0.3493 -0.1461  0.2466
  719TMC3     C10630   3.646   0.534  12.603 -0.1904 -0.8238 -0.4698
  719TMC3     O10631   3.555   0.494  12.533 -0.3569  0.3010  0.4806
  719TMC3     H10632   3.435   0.660  12.649 -0.8212 -1.0941 -1.8567
  719TMC3    H110633   3.836   0.694  12.546 -0.8246 -0.6784 -1.2628
  719TMC3    H210634   3.554   0.956  12.368 -0.2133  0.3828  0.8349
  719TMC3    C710635   3.816   0.874  12.362  0.6607  0.0679 -0.0802
  719TMC3    C810636   3.369   0.785  12.421 -0.2633 -0.0719 -0.4644
  719TMC3    O110637   3.900   0.792  12.331 -0.1897  0.2380  0.2539
  719TMC3    O210638   3.289   0.874  12.395 -0.3897  0.0107 -0.0346
  720MPD2     C10639   1.994   1.663  13.889  0.0249 -0.2260  0.0347
  720MPD2    C110640   2.058   1.650  13.769 -0.1532  0.0654  0.1094
  720MPD2    C210641   2.192   1.617  13.776  0.3310 -0.3835  0.5040
  720MPD2    C310642   2.264   1.613  13.894 -0.6942  0.3038 -0.3989
  720MPD2    C410643   2.194   1.636  14.011 -0.4918  0.3877  0.3578
  720MPD2    C510644   2.058   1.662  14.003 -0.1213 -0.1148  0.0310
  720MPD2     H10645   2.244   1.598  13.683  0.5918 -0.2934  0.6301
  720MPD2    H110646   2.241   1.639  14.108 -2.1531  1.4845  1.1423
  720MPD2    H210647   1.890   1.682  13.868  0.6842  2.3413 -0.8877
  720MPD2    H310648   1.999   1.671  14.094 -2.2624 -2.0730 -1.1614
  720MPD2     N10649   2.397   1.573  13.893 -0.1400 -0.6554 -0.0365
  720MPD2    H510650   2.443   1.560  13.803 -0.9354 -1.0078 -0.3887
  720MPD2    N110651   1.987   1.662  13.648  0.7580  0.3367  0.8821
  720MPD2    H710652   1.888   1.641  13.656  0.5550  1.3452  1.0901
  721TMC3    C110653   2.613   1.518  13.980  0.2172 -0.3382 -0.5723
  721TMC3    C210654   2.681   1.457  14.079 -0.3166  0.3137  0.1896
  721TMC3    C310655   2.815   1.460  14.082 -0.4133 -0.2051 -0.1199
  721TMC3    C410656   2.677   1.584  13.872 -0.6955  0.3154 -0.4718
  721TMC3    C510657   2.815   1.573  13.875 -0.5080 -0.1603 -0.6624
  721TMC3    C610658   2.885   1.497  13.966 -0.2116  0.2744  0.5052
  721TMC3     C10659   2.473   1.549  14.006  0.0379  0.1654  0.4888
  721TMC3     O10660   2.439   1.527  14.121 -0.2808 -0.2197 -0.2675
  721TMC3     H10661   2.631   1.420  14.168  0.2611  0.7486  0.6948
  721TMC3    H110662   2.623   1.655  13.811 -1.7345  1.3717  1.6627
  721TMC3    H210663   2.992   1.481  13.958 -0.0830  0.7642  1.1967
  721TMC3    C710664   2.906   1.642  13.787  0.9120  0.0018 -0.1567
  721TMC3    C810665   2.879   1.380  14.183 -0.6911  0.0484  0.4991
  721TMC3    O110666   3.027   1.642  13.809 -0.5407  0.1053  0.2054
  721TMC3    O210667   2.978   1.321  14.142 -0.1503  0.3344 -0.4102
  722MPD2     C10668   0.897   0.085  13.289  0.0480 -0.0717  0.9806
  722MPD2    C110669   0.903   0.197  13.206 -0.6747  0.0080 -0.1986
  722MPD2    C210670   0.793   0.231  13.131 -0.7815 -0.8118  0.6322
  722MPD2    C310671   0.666   0.174  13.150 -0.4108  0.0776  0.4574
  722MPD2    C410672   0.665   0.066  13.235 -0.1949 -0.1186 -0.1978
  722MPD2    C510673   0.773   0.014  13.292 -0.1233  0.1084 -0.2270
  722MPD2     H10674   0.799   0.315  13.063 -0.5055 -2.3473 -1.2187
  722MPD2    H110675   0.575   0.008  13.252 -1.1031  1.9183  1.9479
  722MPD2    H210676   0.981   0.056  13.351  0.0639  0.2500  1.1090
  722MPD2    H310677   0.763   4.639  13.344  1.7563 -0.5689 -1.0819
  722MPD2     N10678   0.550   0.222  13.083 -0.2438  0.1232  0.1077
  722MPD2    H510679   0.566   0.306  13.028  0.3653  0.5533  0.9362
  722MPD2    N110680   1.028   0.253  13.170  0.1825 -0.3801 -0.3631
  722MPD2    H710681   1.022   0.324  13.098 -0.2778  0.0538  0.1064
  723TMC3    C110682   0.346   0.213  12.969 -0.3470 -0.1892 -0.2121
  723TMC3    C210683   0.262   0.129  12.895 -1.0469 -0.3675 -0.1013
  723TMC3    C310684   0.189   0.193  12.798 -0.1710 -0.1206  0.5228
  723TMC3    C410685   0.353   0.341  12.942 -0.1948 -0.1041  0.3367
  723TMC3    C510686   0.273   0.403  12.846 -0.3359  0.1257 -0.0470
  723TMC3    C610687   0.191   0.327  12.770 -0.2999  0.2870  0.2490
  723TMC3     C10688   0.438   0.149  13.064  0.9374  0.4620 -0.3455
  723TMC3     O10689   0.411   0.036  13.108 -0.0017 -0.3149  0.2555
  723TMC3     H10690   0.251   0.025  12.924 -1.2524 -0.5137 -0.7074
  723TMC3    H110691   0.425   0.403  12.995  0.2516 -1.0834  0.8769
  723TMC3    H210692   0.138   0.372  12.687 -0.5086 -0.1586  0.1407
  723TMC3    C710693   0.300   0.531  12.792 -0.2569 -0.4329 -0.6854
  723TMC3    C810694   0.101   0.119  12.712  0.8611 -0.0385 -0.6849
  723TMC3    O110695   0.269   0.543  12.674 -0.1258  0.0113  0.7326
  723TMC3    O210696   0.012   0.168  12.647  0.7652 -0.3933  0.4745
  724TMC3    C110697   0.686   3.392   9.263 -0.5437 -0.4576  0.0555
  724TMC3    C210698   0.750   3.352   9.379  0.5648 -0.2721 -1.1760
  724TMC3    C310699   0.884   3.345   9.365 -0.0465 -0.0741 -0.1866
  724TMC3    C410700   0.752   3.419   9.142 -0.5813 -0.0393  0.3145
  724TMC3    C510701   0.887   3.395   9.130  0.4811 -0.2362 -0.5786
  724TMC3    C610702   0.958   3.365   9.251  0.0190 -0.0420 -0.5535
  724TMC3     C10703   0.544   3.389   9.262 -0.0708 -0.3484  0.1723
  724TMC3     O10704   0.487   3.439   9.167  0.1891 -0.1206  0.7353
  724TMC3     H10705   0.705   3.378   9.473 -0.5781 -1.8141 -1.3062
  724TMC3    H110706   0.698   3.465   9.060 -0.0407 -0.4877 -0.2915
  724TMC3    H210707   1.063   3.339   9.248 -0.3811 -1.6807  0.0628
  724TMC3    C710708   0.966   3.419   9.009 -0.0485 -0.7495 -0.3549
  724TMC3    C810709   0.952   3.309   9.487 -0.7251 -0.7036  0.1075
  724TMC3    O110710   1.086   3.420   9.021  0.2225  0.3473 -0.2443
  724TMC3    O210711   0.883   3.244   9.563  0.0083  0.4140  0.7134
  725TMC3    C110712   3.036   1.887  12.430 -0.2899  0.6833 -0.0080
  725TMC3    C210713   2.916   1.837  12.469 -0.5722 -0.0108  0.5378
  725TMC3    C310714   2.868   1.723  12.419 -0.7235  0.9212 -0.0938
  725TMC3    C410715   3.116   1.815  12.344  0.0170 -0.2062  0.2380
  725TMC3    C510716   3.062   1.699  12.289 -0.4435 -0.5986 -0.3002
  725TMC3    C610717   2.936   1.656  12.318 -0.3335 -0.4932  0.3984
  725TMC3     C10718   3.086   2.020  12.484 -0.0917  0.8015  0.7361
  725TMC3     O10719   3.013   2.072  12.564 -0.4496  0.0532 -0.2020
  725TMC3     H10720   2.847   1.888  12.535  0.5675  0.7391  1.1284
  725TMC3    H110721   3.208   1.853  12.300  1.3190 -1.4336  1.9093
  725TMC3    H210722   2.891   1.574  12.264  0.2773  0.2140 -1.1928
  725TMC3    C710723   3.098   1.662  12.156  0.0418  0.5650 -0.2944
  725TMC3    C810724   2.735   1.748  12.365 -0.5910  0.5503  0.4974
  725TMC3    O110725   2.998   1.651  12.085 -0.3800  0.0939 -0.2945
  725TMC3    O210726   2.637   1.762  12.435  0.1373  0.3856  0.3469
  726MPD2     C10727   1.061   3.306  10.095 -0.4909  0.4091  0.5102
  726MPD2    C110728   0.967   3.372  10.020  0.4423  0.5925 -0.2780
  726MPD2    C210729   0.840   3.319  10.021  0.0380 -0.2150 -0.5736
  726MPD2    C310730   0.804   3.210  10.104  0.3632  0.2219 -0.5475
  726MPD2    C410731   0.901   3.159  10.193  0.0797 -0.4190 -0.1910
  726MPD2    C510732   1.026   3.200  10.177 -0.5394 -0.3960  0.4910
  726MPD2     H10733   0.766   3.357   9.952 -0.9762  1.8278  1.6275
  726MPD2    H110734   0.884   3.084  10.270 -0.8483 -2.7501 -2.6834
  726MPD2    H210735   1.164   3.338  10.097  0.2719 -1.8361 -3.0272
  726MPD2    H310736   1.109   3.159  10.234 -0.0066  1.9866  1.4265
  726MPD2     N10737   0.675   3.158  10.121  0.6248 -0.0228 -0.6536
  726MPD2    H510738   0.671   3.101  10.204 -2.3343  0.6149 -0.3707
  726MPD2    N110739   0.998   3.478   9.933 -0.3451 -0.3019 -0.2108
  726MPD2    H710740   0.935   3.510   9.860  0.5625  2.6876  0.3355
  727TMC3    C110741   1.105   3.673   9.871  0.1535 -0.0641 -0.0142
  727TMC3    C210742   1.140   3.799   9.921 -0.2074 -0.0278 -0.6315
  727TMC3    C310743   1.171   3.899   9.833 -0.2955  0.6978 -0.2942
  727TMC3    C410744   1.089   3.650   9.736 -0.2021  0.4684  0.3012
  727TMC3    C510745   1.131   3.751   9.652  0.6565 -0.5440 -0.0959
  727TMC3    C610746   1.153   3.884   9.696 -0.1754  0.1999  0.8299
  727TMC3     C10747   1.098   3.564   9.969  0.0549 -0.0438 -0.2818
  727TMC3     O10748   1.168   3.579  10.072  0.2430 -0.0786  0.1153
  727TMC3     H10749   1.182   3.818  10.019  1.5284  2.5986 -1.8768
  727TMC3    H110750   1.065   3.552   9.699  1.3501  0.5619 -0.9887
  727TMC3    H210751   1.184   3.962   9.629  1.6289 -1.0550  0.1961
  727TMC3    C710752   1.165   3.717   9.515  0.0891  0.3191  0.0887
  727TMC3    C810753   1.234   4.017   9.894  0.7050 -0.0568  1.0678
  727TMC3    O110754   1.098   3.631   9.464 -0.1708  0.0884  1.3367
  727TMC3    O210755   1.316   4.006   9.988 -0.1064 -0.0874 -0.0698
  728TMC3    C110756   0.455   1.891  15.374  0.2570 -0.0351 -0.0274
  728TMC3    C210757   0.529   2.003  15.406 -0.5378  0.9034  0.4855
  728TMC3    C310758   0.557   2.087  15.309 -0.1490  0.2683  0.7557
  728TMC3    C410759   0.397   1.881  15.251 -0.1886 -0.3671 -0.1724
  728TMC3    C510760   0.425   1.973  15.153 -0.0147 -0.1737  0.4399
  728TMC3    C610761   0.506   2.079  15.182 -0.6394  0.3713  0.1133
  728TMC3     C10762   0.407   1.822  15.495  0.7742 -0.0427  0.5909
  728TMC3     O10763   0.453   1.874  15.595  0.6948  0.0295 -0.2575
  728TMC3     H10764   0.589   2.010  15.496  1.1906  0.9423 -0.6659
  728TMC3    H110765   0.331   1.796  15.234  1.5983 -1.6456 -0.6714
  728TMC3    H210766   0.532   2.155  15.108  2.4940 -1.0960 -0.3208
  728TMC3    C710767   0.371   1.954  15.020  0.4379 -0.0506 -0.0227
  728TMC3    C810768   0.605   2.217  15.350 -0.0440  0.3506  0.0982
  728TMC3    O110769   0.326   1.844  14.987 -0.2440  0.0787  0.3980
  728TMC3    O210770   0.600   2.240  15.469 -0.1439 -0.0662  0.6328
  729MPD2     C10771   2.472   2.765  16.103 -0.6713 -0.1177 -0.0179
  729MPD2    C110772   2.588   2.777  16.182 -0.3787  0.5111  0.8393
  729MPD2    C210773   2.592   2.731  16.307  0.7519  0.8190 -0.4206
  729MPD2    C310774   2.488   2.656  16.360 -0.2844 -0.0864 -0.1666
  729MPD2    C410775   2.368   2.646  16.287  0.0955  0.4714  0.3875
  729MPD2    C510776   2.364   2.709  16.164  0.3953  0.4203 -0.3632
  729MPD2     H10777   2.674   2.754  16.374  1.5226  1.5410 -1.5988
  729MPD2    H110778   2.276   2.607  16.328 -0.0909 -0.0098 -0.4978
  729MPD2    H210779   2.454   2.815  16.009  1.5678  1.9627  0.6679
  729MPD2    H310780   2.266   2.722  16.119  0.6603 -0.9590 -1.3566
  729MPD2     N10781   2.479   2.611  16.497  0.4024  0.7641 -0.3235
  729MPD2    H510782   2.385   2.589  16.531  0.6214 -0.5800 -0.5749
  729MPD2    N110783   2.691   2.862  16.126  0.1684 -0.3686  0.0818
  729MPD2    H710784   2.665   2.924  16.049 -0.4490 -0.1176  0.4859
  730TMC3    C110785   2.533   2.611  16.731 -0.0937  0.2827  0.1997
  730TMC3    C210786   2.635   2.614  16.821 -0.5605  0.1174 -0.0579
  730TMC3    C310787   2.619   2.653  16.949  0.8201  0.2808  0.1597
  730TMC3    C410788   2.417   2.677  16.769  0.6662  0.1645 -0.2049
  730TMC3    C510789   2.402   2.718  16.894  0.1177 -0.0014  0.1954
  730TMC3    C610790   2.499   2.701  16.993  0.3448  0.0848 -0.0200
  730TMC3     C10791   2.583   2.619  16.590 -0.1788  0.2642 -0.2820
  730TMC3     O10792   2.703   2.622  16.579  0.4880 -0.2335  0.3593
  730TMC3     H10793   2.740   2.599  16.797 -1.0096 -1.0694 -1.3237
  730TMC3    H110794   2.333   2.694  16.704 -0.1942  1.8056  1.3114
  730TMC3    H210795   2.493   2.727  17.098  1.0118  0.0483  0.0249
  730TMC3    C710796   2.326   2.838  16.906  0.0341  0.0204 -0.0998
  730TMC3    C810797   2.729   2.753  16.996  0.5048  0.8246 -1.0789
  730TMC3    O110798   2.323   2.911  16.811 -0.4152  0.3845 -0.0271
  730TMC3    O210799   2.845   2.728  16.966 -0.7494 -0.3813  0.2421
  731MPD2     C10800   1.731   1.688  11.893 -0.1485  0.7757 -0.1444
  731MPD2    C110801   1.859   1.704  11.845 -0.2133 -0.4189  0.4719
  731MPD2    C210802   1.965   1.689  11.937 -0.5905  0.1637 -0.0988
  731MPD2    C310803   1.937   1.635  12.066  0.6375  0.2958 -0.0563
  731MPD2    C410804   1.809   1.620  12.108  0.0698  0.3182  0.3939
  731MPD2    C510805   1.704   1.649  12.023 -0.3084  0.3530 -0.1694
  731MPD2     H10806   2.069   1.686  11.908 -0.2821  0.9131  0.9439
  731MPD2    H110807   1.775   1.583  12.204  0.6882 -1.3244 -0.0235
  731MPD2    H210808   1.656   1.709  11.817  0.5739  0.0868 -1.0442
  731MPD2    H310809   1.601   1.619  12.041 -0.4986  0.8080 -0.4948
  731MPD2     N10810   2.044   1.610  12.153 -0.1653 -0.1124 -0.2648
  731MPD2    H510811   2.135   1.640  12.119 -1.4928  1.7391 -2.2507
  731MPD2    N110812   1.879   1.719  11.699 -0.6377 -0.3259  0.0777
  731MPD2    H710813   1.797   1.711  11.640 -0.7428 -1.8566  0.4404
  732TMC3    C110814   1.992   1.693  11.481  0.1125 -0.1635 -0.2346
  732TMC3    C210815   1.902   1.604  11.437  0.1560 -0.4228  0.1754
  732TMC3    C310816   1.898   1.570  11.300 -0.0336 -0.1812  0.0411
  732TMC3    C410817   2.092   1.745  11.402  0.5126 -0.5072  0.0720
  732TMC3    C510818   2.074   1.721  11.270  0.5867 -0.1586 -0.9253
  732TMC3    C610819   1.977   1.639  11.212  0.2816  0.5371  0.4030
  732TMC3     C10820   1.998   1.723  11.632 -0.2555  0.5205  0.5467
  732TMC3     O10821   2.101   1.744  11.691  0.1962 -0.2762  0.1144
  732TMC3     H10822   1.824   1.563  11.499  0.4585 -0.7945  0.3070
  732TMC3    H110823   2.170   1.807  11.444 -1.2077  1.8421 -0.2115
  732TMC3    H210824   1.977   1.618  11.105 -1.4572 -2.9746  1.0891
  732TMC3    C710825   2.186   1.755  11.187  0.5802  0.1144 -0.2088
  732TMC3    C810826   1.835   1.443  11.259  0.0844 -0.4388 -0.2133
  732TMC3    O110827   2.157   1.833  11.097 -0.1124  0.1130  0.1027
  732TMC3    O210828   1.842   1.416  11.139  0.9340 -0.7241 -0.0038
  733TMC3    C110829   3.192   4.603  12.449  0.0457 -0.1925 -0.1409
  733TMC3    C210830   3.324   4.623  12.492  0.4855 -0.8425 -0.5222
  733TMC3    C310831   3.423   4.668  12.404 -0.6300  0.1979 -0.0898
  733TMC3    C410832   3.144   4.641  12.328 -0.5711  0.0032 -0.0675
  733TMC3    C510833   3.233   4.713  12.248 -0.4585 -0.0730 -0.2775
  733TMC3    C610834   3.373   4.711  12.280 -0.1412  0.5226  0.7636
  733TMC3     C10835   3.088   4.562  12.542 -0.2105  0.0020 -0.0353
  733TMC3     O10836   2.972   4.578  12.509  0.2369  0.1057 -0.3652
  733TMC3     H10837   3.351   4.614  12.597 -0.2890 -1.7915 -0.4141
  733TMC3    H110838   3.042   4.633  12.294 -0.9406  0.7610  0.8606
  733TMC3    H210839   3.438   0.045  12.212 -0.9641 -1.1122 -1.3184
  733TMC3    C710840   3.178   0.118  12.201  0.1917 -0.2740  1.0955
  733TMC3    C810841   3.509   0.053  12.463 -0.2415 -0.0352  0.1188
  733TMC3    O110842   3.065   0.127  12.157  0.0627 -0.1602 -0.3471
  733TMC3    O210843   3.488   0.168  12.415 -0.4706 -0.7768 -0.3058
  734MPD2     C10844   0.245   2.143  12.607  0.2260 -0.0870 -0.0428
  734MPD2    C110845   0.215   2.083  12.486  0.5465 -0.2322  0.1818
  734MPD2    C210846   0.259   2.150  12.368 -0.9573 -0.0860 -0.2176
  734MPD2    C310847   0.316   2.276  12.373 -0.4761  0.1600 -0.3334
  734MPD2    C410848   0.346   2.331  12.493 -0.2944 -0.6045 -0.1317
  734MPD2    C510849   0.315   2.257  12.605  0.1526 -0.2979  0.4565
  734MPD2     H10850   0.248   2.103  12.271  3.6699 -3.4841  0.8804
  734MPD2    H110851   0.397   2.426  12.501 -0.9670 -0.2272 -0.3423
  734MPD2    H210852   0.222   2.084  12.696 -0.0868 -1.1220 -0.8020
  734MPD2    H310853   0.353   2.292  12.700  1.6917 -0.1721 -0.2028
  734MPD2     N10854   0.354   2.332  12.248  0.0780 -0.6518 -0.2934
  734MPD2    H510855   0.342   2.273  12.166 -0.8120 -2.0447  0.8533
  734MPD2    N110856   0.152   1.962  12.477  0.3450  0.0607 -0.1869
  734MPD2    H710857   0.143   1.908  12.562 -2.1275  0.1235 -0.4155
  735TMC3    C110858   0.050   1.768  12.365 -0.2123 -0.4112  0.7856
  735TMC3    C210859   4.702   1.752  12.253  0.4028  0.0913 -0.7349
  735TMC3    C310860   4.703   1.641  12.175  0.4841 -0.3626 -0.1807
  735TMC3    C410861   0.137   1.671  12.393 -0.2458 -0.5156  0.0545
  735TMC3    C510862   0.140   1.553  12.315  0.9146  0.1060 -0.3406
  735TMC3    C610863   0.063   1.538  12.199  0.1484  0.5060  0.2982
  735TMC3     C10864   0.096   1.907  12.362  0.0725 -0.6424  0.2418
  735TMC3     O10865   0.079   1.966  12.255 -0.3024  0.2123  0.2984
  735TMC3     H10866   4.625   1.826  12.233 -1.1393 -1.7690 -1.7218
  735TMC3    H110867   0.210   1.682  12.473  0.0257  2.0077 -0.5495
  735TMC3    H210868   0.066   1.463  12.121 -1.6063  0.2887  0.4283
  735TMC3    C710869   0.245   1.455  12.337  1.1612  0.4562  0.1439
  735TMC3    C810870   4.702   1.683  12.028  0.6284 -0.2598  0.6297
  735TMC3    O110871   0.352   1.484  12.392 -0.5043 -0.5092  0.2014
  735TMC3    O210872   4.668   1.600  11.947  0.1483 -0.0815  0.1237
  736MPD2     C10873   0.237   1.081  12.291 -0.4593  0.6036  0.4728
  736MPD2    C110874   0.285   1.210  12.301 -0.5786 -0.5362 -0.2549
  736MPD2    C210875   0.416   1.236  12.259 -0.0809  0.1108  0.2436
  736MPD2    C310876   0.510   1.134  12.233  0.4581 -0.3004  0.3656
  736MPD2    C410877   0.462   1.002  12.229  0.1701 -0.2469 -0.2585
  736MPD2    C510878   0.332   0.980  12.270 -0.3013 -0.4897 -0.6826
  736MPD2     H10879   0.457   1.337  12.255 -2.5865  1.0952 -0.6793
  736MPD2    H110880   0.518   0.914  12.202  4.3509  2.1684  0.4985
  736MPD2    H210881   0.135   1.050  12.311 -0.1509 -0.1725  0.8094
  736MPD2    H310882   0.294   0.879  12.261 -1.3852 -0.2976  1.8338
  736MPD2     N10883   0.643   1.161  12.186 -0.5281 -0.5034 -0.1713
  736MPD2    H510884   0.695   1.079  12.154  0.2481 -0.1434  0.1989
  736MPD2    N110885   0.196   1.324  12.314  0.3227 -0.6496  0.1036
  736MPD2    H710886   0.095   1.319  12.308  0.1101  2.3690  0.8210
  737TMC3    C110887   0.831   1.267  12.130 -0.1705 -0.2638 -0.3290
  737TMC3    C210888   0.911   1.381  12.148 -0.1225  0.0276 -0.2721
  737TMC3    C310889   1.008   1.411  12.065 -0.0247 -0.2505 -0.6089
  737TMC3    C410890   0.866   1.174  12.030 -0.6922  0.2252  0.7309
  737TMC3    C510891   0.967   1.214  11.947  0.5553 -0.5181  0.1403
  737TMC3    C610892   1.034   1.326  11.969 -0.0872  0.1457  0.1819
  737TMC3     C10893   0.704   1.282  12.194  0.1925 -0.7981  0.4925
  737TMC3     O10894   0.663   1.395  12.224 -0.3323 -0.0328  0.5009
  737TMC3     H10895   0.887   1.458  12.220  2.3992 -0.2507  0.8453
  737TMC3    H110896   0.814   1.082  12.006  2.3507 -1.4615  0.5804
  737TMC3    H210897   1.130   1.338  11.919 -0.0341  0.4182  0.3494
  737TMC3    C710898   1.037   1.110  11.874 -0.4569 -0.2633 -1.2177
  737TMC3    C810899   1.038   1.548  12.050 -0.8356 -0.4828 -0.4355
  737TMC3    O110900   1.020   0.995  11.904 -0.8611 -0.5598 -0.8423
  737TMC3    O210901   1.025   1.621  12.146 -0.1901 -0.1640  0.2647
  738MPD2     C10902   1.854   0.512  15.329 -0.3491 -0.5684  0.3165
  738MPD2    C110903   1.756   0.526  15.233  1.2028 -0.0528 -0.3851
  738MPD2    C210904   1.723   0.646  15.173  0.7036 -0.3494 -0.1172
  738MPD2    C310905   1.804   0.755  15.208 -0.1834 -0.3315 -0.3240
  738MPD2    C410906   1.906   0.736  15.300 -0.1601 -0.0805  0.5798
  738MPD2    C510907   1.931   0.622  15.368  0.5152  0.2303  0.1806
  738MPD2     H10908   1.641   0.662  15.104  1.3339 -1.8463 -1.2140
  738MPD2    H110909   1.971   0.818  15.324 -2.5964  1.7993  0.7301
  738MPD2    H210910   1.872   0.419  15.382  0.0949  0.8331  2.6358
  738MPD2    H310911   2.007   0.616  15.445  0.3256 -3.0142  0.1267
  738MPD2     N10912   1.789   0.887  15.148 -0.0900  0.1556  0.7451
  738MPD2    H510913   1.838   0.963  15.192 -1.1215  0.5753  1.1799
  738MPD2    N110914   1.692   0.406  15.196  0.1169  0.2408 -0.6716
  738MPD2    H710915   1.702   0.323  15.253 -0.1439  0.0231 -0.9398
  739TMC3    C110916   1.724   1.063  15.016  0.0791 -0.1881 -0.0131
  739TMC3    C210917   1.735   1.087  14.885  0.7528 -0.6259  0.1665
  739TMC3    C310918   1.797   1.194  14.833  0.8095 -0.0357 -0.0751
  739TMC3    C410919   1.775   1.151  15.110  0.0090  0.0643  0.2588
  739TMC3    C510920   1.833   1.264  15.063  0.0802  0.3003  0.2937
  739TMC3    C610921   1.848   1.285  14.924 -0.2563  0.2179 -0.3005
  739TMC3     C10922   1.700   0.927  15.044  0.0610 -0.3027  0.4805
  739TMC3     O10923   1.605   0.868  14.991 -0.6431  0.4052  0.1981
  739TMC3     H10924   1.681   1.025  14.813  0.4989  0.1231 -0.2939
  739TMC3    H110925   1.758   1.141  15.216  0.3521  0.8595  0.3821
  739TMC3    H210926   1.877   1.379  14.879  1.1578  0.4837  1.1769
  739TMC3    C710927   1.847   1.387  15.147  0.1980 -0.6010  0.3886
  739TMC3    C810928   1.790   1.239  14.693  0.5164  0.7616  1.4156
  739TMC3    O110929   1.915   1.474  15.099 -0.0817 -0.6044  0.1378
  739TMC3    O210930   1.680   1.256  14.638  0.4643  0.3439  0.2325
  740TMC3    C110931   2.006   2.154  14.099  0.2546 -0.3717 -0.9900
  740TMC3    C210932   2.089   2.087  14.180 -0.0744 -0.1499 -0.4734
  740TMC3    C310933   2.199   2.028  14.120  0.0980  0.1631  0.1907
  740TMC3    C410934   2.010   2.128  13.965  0.5485  0.5620 -0.0197
  740TMC3    C510935   2.109   2.054  13.914 -0.3373 -0.0253 -0.3124
  740TMC3    C610936   2.214   2.001  13.984 -0.5564  0.6426 -0.5038
  740TMC3     C10937   1.894   2.237  14.150 -0.6931  0.2226  0.3394
  740TMC3     O10938   1.834   2.298  14.063 -0.2019 -0.5348 -0.3128
  740TMC3     H10939   2.094   2.122  14.283 -1.6719 -0.2366 -0.3662
  740TMC3    H110940   1.942   2.189  13.905 -0.2114 -0.5138 -0.2592
  740TMC3    H210941   2.288   1.933  13.944 -1.6736 -1.4585  1.0179
  740TMC3    C710942   2.114   2.038  13.767 -0.3788  0.2596  0.0671
  740TMC3    C810943   2.271   1.939  14.207 -0.3731 -0.1143  0.1244
  740TMC3    O110944   2.224   2.020  13.721 -0.2746 -0.6403  0.3387
  740TMC3    O210945   2.393   1.925  14.191  0.4635  0.0949 -0.5166
  741TMC3    C110946   1.601   1.572  14.169  0.0338  0.0710  0.0890
  741TMC3    C210947   1.491   1.494  14.191 -0.2025 -0.5169  0.5258
  741TMC3    C310948   1.486   1.436  14.318 -0.2396 -0.9112  0.7963
  741TMC3    C410949   1.687   1.607  14.264  0.1314 -0.0593  0.6857
  741TMC3    C510950   1.675   1.557  14.389 -0.3290  0.3285 -0.4911
  741TMC3    C610951   1.577   1.465  14.423  0.4175  0.4997 -0.2562
  741TMC3     C10952   1.618   1.636  14.040 -0.2312 -0.0183  0.2330
  741TMC3     O10953   1.725   1.695  14.019  0.2186  0.2406  0.0987
  741TMC3     H10954   1.432   1.448  14.112  1.9905 -1.7598 -0.3933
  741TMC3    H110955   1.756   1.684  14.236  1.8023 -2.6863 -2.3775
  741TMC3    H210956   1.541   1.441  14.522 -0.4569  0.8663 -0.4802
  741TMC3    C710957   1.735   1.637  14.492  0.3414 -0.3284  0.2261
  741TMC3    C810958   1.400   1.322  14.329  0.0173  0.9328  0.4061
  741TMC3    O110959   1.799   1.735  14.462 -0.0670 -0.0840  0.3290
  741TMC3    O210960   1.310   1.318  14.245  0.0742 -0.4315 -0.0467
  742TMC3    C110961   2.190   3.904  15.104 -0.2537 -0.3202 -0.9820
  742TMC3    C210962   2.061   3.869  15.113  0.9000  0.1965  0.3752
  742TMC3    C310963   2.028   3.749  15.059 -0.1121 -0.1443  0.2770
  742TMC3    C410964   2.295   3.814  15.067  0.1597 -1.1654 -0.0042
  742TMC3    C510965   2.255   3.686  15.035 -0.0264  0.3504 -0.3242
  742TMC3    C610966   2.121   3.655  15.036 -0.5122  0.2579  0.2933
  742TMC3     C10967   2.225   4.021  15.182 -0.6317 -0.5048  0.1861
  742TMC3     O10968   2.341   4.060  15.167  0.0891 -0.2548  0.5776
  742TMC3     H10969   1.993   3.953  15.111  0.1119 -0.4512  0.3466
  742TMC3    H110970   2.399   3.843  15.058 -0.5071  0.9092 -0.9428
  742TMC3    H210971   2.091   3.553  15.016  1.1061 -0.6318  2.3969
  742TMC3    C710972   2.343   3.577  15.074  0.3535  0.4765  0.1333
  742TMC3    C810973   1.893   3.748  14.997 -0.0730 -1.0887  0.3334
  742TMC3    O110974   2.452   3.551  15.020 -0.1487  0.3115 -0.2581
  742TMC3    O210975   1.905   3.693  14.889 -0.3560  0.2877  0.4116
  743MPD2     C10976   3.443   4.606   1.429 -0.5026 -0.9944  0.2407
  743MPD2    C110977   3.537   4.578   1.335  0.8700  0.2063 -0.1248
  743MPD2    C210978   3.642   4.492   1.373  0.3746  0.4203 -0.6543
  743MPD2    C310979   3.637   4.432   1.499  0.0100  0.0252  0.6549
  743MPD2    C410980   3.541   4.467   1.588  0.3528 -0.0126 -0.7970
  743MPD2    C510981   3.439   4.549   1.554 -0.1525 -0.2076  0.8229
  743MPD2     H10982   3.725   4.463   1.309  0.3498  1.0527 -0.9655
  743MPD2    H110983   3.533   4.426   1.689 -0.4552 -2.9517 -2.0310
  743MPD2    H210984   3.361   4.663   1.389  0.7075  0.1915 -0.5533
  743MPD2    H310985   3.360   4.579   1.621 -1.5063 -0.6382 -0.5919
  743MPD2     N10986   3.741   4.338   1.522  0.0749 -0.4517 -0.2754
  743MPD2    H510987   3.809   4.320   1.449  1.3077  3.0736  0.0343
  743MPD2    N110988   3.535   4.646   1.211 -0.1495 -0.1736 -0.3185
  743MPD2    H710989   3.472   0.002   1.186 -0.1289  0.2363  0.8710
  744TMC3    C110990   3.611   4.706   0.991  0.3811  0.4098 -0.2964
  744TMC3    C210991   3.509   0.080   0.985  0.1988 -0.4045  0.6596
  744TMC3    C310992   3.492   0.146   0.868  0.5395 -0.0258 -0.8613
  744TMC3    C410993   3.686   4.675   0.875  0.5983  0.3758  0.4077
  744TMC3    C510994   3.661   0.020   0.755 -0.4171  0.3936  0.2735
  744TMC3    C610995   3.567   0.118   0.754  0.0751  0.1723 -0.2528
  744TMC3     C10996   3.628   4.620   1.112  0.6778 -0.5769 -0.1483
  744TMC3     O10997   3.714   4.532   1.099 -0.2891  0.0527  0.1422
  744TMC3     H10998   3.457   0.125   1.070  2.3509 -0.3962  1.9538
  744TMC3    H110999   3.778   4.618   0.882 -1.0640 -2.5351 -1.1038
  744TMC3    H211000   3.577   0.189   0.673  1.7022 -0.6631 -0.7855
  744TMC3    C711001   3.765   0.011   0.660 -0.2152  0.5374  0.3623
  744TMC3    C811002   3.374   0.229   0.850 -0.3118  0.3528  0.1119
  744TMC3    O111003   3.793   0.096   0.584 -0.6430  0.2668  0.4149
  744TMC3    O211004   3.382   0.307   0.756  0.3755  0.4578  0.1227
  745TMC3    C111005   2.282   4.357  13.992  0.6191 -0.2096  0.4256
  745TMC3    C211006   2.216   4.304  14.099 -0.6524  0.0645  0.1905
  745TMC3    C311007   2.076   4.281  14.087  0.0097 -0.2767 -0.8775
  745TMC3    C411008   2.232   4.345  13.865 -0.1959  0.1146  0.0692
  745TMC3    C511009   2.097   4.301  13.857 -0.1160 -0.4299  0.9579
  745TMC3    C611010   2.018   4.274  13.965 -0.2501  0.6232  0.1785
  745TMC3     C11011   2.342   4.477  14.040 -0.8634 -0.4317  0.2309
  745TMC3     O11012   2.378   4.476  14.156 -0.3359  0.2819  0.5310
  745TMC3     H11013   2.258   4.304  14.198  1.6862  0.4423 -0.7999
  745TMC3    H111014   2.293   4.372  13.779  0.3314 -1.1866  0.0288
  745TMC3    H211015   1.911   4.284  13.954 -0.0720  1.9294 -0.4031
  745TMC3    C711016   2.032   4.315  13.722  0.4558 -0.2198  0.2075
  745TMC3    C811017   2.000   4.371  14.177  0.2387  0.1843  0.0433
  745TMC3    O111018   1.917   4.275  13.719  0.1396 -0.4489  0.4678
  745TMC3    O211019   1.877   4.370  14.149 -0.2963 -0.1796 -0.2320
  746TMC3    C111020   4.329   1.255  10.659  0.1576 -0.3965 -0.3442
  746TMC3    C211021   4.456   1.218  10.619  0.3918 -0.2025  0.2123
  746TMC3    C311022   4.468   1.098  10.562  0.6237  0.0292 -0.3826
  746TMC3    C411023   4.234   1.163  10.674 -0.0733 -0.2344  0.2322
  746TMC3    C511024   4.250   1.041  10.611  0.1907 -0.0249 -0.2590
  746TMC3    C611025   4.361   1.015  10.539  0.9217 -0.6571 -0.3840
  746TMC3     C11026   4.292   1.386  10.702 -0.2747  0.4133 -0.2426
  746TMC3     O11027   4.180   1.405  10.748  0.1507 -0.4410 -0.2875
  746TMC3     H11028   4.545   1.276  10.639 -1.0871  1.8151  0.9431
  746TMC3    H111029   4.132   1.191  10.697 -0.7719 -1.3046 -1.5566
  746TMC3    H211030   4.364   0.923  10.483  0.4294 -0.1971 -1.1676
  746TMC3    C711031   4.126   0.982  10.578 -0.0376  0.4029 -0.4768
  746TMC3    C811032   4.576   1.089  10.462  0.0168  0.0742  0.1799
  746TMC3    O111033   4.106   0.991  10.459 -0.0554 -0.1032 -0.3326
  746TMC3    O211034   4.615   0.975  10.436 -0.3978 -0.3971 -0.6966
  747TMC3    C111035   1.227   1.284  10.909  0.3940 -0.3020  0.1742
  747TMC3    C211036   1.235   1.185  11.001 -0.4188  0.2605  0.4042
  747TMC3    C311037   1.322   1.198  11.107  0.4617  0.2371  0.5017
  747TMC3    C411038   1.304   1.397  10.917  0.0119 -0.1684 -0.3815
  747TMC3    C511039   1.391   1.398  11.020  0.4352  1.1112  0.7032
  747TMC3    C611040   1.412   1.303  11.112 -0.6117 -0.6834  0.7160
  747TMC3     C11041   1.116   1.278  10.816 -0.2570  0.4866 -0.6320
  747TMC3     O11042   1.014   1.230  10.861 -0.1927 -0.2093 -1.2110
  747TMC3     H11043   1.163   1.105  10.996 -2.1950  1.8357  1.0608
  747TMC3    H111044   1.286   1.479  10.848 -1.6142  0.1114  0.3639
  747TMC3    H211045   1.482   1.310  11.195  0.7866  2.6562 -0.7492
  747TMC3    C711046   1.491   1.496  11.028 -0.4717  0.5276  0.1091
  747TMC3    C811047   1.306   1.102  11.214 -0.6138 -0.5332 -0.1414
  747TMC3    O111048   1.510   1.549  11.138  0.1281 -0.1071 -0.1412
  747TMC3    O211049   1.249   0.997  11.181 -0.1532 -0.3137 -0.0209
  748MPD2     C11050   2.801   1.480   1.072  0.3156  0.0732 -0.2101
  748MPD2    C111051   2.828   1.596   0.995  0.0946  0.2694 -0.6080
  748MPD2    C211052   2.952   1.647   0.992  0.3231  0.9527  0.0687
  748MPD2    C311053   3.062   1.590   1.061  0.0107  0.4705 -0.0051
  748MPD2    C411054   3.033   1.479   1.143 -0.2692 -0.4764 -1.5706
  748MPD2    C511055   2.903   1.436   1.153  0.7668  0.2058  0.4731
  748MPD2     H11056   2.977   1.726   0.922 -1.0274  0.4324 -1.0121
  748MPD2    H111057   3.112   1.419   1.187 -2.5030 -0.5464  2.3436
  748MPD2    H211058   2.698   1.448   1.081  0.2864 -0.3213 -1.9921
  748MPD2    H311059   2.888   1.358   1.227  0.1567  2.0151  2.2369
  748MPD2     N11060   3.194   1.637   1.056  0.0303 -0.5015 -0.0222
  748MPD2    H511061   3.260   1.585   1.113 -0.4956  0.5618  1.5925
  748MPD2    N111062   2.722   1.660   0.931 -0.8960  0.2740 -0.1358
  748MPD2    H711063   2.633   1.613   0.949 -0.9959  0.4463 -0.1748
  749TMC3    C111064   3.390   1.772   1.007  0.3850 -0.2894 -1.2592
  749TMC3    C211065   3.467   1.674   1.067 -0.1764 -1.0243 -0.5327
  749TMC3    C311066   3.602   1.676   1.040  0.4236 -0.0624  0.4755
  749TMC3    C411067   3.449   1.868   0.931 -0.6984 -0.1903 -0.5226
  749TMC3    C511068   3.582   1.866   0.909  0.8059 -0.5271 -0.3403
  749TMC3    C611069   3.658   1.766   0.956  0.6671  0.3875 -0.5498
  749TMC3     C11070   3.245   1.743   0.988 -0.0359 -0.1835 -0.9825
  749TMC3     O11071   3.183   1.816   0.910  0.5019 -0.3014  0.4567
  749TMC3     H11072   3.420   1.605   1.136 -1.0806 -0.7469 -0.8694
  749TMC3    H111073   3.382   1.937   0.880  0.8451  0.5104 -1.6212
  749TMC3    H211074   3.763   1.767   0.932  0.7520  1.2711 -0.1410
  749TMC3    C711075   3.643   1.982   0.856  0.7132 -0.1392  0.9308
  749TMC3    C811076   3.697   1.590   1.119  0.1107 -0.0206 -0.1445
  749TMC3    O111077   3.761   1.977   0.841  0.0821 -0.9622  0.7192
  749TMC3    O211078   3.815   1.606   1.095  0.3795  0.2465 -0.0645
  750MPD2     C11079   4.542   3.193  11.101  0.1849 -0.2113  0.1451
  750MPD2    C111080   4.403   3.174  11.111 -0.2527 -0.2922  0.3888
  750MPD2    C211081   4.352   3.046  11.090 -0.6500 -0.5487  0.1334
  750MPD2    C311082   4.441   2.951  11.050 -0.8443 -0.1843 -0.1898
  750MPD2    C411083   4.576   2.965  11.040 -0.1707  0.4178 -0.0947
  750MPD2    C511084   4.630   3.084  11.077  0.0631 -0.1602  0.2644
  750MPD2     H11085   4.250   3.019  11.112 -1.3103  2.2610  0.4998
  750MPD2    H111086   4.642   2.888  11.001  0.1465 -0.2995  1.8877
  750MPD2    H211087   4.585   3.292  11.106 -0.8628  0.1876  1.1808
  750MPD2    H311088   0.014   3.111  11.066 -0.1211 -0.1730 -1.5798
  750MPD2     N11089   4.398   2.821  11.022  0.0054  0.1184 -0.4420
  750MPD2    H511090   4.465   2.745  11.012  1.9030  1.5993  0.9539
  750MPD2    N111091   4.329   3.287  11.132  0.8021 -0.7120 -0.9369
  750MPD2    H711092   4.379   3.375  11.143 -0.6752 -0.0246  0.3469
  751TMC3    C111093   4.265   2.652  10.942 -0.3503 -0.2143 -0.0640
  751TMC3    C211094   4.139   2.597  10.920 -0.3326  0.8238  1.0835
  751TMC3    C311095   4.123   2.494  10.832  0.2319 -0.2063  0.4999
  751TMC3    C411096   4.379   2.605  10.882  0.0885  0.5459  0.6296
  751TMC3    C511097   4.356   2.494  10.807  0.7589  0.2645  0.0476
  751TMC3    C611098   4.235   2.437  10.783  0.5941 -0.5343  0.1910
  751TMC3     C11099   4.269   2.778  11.016  0.5909 -0.4363  0.3981
  751TMC3     O11100   4.157   2.832  11.028 -0.3908 -0.3235  0.0665
  751TMC3     H11101   4.048   2.650  10.943 -1.4493  0.1920 -1.8792
  751TMC3    H111102   4.480   2.642  10.885  0.6646 -1.0582  1.0735
  751TMC3    H211103   4.231   2.354  10.713 -1.7613 -1.8215  1.8487
  751TMC3    C711104   4.478   2.451  10.732  0.3012 -0.2084  0.4172
  751TMC3    C811105   3.991   2.452  10.791 -0.3571  0.0726  0.0076
  751TMC3    O111106   4.573   2.527  10.728  0.4122  0.0307  0.3953
  751TMC3    O211107   3.977   2.416  10.674  0.7213  0.6105  0.3962
  752TMC3    C111108   3.402   2.698  16.951  0.1528  0.3439 -0.1032
  752TMC3    C211109   3.448   2.586  17.003 -0.3837 -0.0415 -0.6665
  752TMC3    C311110   3.403   2.544  17.128 -0.4120  0.3518  0.3352
  752TMC3    C411111   3.316   2.770  17.032 -0.3962 -0.3254  0.1260
  752TMC3    C511112   3.274   2.726  17.154 -0.1315  0.3534 -0.6982
  752TMC3    C611113   3.321   2.614  17.210 -0.0141  0.1486 -0.0449
  752TMC3     C11114   3.464   2.741  16.829  0.5326 -0.0220  0.8988
  752TMC3     O11115   3.583   2.706  16.822  0.7558  0.6356  0.0345
  752TMC3     H11116   3.504   2.527  16.932 -2.7821 -1.4808 -1.3479
  752TMC3    H111117   3.282   2.863  16.989  1.7648  0.4783  0.1400
  752TMC3    H211118   3.310   2.588  17.315  1.6016 -2.8893 -0.6146
  752TMC3    C711119   3.189   2.823  17.233 -0.2880 -0.3075  0.0103
  752TMC3    C811120   3.457   2.420  17.176 -0.7759  0.7367  0.2402
  752TMC3    O111121   3.186   2.938  17.190 -0.5713 -0.0767 -0.1789
  752TMC3    O211122   3.378   2.362  17.249 -0.2548  0.1610  0.0005
  753TMC3    C111123   0.428   3.960  13.560  0.5105 -0.7340 -0.0248
  753TMC3    C211124   0.530   3.890  13.625 -0.0064  0.9143  0.1519
  753TMC3    C311125   0.483   3.773  13.679 -0.1064 -0.9157 -0.0016
  753TMC3    C411126   0.297   3.926  13.557 -0.0094  0.0301 -0.3231
  753TMC3    C511127   0.261   3.811  13.614  0.3706 -0.3726  0.7020
  753TMC3    C611128   0.353   3.724  13.663  0.2342 -0.7378 -0.2874
  753TMC3     C11129   0.476   4.084  13.510  0.9737 -0.0323 -0.1655
  753TMC3     O11130   0.594   4.109  13.532  0.1701 -0.1308  0.3066
  753TMC3     H11131   0.635   3.918  13.626  0.8774 -2.3427 -0.0821
  753TMC3    H111132   0.219   3.984  13.508 -1.9214 -1.0415  1.4760
  753TMC3    H211133   0.314   3.644  13.723 -2.5505 -0.3044 -1.5105
  753TMC3    C711134   0.133   3.763  13.578 -0.3416 -0.5626  0.2285
  753TMC3    C811135   0.557   3.712  13.783  0.5004 -0.5543 -0.3873
  753TMC3    O111136   0.047   3.850  13.566  0.5994 -0.0593 -0.3497
  753TMC3    O211137   0.556   3.592  13.799 -0.1551  0.0708  0.1296
  754MPD2     C11138   3.466   3.401  12.798 -0.3653 -0.1416  0.7440
  754MPD2    C111139   3.480   3.277  12.859 -0.1476  0.2560  0.4195
  754MPD2    C211140   3.383   3.181  12.831 -0.5161  0.3414  0.1348
  754MPD2    C311141   3.268   3.202  12.756 -0.2739  0.4089 -0.3739
  754MPD2    C411142   3.251   3.333  12.709 -0.7641 -0.7990  0.0644
  754MPD2    C511143   3.348   3.430  12.726 -0.6091  0.0264 -0.4835
  754MPD2     H11144   3.393   3.082  12.874 -0.1004  0.2022 -0.2808
  754MPD2    H111145   3.158   3.361  12.659  0.1507  1.2135 -0.4936
  754MPD2    H211146   3.531   3.484  12.824 -0.2228  0.5583 -1.7999
  754MPD2    H311147   3.325   3.530  12.690  0.3730  0.3029 -0.3480
  754MPD2     N11148   3.173   3.101  12.726 -0.7068  0.5516  0.3594
  754MPD2    H511149   3.103   3.134  12.661 -0.0330  0.4906 -0.3897
  754MPD2    N111150   3.595   3.250  12.942  0.6662 -0.9123  0.7819
  754MPD2    H711151   3.666   3.322  12.935 -1.9839  1.6902  0.5641
  755MPD2     C11152   2.430   3.330  12.732  1.0452  0.3224  0.0414
  755MPD2    C111153   2.397   3.195  12.754 -0.1427  0.0128 -0.1263
  755MPD2    C211154   2.472   3.091  12.704 -0.6579 -0.4821  0.3777
  755MPD2    C311155   2.592   3.129  12.641  0.3518  0.2656  0.3279
  755MPD2    C411156   2.626   3.264  12.614  0.4693 -0.1405  0.3012
  755MPD2    C511157   2.543   3.357  12.658 -0.3948  0.0377  0.3285
  755MPD2     H11158   2.444   2.991  12.735 -0.3778 -0.7472 -0.2089
  755MPD2    H111159   2.710   3.292  12.552  0.5353 -0.6670  0.1511
  755MPD2    H211160   2.370   3.415  12.761  1.1408  0.2099  0.5611
  755MPD2    H311161   2.556   3.462  12.633 -0.2953 -0.6655 -2.4590
  755MPD2     N11162   2.700   3.041  12.610 -0.2357  0.4441  0.1332
  755MPD2    H511163   2.776   3.087  12.560 -0.6122  1.0172  0.0776
  755MPD2    N111164   2.278   3.162  12.832  0.5634 -0.1192  0.7018
  755MPD2    H711165   2.253   3.064  12.829 -0.8124  0.2156  1.4718
  756MPD2     C11166   4.499   3.489   9.426  0.0389  0.3997 -0.5736
  756MPD2    C111167   4.442   3.444   9.545  0.0861 -0.2698  0.0641
  756MPD2    C211168   4.341   3.352   9.546  0.5016  0.0247 -0.0503
  756MPD2    C311169   4.313   3.301   9.427  0.5612  0.5688  0.1761
  756MPD2    C411170   4.371   3.338   9.307 -0.9531 -0.7043  0.1990
  756MPD2    C511171   4.467   3.433   9.309 -0.4844 -0.3094 -0.2169
  756MPD2     H11172   4.275   3.337   9.630  1.2921 -0.4863  0.4743
  756MPD2    H111173   4.341   3.298   9.211  1.4341 -0.8801 -0.4650
  756MPD2    H211174   4.566   3.575   9.427  0.0803  0.3761 -1.2311
  756MPD2    H311175   4.517   3.467   9.219 -1.2168  0.5121 -0.3118
  756MPD2     N11176   4.219   3.194   9.432 -0.1924  0.6672 -0.0109
  756MPD2    H511177   4.169   3.180   9.520  1.0188  1.3987  0.8011
  756MPD2    N111178   4.473   3.510   9.666 -0.2463 -0.1297  0.5799
  756MPD2    H711179   4.415   3.492   9.748 -2.5122 -0.5798 -1.1295
  757MPD2     C11180   3.605   2.410   9.012  0.4684 -0.2316 -0.9041
  757MPD2    C111181   3.582   2.416   9.148 -0.0821  0.2604  0.3414
  757MPD2    C211182   3.670   2.485   9.230  0.0448  0.5662 -0.4477
  757MPD2    C311183   3.782   2.553   9.183 -0.4677  0.1314 -0.6247
  757MPD2    C411184   3.803   2.552   9.047  0.2160 -0.4653 -0.2499
  757MPD2    C511185   3.712   2.483   8.963  0.8429  0.2069 -0.0509
  757MPD2     H11186   3.642   2.482   9.334 -3.4466 -0.5036 -1.4061
  757MPD2    H111187   3.879   2.612   8.998 -0.8586  0.3159 -0.9746
  757MPD2    H211188   3.535   2.359   8.946 -0.0068 -1.9464  0.8980
  757MPD2    H311189   3.727   2.476   8.856  0.5552 -0.0030 -0.0737
  757MPD2     N11190   3.842   2.645   9.263 -0.2672 -0.3819 -0.5377
  757MPD2    H511191   3.800   2.674   9.351 -1.1812 -1.4634 -0.6028
  757MPD2    N111192   3.471   2.339   9.194  0.0849  0.5397 -0.0766
  757MPD2    H711193   3.419   2.286   9.125 -1.8478 -0.3962  2.0649
  758MPD2     C11194   4.112   2.330  15.694  0.0030 -0.2464  0.0186
  758MPD2    C111195   4.130   2.274  15.817  0.0222 -1.0707  0.5895
  758MPD2    C211196   4.078   2.325  15.929  0.6018  0.6150  1.0411
  758MPD2    C311197   3.981   2.424  15.917  0.0555 -0.2956  0.3483
  758MPD2    C411198   3.952   2.482  15.794 -0.0396 -0.3283 -0.4119
  758MPD2    C511199   4.032   2.442  15.686 -0.4901  0.1503  0.0081
  758MPD2     H11200   4.078   2.263  16.018 -0.7315  0.6009  1.0269
  758MPD2    H111201   3.876   2.559  15.796 -1.7530 -2.0911  1.6550
  758MPD2    H211202   4.173   2.287  15.615  0.3759  0.6178 -0.1573
  758MPD2    H311203   4.021   2.493  15.591  0.5748  0.1643 -0.1040
  758MPD2     N11204   3.911   2.454  16.033  0.3089 -0.6223  0.6593
  758MPD2    H511205   3.949   2.402  16.112 -1.5168  0.4481  2.2476
  758MPD2    N111206   4.208   2.150  15.816  1.1575  0.2777  0.2194
  758MPD2    H711207   4.258   2.127  15.731 -0.5473 -1.5274 -0.2944
  759MPD2     C11208   3.579   0.440   9.489 -0.1273  0.1892  0.5683
  759MPD2    C111209   3.477   0.526   9.474 -0.0253  0.0338  0.0530
  759MPD2    C211210   3.492   0.635   9.386 -0.2295 -0.2619 -0.2381
  759MPD2    C311211   3.613   0.645   9.312 -0.2280  0.1928  0.1599
  759MPD2    C411212   3.719   0.552   9.320 -0.5009  0.3460  0.3789
  759MPD2    C511213   3.697   0.455   9.413 -0.3449 -0.0828 -0.3952
  759MPD2     H11214   3.407   0.696   9.360  0.4981  1.5169  1.5884
  759MPD2    H111215   3.813   0.552   9.267 -1.3962  0.9419 -1.2092
  759MPD2    H211216   3.585   0.364   9.565  0.4185  0.4946  0.8354
  759MPD2    H311217   3.777   0.384   9.430  0.4554  0.9597  0.2144
  759MPD2     N11218   3.624   0.755   9.225 -0.3625 -0.2226 -0.1097
  759MPD2    H511219   3.541   0.813   9.225 -0.6511 -0.6176  0.7230
  759MPD2    N111220   3.351   0.505   9.537  0.3926 -0.2490  0.1411
  759MPD2    H711221   3.270   0.557   9.505  0.9710 -1.2759 -3.0131
  760MPD2     C11222   2.194   2.722  11.725  0.0075  0.4664 -0.2569
  760MPD2    C111223   2.288   2.755  11.626 -0.2956 -0.2355 -0.3567
  760MPD2    C211224   2.348   2.647  11.566 -0.6873  0.0341  0.1525
  760MPD2    C311225   2.337   2.512  11.616 -0.9701  0.0701 -0.4145
  760MPD2    C411226   2.229   2.487  11.698  0.1406 -0.5043  0.0593
  760MPD2    C511227   2.158   2.590  11.755  0.4532 -0.2705  0.0658
  760MPD2     H11228   2.432   2.665  11.500 -0.3796  1.2609  0.8626
  760MPD2    H111229   2.210   2.388  11.737 -1.2260 -0.4014 -0.3696
  760MPD2    H211230   2.130   2.798  11.768 -1.0616 -0.6979  0.1948
  760MPD2    H311231   2.078   2.572  11.826 -0.6412  0.4071 -1.0041
  760MPD2     N11232   2.413   2.403  11.577 -0.2067  0.0874 -0.2059
  760MPD2    H511233   2.379   2.311  11.602  2.1769 -0.3815  1.2005
  760MPD2    N111234   2.313   2.886  11.587  0.4503  0.1477 -0.4076
  760MPD2    H711235   2.361   2.912  11.502 -0.0006 -0.5861 -0.8940
  761MPD2     C11236   3.554   2.218  10.930 -0.4458  0.2025  0.4317
  761MPD2    C111237   3.642   2.206  10.825  0.2081  0.2129 -0.3315
  761MPD2    C211238   3.754   2.296  10.811 -0.2010  0.5478  0.4035
  761MPD2    C311239   3.777   2.386  10.907  0.3394 -0.2078  0.1490
  761MPD2    C411240   3.690   2.400  11.016 -0.3049  0.4112 -0.2838
  761MPD2    C511241   3.581   2.317  11.024  0.6069 -0.1887 -0.0816
  761MPD2     H11242   3.824   2.279  10.730 -1.7930 -1.1914 -0.6201
  761MPD2    H111243   3.708   2.468  11.099  1.2721 -0.5848  0.1898
  761MPD2    H211244   3.471   2.150  10.947 -0.0764 -0.7664 -1.6348
  761MPD2    H311245   3.517   2.319  11.112  0.8697  1.3622  0.0713
  761MPD2     N11246   3.901   2.459  10.894  0.2617 -0.0055  0.0968
  761MPD2    H511247   3.922   2.507  10.981  1.1805  1.4744 -0.9243
  761MPD2    N111248   3.630   2.097  10.734 -0.5511  0.4932 -0.0890
  761MPD2    H711249   3.579   2.017  10.771 -1.0221  0.5175 -0.6705
  762MPD2     C11250   4.148   2.248  10.451 -0.4207 -0.5681 -0.0048
  762MPD2    C111251   4.134   2.133  10.376 -0.0196  0.3608  0.2396
  762MPD2    C211252   4.242   2.086  10.304 -0.3781 -0.0228  0.2085
  762MPD2    C311253   4.367   2.153  10.299 -0.0667 -0.2551 -0.5014
  762MPD2    C411254   4.372   2.270  10.374 -0.3887 -0.6503  0.8441
  762MPD2    C511255   4.262   2.316  10.447 -0.5646  0.2834  0.0156
  762MPD2     H11256   4.236   1.988  10.259 -0.3623 -0.4220  1.0886
  762MPD2    H111257   4.465   2.325  10.376 -0.4002 -0.6496  1.4410
  762MPD2    H211258   4.067   2.281  10.514 -1.4304 -0.6236 -1.2625
  762MPD2    H311259   4.271   2.407  10.504  0.4173 -0.1102  0.4881
  762MPD2     N11260   4.479   2.084  10.247 -0.2742 -0.1208  0.1141
  762MPD2    H511261   4.471   1.990  10.208 -1.3743  0.6478 -1.5253
  762MPD2    N111262   4.018   2.054  10.405 -0.0446  0.3800 -0.3321
  762MPD2    H711263   3.953   2.096  10.471 -1.1663  1.2757 -2.0226
  763MPD2     C11264   0.470   2.553  15.937 -0.1441  0.1429  1.0562
  763MPD2    C111265   0.584   2.488  15.976  0.7986  0.2957 -0.6735
  763MPD2    C211266   0.599   2.444  16.109  0.7907 -0.0487  0.3108
  763MPD2    C311267   0.505   2.493  16.205  0.0065 -0.0865  0.4934
  763MPD2    C411268   0.397   2.570  16.161  0.9675 -0.1580 -0.6152
  763MPD2    C511269   0.378   2.601  16.031 -0.5720 -0.1038  0.3229
  763MPD2     H11270   0.681   2.377  16.132  0.8404  0.3065  1.1772
  763MPD2    H111271   0.320   2.588  16.236  0.8417 -0.9495 -0.5542
  763MPD2    H211272   0.440   2.576  15.835  1.7914 -2.3882 -0.0775
  763MPD2    H311273   0.282   2.639  15.997  0.6870  2.4769 -0.3577
  763MPD2     N11274   0.521   2.473  16.341 -0.2836  0.0568 -0.2370
  763MPD2    H511275   0.481   2.538  16.408 -0.0225 -1.4434  1.3681
  763MPD2    N111276   0.692   2.465  15.890  0.4969 -0.1412 -0.2453
  763MPD2    H711277   0.769   2.415  15.932 -0.2917  0.2233  1.6325
  764MPD2     C11278   3.769   4.332   0.101  0.6139  0.1416 -0.8583
  764MPD2    C111279   3.759   4.242   0.003  0.4158  0.4650 -0.0361
  764MPD2    C211280   3.764   4.108   0.037 -0.3664 -0.5729  0.6560
  764MPD2    C311281   3.798   4.067   0.162  1.0654  1.1140  1.2071
  764MPD2    C411282   3.814   4.163   0.261 -0.0534  0.8809  0.2577
  764MPD2    C511283   3.792   4.295   0.231  0.2481 -0.0789  0.6925
  764MPD2     H11284   3.741   4.034  17.641  1.0121  0.2935 -0.5952
  764MPD2    H111285   3.827   4.130   0.363  1.2255 -0.3332 -0.3050
  764MPD2    H211286   3.765   4.440   0.086 -2.3780  0.2848  1.0136
  764MPD2    H311287   3.818   4.374   0.301  1.0083 -0.0970  0.4308
  764MPD2     N11288   3.791   3.925   0.186 -0.4372 -0.0407  0.0325
  764MPD2    H511289   3.746   3.870   0.114  3.0170 -1.7635 -0.8240
  764MPD2    N111290   3.740   4.287  17.549  0.4496 -0.1628  0.1538
  764MPD2    H711291   3.739   4.388  17.536 -1.3542 -0.3605 -1.2049
  765MPD2     C11292   3.685   1.573  15.854 -0.8253 -0.1907 -0.3270
  765MPD2    C111293   3.769   1.672  15.793 -0.6620  0.4261  0.5917
  765MPD2    C211294   3.897   1.635  15.760  0.6583  0.5896 -0.0904
  765MPD2    C311295   3.940   1.503  15.788  0.8642  0.0893  0.1292
  765MPD2    C411296   3.855   1.411  15.846 -0.0587  0.5548  0.5675
  765MPD2    C511297   3.732   1.451  15.883 -0.0124 -0.7885 -0.3985
  765MPD2     H11298   3.968   1.705  15.718 -0.4176  0.3707 -2.2491
  765MPD2    H111299   3.899   1.320  15.885  0.8063  0.8468  0.2670
  765MPD2    H211300   3.579   1.583  15.873 -0.8264 -0.3283 -0.2534
  765MPD2    H311301   3.660   1.387  15.934 -2.8150  1.6508 -1.2827
  765MPD2     N11302   4.059   1.467  15.718 -0.1676 -0.0156 -0.4280
  765MPD2    H511303   4.122   1.539  15.684  3.2816 -2.6825  0.2191
  765MPD2    N111304   3.706   1.792  15.757  0.5686 -0.2006 -0.2446
  765MPD2    H711305   3.606   1.785  15.767  0.3253  1.8628 -1.3499
  766MPD2     C11306   3.101   1.941  15.342  0.4548 -0.2857 -0.6568
  766MPD2    C111307   3.231   1.899  15.332  0.0896 -0.7315 -0.0860
  766MPD2    C211308   3.270   1.827  15.225 -0.7709  0.5072 -0.1218
  766MPD2    C311309   3.187   1.811  15.114  0.3477  0.3994 -0.4195
  766MPD2    C411310   3.060   1.854  15.124 -0.4419 -0.0206 -0.2003
  766MPD2    C511311   3.016   1.907  15.239  0.6328 -0.6317 -0.4719
  766MPD2     H11312   3.374   1.799  15.237 -1.1518 -1.2021 -0.7201
  766MPD2    H111313   2.988   1.834  15.045  1.5454 -0.4308 -1.8764
  766MPD2    H211314   3.063   1.993  15.429  0.0439 -0.0235 -0.9968
  766MPD2    H311315   2.911   1.925  15.258  0.8083  1.0890 -1.1434
  766MPD2     N11316   3.225   1.757  14.991 -0.2444 -0.1892  0.3497
  766MPD2    H511317   3.162   1.766  14.912  1.8553 -1.9790 -1.5425
  766MPD2    N111318   3.333   1.931  15.435 -0.5906 -0.3053 -0.3615
  766MPD2    H711319   3.421   1.884  15.418 -1.0687 -2.0048  1.9716
  767MPD2     C11320   2.847   2.132  15.069  1.1275  0.5267 -0.3739
  767MPD2    C111321   2.964   2.149  14.994 -0.2305  0.6758 -0.0596
  767MPD2    C211322   2.969   2.117  14.865  0.8011  0.0475 -0.5393
  767MPD2    C311323   2.856   2.073  14.792 -0.6284 -0.2094  0.5949
  767MPD2    C411324   2.740   2.070  14.863  0.4628  0.3328  0.7674
  767MPD2    C511325   2.735   2.098  14.995  1.3263  0.5486  0.8288
  767MPD2     H11326   3.066   2.123  14.816  0.7685  0.0966 -0.5987
  767MPD2    H111327   2.656   2.032  14.806  0.5212 -2.5882  2.6633
  767MPD2    H211328   2.832   2.142  15.176  0.0389 -0.1771 -0.4543
  767MPD2    H311329   2.641   2.062  15.037  1.0985  0.9431  0.6520
  767MPD2     N11330   2.881   2.034  14.662 -0.0265 -0.2923 -0.6323
  767MPD2    H511331   2.976   2.045  14.628 -0.1701 -0.7933 -1.1976
  767MPD2    N111332   3.077   2.187  15.075 -0.0440 -0.4552  0.3010
  767MPD2    H711333   3.056   2.207  15.172  2.5151  0.2617  0.7093
  768MPD2     C11334   4.128   0.728  10.212  0.2380 -0.4493 -0.9008
  768MPD2    C111335   4.015   0.695  10.278 -0.3967 -0.1569  0.9777
  768MPD2    C211336   4.025   0.662  10.413 -0.0639  0.3190  0.0925
  768MPD2    C311337   4.145   0.666  10.479  0.2269 -0.0130  0.1553
  768MPD2    C411338   4.258   0.697  10.411 -0.3881  0.1891 -0.2522
  768MPD2    C511339   4.244   0.720  10.276 -0.5200 -0.0434 -0.2194
  768MPD2     H11340   3.937   0.622  10.462  1.4839 -3.6626 -0.3341
  768MPD2    H111341   4.355   0.710  10.457 -1.4720  0.1667  2.0093
  768MPD2    H211342   4.126   0.762  10.110  0.3031  0.4096 -0.6184
  768MPD2    H311343   4.320   0.771  10.217  1.9370 -2.3404  0.9389
  768MPD2     N11344   4.155   0.632  10.619  0.6584 -0.4009 -0.0775
  768MPD2    H511345   4.243   0.618  10.668 -0.7242 -1.6898  2.0257
  768MPD2    N111346   3.888   0.703  10.229  0.6324 -0.2716  0.0206
  768MPD2    H711347   3.817   0.697  10.302  1.2222 -3.0002  0.3563
  769MPD2     C11348   0.438   3.425  14.700 -0.2935  0.7003 -0.5546
  769MPD2    C111349   0.313   3.451  14.755 -0.0457 -0.0348 -0.6446
  769MPD2    C211350   0.307   3.552  14.845 -0.9659 -0.1847 -0.5446
  769MPD2    C311351   0.417   3.622  14.882 -0.3169 -0.4688  0.7550
  769MPD2    C411352   0.541   3.588  14.830 -0.1396 -0.7172 -0.0260
  769MPD2    C511353   0.549   3.491  14.734  0.0151  0.0654  0.3289
  769MPD2     H11354   0.214   3.564  14.899 -2.6294 -1.6009 -3.0768
  769MPD2    H111355   0.634   3.634  14.860 -0.0702 -0.5248 -0.5263
  769MPD2    H211356   0.438   3.352  14.620  2.5155 -0.9205  0.9071
  769MPD2    H311357   0.643   3.460  14.690 -0.9487  0.8027 -2.2476
  769MPD2     N11358   0.398   3.724  14.977 -0.4167 -0.4493  0.1078
  769MPD2    H511359   0.303   3.713  15.010  0.3181  0.7640  2.6444
  769MPD2    N111360   0.206   3.364  14.728  0.0011  0.3889 -0.1776
  769MPD2    H711361   0.213   3.303  14.648 -1.8789 -0.1791  0.0972
  770MPD2     C11362   4.250   2.696  15.020 -0.4531 -0.0461  0.4330
  770MPD2    C111363   4.355   2.660  14.944 -0.1921  0.3797  0.2504
  770MPD2    C211364   4.411   2.756  14.858 -0.0942 -0.2726  0.3502
  770MPD2    C311365   4.358   2.889  14.847  0.2820  0.4583  0.1570
  770MPD2    C411366   4.243   2.920  14.923  0.9045  0.6038  0.1282
  770MPD2    C511367   4.197   2.823  15.005 -0.3935  0.0911 -0.2734
  770MPD2     H11368   4.506   2.724  14.815 -0.6635 -2.1341  0.4930
  770MPD2    H111369   4.205   3.021  14.933 -0.3587  0.2381 -1.0791
  770MPD2    H211370   4.205   2.625  15.089 -2.2657 -1.2458 -1.9879
  770MPD2    H311371   4.114   2.853  15.068 -0.7940  0.4483 -0.9755
  770MPD2     N11372   4.415   2.991  14.762  0.2455  0.3938 -1.1724
  770MPD2    H511373   4.492   2.967  14.701  0.4534  0.4488 -0.9354
  770MPD2    N111374   4.403   2.533  14.977 -0.4317  0.0109 -0.8811
  770MPD2    H711375   4.333   2.465  15.004  1.0223 -0.0225  2.8168
  771MPD2     C11376   1.017   1.568  13.737 -0.8445  0.1838  0.3390
  771MPD2    C111377   0.893   1.534  13.782 -0.1732 -0.9038 -0.5342
  771MPD2    C211378   0.796   1.503  13.692 -0.6111  0.2293 -0.1411
  771MPD2    C311379   0.813   1.494  13.561 -0.1315  0.1654 -0.5801
  771MPD2    C411380   0.937   1.524  13.509  0.2099 -0.8107  0.0014
  771MPD2    C511381   1.039   1.557  13.598  0.1437  0.0128  0.0058
  771MPD2     H11382   0.701   1.481  13.741  0.5004  1.4586  2.5794
  771MPD2    H111383   0.966   1.521  13.405  0.1300 -0.3688 -0.0315
  771MPD2    H211384   1.098   1.595  13.803 -1.4643  1.0552  0.7394
  771MPD2    H311385   1.140   1.576  13.563 -0.5854 -0.5720 -2.3732
  771MPD2     N11386   0.703   1.448  13.483  0.2279  1.2068  0.6420
  771MPD2    H511387   0.624   1.408  13.533 -0.1768  2.1733  0.7903
  771MPD2    N111388   0.852   1.520  13.917  0.5295 -0.5097 -0.0637
  771MPD2    H711389   0.755   1.495  13.934  0.2757  0.3969 -0.1768
  772MPD2     C11390   0.234   1.418  13.905 -0.6070  1.0128 -0.0288
  772MPD2    C111391   0.238   1.522  14.000 -0.2016 -0.0141  0.1498
  772MPD2    C211392   0.125   1.581  14.054 -0.1797 -0.7321 -0.4431
  772MPD2    C311393   0.005   1.533  14.011 -1.1615 -0.1282 -0.4864
  772MPD2    C411394   0.001   1.434  13.913 -0.2525  0.3795 -0.1445
  772MPD2    C511395   0.113   1.374  13.859 -0.3836  0.1802  0.4452
  772MPD2     H11396   0.134   1.660  14.127  2.1753 -2.1453  0.8097
  772MPD2    H111397   4.626   1.400  13.872  0.2512  0.9965 -1.8280
  772MPD2    H211398   0.329   1.379  13.872 -1.6849  0.4726 -2.4566
  772MPD2    H311399   0.102   1.290  13.792 -1.3561  1.0007 -0.4162
  772MPD2     N11400   4.597   1.583  14.045  0.2345  0.0480 -0.9782
  772MPD2    H511401   4.518   1.540  13.999 -1.3154  1.4272  0.3881
  772MPD2    N111402   0.358   1.573  14.038 -0.2814 -0.0486 -0.9633
  772MPD2    H711403   0.338   1.653  14.097  3.7181 -0.1254  0.4733
  773MPD2     C11404   4.297   2.792  17.137  0.5383 -0.6843 -0.2917
  773MPD2    C111405   4.202   2.746  17.229 -0.1530  0.3677 -0.0622
  773MPD2    C211406   4.237   2.656  17.325 -0.1365 -0.4520 -0.9199
  773MPD2    C311407   4.369   2.609  17.328 -0.3499 -0.6180  0.9115
  773MPD2    C411408   4.456   2.657  17.242 -0.1930  0.3329 -0.2480
  773MPD2    C511409   4.420   2.743  17.143  0.7936 -0.8857 -0.4518
  773MPD2     H11410   4.161   2.610  17.388  1.4665 -0.3563  1.0553
  773MPD2    H111411   4.562   2.635  17.243 -0.9687 -3.3496  2.7809
  773MPD2    H211412   4.263   2.859  17.059 -2.8021 -0.9516  0.8946
  773MPD2    H311413   4.499   2.783  17.080  1.3882 -0.7297  0.3942
  773MPD2     N11414   4.409   2.524  17.437  0.1367 -0.2589 -0.8144
  773MPD2    H511415   4.336   2.512  17.506  2.0275  1.8026  1.5236
  773MPD2    N111416   4.067   2.794  17.233  0.5746 -0.0759  0.4129
  773MPD2    H711417   4.000   2.746  17.293  0.1629  1.1629  0.9278
  774MPD2     C11418   3.934   2.440  13.440  0.1623  0.2595 -0.2353
  774MPD2    C111419   3.811   2.503  13.439  0.0700  0.2286  0.6054
  774MPD2    C211420   3.793   2.633  13.391  0.5031 -0.0041  0.9368
  774MPD2    C311421   3.910   2.692  13.344 -0.3698 -1.2828 -0.5827
  774MPD2    C411422   4.033   2.630  13.341 -0.3990 -0.1725  0.7626
  774MPD2    C511423   4.040   2.500  13.384 -0.3457  0.0378  0.2202
  774MPD2     H11424   3.705   2.694  13.405 -0.6577 -1.4080 -0.2287
  774MPD2    H111425   4.127   2.662  13.297 -1.3004 -0.7104 -1.5148
  774MPD2    H211426   3.942   2.338  13.474  0.1412  0.1025 -0.6930
  774MPD2    H311427   4.132   2.445  13.374 -1.0123 -1.2836  1.3074
  774MPD2     N11428   3.891   2.820  13.284  0.0212  0.6756 -0.3842
  774MPD2    H511429   3.796   2.854  13.298  0.2292  0.2840  1.8931
  774MPD2    N111430   3.708   2.428  13.504 -0.5658 -0.5139  0.3213
  774MPD2    H711431   3.729   2.334  13.535 -0.1916 -0.4997  0.1047
  775MPD2     C11432   0.352   3.654  15.535  0.4378  1.5231 -0.2930
  775MPD2    C111433   0.397   3.774  15.595 -0.6088 -0.1257  0.6734
  775MPD2    C211434   0.512   3.828  15.535  0.1296  0.3365  0.2559
  775MPD2    C311435   0.584   3.769  15.428 -0.2554 -0.3514  0.3134
  775MPD2    C411436   0.538   3.642  15.379 -0.5341 -0.5158 -0.1733
  775MPD2    C511437   0.424   3.588  15.434  0.3090 -0.5875  0.5698
  775MPD2     H11438   0.558   3.916  15.579  1.3122 -1.3744  2.4754
  775MPD2    H111439   0.582   3.581  15.301 -0.3022  2.3873 -2.2823
  775MPD2    H211440   0.267   3.596  15.571 -0.0090  1.7493 -0.9918
  775MPD2    H311441   0.401   3.487  15.403  0.3279  0.2584 -2.2018
  775MPD2     N11442   0.701   3.818  15.383 -0.1378  0.3968  0.1601
  775MPD2    H511443   0.736   3.765  15.304 -0.3399 -0.8542  0.9156
  775MPD2    N111444   0.328   3.837  15.705 -0.4213  0.4157 -0.1307
  775MPD2    H711445   0.258   3.775  15.745  0.5602 -1.3057 -1.0640
  776MPD2     C11446   4.071   4.036  10.933 -0.3062 -0.1081  0.1129
  776MPD2    C111447   4.175   3.984  11.005  0.1644  0.3067 -0.1013
  776MPD2    C211448   4.292   4.052  11.033  0.3359  0.2300 -0.2819
  776MPD2    C311449   4.303   4.183  10.978 -0.1312  0.1181 -0.1270
  776MPD2    C411450   4.196   4.238  10.902 -0.5589 -0.4287  0.0186
  776MPD2    C511451   4.083   4.160  10.883 -0.2121 -0.6609 -0.2285
  776MPD2     H11452   4.366   4.003  11.095 -0.4356 -2.5948 -1.6191
  776MPD2    H111453   4.185   4.340  10.867  1.3243  0.1116  1.0313
  776MPD2    H211454   3.974   3.990  10.919 -0.9211  0.5587  2.1251
  776MPD2    H311455   3.991   4.203  10.845 -0.5398 -0.5613  0.6688
  776MPD2     N11456   4.419   4.264  10.996  0.7128  0.1272 -1.0707
  776MPD2    H511457   4.425   4.350  10.942  4.8513 -0.8355 -2.1227
  776MPD2    N111458   4.147   3.861  11.069 -0.4742 -0.8681  0.0819
  776MPD2    H711459   4.051   3.829  11.058 -0.4841 -1.5230  1.8868
  777MPD2     C11460   4.108   0.948   0.604 -0.4670  0.3422 -0.2338
  777MPD2    C111461   4.172   0.869   0.695  0.0085  0.3544  0.8984
  777MPD2    C211462   4.215   0.743   0.652  0.1054 -0.1681 -0.9410
  777MPD2    C311463   4.197   0.703   0.519 -0.4205  0.1369  0.2217
  777MPD2    C411464   4.132   0.783   0.434 -0.0012  0.3885  0.6078
  777MPD2    C511465   4.085   0.903   0.474 -0.3144 -0.1299  0.0888
  777MPD2     H11466   4.266   0.673   0.718 -1.4477 -0.3799  0.0206
  777MPD2    H111467   4.109   0.744   0.336  0.5798 -0.8363  0.9553
  777MPD2    H211468   4.075   1.049   0.626  3.0991  1.3950  0.2812
  777MPD2    H311469   4.048   0.969   0.397 -0.2660 -3.3403 -2.6637
  777MPD2     N11470   4.249   0.574   0.478 -0.2047  0.0241  0.4472
  777MPD2    H511471   4.295   0.512   0.543  0.8783  0.6311  0.2710
  777MPD2    N111472   4.167   0.914   0.828  0.6268 -0.3063 -0.2873
  777MPD2    H711473   4.095   0.984   0.839  2.8194  2.0425 -0.8528
  778MPD2     C11474   0.807   1.039  15.211 -0.4938 -0.1200  0.4431
  778MPD2    C111475   0.726   1.012  15.104  0.0316 -0.1717 -0.4261
  778MPD2    C211476   0.764   1.055  14.980 -0.1013  0.3918 -0.2540
  778MPD2    C311477   0.864   1.143  14.968  0.1908  0.0260  0.2570
  778MPD2    C411478   0.940   1.172  15.076  0.2333  0.7376  0.3630
  778MPD2    C511479   0.912   1.119  15.196 -0.2264 -0.0187  0.6040
  778MPD2     H11480   0.714   1.019  14.890 -1.0926  4.9896 -1.5613
  778MPD2    H111481   1.034   1.225  15.060 -0.5417  1.1985 -2.7320
  778MPD2    H211482   0.789   0.992  15.307 -0.5288 -0.1004  0.4460
  778MPD2    H311483   0.977   1.144  15.279 -0.7738  0.9150  0.7478
  778MPD2     N11484   0.891   1.201  14.841  0.3757  0.3546  0.0407
  778MPD2    H511485   0.838   1.167  14.762  0.7337  1.7191 -0.7764
  778MPD2    N111486   0.607   0.934  15.114  0.3360 -0.2823 -0.0110
  778MPD2    H711487   0.562   0.909  15.027 -0.9497 -1.8860  1.1125
  779MPD2     C11488   0.827   4.713  13.892  0.8287 -0.1047 -0.1942
  779MPD2    C111489   0.887   0.008  14.015 -0.3544  0.1680  0.1420
  779MPD2    C211490   0.900   0.133  14.072  0.2264  0.1840 -0.0337
  779MPD2    C311491   0.853   0.247  14.006 -0.1184 -0.0661  0.2134
  779MPD2    C411492   0.809   0.235  13.873 -0.3790 -0.0819 -0.2541
  779MPD2    C511493   0.793   0.104  13.823 -0.1756  0.2808  0.4603
  779MPD2     H11494   0.947   0.138  14.169 -0.5448  3.5971  0.1548
  779MPD2    H111495   0.764   0.308  13.807 -2.1405 -0.5801  0.3899
  779MPD2    H211496   0.797   4.618  13.849 -1.7857  0.4919  0.3297
  779MPD2    H311497   0.750   0.086  13.724 -0.6903  1.8341  0.4023
  779MPD2     N11498   0.860   0.372  14.075 -0.0957 -0.0387 -0.6134
  779MPD2    H511499   0.889   0.377  14.172 -1.9262 -2.0025  0.0430
  779MPD2    N111500   0.943   4.614  14.063 -0.6607 -0.3958 -0.1236
  779MPD2    H711501   0.938   4.530  14.005  3.5333 -1.4163  0.9516
  780MPD2     C11502   0.261   4.486   1.224  0.2605 -0.2391  0.0184
  780MPD2    C111503   0.152   4.438   1.160 -0.1148 -0.6632 -0.2907
  780MPD2    C211504   0.141   4.472   1.021 -0.1189  0.5776  1.1175
  780MPD2    C311505   0.210   4.580   0.971 -0.6094  0.1802 -0.3353
  780MPD2    C411506   0.312   4.639   1.044  0.5995  0.7088 -0.4346
  780MPD2    C511507   0.349   4.583   1.161  0.5420 -0.1129  0.3552
  780MPD2     H11508   0.075   4.418   0.954  1.8426  2.5628 -2.3712
  780MPD2    H111509   0.372   0.003   1.011  0.8274  0.8960  0.4707
  780MPD2    H211510   0.288   4.448   1.322  2.0380 -2.7724 -1.4486
  780MPD2    H311511   0.440   4.616   1.209  0.0320  0.7523  0.7472
  780MPD2     N11512   0.176   4.623   0.844 -0.4886 -0.7862  0.1689
  780MPD2    H511513   0.094   4.581   0.801 -1.3484  0.4261  0.6175
  780MPD2    N111514   0.071   4.337   1.215  0.5539  0.3634  0.9813
  780MPD2    H711515   0.101   4.294   1.301  1.2951  0.0307  0.5580
  781MPD2     C11516   1.456   2.054  11.736 -1.0999  0.4325  0.4886
  781MPD2    C111517   1.581   2.018  11.784 -0.1665 -1.2205  0.4118
  781MPD2    C211518   1.692   2.025  11.699 -0.5520  0.4166  0.0203
  781MPD2    C311519   1.667   2.055  11.564  1.1422  0.5029  0.6310
  781MPD2    C411520   1.536   2.089  11.528  0.1730 -0.1212 -0.2878
  781MPD2    C511521   1.431   2.089  11.611  0.2427  0.6145 -0.0617
  781MPD2     H11522   1.783   1.987  11.743 -1.7139 -2.2924  0.1521
  781MPD2    H111523   1.521   2.114  11.424 -0.7638  1.3583  0.2195
  781MPD2    H211524   1.375   2.070  11.806 -1.6177 -0.5682  0.1217
  781MPD2    H311525   1.330   2.122  11.587  0.5216  1.8685  0.4536
  781MPD2     N11526   1.763   2.060  11.468 -0.2497  0.6868 -0.2726
  781MPD2    H511527   1.736   2.079  11.371  1.0591 -2.0432 -1.1806
  781MPD2    N111528   1.603   1.979  11.923  0.1417  0.2527  0.4919
  781MPD2    H711529   1.699   1.968  11.954  0.9845  1.6450 -1.6297
  782MPD2     C11530   0.022   2.574  10.074  0.1473  0.0891  0.4766
  782MPD2    C111531   0.136   2.646  10.108  0.3531 -0.9504 -0.0361
  782MPD2    C211532   0.136   2.783  10.086  0.0846 -0.4754  0.6953
  782MPD2    C311533   0.021   2.851  10.047 -0.1322 -0.1029  0.1852
  782MPD2    C411534   4.628   2.773  10.020 -0.3412 -0.9402 -0.1066
  782MPD2    C511535   4.630   2.637  10.026 -0.1015  0.8602 -0.1679
  782MPD2     H11536   0.225   2.836  10.118 -0.7423 -0.9780  3.8382
  782MPD2    H111537   4.536   2.818   9.983 -0.2383 -1.4903 -1.0352
  782MPD2    H211538   0.013   2.468  10.098  0.4652  0.3677  1.8426
  782MPD2    H311539   4.545   2.579   9.993 -1.2521  2.1116  0.5909
  782MPD2     N11540   0.001   2.991  10.039  0.6530  0.1578 -0.0231
  782MPD2    H511541   4.625   3.009  10.011  0.7854  2.0813  0.7605
  782MPD2    N111542   0.239   2.578  10.172  0.0060  0.7128 -0.1232
  782MPD2    H711543   0.224   2.478  10.181  0.1521  0.6547 -0.5082
  783MPD2     C11544   4.571   2.106  10.643 -0.1495  0.0454  0.7469
  783MPD2    C111545   4.585   2.245  10.647  0.3615 -0.6561  0.2184
  783MPD2    C211546   4.708   2.304  10.617  0.4952 -0.3970  1.0728
  783MPD2    C311547   0.095   2.229  10.582  0.7372  0.4274 -0.2045
  783MPD2    C411548   0.090   2.096  10.594 -0.4811 -0.0824  0.8239
  783MPD2    C511549   4.685   2.035  10.611 -0.1673  0.1450 -0.3708
  783MPD2     H11550   0.006   2.411  10.618  1.9470 -0.6301 -0.5276
  783MPD2    H111551   0.179   2.034  10.600 -0.1476  0.0579 -2.9775
  783MPD2    H211552   4.472   2.063  10.655 -1.0732  1.8895 -0.3259
  783MPD2    H311553   4.681   1.929  10.628  2.0090 -0.0440 -0.9488
  783MPD2     N11554   0.211   2.297  10.533 -0.0442  0.3560 -0.6308
  783MPD2    H511555   0.205   2.399  10.534 -0.4905  0.3264  1.6806
  783MPD2    N111556   4.473   2.319  10.695  0.4714  0.1943  0.0699
  783MPD2    H711557   4.393   2.268  10.731  1.8340 -0.9138  1.5232
  784MPD2     C11558   2.301   1.906   1.048  0.2812  0.1189 -0.2868
  784MPD2    C111559   2.357   2.013   0.977 -0.8178 -0.5952 -1.3301
  784MPD2    C211560   2.277   2.084   0.890  0.0633 -0.2492  0.0183
  784MPD2    C311561   2.146   2.053   0.863 -0.0856  0.3145 -0.5152
  784MPD2    C411562   2.088   1.959   0.943 -1.0451  0.4852 -0.7797
  784MPD2    C511563   2.168   1.887   1.026  0.5119 -0.0574  0.3002
  784MPD2     H11564   2.322   2.172   0.846 -2.3280  1.4640  0.9762
  784MPD2    H111565   1.987   1.921   0.934 -0.4126 -1.6786  1.2892
  784MPD2    H211566   2.351   1.854   1.129  0.7876  2.5580  0.9779
  784MPD2    H311567   2.112   1.813   1.083 -1.3844  0.4582 -0.8978
  784MPD2     N11568   2.064   2.126   0.775 -0.1831  0.6726 -0.0604
  784MPD2    H511569   1.965   2.108   0.788  0.3533 -0.1867  2.8177
  784MPD2    N111570   2.489   2.062   0.998 -0.4605 -0.5567 -0.0248
  784MPD2    H711571   2.523   2.141   0.945 -1.1799  0.6742  1.3310
  785MPD2     C11572   1.512   1.332   9.718 -0.2157 -0.0605  0.0205
  785MPD2    C111573   1.529   1.420   9.824 -0.7466 -0.5287  0.1027
  785MPD2    C211574   1.440   1.531   9.840  0.5316  0.8227 -0.2909
  785MPD2    C311575   1.325   1.542   9.760  0.3442 -0.4706  0.0449
  785MPD2    C411576   1.313   1.454   9.644 -0.2841 -0.0348  0.4979
  785MPD2    C511577   1.406   1.348   9.629 -0.0424  0.5284  0.6670
  785MPD2     H11578   1.450   1.598   9.925 -0.7441  2.6042 -1.5453
  785MPD2    H111579   1.239   1.460   9.566  2.2931 -1.7752 -2.1058
  785MPD2    H211580   1.581   1.249   9.705 -1.6960 -1.4936  1.2228
  785MPD2    H311581   1.390   1.279   9.547  0.0224  0.2822  0.8609
  785MPD2     N11582   1.224   1.644   9.788  0.2836  0.3790 -0.5311
  785MPD2    H511583   1.242   1.707   9.865  0.7626 -0.6910  0.2357
  785MPD2    N111584   1.640   1.417   9.915 -0.3882  0.3990 -0.1951
  785MPD2    H711585   1.642   1.486   9.990  2.0299  2.0855 -1.8016
  786MPD2     C11586   1.424   3.911  14.905 -0.0579 -0.7618 -0.0200
  786MPD2    C111587   1.501   3.815  14.837  0.4630 -0.8948  0.0585
  786MPD2    C211588   1.624   3.787  14.885 -0.2063 -0.5461 -0.5863
  786MPD2    C311589   1.671   3.849  14.999  0.3082  0.2032  0.4562
  786MPD2    C411590   1.592   3.939  15.068 -0.0678 -0.2639 -0.7038
  786MPD2    C511591   1.468   3.972  15.019 -0.1366 -0.4110  0.2906
  786MPD2     H11592   1.676   3.702  14.843 -0.7994 -0.6443 -1.1299
  786MPD2    H111593   1.634   3.977  15.160  0.2274  1.5396 -1.5748
  786MPD2    H211594   1.321   3.934  14.880  0.3875  0.2475 -0.9190
  786MPD2    H311595   1.401   4.042  15.069  0.9493 -0.3405  1.6585
  786MPD2     N11596   1.795   3.825  15.055 -0.0856 -0.1463 -0.0830
  786MPD2    H511597   1.817   3.872  15.142  1.1638 -1.1794  0.1704
  786MPD2    N111598   1.469   3.762  14.709 -0.8848  0.2081  0.3117
  786MPD2    H711599   1.535   3.693  14.674 -0.8794  0.1991  0.3401
  787MPD2     C11600   1.540   3.158  14.651 -0.3499 -0.3169  0.3299
  787MPD2    C111601   1.563   3.232  14.538 -0.2099  0.0028 -0.5502
  787MPD2    C211602   1.668   3.197  14.458 -0.7014  0.4090  0.5559
  787MPD2    C311603   1.751   3.090  14.480  0.7428 -0.2963  0.4069
  787MPD2    C411604   1.734   3.018  14.589  0.0467  0.3866  0.3283
  787MPD2    C511605   1.630   3.055  14.679 -0.4043 -0.9136 -0.1256
  787MPD2     H11606   1.692   3.260  14.373 -2.3794 -0.0980 -0.3085
  787MPD2    H111607   1.801   2.942  14.626 -1.5148 -0.7021  0.8938
  787MPD2    H211608   1.464   3.174  14.727  1.1085  1.1896  1.4790
  787MPD2    H311609   1.633   3.002  14.773  0.6573 -0.8568 -0.1299
  787MPD2     N11610   1.848   3.065  14.388 -0.2435  0.0269  0.0153
  787MPD2    H511611   1.847   3.116  14.300 -0.0498  0.4786  0.2801
  787MPD2    N111612   1.476   3.338  14.506  0.1405  1.0626  0.0216
  787MPD2    H711613   1.401   3.351  14.573 -0.3013 -2.3240  0.2143
  788MPD2     C11614   3.144   2.084   0.397 -0.6965 -0.0500 -0.5539
  788MPD2    C111615   3.102   1.958   0.358  0.2811 -0.1149  0.5657
  788MPD2    C211616   3.136   1.908   0.234 -0.0722  0.2790 -1.1223
  788MPD2    C311617   3.212   1.985   0.145  0.4244 -0.1323 -0.0366
  788MPD2    C411618   3.257   2.111   0.184  0.1745 -0.8773 -0.2414
  788MPD2    C511619   3.221   2.152   0.305  0.1255 -0.0634 -0.2946
  788MPD2     H11620   3.096   1.812   0.201 -0.0850 -0.9237  2.4373
  788MPD2    H111621   3.317   2.174   0.119 -1.5298  1.6710  0.6777
  788MPD2    H211622   3.127   2.127   0.495  0.8158  0.7739 -0.6470
  788MPD2    H311623   3.247   2.253   0.336  1.3327 -0.4954  0.1280
  788MPD2     N11624   3.241   1.944   0.012 -0.3044  0.4906  0.2920
  788MPD2    H511625   3.293   2.006  17.631  0.1778 -1.1865 -0.9772
  788MPD2    N111626   3.033   1.878   0.449  0.2359  0.0268  0.0662
  788MPD2    H711627   3.032   1.906   0.547  0.5659  1.8731 -0.4634
  789MPD2     C11628   3.866   1.945  16.042  0.3359  0.0004 -0.3044
  789MPD2    C111629   3.793   1.865  16.122  0.1346 -0.7396  0.1199
  789MPD2    C211630   3.675   1.909  16.181  0.1528 -0.0836 -0.2796
  789MPD2    C311631   3.635   2.036  16.152 -0.2717  0.2125  0.0050
  789MPD2    C411632   3.702   2.120  16.065  0.1312 -0.0342 -0.2349
  789MPD2    C511633   3.819   2.075  16.011  0.3496 -0.2349 -0.3987
  789MPD2     H11634   3.609   1.849  16.242  0.2583 -0.6498 -0.7250
  789MPD2    H111635   3.678   2.224  16.041  0.2566 -0.1190 -0.7223
  789MPD2    H211636   3.954   1.909  15.990  0.5244 -1.5007  1.0402
  789MPD2    H311637   3.875   2.127  15.933 -1.0462 -2.2041 -2.7162
  789MPD2     N11638   3.527   2.098  16.217  0.3942  0.2973  0.3237
  789MPD2    H511639   3.521   2.199  16.209 -0.2379  0.1545 -1.0130
  789MPD2    N111640   3.830   1.730  16.156 -0.3796  0.2922 -0.0140
  789MPD2    H711641   3.751   1.672  16.182  0.4201  0.3293  2.5059
  790MPD2     C11642   3.804   3.808  13.631  0.2306 -0.2341  0.3976
  790MPD2    C111643   3.931   3.766  13.597  0.3982 -0.1697 -0.0018
  790MPD2    C211644   3.970   3.769  13.460 -0.0789  0.1548  0.0151
  790MPD2    C311645   3.879   3.796  13.360 -0.0437  0.0896 -0.2531
  790MPD2    C411646   3.750   3.832  13.395 -0.3432  0.3142 -0.7005
  790MPD2    C511647   3.717   3.840  13.529  0.4846 -0.2586  0.2287
  790MPD2     H11648   4.069   3.740  13.427  0.8108  0.9894  1.9421
  790MPD2    H111649   3.673   3.849  13.321 -0.8199  0.6056 -0.1327
  790MPD2    H211650   3.762   3.800  13.730  0.0496  0.3932  0.3676
  790MPD2    H311651   3.619   3.873  13.561 -0.6988 -3.2862 -0.1915
  790MPD2     N11652   3.914   3.790  13.223 -0.0914  0.2876 -0.4120
  790MPD2    H511653   4.012   3.763  13.221  0.0454  0.7631  0.2214
  790MPD2    N111654   4.022   3.732  13.701 -0.8813 -0.1447  0.7891
  790MPD2    H711655   3.981   3.737  13.794 -1.4022 -2.1281  0.6687
  791MPD2     C11656   3.517   3.857  12.524 -0.1204 -0.8460  0.1038
  791MPD2    C111657   3.615   3.770  12.534 -0.5950  0.0219  0.4269
  791MPD2    C211658   3.601   3.642  12.482 -0.2096  0.5699  0.8520
  791MPD2    C311659   3.482   3.606  12.417  0.1896  0.4666 -0.2715
  791MPD2    C411660   3.382   3.701  12.407 -0.5356 -0.6784 -0.2503
  791MPD2    C511661   3.400   3.825  12.462 -0.1397 -1.0349 -0.1957
  791MPD2     H11662   3.685   3.575  12.501  1.4389  2.5805  0.5678
  791MPD2    H111663   3.290   3.662  12.365 -1.7161  0.8885  0.8762
  791MPD2    H211664   3.523   3.957  12.564  1.1535  0.1906 -2.6926
  791MPD2    H311665   3.313   3.890  12.463  0.6899  0.0706 -0.1415
  791MPD2     N11666   3.467   3.474  12.374 -0.0030  1.1484  0.2319
  791MPD2    H511667   3.546   3.411  12.379 -0.7576  0.0341 -1.8069
  791MPD2    N111668   3.726   3.810  12.616  0.0212 -0.5172  0.4363
  791MPD2    H711669   3.726   3.907  12.644 -0.7416 -0.5121  0.4078
  792MPD2     C11670   0.229   3.350  10.863 -0.5623  0.8568 -0.7160
  792MPD2    C111671   0.117   3.423  10.834 -0.6909  0.0450 -0.0070
  792MPD2    C211672   0.001   3.356  10.799 -0.4205 -0.6496  0.0825
  792MPD2    C311673   4.714   3.221  10.781  0.5237  0.0307 -0.7915
  792MPD2    C411674   0.107   3.149  10.807  0.3360 -0.2161 -0.0444
  792MPD2    C511675   0.218   3.214  10.858  0.0698 -0.9850 -0.3828
  792MPD2     H11676   4.628   3.412  10.790 -2.0783 -3.1376  1.5775
  792MPD2    H111677   0.123   3.042  10.806 -0.5204 -0.3610  1.9128
  792MPD2    H211678   0.328   3.387  10.887 -0.5483  1.6541 -2.0087
  792MPD2    H311679   0.304   3.151  10.874  0.4794 -0.6475 -1.2795
  792MPD2     N11680   4.593   3.154  10.754 -0.2418 -0.3717 -0.9825
  792MPD2    H511681   4.597   3.053  10.767 -1.6198 -0.2993 -0.0414
  792MPD2    N111682   0.113   3.555  10.877  0.5488 -0.4194  0.1373
  792MPD2    H711683   0.204   3.597  10.894  0.5621 -1.0526  1.5528
  793MPD2     C11684   4.035   3.549  10.220 -0.2017  0.0970 -0.1707
  793MPD2    C111685   4.170   3.525  10.263 -0.9099 -0.7828  0.1144
  793MPD2    C211686   4.197   3.446  10.368 -0.4064 -0.1135  0.3998
  793MPD2    C311687   4.093   3.377  10.428  0.2408 -0.3467 -0.5044
  793MPD2    C411688   3.966   3.387  10.386 -0.0894  0.0285  0.0612
  793MPD2    C511689   3.935   3.480  10.279 -0.1252 -1.0025 -0.4564
  793MPD2     H11690   4.297   3.414  10.396 -0.3350  0.4119  0.7409
  793MPD2    H111691   3.879   3.348  10.436  0.0309 -2.2250 -1.4754
  793MPD2    H211692   4.020   3.611  10.132 -0.4015 -1.6513 -1.3524
  793MPD2    H311693   3.833   3.494  10.246 -1.1799 -1.7957  2.5132
  793MPD2     N11694   4.126   3.296  10.541 -0.0441  0.0893 -0.4569
  793MPD2    H511695   4.216   3.319  10.584  0.2305 -0.5133 -0.7104
  793MPD2    N111696   4.286   3.569  10.191 -0.0428 -0.3639 -0.3516
  793MPD2    H711697   4.365   3.533  10.243  1.5135 -0.0797 -2.5365
  794MPD2     C11698   3.492   3.206  16.768  0.6415  0.1402  0.3353
  794MPD2    C111699   3.616   3.229  16.817 -0.5491  0.4092  0.0168
  794MPD2    C211700   3.698   3.313  16.752 -0.2524 -0.3279 -0.0557
  794MPD2    C311701   3.658   3.374  16.633  0.2691 -0.5548  0.4716
  794MPD2    C411702   3.531   3.356  16.591  0.3042  0.1344  0.4991
  794MPD2    C511703   3.449   3.268  16.658 -0.2531 -0.2800  0.3625
  794MPD2     H11704   3.799   3.317  16.790 -0.9527  1.5410  1.6078
  794MPD2    H111705   3.497   3.399  16.497  0.3430 -0.9641 -0.0258
  794MPD2    H211706   3.421   3.139  16.813 -1.5934  1.3602 -1.3402
  794MPD2    H311707   3.350   3.244  16.622 -0.1143  0.1818 -0.3370
  794MPD2     N11708   3.737   3.468  16.560  0.1666  0.1523  0.0593
  794MPD2    H511709   3.697   3.504  16.474  0.9412 -1.4712 -0.9728
  794MPD2    N111710   3.670   3.151  16.922  0.7048 -0.9008 -0.2545
  794MPD2    H711711   3.767   3.170  16.945  0.2113 -0.4872  1.4857
  795MPD2     C11712   1.821   0.661  12.993 -0.1993  0.5667  0.7682
  795MPD2    C111713   1.792   0.573  13.090 -0.1538  0.6112  0.1148
  795MPD2    C211714   1.884   0.543  13.192  0.2958 -0.1440 -0.2908
  795MPD2    C311715   2.012   0.602  13.185 -0.2031  0.6665  0.5302
  795MPD2    C411716   2.041   0.676  13.077 -0.1783  0.6553  0.1236
  795MPD2    C511717   1.946   0.718  12.981 -0.5121 -0.0556  0.6917
  795MPD2     H11718   1.864   0.467  13.267 -0.4652  0.4924  0.1623
  795MPD2    H111719   2.140   0.719  13.061 -0.6712  1.3659 -1.0015
  795MPD2    H211720   1.751   0.678  12.911  1.5540 -0.1100 -0.8743
  795MPD2    H311721   1.966   0.790  12.903 -0.6156 -0.5884  0.1709
  795MPD2     N11722   2.105   0.574  13.288 -0.2267 -0.6969 -0.2324
  795MPD2    H511723   2.075   0.509  13.360 -0.3542 -1.1640 -0.7104
  795MPD2    N111724   1.663   0.525  13.080 -0.2962  0.2782 -0.2542
  795MPD2    H711725   1.611   0.565  13.003 -0.8061  3.4548  1.7620
  796MPD2     C11726   2.117   1.983  16.165 -0.2636  0.1936  0.7033
  796MPD2    C111727   2.026   1.948  16.259  0.1437 -0.0982 -0.0933
  796MPD2    C211728   1.901   2.002  16.243  0.0869 -0.5766 -0.4905
  796MPD2    C311729   1.868   2.087  16.141  0.0135  0.2512  0.5020
  796MPD2    C411730   1.960   2.118  16.046 -0.0229  0.2834 -0.6759
  796MPD2    C511731   2.085   2.066  16.062  0.2528 -0.1847  0.7207
  796MPD2     H11732   1.826   1.979  16.317 -1.9715  0.9941 -2.0975
  796MPD2    H111733   1.947   2.186  15.962  1.2987  4.3760  2.4464
  796MPD2    H211734   2.209   1.925  16.165 -1.0275 -1.0147  1.0773
  796MPD2    H311735   2.162   2.091  15.989 -1.8103 -2.2812 -2.1687
  796MPD2     N11736   1.729   2.122  16.136 -0.2094 -0.1626 -0.1791
  796MPD2    H511737   1.672   2.077  16.207 -2.0945  2.2105 -0.2055
  796MPD2    N111738   2.068   1.849  16.353  0.1351 -0.7509 -0.1829
  796MPD2    H711739   2.162   1.814  16.344 -1.1523 -3.3770 -3.2470
  797MPD2     C11740   2.811   0.760  17.286 -0.3685  0.5759 -0.0273
  797MPD2    C111741   2.945   0.806  17.284  0.4888  0.7055  0.3520
  797MPD2    C211742   3.002   0.873  17.173 -0.0851  0.9136 -1.2654
  797MPD2    C311743   2.924   0.894  17.063 -0.3746  0.3741 -0.9055
  797MPD2    C411744   2.795   0.851  17.066  0.0255 -0.7225  0.0363
  797MPD2    C511745   2.737   0.787  17.174  0.4346 -0.0023 -0.6297
  797MPD2     H11746   3.098   0.924  17.182  0.5030 -0.2746 -0.6912
  797MPD2    H111747   2.739   0.858  16.973  1.7011  0.8455 -0.8432
  797MPD2    H211748   2.763   0.720  17.375  0.6238  0.0552  0.2776
  797MPD2    H311749   2.636   0.748  17.169  0.5754 -0.5549  0.9118
  797MPD2     N11750   2.983   0.952  16.950  0.3699  0.0088 -0.9401
  797MPD2    H511751   3.084   0.964  16.954 -0.1650  4.3817 -0.6159
  797MPD2    N111752   3.031   0.792  17.395 -0.0966  1.1234  0.6066
  797MPD2    H711753   3.130   0.815  17.389 -0.1523  1.1178 -0.3300
  798MPD2     C11754   3.445   1.369  17.222  0.8359  0.1998 -0.0014
  798MPD2    C111755   3.376   1.263  17.171  0.0933 -0.2172 -0.4380
  798MPD2    C211756   3.345   1.158  17.260  0.5566 -0.1776  0.6259
  798MPD2    C311757   3.388   1.166  17.395  0.6207  0.3171  0.0892
  798MPD2    C411758   3.465   1.274  17.439 -0.5266 -0.6421 -0.1564
  798MPD2    C511759   3.492   1.369  17.345  1.4083  0.8370 -0.8732
  798MPD2     H11760   3.280   1.074  17.239 -0.7211  1.0430 -0.2766
  798MPD2    H111761   3.492   1.300  17.541  0.1316  0.3778 -0.5952
  798MPD2    H211762   3.464   1.450  17.153 -0.2463  0.4030 -0.0609
  798MPD2    H311763   3.552   1.451  17.383 -0.3325  1.4866  0.4536
  798MPD2     N11764   3.347   1.059  17.476 -0.3962 -0.1741 -0.2945
  798MPD2    H511765   3.279   0.996  17.435  1.3912 -0.6988 -2.4010
  798MPD2    N111766   3.333   1.271  17.037  0.4027  0.2146 -0.0044
  798MPD2    H711767   3.348   1.358  16.987 -0.7572 -0.2529 -1.1716
  799MPD2     C11768   1.076   3.299  14.287  0.5319  0.3942  0.5369
  799MPD2    C111769   1.028   3.194  14.210  0.5398  0.1082 -0.0037
  799MPD2    C211770   0.998   3.216  14.075  0.3070 -0.6901  1.1688
  799MPD2    C311771   1.032   3.333  14.009 -0.6429 -0.0784 -0.1908
  799MPD2    C411772   1.080   3.437  14.085  0.0887 -0.6179  0.9029
  799MPD2    C511773   1.093   3.420  14.222 -0.2967  0.3600  0.4884
  799MPD2     H11774   0.963   3.133  14.015 -1.1871  0.7232  0.0865
  799MPD2    H111775   1.086   3.536  14.041  1.3006 -2.0378 -2.1170
  799MPD2    H211776   1.087   3.295  14.395 -1.5536 -0.1911  0.7392
  799MPD2    H311777   1.124   3.504  14.284  0.6149  2.3279 -2.5937
  799MPD2     N11778   1.030   3.355  13.873 -0.1963 -0.0577 -0.2454
  799MPD2    H511779   1.075   3.442  13.846  0.9448  0.1551  2.2608
  799MPD2    N111780   1.010   3.066  14.271 -0.1838 -0.2505  0.1573
  799MPD2    H711781   0.960   2.998  14.215  1.5067 -0.5418 -1.0028
  800MPD2     C11782   1.978   0.114  14.396 -0.5462  0.0619 -0.2179
  800MPD2    C111783   2.107   0.083  14.369  0.8095  0.7962 -1.3032
  800MPD2    C211784   2.146   4.676  14.323  0.0064  0.4371 -0.2726
  800MPD2    C311785   2.047   4.587  14.286  0.1046  0.8043 -0.0252
  800MPD2    C411786   1.912   4.622  14.299 -0.5962  0.3745 -0.1930
  800MPD2    C511787   1.881   0.017  14.361  0.3313  0.0546 -0.1703
  800MPD2     H11788   2.250   4.652  14.304  0.3713  1.0656  0.8777
  800MPD2    H111789   1.827   4.560  14.275 -0.3949 -0.1868  0.5370
  800MPD2    H211790   1.953   0.211  14.435 -1.9087 -0.0449 -0.8019
  800MPD2    H311791   1.776   0.043  14.357  0.6791  1.5997  0.8119
  800MPD2     N11792   2.086   4.467  14.228 -0.0425 -0.4096 -0.2214
  800MPD2    H511793   2.187   4.464  14.228 -0.0534 -0.6959  0.4335
  800MPD2    N111794   2.206   0.179  14.407 -0.2105 -0.0355  1.1199
  800MPD2    H711795   2.170   0.273  14.418  0.8171  0.5292 -0.3198
  801MPD2     C11796   2.283   0.874  14.290  0.4098 -0.0711 -0.2889
  801MPD2    C111797   2.231   0.746  14.289 -0.4485 -0.0897 -0.2330
  801MPD2    C211798   2.095   0.739  14.277 -0.1379  0.7644 -0.0845
  801MPD2    C311799   2.004   0.845  14.290 -0.3123  0.5413  0.0086
  801MPD2    C411800   2.060   0.969  14.280  0.1051  0.4290  0.1781
  801MPD2    C511801   2.197   0.980  14.277 -0.1991 -0.4132 -0.4504
  801MPD2     H11802   2.054   0.639  14.283  2.2606 -0.2908 -1.2181
  801MPD2    H111803   2.005   1.063  14.283  0.2616  0.5311 -0.1686
  801MPD2    H211804   2.391   0.882  14.291  0.5104 -1.3848 -1.3515
  801MPD2    H311805   2.240   1.079  14.279 -1.3162  0.0322  1.8558
  801MPD2     N11806   1.867   0.830  14.304  0.6310  0.6360 -0.3339
  801MPD2    H511807   1.808   0.910  14.322  0.7253  0.5975  0.1462
  801MPD2    N111808   2.308   0.627  14.292  0.1694  0.5345  0.3178
  801MPD2    H711809   2.251   0.543  14.287  2.2001 -0.9349  1.9441
  802MPD2     C11810   1.066   0.201  17.230  0.8409  0.1705  0.1350
  802MPD2    C111811   1.157   0.164  17.328  0.2368 -0.3091  0.2716
  802MPD2    C211812   1.259   0.080  17.290 -0.0679 -0.4296 -0.4599
  802MPD2    C311813   1.284   0.041  17.160 -0.5638  0.0856 -0.5586
  802MPD2    C411814   1.199   0.088  17.067 -0.1764 -0.5840  0.0997
  802MPD2    C511815   1.090   0.170  17.099  0.0492  0.0763 -0.6582
  802MPD2     H11816   1.334   0.058  17.365 -0.9696  0.2281  0.6263
  802MPD2    H111817   1.219   0.061  16.964  1.6354  1.5870 -0.1202
  802MPD2    H211818   1.002   0.287  17.249  0.2395  0.3585 -2.7650
  802MPD2    H311819   1.033   0.216  17.019 -1.8869 -2.1956 -0.6109
  802MPD2     N11820   1.386   4.668  17.129  0.4618  0.4030  0.3199
  802MPD2    H511821   1.413   4.664  17.031 -0.9618 -1.0222 -0.0043
  802MPD2    N111822   1.162   0.219  17.452 -0.7106  0.2159  0.7590
  802MPD2    H711823   1.239   0.200  17.515 -0.3007 -0.0894  0.1709
  803MPD2     C11824   2.377   3.603  11.705 -0.0065 -0.3811  0.4063
  803MPD2    C111825   2.470   3.575  11.800  0.4405 -0.2551 -0.1118
  803MPD2    C211826   2.431   3.491  11.905  0.0860 -0.1665 -0.5262
  803MPD2    C311827   2.305   3.441  11.915 -0.2037 -0.0475 -0.1627
  803MPD2    C411828   2.213   3.466  11.816 -0.1969 -0.4654  0.6286
  803MPD2    C511829   2.255   3.538  11.708 -0.4776 -0.3725 -0.1654
  803MPD2     H11830   2.500   3.468  11.986 -2.1620 -0.9587  1.1660
  803MPD2    H111831   2.118   3.416  11.808 -1.2259  1.4784  0.6452
  803MPD2    H211832   2.404   3.665  11.620 -2.4323  0.5530  0.3413
  803MPD2    H311833   2.182   3.561  11.631  1.1306 -0.5018 -1.7433
  803MPD2     N11834   2.271   3.342  12.012  0.4734  0.2932  0.1757
  803MPD2    H511835   2.175   3.312  12.023  0.2218  0.8262 -0.5427
  803MPD2    N111836   2.606   3.618  11.803 -0.1477 -0.5523 -0.1926
  803MPD2    H711837   2.660   3.584  11.882 -3.1350 -0.4110  1.9041
  804MPD2     C11838   2.031   4.485  17.088 -0.1488 -0.4502  0.1617
  804MPD2    C111839   2.037   4.467  17.224 -0.3661  0.2054  0.5612
  804MPD2    C211840   2.109   4.559  17.297  0.8860  0.6177 -0.7249
  804MPD2    C311841   2.151   4.678  17.245 -0.7578 -0.3725 -0.3958
  804MPD2    C411842   2.133   4.695  17.112 -0.6401  0.4486  0.1541
  804MPD2    C511843   2.076   4.602  17.033  0.3928 -0.7556  0.1257
  804MPD2     H11844   2.123   4.533  17.401  0.1187  0.8919 -0.5577
  804MPD2    H111845   2.150   0.078  17.082  0.3163 -0.0035 -0.8089
  804MPD2    H211846   1.997   4.413  17.015 -0.9335 -1.4012  1.4562
  804MPD2    H311847   2.047   4.623  16.931 -0.4503  2.4074  1.0246
  804MPD2     N11848   2.225   0.038  17.327 -0.5354 -0.2072  0.2425
  804MPD2    H511849   2.220   0.021  17.427  1.7895 -2.1421  0.0502
  804MPD2    N111850   2.021   4.337  17.280  0.4318 -0.2920  0.9531
  804MPD2    H711851   2.036   4.336  17.380  0.6556  1.2721  0.9320
  805MPD2     C11852   0.910   3.609  15.510 -0.0308  0.3888  0.4479
  805MPD2    C111853   1.021   3.561  15.440 -0.3743 -0.1647  0.1113
  805MPD2    C211854   1.147   3.558  15.507  0.2646 -1.4662  0.2106
  805MPD2    C311855   1.151   3.581  15.642  0.7030 -0.0667  0.2747
  805MPD2    C411856   1.041   3.620  15.710 -0.2602  0.2676  0.5217
  805MPD2    C511857   0.929   3.644  15.640 -0.1984  0.1221  0.3271
  805MPD2     H11858   1.236   3.545  15.448 -0.1805 -2.5605 -0.2203
  805MPD2    H111859   1.050   3.656  15.812  1.7677 -1.3956  0.9330
  805MPD2    H211860   0.816   3.625  15.459  0.4681  2.3080  0.1106
  805MPD2    H311861   0.848   3.691  15.695 -0.3638 -0.2779  0.4272
  805MPD2     N11862   1.277   3.552  15.710  0.5210 -0.0024  0.1785
  805MPD2    H511863   1.353   3.517  15.652 -2.1333 -1.9730 -2.1197
  805MPD2    N111864   1.022   3.540  15.293  0.2331 -0.4445 -0.0359
  805MPD2    H711865   1.091   3.473  15.262 -0.1349 -0.5102 -0.7027
  806MPD2     C11866   1.563   2.186   0.038  0.3846  0.0267 -0.6330
  806MPD2    C111867   1.635   2.218   0.150 -0.0352  0.0616 -0.0871
  806MPD2    C211868   1.720   2.328   0.142 -0.0495  0.0295  0.1345
  806MPD2    C311869   1.729   2.406   0.029  0.7235 -0.3450  0.5163
  806MPD2    C411870   1.658   2.364  17.593  0.2705 -0.3160 -0.2801
  806MPD2    C511871   1.575   2.253  17.599 -0.5661 -0.7608  0.2251
  806MPD2     H11872   1.785   2.352   0.225 -0.5410 -0.4919  0.6613
  806MPD2    H111873   1.653   2.419  17.500 -1.0243  0.6734  0.3644
  806MPD2    H211874   1.511   2.091   0.027  1.8129 -1.2819  3.4802
  806MPD2    H311875   1.522   2.215  17.511  1.0484 -0.0054 -1.0617
  806MPD2     N11876   1.826   2.507   0.024  0.2131  0.1153  0.4340
  806MPD2    H511877   1.859   2.532   0.117 -0.5629 -0.9213  0.9810
  806MPD2    N111878   1.631   2.136   0.267 -0.1282  0.1951  0.4894
  806MPD2    H711879   1.569   2.057   0.253  1.1485 -0.6544 -0.4168
  807MPD2     C11880   1.763   1.979   1.131  0.4660 -0.0881  0.5675
  807MPD2    C111881   1.691   1.883   1.056 -0.1392  0.0820 -0.4731
  807MPD2    C211882   1.617   1.787   1.126 -0.3315  0.5839 -0.3391
  807MPD2    C311883   1.609   1.794   1.262 -0.3378 -0.5407 -0.1246
  807MPD2    C411884   1.681   1.892   1.325  0.1208 -0.4353 -0.4660
  807MPD2    C511885   1.756   1.992   1.266  0.3149 -0.7781 -0.5095
  807MPD2     H11886   1.565   1.708   1.074 -2.4698  0.4199  2.0416
  807MPD2    H111887   1.681   1.902   1.433  0.7974 -0.7609 -0.4358
  807MPD2    H211888   1.815   2.061   1.084  2.8374 -1.8404  0.1196
  807MPD2    H311889   1.816   2.066   1.317 -0.2524 -1.1836  0.7474
  807MPD2     N11890   1.539   1.696   1.336  0.1116  0.1806  0.6883
  807MPD2    H511891   1.502   1.612   1.291  1.9317  0.7071 -1.7588
  807MPD2    N111892   1.665   1.877   0.917 -0.3292 -1.2768 -0.4856
  807MPD2    H711893   1.603   1.805   0.881 -1.3228  0.2071 -1.7595
  808MPD2     C11894   2.002   4.037   9.257 -0.5354 -0.0363 -0.7351
  808MPD2    C111895   2.065   3.984   9.368  0.4629  0.1098  0.5216
  808MPD2    C211896   2.200   4.021   9.385 -0.0895  0.6134 -0.3617
  808MPD2    C311897   2.260   4.105   9.296 -0.0929  1.0860 -0.2869
  808MPD2    C411898   2.187   4.160   9.191  0.0588  0.0512  0.3574
  808MPD2    C511899   2.057   4.128   9.178  0.8693 -0.0843 -0.3212
  808MPD2     H11900   2.255   3.996   9.475 -1.6421  0.7478  0.6313
  808MPD2    H111901   2.240   4.217   9.116 -0.9202 -0.2173 -0.5198
  808MPD2    H211902   1.906   3.999   9.225 -0.5802  0.6975 -1.4616
  808MPD2    H311903   2.011   4.169   9.089  1.0550 -0.9189 -0.8060
  808MPD2     N11904   2.393   4.140   9.314 -0.0535  0.1480  0.2856
  808MPD2    H511905   2.425   4.222   9.262 -0.5270  1.4058  1.9684
  808MPD2    N111906   2.000   3.891   9.458  0.1385  0.5780  0.1926
  808MPD2    H711907   2.068   3.831   9.503  1.0589  0.6315 -1.1382
  809MPD2     C11908   3.462   4.036   9.246 -0.2676  0.1767 -0.5550
  809MPD2    C111909   3.438   4.154   9.309 -0.0385 -0.2333 -0.8725
  809MPD2    C211910   3.310   4.179   9.346  0.7058 -1.0327 -0.3902
  809MPD2    C311911   3.208   4.087   9.321 -0.1164 -0.1372 -0.1352
  809MPD2    C411912   3.238   3.968   9.269  0.5986 -0.0204  0.3204
  809MPD2    C511913   3.362   3.954   9.223  0.4207  0.3651 -0.4824
  809MPD2     H11914   3.284   4.272   9.396 -1.4422 -1.1807 -1.2136
  809MPD2    H111915   3.159   3.896   9.248  1.4897 -0.6484 -0.8573
  809MPD2    H211916   3.559   4.005   9.209 -0.4229  1.3643 -1.9230
  809MPD2    H311917   3.391   3.866   9.167 -0.1702  0.2703 -0.6432
  809MPD2     N11918   3.076   4.124   9.360  0.7351  0.1743  0.3162
  809MPD2    H511919   3.074   4.217   9.402 -0.8016 -0.1016  0.8817
  809MPD2    N111920   3.538   4.246   9.340 -0.8948  0.0893 -0.1361
  809MPD2    H711921   3.519   4.331   9.392  0.8168  1.4324 -1.7075
  810MPD2     C11922   1.545   4.042  10.954  0.2420 -0.3970  0.5109
  810MPD2    C111923   1.606   4.037  10.830 -0.3294  0.1249  0.5934
  810MPD2    C211924   1.609   4.145  10.746  0.4055 -0.2826 -0.1198
  810MPD2    C311925   1.540   4.258  10.785 -0.4530  0.3151  0.1175
  810MPD2    C411926   1.490   4.271  10.907  0.3727  0.3541  0.1680
  810MPD2    C511927   1.493   4.165  11.000  1.2377  0.1721  1.3401
  810MPD2     H11928   1.655   4.148  10.647  2.0135 -0.6360  0.6173
  810MPD2    H111929   1.450   4.368  10.936  0.7759  0.1637  1.3588
  810MPD2    H211930   1.545   3.954  11.018  1.3298 -0.8754 -0.1375
  810MPD2    H311931   1.458   4.171  11.102 -1.6388  2.7583  0.2187
  810MPD2     N11932   1.521   4.374  10.702 -0.0325 -0.2601  0.1329
  810MPD2    H511933   1.467   4.446  10.749  1.4022 -0.5126  2.2084
  810MPD2    N111934   1.674   3.919  10.804  0.7181 -0.2761  0.3573
  810MPD2    H711935   1.673   3.853  10.881  0.2074 -0.5815  0.0884
  811MPD2     C11936   1.502   3.514  10.100  0.0469  0.0796  0.4619
  811MPD2    C111937   1.606   3.588  10.141  0.3855 -0.5742 -0.7416
  811MPD2    C211938   1.649   3.689  10.059 -0.1817 -0.2499  0.0530
  811MPD2    C311939   1.579   3.715   9.937 -0.5558  0.4218  0.2354
  811MPD2    C411940   1.477   3.636   9.899 -0.7813  0.5336  0.4269
  811MPD2    C511941   1.442   3.531   9.978  0.2977  0.5585 -0.5895
  811MPD2     H11942   1.731   3.755  10.086  0.7369 -0.5256 -2.0659
  811MPD2    H111943   1.424   3.660   9.807 -0.4341 -0.3728 -0.0148
  811MPD2    H211944   1.464   3.439  10.168 -0.8176  0.7233  0.6804
  811MPD2    H311945   1.355   3.472   9.950  0.6304 -1.6897  3.0850
  811MPD2     N11946   1.622   3.833   9.863 -0.0236  0.2586 -0.2351
  811MPD2    H511947   1.694   3.891   9.904  0.1850  0.2695 -0.6181
  811MPD2    N111948   1.645   3.570  10.278  0.0451  0.0345  0.4037
  811MPD2    H711949   1.584   3.522  10.344 -0.2079 -0.1057  0.0692
  812MPD2     C11950   0.254   3.997  12.258 -0.5995 -0.2716 -0.1421
  812MPD2    C111951   0.121   3.996  12.286  0.1391 -0.6247 -0.5445
  812MPD2    C211952   0.063   3.899  12.363  0.0348  0.5221  0.0535
  812MPD2    C311953   0.144   3.804  12.422 -0.1379  0.7063 -0.2172
  812MPD2    C411954   0.278   3.806  12.388  0.3297 -0.5491  0.2243
  812MPD2    C511955   0.328   3.904  12.311  0.1299  0.0297 -0.1853
  812MPD2     H11956   4.684   3.907  12.407 -1.2860 -1.4561 -2.5710
  812MPD2    H111957   0.341   3.727  12.426 -1.8703 -2.1348  0.6016
  812MPD2    H211958   0.304   4.068  12.192 -0.7784  0.6226  0.6852
  812MPD2    H311959   0.435   3.921  12.310 -0.1036  1.5278 -0.3850
  812MPD2     N11960   0.088   3.715  12.520  0.1776  0.2618  0.5975
  812MPD2    H511961   4.707   3.727  12.531 -0.3035 -2.3612 -0.9105
  812MPD2    N111962   0.043   4.099  12.223  0.3212  0.7220  0.4117
  812MPD2    H711963   0.091   4.160  12.158 -0.5936 -0.8552 -1.7402
  813MPD2     C11964   4.490   0.890  12.584 -0.4675 -0.0560  0.2821
  813MPD2    C111965   4.504   1.027  12.563  0.2763 -0.4348  0.8131
  813MPD2    C211966   4.429   1.115  12.647  1.2687  0.3695  0.0657
  813MPD2    C311967   4.337   1.068  12.740 -0.5190  0.1081  0.7623
  813MPD2    C411968   4.332   0.930  12.760 -0.0012 -0.3197 -0.5249
  813MPD2    C511969   4.403   0.841  12.680 -1.0032  0.1649 -0.2523
  813MPD2     H11970   4.420   1.220  12.623 -1.3502 -0.6638 -3.3603
  813MPD2    H111971   4.268   0.881  12.832 -1.5843  1.7412 -0.5395
  813MPD2    H211972   4.547   0.819  12.525 -2.4105  0.0128 -1.6924
  813MPD2    H311973   4.402   0.733  12.691  0.1512  0.2600  0.7124
  813MPD2     N11974   4.258   1.160  12.816 -0.0497 -0.2311 -0.1883
  813MPD2    H511975   4.267   1.257  12.789 -1.3323  0.9723  3.7583
  813MPD2    N111976   4.591   1.080  12.458 -0.3036 -0.1247  0.0443
  813MPD2    H711977   4.628   1.015  12.390 -1.4134  1.7270 -2.2957
  814MPD2     C11978   4.455   2.001  12.107 -0.1339 -0.2665  0.0394
  814MPD2    C111979   4.507   2.092  12.018  0.4443  0.4958 -0.0587
  814MPD2    C211980   4.582   2.197  12.070  0.2737 -0.6836 -0.0073
  814MPD2    C311981   4.587   2.213  12.211 -0.1853  0.5462 -0.3498
  814MPD2    C411982   4.524   2.129  12.296 -0.6495 -0.2786  0.2312
  814MPD2    C511983   4.460   2.026  12.241  0.5852  0.0388  0.9402
  814MPD2     H11984   4.643   2.250  11.998  0.9688 -0.4514  0.7506
  814MPD2    H111985   4.539   2.137  12.403 -1.3084 -1.6765  0.4239
  814MPD2    H211986   4.407   1.912  12.068 -2.9551  2.2390 -2.2665
  814MPD2    H311987   4.421   1.949  12.307  2.3964 -2.1762 -0.5633
  814MPD2     N11988   4.660   2.316  12.266 -0.4309 -0.9227 -0.1609
  814MPD2    H511989   4.646   2.328  12.366 -0.3902  2.7744 -0.5891
  814MPD2    N111990   4.517   2.067  11.879 -0.0705 -0.4587  0.1809
  814MPD2    H711991   4.559   2.139  11.822 -0.1162 -0.7507 -0.2226
  815MPD2     C11992   0.412   0.901  11.530  0.4243 -0.0634 -0.0512
  815MPD2    C111993   0.360   0.776  11.563 -0.5890 -0.3379 -0.6403
  815MPD2    C211994   0.234   0.780  11.627  0.5786  0.0259  0.8359
  815MPD2    C311995   0.158   0.895  11.644 -0.1029 -0.8647 -0.5988
  815MPD2    C411996   0.204   1.017  11.599  0.6157 -0.3668 -0.3928
  815MPD2    C511997   0.333   1.017  11.544  0.5244  0.0399 -0.4904
  815MPD2     H11998   0.192   0.685  11.660  0.2872 -0.7061 -1.6591
  815MPD2    H111999   0.157   1.114  11.594  0.0484 -0.6311 -0.1378
  815MPD2    H212000   0.503   0.906  11.470  0.6938 -0.6412  0.3131
  815MPD2    H312001   0.368   1.106  11.492 -1.5535  1.0286 -0.2095
  815MPD2     N12002   0.033   0.881  11.703 -0.7482  0.0951 -0.0180
  815MPD2    H512003   0.008   0.790  11.741 -0.9092  0.0596 -0.2101
  815MPD2    N112004   0.423   0.659  11.517 -0.1927 -0.2272 -0.0683
  815MPD2    H712005   0.491   0.676  11.444 -0.1367  1.0400  0.2946
  816MPD2     C12006   0.537   4.061  17.303  0.1915  0.5318  0.5474
  816MPD2    C112007   0.559   4.189  17.352  0.2848 -0.7612  0.3665
  816MPD2    C212008   0.683   4.244  17.326 -1.3252 -0.2374  0.5377
  816MPD2    C312009   0.782   4.181  17.252  0.7421  0.5603 -0.3438
  816MPD2    C412010   0.753   4.064  17.196  0.6831  0.1189 -0.0710
  816MPD2    C512011   0.628   4.008  17.217  0.0795  0.4636 -0.2380
  816MPD2     H12012   0.702   4.344  17.363 -0.6361 -0.4608  0.7919
  816MPD2    H112013   0.822   4.025  17.121 -0.2934 -3.1436  0.7011
  816MPD2    H212014   0.438   4.017  17.307 -0.0229  0.9764  0.0982
  816MPD2    H312015   0.625   3.904  17.186  2.6079  0.7590 -1.4431
  816MPD2     N12016   0.899   4.255  17.225  0.2813  0.3779 -0.1443
  816MPD2    H512017   0.911   4.337  17.283 -0.5939  1.9874 -2.2624
  816MPD2    N112018   0.457   4.262  17.413 -0.1951 -0.4630 -0.5770
  816MPD2    H712019   0.366   4.221  17.397 -0.0359 -1.0139 -0.0578
  817MPD2     C12020   0.594   1.172   9.667  0.6548 -0.0169 -0.4925
  817MPD2    C112021   0.601   1.127   9.539 -0.3189  0.5456 -0.4072
  817MPD2    C212022   0.549   1.200   9.433 -0.7766  0.1224 -0.2961
  817MPD2    C312023   0.467   1.309   9.457 -0.2271  0.0258 -0.1509
  817MPD2    C412024   0.453   1.353   9.592  1.1260 -0.5035  0.4379
  817MPD2    C512025   0.524   1.289   9.687 -0.3167 -0.0981 -0.1511
  817MPD2     H12026   0.571   1.176   9.329 -1.0062  1.0111 -0.5573
  817MPD2    H112027   0.386   1.430   9.630 -1.0187 -1.1663 -2.0295
  817MPD2    H212028   0.645   1.137   9.756 -1.0562 -0.5849  0.2566
  817MPD2    H312029   0.509   1.328   9.787 -0.9137 -0.5485 -0.0677
  817MPD2     N12030   0.427   1.390   9.349 -0.3833 -0.5786 -0.2391
  817MPD2    H512031   0.449   1.370   9.253  0.9177  0.8712 -0.2470
  817MPD2    N112032   0.673   1.013   9.501 -0.0195 -0.5111  0.3864
  817MPD2    H712033   0.637   0.978   9.412  1.4714 -2.0776  0.3942
  818MPD2     C12034   4.153   1.336   9.669  0.3437 -0.4286  0.6683
  818MPD2    C112035   4.024   1.324   9.629  0.0808 -0.7665 -0.9001
  818MPD2    C212036   3.967   1.201   9.642  0.0519  0.0677 -0.0244
  818MPD2    C312037   4.036   1.096   9.706 -0.3550 -0.2272  0.1469
  818MPD2    C412038   4.172   1.112   9.734 -0.1196 -0.0225 -0.4478
  818MPD2    C512039   4.230   1.230   9.711  0.1247  0.1856  0.4409
  818MPD2     H12040   3.865   1.188   9.608  0.1274 -1.0806  0.1695
  818MPD2    H112041   4.231   1.033   9.779 -0.8002 -0.3566 -0.1439
  818MPD2    H212042   4.212   1.427   9.664 -0.8426  0.2470 -0.9938
  818MPD2    H312043   4.337   1.247   9.719 -0.2048  1.0634  2.8424
  818MPD2     N12044   3.979   0.972   9.727 -0.0736 -0.1442 -0.7223
  818MPD2    H512045   4.037   0.897   9.764 -1.3730 -0.9109 -0.2028
  818MPD2    N112046   3.945   1.426   9.584  0.3663 -0.4334  0.3198
  818MPD2    H712047   3.849   1.399   9.565  0.1797  0.9325 -0.6312
  819MPD2     C12048   2.169   3.220  15.844 -0.0083  0.6314  0.4661
  819MPD2    C112049   2.138   3.153  15.727 -0.1651  0.4242  0.1184
  819MPD2    C212050   2.227   3.063  15.681  0.3313 -0.8885  0.3438
  819MPD2    C312051   2.347   3.039  15.750 -0.6627 -0.2043  0.1552
  819MPD2    C412052   2.384   3.120  15.857  1.1152 -0.2087  0.0797
  819MPD2    C512053   2.291   3.210  15.905 -0.3119 -0.6480 -0.6445
  819MPD2     H12054   2.212   3.003  15.592  0.7307  0.4948 -0.6547
  819MPD2    H112055   2.479   3.115  15.910 -0.1248 -1.7584  2.1695
  819MPD2    H212056   2.103   3.294  15.887  0.2495  1.6659 -0.9103
  819MPD2    H312057   2.321   3.283  15.978 -1.1697 -1.1004  0.1558
  819MPD2     N12058   2.434   2.939  15.703 -0.1047  0.0620 -0.1095
  819MPD2    H512059   2.411   2.890  15.617  0.9658  0.4640 -0.6200
  819MPD2    N112060   2.013   3.165  15.667  0.0498  0.2427 -0.4115
  819MPD2    H712061   1.946   3.222  15.719  1.3735  0.2838  1.2340
  820MPD2     C12062   1.307   2.940  14.916 -0.0168  0.3330  0.2143
  820MPD2    C112063   1.314   3.076  14.942  0.1846 -0.1368 -0.2119
  820MPD2    C212064   1.429   3.128  15.004 -0.4476  0.1786  0.0020
  820MPD2    C312065   1.529   3.045  15.058  0.4570 -0.3257  0.0152
  820MPD2    C412066   1.519   2.910  15.029 -0.1288 -0.3126 -0.6478
  820MPD2    C512067   1.408   2.862  14.960 -0.3839  0.1322 -0.5195
  820MPD2     H12068   1.443   3.230  15.038  2.9143  0.2174 -1.5654
  820MPD2    H112069   1.600   2.846  15.062  0.5005  1.0015  0.3283
  820MPD2    H212070   1.219   2.891  14.874  0.1546 -2.4499  3.0972
  820MPD2    H312071   1.406   2.754  14.946 -1.6286  0.2403 -1.1397
  820MPD2     N12072   1.623   3.082  15.154  0.0986  0.2411 -0.0742
  820MPD2    H512073   1.706   3.027  15.173  0.3596  0.3238 -0.9569
  820MPD2    N112074   1.196   3.151  14.933 -0.3804  0.2530 -0.1024
  820MPD2    H712075   1.109   3.101  14.925 -0.2539  0.4115 -2.4554
  821MPD2     C12076   1.913   4.459  13.494 -0.0542 -0.5716 -0.5941
  821MPD2    C112077   2.046   4.438  13.508  0.5165  0.0980 -0.1958
  821MPD2    C212078   2.137   4.492  13.412  0.0218 -0.0020  0.1670
  821MPD2    C312079   2.092   4.559  13.296  0.0565  0.0074 -0.8163
  821MPD2    C412080   1.952   4.571  13.280 -0.1776  0.5748 -0.2601
  821MPD2    C512081   1.865   4.528  13.379 -0.9628  0.2444  0.2054
  821MPD2     H12082   2.241   4.465  13.431  0.2058 -0.0753 -0.9319
  821MPD2    H112083   1.917   4.627  13.194  1.2165  0.9238 -0.6094
  821MPD2    H212084   1.835   4.429  13.563  0.0426 -1.2924 -0.7954
  821MPD2    H312085   1.758   4.537  13.363 -1.0659 -1.0837  0.1167
  821MPD2     N12086   2.173   4.593  13.187  0.0899 -0.1551 -0.4229
  821MPD2    H512087   2.108   4.605  13.110 -1.5499 -0.9613  0.8389
  821MPD2    N112088   2.102   4.373  13.624  0.6370  0.4268 -0.2428
  821MPD2    H712089   2.202   4.386  13.636  0.8663 -0.0583 -1.5930
  822MPD2     C12090   2.726   4.150  15.736 -0.4611 -0.3136 -0.0109
  822MPD2    C112091   2.758   4.115  15.865  0.2070  0.1220  0.3842
  822MPD2    C212092   2.683   4.159  15.977 -0.9063 -0.2177 -0.4699
  822MPD2    C312093   2.571   4.245  15.960 -1.1001  0.5063  0.1696
  822MPD2    C412094   2.536   4.264  15.829 -0.0908  0.3367 -0.0513
  822MPD2    C512095   2.614   4.224  15.724  0.3141 -0.1447  0.0519
  822MPD2     H12096   2.709   4.125  16.077 -0.3316 -1.9337 -1.2197
  822MPD2    H112097   2.451   4.329  15.813  0.1050  0.0504 -2.2891
  822MPD2    H212098   2.788   4.111  15.656  0.7629  0.2317  0.6629
  822MPD2    H312099   2.571   4.245  15.627  0.6511 -1.5503 -0.3968
  822MPD2     N12100   2.507   4.290  16.073 -0.6928  0.7997 -0.0556
  822MPD2    H512101   2.549   4.274  16.163 -1.1893 -2.1485 -0.3565
  822MPD2    N112102   2.870   4.038  15.906 -0.5079  0.2443 -0.3221
  822MPD2    H712103   2.890   4.037  16.006  1.5090  1.5618 -0.6987
  823MPD2     C12104   2.260   4.337  16.909  0.2047  0.3404 -0.3626
  823MPD2    C112105   2.288   4.271  16.795  0.1790 -0.1811 -0.3898
  823MPD2    C212106   2.328   4.139  16.794  0.0382 -0.0996 -0.3081
  823MPD2    C312107   2.341   4.069  16.913 -0.3238 -0.2915  0.1033
  823MPD2    C412108   2.307   4.133  17.032  0.1016  0.4390  0.3596
  823MPD2    C512109   2.263   4.265  17.031 -0.6068 -0.2119 -0.1700
  823MPD2     H12110   2.361   4.090  16.703 -0.5555  1.0969 -1.1699
  823MPD2    H112111   2.319   4.084  17.128  0.2579  1.9950  1.1461
  823MPD2    H212112   2.230   4.441  16.903 -0.2062  0.2787  0.5672
  823MPD2    H312113   2.258   4.312  17.129 -2.1588  0.3284 -0.5152
  823MPD2     N12114   2.406   3.943  16.924 -0.1541  0.5175  0.8056
  823MPD2    H512115   2.412   3.910  17.020  0.8274 -0.5001  0.3957
  823MPD2    N112116   2.286   4.342  16.671  0.3516  0.0519  0.1911
  823MPD2    H712117   2.287   4.442  16.689 -0.2698  0.0094  0.4765
  824MPD2     C12118   3.050   3.447  15.621  0.3443  0.2125  0.3779
  824MPD2    C112119   3.172   3.501  15.658 -0.0022 -0.4370 -0.0095
  824MPD2    C212120   3.286   3.442  15.609 -0.1934 -0.4516 -0.5117
  824MPD2    C312121   3.282   3.333  15.524 -0.5113 -0.2633 -0.2948
  824MPD2    C412122   3.159   3.278  15.484  0.0057 -0.1709 -0.1083
  824MPD2    C512123   3.048   3.342  15.535  0.2966 -0.3414  0.0509
  824MPD2     H12124   3.383   3.488  15.626 -0.2116 -0.0943 -1.3348
  824MPD2    H112125   3.151   3.200  15.408 -1.5706  0.3173 -0.4465
  824MPD2    H212126   2.957   3.489  15.658 -0.0579  0.6855 -1.1826
  824MPD2    H312127   2.951   3.300  15.510  0.6723 -0.9054 -0.4695
  824MPD2     N12128   3.407   3.294  15.466 -0.0401 -0.7496  0.9129
  824MPD2    H512129   3.490   3.353  15.476  0.2184 -1.1912  1.3558
  824MPD2    N112130   3.178   3.603  15.752 -0.6248 -0.2257 -0.5725
  824MPD2    H712131   3.089   3.636  15.787 -0.9360 -0.8860 -0.7375
  825MPD2     C12132   4.153   3.403  15.013  0.1090  0.4053 -0.7244
  825MPD2    C112133   4.034   3.461  15.065  0.3036  0.1121  0.4494
  825MPD2    C212134   4.013   3.595  15.066  0.3488 -0.7752  0.3348
  825MPD2    C312135   4.096   3.678  14.989  0.0299 -0.2280 -0.3479
  825MPD2    C412136   4.200   3.617  14.926 -0.3379 -0.7346 -0.1953
  825MPD2    C512137   4.236   3.486  14.940 -0.6082 -0.4595 -0.1476
  825MPD2     H12138   3.925   3.629  15.120  1.6345  3.0453  0.0359
  825MPD2    H112139   4.265   3.674  14.860  0.9095 -1.8814  0.0415
  825MPD2    H212140   4.181   3.300  14.996  0.1124  0.6019 -1.9432
  825MPD2    H312141   4.314   3.446  14.876 -0.2889 -0.3739  0.1875
  825MPD2     N12142   4.071   3.812  14.964 -0.1453 -0.6123  0.4034
  825MPD2    H512143   4.142   3.862  14.912 -0.3390 -1.3173 -0.5351
  825MPD2    N112144   3.944   3.370  15.117  0.1829  0.5082  0.1137
  825MPD2    H712145   3.968   3.273  15.101  1.1253  0.8764 -0.6983
  826MPD2     C12146   3.103   3.887  13.999 -0.0360 -0.0416 -0.1427
  826MPD2    C112147   3.086   3.987  13.900 -0.3367  0.5243  1.1139
  826MPD2    C212148   3.005   4.101  13.923 -0.4477  0.0529  0.3967
  826MPD2    C312149   2.929   4.108  14.034  0.4421  0.1107  0.5569
  826MPD2    C412150   2.953   4.012  14.138  0.6180  0.2644 -0.0595
  826MPD2    C512151   3.040   3.908  14.120  0.2227  0.6869 -0.9989
  826MPD2     H12152   2.991   4.181  13.851  1.4377 -1.3744 -1.5698
  826MPD2    H112153   2.897   4.020  14.230  1.1631 -0.3567  0.3222
  826MPD2    H212154   3.169   3.804  13.980 -2.8117 -1.6324 -2.7317
  826MPD2    H312155   3.059   3.835  14.198 -2.5201  0.9118 -0.1174
  826MPD2     N12156   2.842   4.221  14.047 -0.2823  0.8546  0.4280
  826MPD2    H512157   2.797   4.234  14.137 -0.1774  0.0415  0.5957
  826MPD2    N112158   3.168   3.964  13.782 -0.2541  0.0171 -0.9967
  826MPD2    H712159   3.220   3.877  13.788 -0.0163  0.0497 -2.7161
  827MPD2     C12160   4.261   4.517   9.802  0.3342 -0.7082 -0.1808
  827MPD2    C112161   4.186   4.457   9.898 -0.3324  0.4170 -0.4457
  827MPD2    C212162   4.104   4.349   9.862 -0.1976  0.3571 -0.4326
  827MPD2    C312163   4.101   4.301   9.733 -0.2898 -0.1032 -0.6010
  827MPD2    C412164   4.159   4.379   9.637  0.4167  0.8345 -0.1316
  827MPD2    C512165   4.248   4.473   9.676  0.1897 -0.1095 -0.5035
  827MPD2     H12166   4.071   4.281   9.940 -0.8352  1.0183 -0.1253
  827MPD2    H112167   4.157   4.343   9.535  3.2420 -1.1793  0.5291
  827MPD2    H212168   4.336   4.588   9.833 -0.0214 -0.0947 -0.7292
  827MPD2    H312169   4.304   4.529   9.602  1.1837  0.9077  1.0257
  827MPD2     N12170   4.011   4.197   9.702 -0.5252  0.1912  0.2410
  827MPD2    H512171   3.957   4.153   9.776 -0.1310 -0.2097  0.2872
  827MPD2    N112172   4.206   4.496  10.032  0.0916 -0.1118 -0.0882
  827MPD2    H712173   4.261   4.581  10.044  1.0772 -0.8358  0.5134
  828MPD2     C12174   2.358   4.356  12.773  0.3368 -0.5067 -0.3695
  828MPD2    C112175   2.362   4.397  12.640  0.7644 -0.5291 -0.7845
  828MPD2    C212176   2.483   4.380  12.579  0.8961 -0.2800 -0.0793
  828MPD2    C312177   2.599   4.315  12.632  0.0400 -0.0270  0.2903
  828MPD2    C412178   2.591   4.273  12.760 -0.2296 -0.2959  0.3455
  828MPD2    C512179   2.472   4.293  12.831 -0.5088 -0.4691 -0.1284
  828MPD2     H12180   2.485   4.402  12.473  1.0447 -0.2239 -0.0655
  828MPD2    H112181   2.665   4.205  12.799  0.1366 -0.4626 -0.6237
  828MPD2    H212182   2.275   4.372  12.841  0.2398 -2.5091 -0.0306
  828MPD2    H312183   2.464   4.258  12.933  0.4371  2.2210  0.8720
  828MPD2     N12184   2.722   4.299  12.565 -0.0963  0.3959  0.2337
  828MPD2    H512185   2.792   4.258  12.625 -1.2618 -1.7118  0.1627
  828MPD2    N112186   2.251   4.458  12.567 -0.3802  0.3673  0.0795
  828MPD2    H712187   2.274   4.497  12.476  0.7685 -0.9061 -0.1693
  829MPD2     C12188   2.099   4.440  11.676  0.3886  0.5842  0.0330
  829MPD2    C112189   1.984   4.503  11.735 -0.2322 -0.2713 -0.2157
  829MPD2    C212190   1.984   4.515  11.872  0.0868  0.2806 -0.4378
  829MPD2    C312191   2.071   4.446  11.955 -0.5557  0.1963  0.2084
  829MPD2    C412192   2.186   4.394  11.900 -0.0634  0.1491 -0.3210
  829MPD2    C512193   2.202   4.400  11.763 -0.6453  0.2090  0.4817
  829MPD2     H12194   1.915   4.581  11.923  0.8418  1.3423 -0.8154
  829MPD2    H112195   2.264   4.351  11.962  0.2558  1.4069  0.1462
  829MPD2    H212196   2.105   4.425  11.569 -1.8646 -1.9273  0.2401
  829MPD2    H312197   2.298   4.368  11.722 -0.6939  0.2975  0.2975
  829MPD2     N12198   2.057   4.442  12.101  0.1186 -0.3326 -0.5656
  829MPD2    H512199   2.141   4.413  12.151 -1.5694 -0.9976  1.8961
  829MPD2    N112200   1.869   4.552  11.670  0.0311 -0.2369 -0.9947
  829MPD2    H712201   1.809   4.610  11.727 -0.3550 -1.4036 -0.1938
  830MPD2     C12202   2.508   2.125  15.421  0.2533  0.1805 -0.0995
  830MPD2    C112203   2.494   2.259  15.391 -0.7460  0.0129 -0.4289
  830MPD2    C212204   2.452   2.301  15.266  0.0506 -0.1798 -0.4932
  830MPD2    C312205   2.437   2.209  15.158 -0.2932 -1.1651  0.8216
  830MPD2    C412206   2.436   2.080  15.200  0.3346  0.1934  0.2389
  830MPD2    C512207   2.481   2.037  15.321 -0.5364 -0.8616  0.1104
  830MPD2     H12208   2.442   2.408  15.250  0.5802 -0.0777 -0.1338
  830MPD2    H112209   2.410   1.999  15.133 -1.0559  1.4250 -0.6892
  830MPD2    H212210   2.547   2.096  15.518 -0.4749 -1.6563 -0.3490
  830MPD2    H312211   2.489   1.930  15.341 -2.5157 -1.1293 -0.5875
  830MPD2     N12212   2.403   2.234  15.022 -0.0766 -0.0102  0.2985
  830MPD2    H512213   2.403   2.159  14.953  0.1428 -0.3189  0.6347
  830MPD2    N112214   2.540   2.346  15.495  0.1050 -0.2585  0.3499
  830MPD2    H712215   2.585   2.312  15.579 -0.5018  0.4210  0.9522
  831MPD2     C12216   2.724   4.396  16.475 -0.8264 -0.6284 -0.1380
  831MPD2    C112217   2.761   4.310  16.377 -0.1810 -0.4569 -0.2427
  831MPD2    C212218   2.706   4.185  16.373 -0.0064  0.0753  0.6214
  831MPD2    C312219   2.616   4.137  16.469  0.0477  0.4820 -0.6415
  831MPD2    C412220   2.608   4.216  16.581 -0.1440  0.2161  0.6911
  831MPD2    C512221   2.661   4.346  16.582 -0.2421 -0.1316  0.6677
  831MPD2     H12222   2.722   4.124  16.284  2.3406  0.6198  0.6603
  831MPD2    H112223   2.551   4.188  16.668 -0.8730 -1.4066 -0.3144
  831MPD2    H212224   2.769   4.494  16.476  0.7488 -1.3284 -1.5905
  831MPD2    H312225   2.645   4.413  16.666  1.5138 -0.3293  1.1672
  831MPD2     N12226   2.543   4.013  16.453  0.4371 -0.6680 -0.4197
  831MPD2    H512227   2.499   3.975  16.536  0.4346 -0.1668 -0.1864
  831MPD2    N112228   2.855   4.360  16.287 -0.2693  0.1078  0.4570
  831MPD2    H712229   2.878   4.458  16.294  1.0687 -0.0817 -1.3392
  832MPD2     C12230   1.445   0.439  17.000 -0.3299  0.6467 -0.0895
  832MPD2    C112231   1.369   0.478  17.108 -0.1608 -0.4580  0.0109
  832MPD2    C212232   1.237   0.486  17.087  0.3550 -0.2682  0.5828
  832MPD2    C312233   1.179   0.464  16.961 -0.0653  0.2981  0.2846
  832MPD2    C412234   1.259   0.429  16.855  0.3083  0.7800  0.0482
  832MPD2    C512235   1.393   0.415  16.876  0.2814  0.5506 -0.3359
  832MPD2     H12236   1.180   0.501  17.178 -2.3121  0.2224 -1.1852
  832MPD2    H112237   1.227   0.434  16.752  1.7075 -2.5625 -0.5549
  832MPD2    H212238   1.552   0.428  17.018 -0.1981 -1.2307 -1.9329
  832MPD2    H312239   1.466   0.381  16.803 -1.2521 -3.0222 -0.1958
  832MPD2     N12240   1.044   0.464  16.923 -0.7359 -0.1175 -0.4871
  832MPD2    H512241   1.030   0.447  16.824  1.9954 -0.0757 -0.8821
  832MPD2    N112242   1.445   0.495  17.229  0.0707  0.7080 -0.6525
  832MPD2    H712243   1.542   0.466  17.235  0.5264  1.9546 -2.0202
  833MPD2     C12244   2.982   2.317  11.818  0.3752 -0.3822  0.0180
  833MPD2    C112245   2.947   2.422  11.737 -0.1467  0.1245 -0.7966
  833MPD2    C212246   3.028   2.462  11.626  0.5599 -0.2141  0.2478
  833MPD2    C312247   3.150   2.394  11.615  0.2985  0.3271 -0.6203
  833MPD2    C412248   3.175   2.277  11.688  0.6850 -0.0671  0.4215
  833MPD2    C512249   3.090   2.241  11.784  0.3813 -0.5393 -0.3324
  833MPD2     H12250   3.015   2.550  11.563  0.4721 -0.0803  0.4545
  833MPD2    H112251   3.262   2.217  11.663  1.3105  1.0240 -0.0640
  833MPD2    H212252   2.904   2.284  11.885 -2.1324  1.5973 -1.9160
  833MPD2    H312253   3.111   2.145  11.830 -1.0767  0.2135  1.8642
  833MPD2     N12254   3.258   2.419  11.523 -0.0822  0.1507  0.5648
  833MPD2    H512255   3.333   2.351  11.523 -1.4632 -1.3751  1.5782
  833MPD2    N112256   2.821   2.481  11.767 -0.3558 -0.2716 -0.2373
  833MPD2    H712257   2.770   2.440  11.844  2.3695  1.8289  2.6597
  834MPD2     C12258   3.693   2.681  10.709  0.3566  0.1316 -0.2241
  834MPD2    C112259   3.559   2.637  10.730 -0.6743 -0.0708 -0.0145
  834MPD2    C212260   3.504   2.655  10.851 -0.0661 -0.0145  0.0200
  834MPD2    C312261   3.564   2.736  10.948  0.1577 -0.0019  0.7883
  834MPD2    C412262   3.688   2.797  10.923 -0.3044  0.7286 -0.0045
  834MPD2    C512263   3.755   2.762  10.803 -0.0207 -0.1722  0.2731
  834MPD2     H12264   3.415   2.598  10.873 -0.3085  0.2075 -0.3856
  834MPD2    H112265   3.737   2.867  10.991  0.2851  0.1473  0.1721
  834MPD2    H212266   3.742   2.677  10.613  0.6282  0.9153 -0.1182
  834MPD2    H312267   3.859   2.791  10.793  0.0213 -0.9365 -1.4043
  834MPD2     N12268   3.493   2.763  11.068  0.3645 -0.0855  0.5874
  834MPD2    H512269   3.396   2.732  11.064 -0.4512  2.3765  1.3934
  834MPD2    N112270   3.496   2.562  10.629  0.2843 -0.0598  0.3484
  834MPD2    H712271   3.552   2.543  10.546  0.8739  0.4843  0.6238
  835MPD2     C12272   3.223   0.124  11.081  0.0085  1.0279  0.3768
  835MPD2    C112273   3.113   0.045  11.061  0.0414  0.8620  0.1212
  835MPD2    C212274   3.050   4.705  11.171 -0.0845  0.4033  0.2017
  835MPD2    C312275   3.109   4.711  11.298 -0.3960 -1.5098  0.0697
  835MPD2    C412276   3.238   0.050  11.307  0.3814  0.4857  0.3940
  835MPD2    C512277   3.294   0.118  11.201 -0.7960 -0.1723  0.1193
  835MPD2     H12278   2.958   4.651  11.152  1.0617 -1.0793 -1.0863
  835MPD2    H112279   3.296   0.055  11.397  0.8813 -3.2146  0.2822
  835MPD2    H212280   3.275   0.177  11.002  1.1956 -0.5259  0.1362
  835MPD2    H312281   3.392   0.164  11.205 -1.0013  0.0965  1.7374
  835MPD2     N12282   3.044   4.664  11.416 -0.0086  0.6418  0.1756
  835MPD2    H512283   3.093   4.689  11.501 -0.1666  2.1671 -0.1882
  835MPD2    N112284   3.048   0.044  10.937 -0.0875 -0.4278 -0.4288
  835MPD2    H712285   2.951   0.016  10.939 -0.2794  0.3004  1.0256
  836MPD2     C12286   2.276   4.655  11.476  0.1532  0.2151 -0.4810
  836MPD2    C112287   2.345   4.681  11.590  0.5598  0.4806 -0.7394
  836MPD2    C212288   2.286   0.051  11.682  0.3757  0.5059  0.1836
  836MPD2    C312289   2.159   0.102  11.668  0.9247  0.4199 -0.0024
  836MPD2    C412290   2.088   0.070  11.552  0.3413  0.9083 -0.2425
  836MPD2    C512291   2.150   4.708  11.455  0.4507 -0.4931  0.4492
  836MPD2     H12292   2.348   0.078  11.767 -0.9548 -2.4499  2.0667
  836MPD2    H112293   1.984   0.098  11.541  0.6367  2.0150 -0.1545
  836MPD2    H212294   2.320   4.584  11.407 -1.1103 -0.1597 -0.8951
  836MPD2    H312295   2.092   4.681  11.368 -1.2559 -0.9858  1.7431
  836MPD2     N12296   2.096   0.199  11.751 -0.3054  0.0049 -0.2109
  836MPD2    H512297   1.998   0.221  11.736 -0.8572 -2.6323 -0.3678
  836MPD2    N112298   2.472   4.624  11.611  0.2974  0.2474 -0.4740
  836MPD2    H712299   2.502   4.567  11.533 -0.2373  1.6218 -1.6807
  837MPD2     C12300   1.682   4.580  10.095 -0.6246  0.2987  0.5299
  837MPD2    C112301   1.660   4.569   9.963 -0.1353  0.2823 -0.3288
  837MPD2    C212302   1.624   4.684   9.890 -0.3597 -0.4370  0.1349
  837MPD2    C312303   1.605   0.083   9.965  0.0159 -0.5551 -0.6860
  837MPD2    C412304   1.616   0.085  10.103  0.9570  0.2481  0.6212
  837MPD2    C512305   1.656   4.691  10.166  0.1503  0.3965 -0.1513
  837MPD2     H12306   1.614   4.688   9.782 -0.6454  1.4617  0.2368
  837MPD2    H112307   1.594   0.172  10.163  0.7919 -0.3102  1.3666
  837MPD2    H212308   1.716   4.498  10.158  1.2243  2.3113  2.1325
  837MPD2    H312309   1.681   4.686  10.271 -0.6536  1.5676  0.0930
  837MPD2     N12310   1.559   0.192   9.896 -0.2080  0.1182  0.6613
  837MPD2    H512311   1.549   0.182   9.796 -1.8532  0.9870  0.7419
  837MPD2    N112312   1.661   4.452   9.893 -0.2812 -0.0972  0.0244
  837MPD2    H712313   1.649   4.464   9.793 -1.4234  0.7413  0.2665
  838MPD2     C12314   0.115   3.152  11.574  0.2012 -0.3394  0.3908
  838MPD2    C112315   0.047   3.034  11.577 -0.6722  0.4854 -0.1612
  838MPD2    C212316   4.685   3.013  11.686 -0.2875  0.5339 -0.3807
  838MPD2    C312317   4.668   3.111  11.786 -0.1394  0.6395 -0.4104
  838MPD2    C412318   0.017   3.225  11.786  0.4045 -0.1692  0.1362
  838MPD2    C512319   0.103   3.244  11.679 -0.0506  0.5783 -0.3829
  838MPD2     H12320   4.615   2.931  11.697 -0.6459  1.0473  1.2162
  838MPD2    H112321   0.007   3.306  11.858 -2.4102 -0.6923  0.3158
  838MPD2    H212322   0.171   3.186  11.488 -0.8138 -2.4369 -1.1177
  838MPD2    H312323   0.158   3.338  11.675  0.2208  0.3306 -2.1688
  838MPD2     N12324   4.570   3.086  11.883  0.3595  0.2978  0.3145
  838MPD2    H512325   4.519   3.000  11.893  0.1474  0.5636  1.5571
  838MPD2    N112326   0.053   2.936  11.472  0.3035  0.6462  0.4347
  838MPD2    H712327   4.712   2.854  11.477 -0.7221  1.1826 -3.1021
  839MPD2     C12328   4.208   2.373  11.414 -0.1655 -0.5923  0.1742
  839MPD2    C112329   4.244   2.370  11.275  0.6108 -0.2664  0.0947
  839MPD2    C212330   4.353   2.445  11.231  0.0285 -0.8231 -0.0573
  839MPD2    C312331   4.445   2.490  11.325 -0.1674 -0.0816 -0.5031
  839MPD2    C412332   4.418   2.471  11.463 -0.2552  0.1167 -0.2289
  839MPD2    C512333   4.298   2.415  11.507 -0.6987 -0.6240  0.5166
  839MPD2     H12334   4.381   2.455  11.127  1.1995 -2.9391  0.0523
  839MPD2    H112335   4.491   2.502  11.537 -2.0433  1.8971  0.7813
  839MPD2    H212336   4.124   2.318  11.455  0.3616 -1.2039  0.4257
  839MPD2    H312337   4.283   2.410  11.614 -0.6141 -0.1908  0.5498
  839MPD2     N12338   4.570   2.550  11.295  0.6132  0.4283  0.5590
  839MPD2    H512339   4.617   2.598  11.372  0.0791 -0.3521  1.3700
  839MPD2    N112340   4.178   2.300  11.177  0.2302  0.2134 -0.1980
  839MPD2    H712341   4.220   2.296  11.085  0.9188 -1.3784  0.1896
  840MPD2     C12342   0.063   4.652  10.264  0.1031  0.1015  0.4828
  840MPD2    C112343   4.686   4.714  10.344 -0.1244  1.3976  0.3659
  840MPD2    C212344   0.011   0.109  10.407 -0.1427  0.1231 -0.0712
  840MPD2    C312345   0.141   0.164  10.379 -0.2238 -0.4336 -0.6912
  840MPD2    C412346   0.224   0.110  10.284 -0.4783 -0.1342  0.3300
  840MPD2    C512347   0.188   4.706  10.234  0.6370 -0.2315 -0.2927
  840MPD2     H12348   4.661   0.175  10.459 -1.6048  0.0271 -1.9008
  840MPD2    H112349   0.315   0.158  10.253 -1.1071  1.2793  0.6754
  840MPD2    H212350   0.045   4.557  10.216 -0.3789 -0.0925  1.0459
  840MPD2    H312351   0.250   4.657  10.160  1.9603  0.0063  0.6541
  840MPD2     N12352   0.190   0.272  10.459 -0.2597  0.4790  0.3162
  840MPD2    H512353   0.269   0.324  10.425 -0.5296  0.7596  0.1198
  840MPD2    N112354   4.554   4.652  10.344  1.5782  0.4349 -0.5061
  840MPD2    H712355   4.534   4.576  10.280  0.5046 -0.0784  0.4404
  841MPD2     C12356   4.268   4.422  14.899  0.1132  0.5559  0.0013
  841MPD2    C112357   4.294   4.451  14.766 -0.2774 -0.5045 -0.6481
  841MPD2    C212358   4.248   4.563  14.705 -1.0274  0.6314 -0.3356
  841MPD2    C312359   4.187   4.666  14.773 -0.2936  0.5645  0.6631
  841MPD2    C412360   4.166   4.647  14.910  0.3747 -0.4167  0.3637
  841MPD2    C512361   4.207   4.524  14.969 -0.1425  0.2624  0.0584
  841MPD2     H12362   4.273   4.583  14.601 -0.9904  1.4113 -0.1766
  841MPD2    H112363   4.113   4.717  14.975 -0.9453 -1.2342  0.1705
  841MPD2    H212364   4.303   4.334  14.952 -0.9580  0.8276  1.1644
  841MPD2    H312365   4.180   4.511  15.073  0.8039  1.0594  0.4069
  841MPD2     N12366   4.137   0.057  14.708 -0.3553  0.5879 -0.0638
  841MPD2    H512367   4.147   0.061  14.607 -2.4770  2.0393 -0.2332
  841MPD2    N112368   4.369   4.368  14.679  0.2701  0.9074  0.3737
  841MPD2    H712369   4.383   4.402  14.584  2.7982  0.0711  0.4539
  842MPD2     C12370   0.423   0.917  16.639  0.1932 -0.3419  0.6147
  842MPD2    C112371   0.410   0.788  16.686 -0.6325  0.6437  0.0185
  842MPD2    C212372   0.424   0.759  16.821 -0.7492 -0.5820 -0.0409
  842MPD2    C312373   0.458   0.863  16.912 -0.2990  0.6134 -0.5003
  842MPD2    C412374   0.473   0.991  16.864  0.4647  0.6114  0.0026
  842MPD2    C512375   0.462   1.010  16.728 -0.8012  0.0421  0.5952
  842MPD2     H12376   0.414   0.659  16.860  2.5563 -0.9571 -0.1048
  842MPD2    H112377   0.485   1.077  16.930  1.1149  1.3708 -1.0968
  842MPD2    H212378   0.437   0.940  16.534 -0.0214 -2.3619  0.1532
  842MPD2    H312379   0.483   1.113  16.701  2.4124 -0.2413  1.9850
  842MPD2     N12380   0.465   0.847  17.055  0.4511 -0.0983  0.2155
  842MPD2    H512381   0.459   0.932  17.111  0.7428  1.2558 -1.8152
  842MPD2    N112382   0.366   0.689  16.593 -0.1447  0.0551 -0.3570
  842MPD2    H712383   0.357   0.720  16.497 -1.4178  2.8231  0.6520
  843MPD2     C12384   2.189   0.512   0.495  0.5430  0.2055 -0.1744
  843MPD2    C112385   2.313   0.447   0.493  0.2356 -0.0236  0.1995
  843MPD2    C212386   2.418   0.517   0.439  0.3282  0.2246 -0.3939
  843MPD2    C312387   2.396   0.642   0.376 -0.7312  0.1072 -0.2967
  843MPD2    C412388   2.269   0.700   0.374  0.0521 -0.0354  0.3459
  843MPD2    C512389   2.173   0.637   0.446  0.1436  0.0686  0.5787
  843MPD2     H12390   2.510   0.463   0.418 -0.0247 -0.4136 -0.3223
  843MPD2    H112391   2.244   0.794   0.326  3.0758 -0.3229 -1.7119
  843MPD2    H212392   2.107   0.473   0.555  0.3974  1.7942  0.6679
  843MPD2    H312393   2.077   0.686   0.455 -0.3128 -0.6741 -0.2336
  843MPD2     N12394   2.508   0.695   0.307 -0.4081  0.2016  0.3914
  843MPD2    H512395   2.598   0.648   0.313  0.4625  1.7529 -0.4473
  843MPD2    N112396   2.317   0.319   0.551 -0.1344 -0.3878  0.7226
  843MPD2    H712397   2.233   0.298   0.605 -0.1199 -0.0226  0.8892
  844MPD2     C12398   1.069   0.699  16.454 -0.1938 -0.5966 -0.2633
  844MPD2    C112399   1.169   0.613  16.498 -0.6885  0.3719 -0.1044
  844MPD2    C212400   1.244   0.640  16.609  0.1728  0.3629 -0.8758
  844MPD2    C312401   1.216   0.743  16.691 -0.2340  0.0684  0.2540
  844MPD2    C412402   1.109   0.829  16.655 -0.2185 -0.1689 -0.7165
  844MPD2    C512403   1.043   0.811  16.537  0.3858  0.0207  0.2857
  844MPD2     H12404   1.319   0.568  16.639 -0.4996 -1.3274 -3.2338
  844MPD2    H112405   1.080   0.914  16.716 -2.1792 -1.1578 -0.2534
  844MPD2    H212406   1.010   0.679  16.365 -0.4813 -0.7580 -0.0384
  844MPD2    H312407   0.962   0.878  16.509 -0.4457 -1.1886 -0.2048
  844MPD2     N12408   1.296   0.764  16.802 -0.1754  0.3969  0.2962
  844MPD2    H512409   1.376   0.701  16.806  0.4262  1.0594 -1.7743
  844MPD2    N112410   1.202   0.499  16.412  0.0126 -0.0187  0.6708
  844MPD2    H712411   1.156   0.491  16.321 -0.0724 -1.0364  0.8078
  845MPD2     C12412   1.172   1.496  17.436 -0.2142 -0.4774  0.4663
  845MPD2    C112413   1.122   1.443  17.317 -0.2243  0.3614  0.5046
  845MPD2    C212414   1.177   1.329  17.269 -0.0508  0.9359  0.2033
  845MPD2    C312415   1.296   1.279  17.322 -0.4671 -0.0599 -0.2189
  845MPD2    C412416   1.334   1.321  17.452  0.1205 -0.2223  0.3086
  845MPD2    C512417   1.275   1.434  17.506 -0.1306 -0.9265 -0.2483
  845MPD2     H12418   1.142   1.287  17.176 -1.2445  1.7462  0.2903
  845MPD2    H112419   1.407   1.269  17.512  0.5470  0.8725  0.7325
  845MPD2    H212420   1.135   1.591  17.474  1.6686  0.4521  0.0123
  845MPD2    H312421   1.290   1.469  17.608  0.7053 -0.9045 -0.3811
  845MPD2     N12422   1.355   1.173  17.245 -0.5865  0.9316  0.1000
  845MPD2    H512423   1.327   1.166  17.148  1.2499 -3.2214 -0.1273
  845MPD2    N112424   1.005   1.496  17.266 -0.2673 -0.2562 -0.9719
  845MPD2    H712425   0.961   1.441  17.193  0.4837 -1.1486 -0.7617
  846MPD2     C12426   1.936   2.122  13.290  0.2579 -0.0272  0.6960
  846MPD2    C112427   2.059   2.095  13.334 -0.9346 -0.4300  0.0429
  846MPD2    C212428   2.090   2.086  13.465 -0.1364 -0.9101 -0.1583
  846MPD2    C312429   1.982   2.083  13.558 -0.0399  0.4282 -1.1975
  846MPD2    C412430   1.854   2.105  13.511 -0.2505  0.5474 -0.2319
  846MPD2    C512431   1.828   2.125  13.379 -0.0778 -0.2838 -0.2288
  846MPD2     H12432   2.194   2.073  13.493  0.4860 -0.5958 -2.3187
  846MPD2    H112433   1.765   2.098  13.573 -0.8097 -1.5709 -1.2753
  846MPD2    H212434   1.917   2.149  13.187  2.9196  0.7341  0.4044
  846MPD2    H312435   1.728   2.136  13.338  0.8322 -0.2517 -2.4165
  846MPD2     N12436   1.997   2.051  13.695  0.1291  0.3446 -0.2280
  846MPD2    H512437   1.910   2.043  13.747  0.2800 -1.3460 -0.2503
  846MPD2    N112438   2.169   2.091  13.245  0.6037  0.0261  0.1122
  846MPD2    H712439   2.262   2.090  13.285  1.0033  0.2164 -0.8121
  847MPD2     C12440   2.934   3.903  13.336 -0.6429 -0.0404 -0.5687
  847MPD2    C112441   2.944   3.795  13.429 -0.0001 -0.5034  0.0067
  847MPD2    C212442   3.010   3.684  13.380  0.6329  0.1355 -0.0812
  847MPD2    C312443   3.071   3.678  13.254 -0.1508  0.0539 -0.4163
  847MPD2    C412444   3.062   3.788  13.168  0.0460 -0.0231  0.0397
  847MPD2    C512445   2.992   3.895  13.214  0.1627  0.0215 -0.0090
  847MPD2     H12446   3.018   3.592  13.437 -2.6565 -0.5263 -0.6566
  847MPD2    H112447   3.113   3.791  13.072 -0.7429  1.3438 -0.3295
  847MPD2    H212448   2.887   3.995  13.366 -1.5221 -1.0823  1.2429
  847MPD2    H312449   2.979   3.982  13.151  0.6405  0.9426  1.1753
  847MPD2     N12450   3.135   3.555  13.222 -0.2100  0.2528 -0.0765
  847MPD2    H512451   3.145   3.483  13.293 -0.4696 -1.3514 -1.6385
  847MPD2    N112452   2.893   3.791  13.554 -0.3556 -0.2493  0.9748
  847MPD2    H712453   2.893   3.698  13.595  1.8895  0.4280  2.4709
  848MPD2     C12454   0.691   0.501  16.312  0.1547 -0.4840 -0.3415
  848MPD2    C112455   0.720   0.592  16.412 -0.0614 -0.0418  0.3810
  848MPD2    C212456   0.730   0.730  16.377  0.2396  0.3866  0.3598
  848MPD2    C312457   0.726   0.770  16.242  0.1492  0.0959  0.2051
  848MPD2    C412458   0.714   0.672  16.144  0.3294  0.3186 -0.3162
  848MPD2    C512459   0.691   0.543  16.183 -0.2515  0.2962 -0.4217
  848MPD2     H12460   0.755   0.795  16.460 -1.3291  3.4944 -1.6086
  848MPD2    H112461   0.718   0.698  16.039 -1.6522  1.1571 -0.2009
  848MPD2    H212462   0.668   0.396  16.326  0.0864 -0.4986 -0.5676
  848MPD2    H312463   0.687   0.475  16.099 -0.8716  0.9096 -0.8827
  848MPD2     N12464   0.725   0.908  16.207  0.5932 -0.0809 -0.4107
  848MPD2    H512465   0.697   0.926  16.111 -0.3765  1.8856  0.2510
  848MPD2    N112466   0.711   0.567  16.548 -0.8130 -0.3554  0.0317
  848MPD2    H712467   0.742   0.641  16.611 -1.6563  1.6924 -1.9721
  849MPD2     C12468   4.539   0.133  13.438 -0.0629  0.2501 -0.4541
  849MPD2    C112469   4.538   0.214  13.547 -0.1501  0.0443  0.3035
  849MPD2    C212470   4.631   0.202  13.648  0.4090  0.1334 -0.2541
  849MPD2    C312471   0.008   0.104  13.643 -0.3942 -0.3550  0.3298
  849MPD2    C412472   0.008   0.021  13.532 -0.2675 -0.0828  0.5923
  849MPD2    C512473   4.642   0.044  13.431  0.7307  0.1179 -0.2013
  849MPD2     H12474   4.637   0.266  13.736 -0.8870 -1.5046  1.0271
  849MPD2    H112475   0.082   4.662  13.518  1.1907  1.4967 -0.4888
  849MPD2    H212476   4.481   0.145  13.347 -1.2208 -0.9093  0.1304
  849MPD2    H312477   4.646   4.692  13.349 -0.0248 -0.3024  0.1329
  849MPD2     N12478   0.102   0.082  13.743 -0.2220 -0.0341 -0.3834
  849MPD2    H512479   0.166   0.003  13.741  0.2634  0.3730 -0.8768
  849MPD2    N112480   4.448   0.332  13.527 -0.5946  0.4807  0.0445
  849MPD2    H712481   4.425   0.356  13.432  3.3356 -1.3485 -1.3837
  850MPD2     C12482   3.396   3.133  14.884 -0.2248  0.1180 -0.0329
  850MPD2    C112483   3.332   3.179  15.000 -0.1269 -0.2027 -0.2879
  850MPD2    C212484   3.364   3.309  15.042 -0.1871 -0.1875 -0.0197
  850MPD2    C312485   3.456   3.382  14.977  0.7748 -0.6071 -0.3895
  850MPD2    C412486   3.518   3.331  14.863  0.8096  0.3680  0.2773
  850MPD2    C512487   3.486   3.210  14.813 -0.1664 -0.1553  0.0071
  850MPD2     H12488   3.310   3.350  15.127 -2.0582  0.7983 -1.6999
  850MPD2    H112489   3.597   3.392  14.820  0.9757 -1.2724 -1.7508
  850MPD2    H212490   3.377   3.035  14.842 -0.8490  0.2058  0.0453
  850MPD2    H312491   3.532   3.169  14.724 -2.1372  2.8294 -2.3506
  850MPD2     N12492   3.490   3.513  15.003  0.3495  0.4988 -0.5350
  850MPD2    H512493   3.554   3.558  14.938 -0.8886  0.2636 -1.9059
  850MPD2    N112494   3.228   3.101  15.054  0.2742  0.2241  0.7049
  850MPD2    H712495   3.221   3.003  15.029  1.1959  0.5358 -0.8051
  851MPD2     C12496   3.125   2.546  14.890  0.9156  0.3262 -0.8921
  851MPD2    C112497   3.017   2.589  14.968  0.1089 -0.1447  0.6025
  851MPD2    C212498   2.886   2.556  14.925  0.4447  0.4913 -0.1818
  851MPD2    C312499   2.868   2.489  14.805 -0.2014 -0.2285 -0.1598
  851MPD2    C412500   2.976   2.434  14.737  0.5229 -0.3544 -0.3617
  851MPD2    C512501   3.101   2.464  14.781 -0.6444  0.3817  0.4521
  851MPD2     H12502   2.798   2.591  14.978 -0.0068  0.9960 -1.2780
  851MPD2    H112503   2.961   2.393  14.638 -0.8124  0.1592 -0.3725
  851MPD2    H212504   3.226   2.573  14.920  0.3189  1.7616 -0.1537
  851MPD2    H312505   3.185   2.428  14.722 -0.9904  1.4782 -0.7143
  851MPD2     N12506   2.735   2.472  14.767 -0.2096  0.7473  0.1884
  851MPD2    H512507   2.661   2.509  14.826 -0.8113 -0.3444  0.1247
  851MPD2    N112508   3.035   2.678  15.080  0.0303  0.0620 -0.0844
  851MPD2    H712509   3.122   2.729  15.072  1.1090 -1.8082 -0.1050
  852MPD2     C12510   1.335   2.232   9.368  0.0019  0.1411  0.4530
  852MPD2    C112511   1.387   2.146   9.470 -0.0674 -0.1561 -0.5417
  852MPD2    C212512   1.523   2.134   9.471 -0.2285 -1.1282 -0.4001
  852MPD2    C312513   1.603   2.187   9.373 -0.4631 -0.7774 -0.9238
  852MPD2    C412514   1.548   2.277   9.278  0.7927 -0.5354 -0.2914
  852MPD2    C512515   1.414   2.286   9.272 -0.3766  0.2278 -0.0127
  852MPD2     H12516   1.568   2.073   9.549  1.2760 -0.5717 -0.8232
  852MPD2    H112517   1.608   2.322   9.199  0.5751 -1.5497 -1.0335
  852MPD2    H212518   1.229   2.252   9.355 -0.1430 -0.3148  0.9622
  852MPD2    H312519   1.364   2.341   9.194 -1.5001 -0.8865 -0.0729
  852MPD2     N12520   1.744   2.165   9.383 -0.0188 -0.2052 -0.3737
  852MPD2    H512521   1.771   2.089   9.444 -0.1281 -0.8349 -1.1149
  852MPD2    N112522   1.309   2.076   9.570 -0.2393  0.6174 -0.4228
  852MPD2    H712523   1.366   2.039   9.645  1.0808 -1.1109 -2.2733
  853MPD2     C12524   4.321   1.594  12.204 -0.3057 -0.3768  0.9145
  853MPD2    C112525   4.255   1.687  12.128  0.7086  0.0220 -0.2930
  853MPD2    C212526   4.224   1.658  11.997 -0.3025  0.4785  0.3678
  853MPD2    C312527   4.257   1.538  11.938  0.8936 -0.2878  0.1223
  853MPD2    C412528   4.338   1.453  12.010  0.4653 -1.0584 -1.0376
  853MPD2    C512529   4.358   1.476  12.142  0.0980 -0.4805  1.2137
  853MPD2     H12530   4.166   1.730  11.941  0.2906  0.7656  0.1145
  853MPD2    H112531   4.372   1.361  11.964  1.8090 -1.1950  0.2196
  853MPD2    H212532   4.345   1.628  12.304  2.1642  0.9107 -0.1314
  853MPD2    H312533   4.421   1.407  12.195 -2.0669 -1.7187  2.1741
  853MPD2     N12534   4.215   1.508  11.806  0.3235  0.4674  0.3103
  853MPD2    H512535   4.237   1.411  11.786 -1.7743  0.4587 -1.9792
  853MPD2    N112536   4.211   1.800  12.195  0.2072 -0.0958 -0.0990
  853MPD2    H712537   4.224   1.800  12.296  0.0016 -2.0462 -0.0644
  854MPD2     C12538   0.657   1.171  12.536 -1.2421  0.5062 -0.2127
  854MPD2    C112539   0.737   1.271  12.591  0.5772  0.1483 -0.4047
  854MPD2    C212540   0.852   1.233  12.661 -0.0140  0.4377 -0.0489
  854MPD2    C312541   0.884   1.103  12.667 -0.5150  0.6040  0.0184
  854MPD2    C412542   0.814   1.007  12.596  0.0669 -0.6526 -0.0722
  854MPD2    C512543   0.692   1.042  12.541  0.8266 -0.6098 -0.2402
  854MPD2     H12544   0.917   1.305  12.709 -0.6270  0.9779 -0.0361
  854MPD2    H112545   0.842   0.903  12.585  2.5122  0.0249 -0.3414
  854MPD2    H212546   0.564   1.209  12.495 -2.2491 -2.1271 -0.3480
  854MPD2    H312547   0.622   0.967  12.507 -0.7128 -0.3938  2.4805
  854MPD2     N12548   0.990   1.048  12.744 -0.4989  0.7088  0.4147
  854MPD2    H512549   0.996   0.947  12.735  2.8245  1.1060 -2.0782
  854MPD2    N112550   0.692   1.401  12.563  0.5007  0.7272 -0.1200
  854MPD2    H712551   0.611   1.416  12.504  1.0402 -0.3508 -1.1278
  855MPD2     C12552   1.407   1.424  13.561  0.0025 -0.3383  0.7075
  855MPD2    C112553   1.417   1.284  13.566  0.0262  0.0090  0.3063
  855MPD2    C212554   1.389   1.207  13.452  0.2166 -0.0284  0.0554
  855MPD2    C312555   1.389   1.274  13.331 -0.5289 -0.2883 -0.2572
  855MPD2    C412556   1.397   1.409  13.333 -1.5973  0.4113 -0.2726
  855MPD2    C512557   1.403   1.483  13.442  0.1796  0.3295  0.0391
  855MPD2     H12558   1.394   1.099  13.456 -2.9340 -0.2061 -0.8240
  855MPD2    H112559   1.398   1.471  13.244  1.2325  0.2600 -0.3484
  855MPD2    H212560   1.403   1.490  13.647  0.3810  0.8151 -0.1579
  855MPD2    H312561   1.404   1.589  13.420  0.9425  0.4135  0.4872
  855MPD2     N12562   1.390   1.203  13.205 -0.4513 -0.0868  0.3586
  855MPD2    H512563   1.363   1.255  13.121 -1.0430  0.3993  0.8504
  855MPD2    N112564   1.425   1.217  13.688  1.1073 -0.0625  0.8442
  855MPD2    H712565   1.412   1.116  13.686  1.5501 -0.1106  0.4330
  856MPD2     C12566   3.290   2.022  14.156 -0.5264  0.1300  0.5484
  856MPD2    C112567   3.365   2.136  14.124  0.1396  0.2710 -0.6230
  856MPD2    C212568   3.310   2.236  14.045 -0.7324 -0.7732  0.5468
  856MPD2    C312569   3.182   2.220  13.989  0.6620  0.1476  0.6236
  856MPD2    C412570   3.107   2.115  14.032 -0.2055 -0.5366 -0.4287
  856MPD2    C512571   3.161   2.020  14.100  0.0598  0.0032 -0.1904
  856MPD2     H12572   3.373   2.324  14.030 -1.2253 -0.5756 -0.3911
  856MPD2    H112573   3.008   2.100  13.990 -0.1570  3.8356 -2.0578
  856MPD2    H212574   3.335   1.952  14.225 -0.9088  0.1164  0.7851
  856MPD2    H312575   3.104   1.932  14.128  0.4088 -0.1932 -0.0951
  856MPD2     N12576   3.123   2.323  13.909 -0.3146 -0.0367 -0.0348
  856MPD2    H512577   3.022   2.323  13.898 -0.3538 -0.5826  0.3188
  856MPD2    N112578   3.500   2.155  14.167 -0.3691  0.2199 -0.1830
  856MPD2    H712579   3.529   2.250  14.144 -0.9453  0.0242 -1.7375
  857MPD2     C12580   4.685   4.370  12.554 -0.3556  0.1066 -0.1564
  857MPD2    C112581   0.092   4.360  12.611 -0.0165  0.2164  0.5571
  857MPD2    C212582   0.139   4.474  12.668  0.1796  0.5573 -0.2885
  857MPD2    C312583   0.087   4.600  12.654  0.3207 -0.2609 -0.5821
  857MPD2    C412584   4.681   4.603  12.597 -0.1538 -0.1578  0.3067
  857MPD2    C512585   4.630   4.490  12.547 -0.1305  0.3958  0.8466
  857MPD2     H12586   0.229   4.465  12.728 -1.2904 -0.8947  1.7305
  857MPD2    H112587   4.619   4.692  12.596 -0.2258 -0.1878  1.9479
  857MPD2    H212588   4.639   4.292  12.495 -2.2320  1.4220 -0.4308
  857MPD2    H312589   4.533   4.500  12.499  0.2674 -0.4427 -0.1129
  857MPD2     N12590   0.147   4.706  12.717 -0.1729 -0.1716 -0.2649
  857MPD2    H512591   0.244   4.697  12.747  0.2591 -1.9231 -2.2064
  857MPD2    N112592   0.145   4.231  12.630 -0.3415  0.4575 -0.1829
  857MPD2    H712593   0.091   4.149  12.607 -0.6696  1.0112 -1.3955
  858MPD2     C12594   0.549   2.967  16.736  1.1700  0.4186  0.4530
  858MPD2    C112595   0.666   2.898  16.763 -0.3868  0.8687  0.2596
  858MPD2    C212596   0.777   2.957  16.821 -0.0681 -0.0700  0.0147
  858MPD2    C312597   0.764   3.085  16.870  0.6181 -0.8346  0.0985
  858MPD2    C412598   0.644   3.156  16.844 -0.2166 -0.9296 -0.2310
  858MPD2    C512599   0.539   3.096  16.776 -0.8205  0.3918 -0.4171
  858MPD2     H12600   0.870   2.901  16.833 -0.0501 -0.2877 -1.1684
  858MPD2    H112601   0.632   3.260  16.874  0.9698  0.2580 -3.8233
  858MPD2    H212602   0.461   2.929  16.685  2.2957 -0.1709 -1.0355
  858MPD2    H312603   0.444   3.145  16.762  0.5840  2.8198 -1.4307
  858MPD2     N12604   0.856   3.158  16.946 -0.1954  0.1757 -0.1162
  858MPD2    H512605   0.824   3.244  16.989  0.6593 -0.1010  1.0893
  858MPD2    N112606   0.668   2.761  16.718 -0.1969 -0.2208  0.0953
  858MPD2    H712607   0.584   2.732  16.669  1.1317 -3.2889 -0.3528
  859MPD2     C12608   4.300   0.404  15.108 -0.0518 -1.0646 -0.0375
  859MPD2    C112609   4.428   0.450  15.123  0.1915 -0.1148 -0.8777
  859MPD2    C212610   4.539   0.362  15.111 -0.4895 -0.2311  0.4248
  859MPD2    C312611   4.502   0.236  15.084 -0.7028  0.1088  0.1628
  859MPD2    C412612   4.371   0.194  15.082  0.8009  0.1480 -0.6733
  859MPD2    C512613   4.265   0.279  15.089  0.1815 -0.4992  0.0972
  859MPD2     H12614   4.642   0.392  15.127 -0.4206  0.1009 -0.6282
  859MPD2    H112615   4.337   0.092  15.066 -0.5375  0.3899  0.6929
  859MPD2    H212616   4.221   0.479  15.103  0.1015 -0.8188  1.3082
  859MPD2    H312617   4.160   0.251  15.086  0.0318  0.5045 -3.4080
  859MPD2     N12618   4.597   0.140  15.053  0.1894  0.0208 -0.2944
  859MPD2    H512619   4.558   0.054  15.018 -1.8895  1.9126 -2.6755
  859MPD2    N112620   4.446   0.589  15.148  0.7836 -0.5801  0.0900
  859MPD2    H712621   4.360   0.642  15.152  0.9518 -0.5106  2.5089
  860MPD2     C12622   1.711   1.162  11.260 -0.0752  0.6282 -0.5426
  860MPD2    C112623   1.730   1.240  11.369  0.6788 -0.2501 -0.4630
  860MPD2    C212624   1.681   1.196  11.491  0.2312  0.0791  0.5100
  860MPD2    C312625   1.618   1.081  11.507  0.0779 -0.2959 -0.2727
  860MPD2    C412626   1.605   1.001  11.390  0.3353 -0.3380 -0.6948
  860MPD2    C512627   1.659   1.035  11.268  0.0207 -0.2456 -0.2144
  860MPD2     H12628   1.680   1.265  11.574  0.4991 -1.1646  1.5307
  860MPD2    H112629   1.554   0.905  11.396  0.1948 -0.1137  1.7273
  860MPD2    H212630   1.740   1.203  11.164 -0.0354 -0.3920 -0.9694
  860MPD2    H312631   1.647   0.968  11.183 -0.4352 -1.4007  0.7676
  860MPD2     N12632   1.573   1.047  11.637  0.1527  0.4017  0.2773
  860MPD2    H512633   1.573   1.118  11.709 -0.5228 -0.6562  1.3145
  860MPD2    N112634   1.778   1.373  11.368 -0.0974  0.5037 -0.5595
  860MPD2    H712635   1.787   1.408  11.463 -1.2597 -0.6146 -0.0311
  861MPD2     C12636   1.127   4.073  10.961 -0.3151  0.2386 -0.7731
  861MPD2    C112637   1.028   4.148  11.019 -0.0240 -0.0221  0.4954
  861MPD2    C212638   0.928   4.197  10.936  0.2150  0.0064  0.1079
  861MPD2    C312639   0.925   4.180  10.801  0.4358 -0.2073  0.1604
  861MPD2    C412640   1.021   4.096  10.748 -0.2316 -0.4723  0.8539
  861MPD2    C512641   1.124   4.047  10.827  0.5793  0.7302 -0.4183
  861MPD2     H12642   0.847   4.254  10.980  0.2035 -0.4227  0.6353
  861MPD2    H112643   1.019   4.068  10.643  2.9416  3.0780 -0.1451
  861MPD2    H212644   1.202   4.016  11.015 -2.1218 -1.2574  0.1590
  861MPD2    H312645   1.196   3.971  10.799 -0.0541 -1.2695  3.4665
  861MPD2     N12646   0.824   4.233  10.719 -0.1014  0.2996  0.3837
  861MPD2    H512647   0.826   4.219  10.618 -1.0098 -1.4049  0.6018
  861MPD2    N112648   1.012   4.159  11.158 -1.2506  0.3717  0.6290
  861MPD2    H712649   0.916   4.177  11.188 -1.9118  0.8449 -1.8050
  862MPD2     C12650   0.579   4.085  10.067 -0.1798 -0.6703  0.2250
  862MPD2    C112651   0.658   4.080  10.176  0.6769 -0.1419  0.7126
  862MPD2    C212652   0.738   3.968  10.198  0.4471 -0.5768 -0.1253
  862MPD2    C312653   0.739   3.865  10.104 -0.2694 -0.5475  0.4926
  862MPD2    C412654   0.669   3.876   9.991 -0.7406  0.1381 -0.4992
  862MPD2    C512655   0.589   3.982   9.976 -0.2659  0.2128 -0.1881
  862MPD2     H12656   0.793   3.954  10.291 -1.3069 -1.7139  0.7330
  862MPD2    H112657   0.664   3.799   9.915  3.7503 -1.6513  0.9542
  862MPD2    H212658   0.507   4.163  10.043  0.8189 -0.7399 -3.0054
  862MPD2    H312659   0.513   3.977   9.898  1.2378 -1.0036 -1.5825
  862MPD2     N12660   0.794   3.742  10.123 -0.1395  0.3563 -0.4995
  862MPD2    H512661   0.771   3.669  10.057  1.4934 -0.1514 -0.5234
  862MPD2    N112662   0.665   4.176  10.278  0.1248 -0.4132 -0.0957
  862MPD2    H712663   0.740   4.161  10.344 -0.0480  1.8690  0.6309
  863MPD2     C12664   4.291   2.792  16.458  1.1098  0.3486  0.4239
  863MPD2    C112665   4.200   2.698  16.507  0.1301 -0.1471  0.4630
  863MPD2    C212666   4.229   2.619  16.615  0.0995  0.5339 -0.2590
  863MPD2    C312667   4.361   2.634  16.665 -0.3874  0.1662  0.5344
  863MPD2    C412668   4.449   2.722  16.613 -0.2614  0.1318  0.1751
  863MPD2    C512669   4.417   2.805  16.509 -0.9267 -0.2548  0.2527
  863MPD2     H12670   4.158   2.551  16.659  0.3861  2.0726  2.5651
  863MPD2    H112671   4.542   2.731  16.670 -0.1263 -0.2472  0.0135
  863MPD2    H212672   4.263   2.858  16.376  1.0851  2.2923  2.0072
  863MPD2    H312673   4.483   2.882  16.471  0.3422 -0.4189  2.1097
  863MPD2     N12674   4.411   2.559  16.775  1.0077 -0.2014  0.8251
  863MPD2    H512675   4.508   2.569  16.804  0.7376  1.1233  1.2800
  863MPD2    N112676   4.078   2.681  16.443 -0.1061 -0.1044  0.4329
  863MPD2    H712677   4.052   2.731  16.358 -1.9599  0.2200  1.1907
  864MPD2     C12678   0.083   3.513  17.226  0.0657  0.3544  0.5510
  864MPD2    C112679   0.069   3.585  17.110 -0.3373  0.4500  0.2086
  864MPD2    C212680   0.178   3.666  17.064 -0.1872 -0.2743 -0.2515
  864MPD2    C312681   0.298   3.664  17.128 -0.5742  0.3904 -0.3769
  864MPD2    C412682   0.316   3.581  17.237  0.4638  0.2135  0.1211
  864MPD2    C512683   0.209   3.499  17.276  0.1448  0.2914  0.7505
  864MPD2     H12684   0.163   3.711  16.967 -0.6367 -1.0429 -0.5445
  864MPD2    H112685   0.407   3.590  17.296  1.8217 -0.2526 -1.9329
  864MPD2    H212686   0.002   3.463  17.277 -0.0430 -0.1958 -0.1522
  864MPD2    H312687   0.217   3.428  17.357 -2.2738 -0.9825 -0.1561
  864MPD2     N12688   0.412   3.732  17.069 -0.3945 -0.0722 -0.4593
  864MPD2    H512689   0.505   3.709  17.101 -0.3088  1.6179  0.5355
  864MPD2    N112690   4.660   3.585  17.048  0.1312 -0.0072 -0.2741
  864MPD2    H712691   4.594   3.514  17.080  1.1312 -0.8914 -0.1728
  865MPD2     C12692   0.666   4.300  16.188  0.4245  0.1375  0.0586
  865MPD2    C112693   0.555   4.226  16.232  0.1275 -0.0037  0.2868
  865MPD2    C212694   0.562   4.180  16.360 -1.0323  0.3218  0.0845
  865MPD2    C312695   0.671   4.205  16.441  0.2519 -0.2027 -0.5126
  865MPD2    C412696   0.783   4.261  16.394 -0.2252  0.3707  0.3221
  865MPD2    C512697   0.783   4.307  16.266 -0.0538  0.1558 -0.9831
  865MPD2     H12698   0.481   4.114  16.388 -0.9694  0.7986  1.3789
  865MPD2    H112699   0.872   4.287  16.450  0.0002  0.0666  0.1075
  865MPD2    H212700   0.667   4.348  16.091  1.8853 -1.8651 -0.9317
  865MPD2    H312701   0.864   4.372  16.234  1.0105 -1.2892 -1.2024
  865MPD2     N12702   0.684   4.163  16.579 -0.0028 -0.4751 -0.5449
  865MPD2    H512703   0.775   4.175  16.623 -1.6198 -1.0458  2.9964
  865MPD2    N112704   0.439   4.216  16.139 -0.2805  0.1717 -0.3175
  865MPD2    H712705   0.453   4.251  16.045 -1.0400 -0.9911 -0.8659
  866MPD2     C12706   1.573   4.311  11.404  0.0461  0.4712  0.1067
  866MPD2    C112707   1.583   4.363  11.277  0.0840 -0.3975  0.0373
  866MPD2    C212708   1.474   4.446  11.222  0.5973  0.5411  0.2817
  866MPD2    C312709   1.355   4.456  11.302 -0.0375  0.0506 -0.2135
  866MPD2    C412710   1.348   4.396  11.425  0.8470  0.7527 -0.2150
  866MPD2    C512711   1.454   4.318  11.466 -0.3690  0.7702 -0.0809
  866MPD2     H12712   1.495   4.496  11.128 -2.4268 -0.4531 -0.9286
  866MPD2    H112713   1.252   4.400  11.474  0.0752  0.4619 -1.6974
  866MPD2    H212714   1.655   4.248  11.437  0.3455  0.3983 -0.7672
  866MPD2    H312715   1.456   4.265  11.561  1.7660  0.0583 -0.5266
  866MPD2     N12716   1.244   4.524  11.255 -0.3513 -0.4351  0.5683
  866MPD2    H512717   1.164   4.533  11.317  0.8041 -1.5772  2.2014
  866MPD2    N112718   1.700   4.328  11.204  0.2801 -0.0695 -0.2553
  866MPD2    H712719   1.757   4.258  11.251 -1.9297 -1.9400 -0.3423
  867MPD2     C12720   3.881   4.302  16.463  0.1202 -0.9112  0.4573
  867MPD2    C112721   3.937   4.207  16.553  0.4758 -0.3791 -0.3110
  867MPD2    C212722   3.940   4.236  16.685 -0.0942 -0.3848 -0.0006
  867MPD2    C312723   3.881   4.357  16.731 -0.1974 -0.1604 -0.7853
  867MPD2    C412724   3.835   4.450  16.636 -0.9922  0.4723  0.1027
  867MPD2    C512725   3.836   4.424  16.506  0.0934 -0.3073 -0.4626
  867MPD2     H12726   3.985   4.171  16.760 -1.2216 -1.7648 -0.5076
  867MPD2    H112727   3.802   4.547  16.671 -4.0291 -0.1229 -1.1823
  867MPD2    H212728   3.890   4.271  16.359  1.7437  1.6054 -0.1484
  867MPD2    H312729   3.798   4.489  16.428 -0.5072 -0.2234 -0.0985
  867MPD2     N12730   3.881   4.396  16.871  0.3608  0.4505 -0.3228
  867MPD2    H512731   3.865   4.494  16.892 -0.9753 -0.2388  1.8325
  867MPD2    N112732   3.955   4.077  16.497  0.4437  0.0892  0.7959
  867MPD2    H712733   3.927   4.065  16.400 -0.7878  1.4760  0.9757
  868MPD2     C12734   0.498   1.621  13.019  0.5357 -0.5669 -0.0063
  868MPD2    C112735   0.530   1.707  13.123 -0.3781  0.7689 -0.4359
  868MPD2    C212736   0.435   1.728  13.223 -0.0963 -0.4788  0.4401
  868MPD2    C312737   0.299   1.697  13.201  0.2006 -0.8434  0.2191
  868MPD2    C412738   0.271   1.625  13.078 -0.3477  0.2595 -0.0437
  868MPD2    C512739   0.372   1.583  12.991  0.0167  0.3262  0.2999
  868MPD2     H12740   0.457   1.785  13.312  1.7294  0.5917 -0.7056
  868MPD2    H112741   0.169   1.604  13.048 -0.3111 -0.3095  0.2320
  868MPD2    H212742   0.576   1.588  12.951 -0.7831 -0.9556 -1.3154
  868MPD2    H312743   0.351   1.514  12.910  0.0867  1.9087 -1.0608
  868MPD2     N12744   0.197   1.722  13.307 -0.4991  0.1144  0.2569
  868MPD2    H512745   0.237   1.765  13.390 -1.7244  1.0709  0.3564
  868MPD2    N112746   0.661   1.750  13.155  0.5171  0.0649  0.8854
  868MPD2    H712747   0.668   1.797  13.244 -2.8792 -2.9416  2.7318
  869MPD2     C12748   1.637   0.228   2.097 -0.0989 -0.6077  0.1034
  869MPD2    C112749   1.624   0.368   2.089 -0.3182 -0.6422  0.3924
  869MPD2    C212750   1.622   0.439   1.969 -0.1335 -0.0178  0.2364
  869MPD2    C312751   1.648   0.375   1.852 -0.3534  0.4167  0.9831
  869MPD2    C412752   1.662   0.239   1.854 -0.1515  0.7969 -0.4903
  869MPD2    C512753   1.650   0.162   1.972 -0.1593  0.5147 -0.8733
  869MPD2     H12754   1.608   0.546   1.977  0.1874 -0.0280  0.9676
  869MPD2    H112755   1.670   0.188   1.759 -1.9209  0.1481 -0.2854
  869MPD2    H212756   1.626   0.164   2.184 -2.1511 -0.1158  0.2035
  869MPD2    H312757   1.663   0.055   1.974  2.2866  0.8320  1.4509
  869MPD2     N12758   1.657   0.439   1.725  0.4673  0.0769  0.5866
  869MPD2    H512759   1.675   0.381   1.644 -1.4558 -1.3957  1.2250
  869MPD2    N112760   1.615   0.431   2.221  0.4047  0.0903 -0.0691
  869MPD2    H712761   1.644   0.372   2.299  0.2382  0.1241  0.0185
  870MPD2     C12762   1.929   3.892   2.157 -0.3919 -1.0316  0.1731
  870MPD2    C112763   1.827   3.803   2.180  0.1654  0.6146 -0.2650
  870MPD2    C212764   1.750   3.757   2.071 -0.0795  0.3611 -0.4558
  870MPD2    C312765   1.777   3.800   1.943  0.4669  0.3172  0.1839
  870MPD2    C412766   1.870   3.901   1.926  0.3549 -0.0566 -0.0630
  870MPD2    C512767   1.950   3.947   2.028  0.1620  0.1232  0.2028
  870MPD2     H12768   1.664   3.693   2.088  0.4122 -0.0204  0.6574
  870MPD2    H112769   1.896   3.930   1.824  1.2998  0.7079  0.3937
  870MPD2    H212770   1.988   3.930   2.239  0.6032 -1.9511 -0.1208
  870MPD2    H312771   2.026   4.020   2.005  1.5504 -1.7286 -1.0331
  870MPD2     N12772   1.710   3.731   1.846  1.0265  0.7121  0.5105
  870MPD2    H512773   1.662   3.646   1.873 -2.0393  2.3809  0.2742
  870MPD2    N112774   1.806   3.764   2.312  0.0419 -0.3166  0.4885
  870MPD2    H712775   1.861   3.807   2.386  0.3851 -2.2006  1.3213
  871MPD2     C12776   2.803   3.705  16.386 -0.1954 -0.6151 -0.2423
  871MPD2    C112777   2.759   3.589  16.443 -0.2502 -0.3201 -0.5964
  871MPD2    C212778   2.771   3.469  16.378 -0.5779  0.4255 -0.3412
  871MPD2    C312779   2.822   3.466  16.249  0.6852 -0.2023 -0.1612
  871MPD2    C412780   2.864   3.587  16.192 -0.2591 -0.5326 -0.1098
  871MPD2    C512781   2.847   3.708  16.252  0.6283  0.6344  0.2151
  871MPD2     H12782   2.745   3.374  16.424  1.9873  0.0664  0.3865
  871MPD2    H112783   2.899   3.591  16.090 -0.8564  0.6857 -0.2617
  871MPD2    H212784   2.807   3.799  16.439 -0.7857  0.9401 -2.9647
  871MPD2    H312785   2.873   3.804  16.210  1.4804  0.2542 -0.1329
  871MPD2     N12786   2.845   3.342  16.187  0.7381  0.1246 -0.4282
  871MPD2    H512787   2.806   3.263  16.237 -1.2707  0.4577 -1.4371
  871MPD2    N112788   2.721   3.597  16.578 -0.0746 -0.0891 -0.1444
  871MPD2    H712789   2.711   3.693  16.610 -0.3509 -0.0963 -0.2090
  872MPD2     C12790   3.004   2.000  13.426 -0.2170  0.0018  0.5138
  872MPD2    C112791   3.079   1.960  13.536 -0.6299  0.1412 -0.5615
  872MPD2    C212792   3.031   1.853  13.608 -0.0568  0.1788 -0.3732
  872MPD2    C312793   2.908   1.801  13.587 -0.1038  0.0971  1.0405
  872MPD2    C412794   2.823   1.861  13.501  0.6849 -0.7854  0.4608
  872MPD2    C512795   2.875   1.957  13.422  0.2354  0.4014  0.9151
  872MPD2     H12796   3.099   1.815  13.684  2.4102 -0.4073 -2.8618
  872MPD2    H112797   2.720   1.830  13.493  1.0812 -1.3094 -2.7532
  872MPD2    H212798   3.033   2.080  13.358 -1.5630  0.4262  0.4466
  872MPD2    H312799   2.811   2.014  13.355  0.8838 -0.3347 -0.3462
  872MPD2     N12800   2.845   1.714  13.681  0.5359 -0.3697 -0.7546
  872MPD2    H512801   2.746   1.693  13.673  0.6262 -0.6976 -1.0201
  872MPD2    N112802   3.205   2.015  13.566  0.3785 -0.2854 -0.2735
  872MPD2    H712803   3.268   1.970  13.632  0.1504 -4.1326 -2.6187
  873MPD2     C12804   0.447   0.716   1.345  0.2183  0.0342  0.4422
  873MPD2    C112805   0.319   0.726   1.296  0.1982 -0.2910 -0.9345
  873MPD2    C212806   0.248   0.607   1.278  0.0581 -0.2459  0.2152
  873MPD2    C312807   0.305   0.481   1.300  0.1178 -0.2558 -0.8474
  873MPD2    C412808   0.433   0.477   1.352  0.0192 -0.2587 -0.5218
  873MPD2    C512809   0.503   0.598   1.379 -0.4389  0.0788  0.0370
  873MPD2     H12810   0.144   0.616   1.249 -0.2096  0.1636  1.3101
  873MPD2    H112811   0.477   0.384   1.388  0.0881 -0.0332 -0.0246
  873MPD2    H212812   0.507   0.806   1.348 -0.3857  0.4820 -1.1927
  873MPD2    H312813   0.607   0.592   1.410  0.4540  0.1874 -2.9434
  873MPD2     N12814   0.232   0.360   1.275  0.2284 -0.5136  0.6766
  873MPD2    H512815   0.262   0.275   1.322  1.6946  0.4796  1.5135
  873MPD2    N112816   0.262   0.855   1.277  0.0196  0.1445 -0.3621
  873MPD2    H712817   0.322   0.932   1.305 -1.0713  0.6716  0.5273
  874MPD2     C12818   0.025   0.924  16.005  0.5149  0.2118  0.1255
  874MPD2    C112819   0.151   0.875  16.048 -0.1597 -0.5050  0.1573
  874MPD2    C212820   0.268   0.940  16.015 -0.5613  0.8963 -0.2247
  874MPD2    C312821   0.266   1.062  15.958  0.4766 -0.2151  0.0849
  874MPD2    C412822   0.143   1.116  15.920 -0.4935 -0.0190 -0.2031
  874MPD2    C512823   0.025   1.048  15.948 -0.8625 -0.5313 -0.4627
  874MPD2     H12824   0.357   0.880  16.025  0.6189  2.3750 -1.8560
  874MPD2    H112825   0.138   1.203  15.855  0.9780 -0.3778 -0.7996
  874MPD2    H212826   4.651   0.871  16.019  0.8511  0.4277  3.3366
  874MPD2    H312827   4.648   1.080  15.910 -0.8432  0.7347  0.5487
  874MPD2     N12828   0.382   1.143  15.954 -0.7209  0.0467 -1.5589
  874MPD2    H512829   0.363   1.242  15.941  1.9926  0.8256  0.4259
  874MPD2    N112830   0.138   0.756  16.134  0.1880 -0.1632  0.1681
  874MPD2    H712831   0.043   0.722  16.144 -0.1503  0.9795  0.7707
  875MPD2     C12832   1.489   4.223  14.603  0.3901  0.6754  0.4885
  875MPD2    C112833   1.422   4.345  14.585 -0.7537 -0.2836 -0.2605
  875MPD2    C212834   1.435   4.451  14.677 -0.4849  0.1344  0.0935
  875MPD2    C312835   1.538   4.444  14.770  0.1403  0.2007  0.2271
  875MPD2    C412836   1.603   4.324  14.789 -0.0663 -0.7380  0.5128
  875MPD2    C512837   1.585   4.213  14.701  1.2219  0.2961 -0.6186
  875MPD2     H12838   1.393   4.549  14.659 -2.7624 -0.8129  0.2263
  875MPD2    H112839   1.674   4.311  14.870 -0.8238 -1.7154  1.0291
  875MPD2    H212840   1.471   4.131  14.547  1.1100 -0.4266  2.0585
  875MPD2    H312841   1.631   4.123  14.740  1.1865 -0.0368 -1.3456
  875MPD2     N12842   1.580   4.555  14.841  0.4983 -0.0094 -0.6122
  875MPD2    H512843   1.652   4.535  14.909  1.4017 -1.6740 -2.0560
  875MPD2    N112844   1.333   4.366  14.478 -0.0423 -0.7926 -0.1428
  875MPD2    H712845   1.276   4.450  14.484  1.0679 -0.0125 -0.4362
  876MPD2     C12846   0.032   0.839  15.554  0.1474 -0.8798 -0.5435
  876MPD2    C112847   0.167   0.871  15.580  0.8350  0.4443  0.6521
  876MPD2    C212848   0.227   0.803  15.686  0.6713  0.4819 -0.0665
  876MPD2    C312849   0.166   0.692  15.746 -0.4850  0.5277  0.1194
  876MPD2    C412850   0.025   0.654  15.715  0.5170  0.2331 -0.5421
  876MPD2    C512851   4.688   0.728  15.613  0.2257  0.4073 -0.1515
  876MPD2     H12852   0.327   0.832  15.718 -0.3256  1.8667  1.7785
  876MPD2    H112853   4.683   0.587  15.773 -0.7374  1.5449 -0.3525
  876MPD2    H212854   4.701   0.909  15.488  0.9087  1.5802  1.4563
  876MPD2    H312855   4.581   0.722  15.594  0.5870 -2.0030 -1.4962
  876MPD2     N12856   0.243   0.615  15.835  0.1769  0.0290  0.3759
  876MPD2    H512857   0.344   0.623  15.843  0.0771 -0.9244  2.6814
  876MPD2    N112858   0.222   0.988  15.526 -0.1302  0.1255  0.1351
  876MPD2    H712859   0.168   1.032  15.452 -0.5221  1.6148  1.2955
  877MPD2     C12860   4.616   1.389  15.074  0.3438 -0.6871 -0.5705
  877MPD2    C112861   0.032   1.379  15.050 -0.7267  0.1466 -0.6694
  877MPD2    C212862   0.079   1.372  14.919 -0.6177 -0.7713  0.0249
  877MPD2    C312863   4.706   1.358  14.814  0.1867  0.1591 -0.5102
  877MPD2    C412864   4.571   1.363  14.843  0.5925 -0.4301 -0.1215
  877MPD2    C512865   4.530   1.378  14.973  0.4944  0.7407  0.3705
  877MPD2     H12866   0.186   1.374  14.904 -1.0205  3.5511 -2.2744
  877MPD2    H112867   4.491   1.346  14.773  2.1392  3.0911 -2.6853
  877MPD2    H212868   4.576   1.403  15.174  2.9491  2.0087  0.1059
  877MPD2    H312869   4.425   1.364  14.993 -0.5775  1.4498 -4.6649
  877MPD2     N12870   0.025   1.335  14.679 -0.5332  0.2346  0.0839
  877MPD2    H512871   4.675   1.293  14.617 -1.6043  0.9020  0.8406
  877MPD2    N112872   0.135   1.390  15.153 -0.0946 -0.0062  0.2692
  877MPD2    H712873   0.228   1.380  15.115 -0.8956 -2.0163 -1.1727
  878MPD2     C12874   0.007   0.786  12.809 -0.3301  0.8810  0.0994
  878MPD2    C112875   4.707   0.892  12.890  0.1025 -0.6117 -0.8536
  878MPD2    C212876   4.676   0.876  13.025  0.1871 -0.2999  0.3944
  878MPD2    C312877   4.625   0.752  13.068 -1.0433  0.1285  0.4660
  878MPD2    C412878   4.639   0.647  12.979  0.7858  0.3429  0.5088
  878MPD2    C512879   4.690   0.659  12.849  0.0387 -0.2448 -0.2342
  878MPD2     H12880   4.664   0.964  13.087 -0.2024 -1.6200  2.2067
  878MPD2    H112881   4.634   0.543  13.009  0.5988 -0.3197 -1.8754
  878MPD2    H212882   0.049   0.792  12.709  3.0184  0.7408  1.5212
  878MPD2    H312883   4.711   0.579  12.780 -2.2843 -0.7165 -0.3904
  878MPD2     N12884   4.585   0.735  13.200 -0.5247  0.0605 -0.4882
  878MPD2    H512885   4.584   0.824  13.249  0.5797 -0.4891  0.5195
  878MPD2    N112886   0.033   1.013  12.830  0.4780  0.5350  0.3307
  878MPD2    H712887   0.039   1.008  12.729  0.0938  0.4348  0.3122
  879MPD2     C12888   0.687   1.926  16.839  0.5344 -0.0174  0.0855
  879MPD2    C112889   0.616   1.917  16.960  0.3692 -0.2804  0.3331
  879MPD2    C212890   0.482   1.871  16.950  0.5649  0.7288 -0.2618
  879MPD2    C312891   0.424   1.833  16.824  0.3981  0.2894 -0.2675
  879MPD2    C412892   0.505   1.841  16.709  0.2930 -0.0423 -0.0984
  879MPD2    C512893   0.634   1.887  16.715  0.9734  0.4973  1.1378
  879MPD2     H12894   0.419   1.870  17.037 -0.0129 -0.0539 -0.6922
  879MPD2    H112895   0.464   1.820  16.611  0.2035 -3.0329  0.5984
  879MPD2    H212896   0.793   1.950  16.839  0.3400  0.8619  1.0461
  879MPD2    H312897   0.698   1.905  16.629  0.0341 -0.3091  0.2794
  879MPD2     N12898   0.301   1.768  16.811 -0.3451  0.3354 -0.3903
  879MPD2    H512899   0.284   1.732  16.718  0.8505  2.0933 -1.2908
  879MPD2    N112900   0.681   1.939  17.081 -0.6812 -0.1435 -0.2596
  879MPD2    H712901   0.779   1.963  17.084 -1.0390  0.9878  1.8812
  880MPD2     C12902   2.233   3.060   0.305 -0.1596  0.2214  0.2352
  880MPD2    C112903   2.146   3.086   0.405  0.2928 -0.6246  0.8317
  880MPD2    C212904   2.077   2.975   0.454 -0.0170 -1.2690  1.0024
  880MPD2    C312905   2.096   2.840   0.410  0.9815  0.6206 -0.6455
  880MPD2    C412906   2.188   2.823   0.315 -0.0159  0.6666 -0.4197
  880MPD2    C512907   2.265   2.931   0.274 -0.5187 -0.1495  0.2209
  880MPD2     H12908   2.003   2.992   0.532 -1.3194  0.2502 -0.5804
  880MPD2    H112909   2.227   2.728   0.280  0.7957  0.2129  1.7068
  880MPD2    H212910   2.288   3.142   0.260 -1.6897  1.6448  0.9635
  880MPD2    H312911   2.349   2.922   0.206  0.9622  0.8184  1.9300
  880MPD2     N12912   2.030   2.745   0.488 -0.5990  0.0801 -0.4249
  880MPD2    H512913   1.986   2.772   0.576 -0.3947 -0.1684 -0.2466
  880MPD2    N112914   2.124   3.216   0.451 -0.0775 -0.2241  0.3001
  880MPD2    H712915   2.178   3.288   0.404 -2.9312  1.5971 -0.1761
  881MPD2     C12916   1.895   4.136   0.153  0.1594 -0.4092 -0.3500
  881MPD2    C112917   2.003   4.049   0.126 -0.5469 -0.2205  0.3101
  881MPD2    C212918   2.027   3.939   0.207 -0.6736 -0.1121  0.3954
  881MPD2    C312919   1.957   3.917   0.329  0.0655  0.4631 -0.1685
  881MPD2    C412920   1.860   4.006   0.353  0.6951 -0.0959 -0.2343
  881MPD2    C512921   1.826   4.113   0.275 -0.0753 -0.5914  0.2370
  881MPD2     H12922   2.098   3.867   0.168 -1.3184  0.7124 -2.3025
  881MPD2    H112923   1.805   3.997   0.446 -1.1236 -1.0445 -1.4141
  881MPD2    H212924   1.873   4.215   0.082 -0.3193 -1.3586 -1.2595
  881MPD2    H312925   1.736   4.168   0.299  0.7164  1.3056 -1.1733
  881MPD2     N12926   1.986   3.814   0.420 -0.5627 -0.7781 -0.3613
  881MPD2    H512927   1.916   3.812   0.493 -0.6354 -1.6960 -0.4535
  881MPD2    N112928   2.053   4.054  17.673  0.5543  0.4667  0.3958
  881MPD2    H712929   2.009   4.129  17.620 -1.1731 -1.1094 -0.3895
  882MPD2     C12930   0.026   0.995  13.892  0.4216 -0.1861  0.7512
  882MPD2    C112931   4.691   1.074  13.992 -0.6519 -0.0122  0.5482
  882MPD2    C212932   4.572   1.133  13.961 -0.1624 -0.8057  0.2375
  882MPD2    C312933   4.505   1.115  13.844 -0.0038 -0.4039 -0.0999
  882MPD2    C412934   4.557   1.029  13.756  0.0252 -0.3716  0.3119
  882MPD2    C512935   4.679   0.970  13.779 -0.6525  0.8291 -1.0698
  882MPD2     H12936   4.533   1.203  14.034 -1.7295 -0.1538 -1.2022
  882MPD2    H112937   4.510   1.004  13.661 -4.0270  2.7096  1.5169
  882MPD2    H212938   0.120   0.943  13.905 -0.4661 -1.8976  0.4125
  882MPD2    H312939   0.000   0.902  13.705 -1.6128 -1.9564  0.9654
  882MPD2     N12940   4.373   1.162  13.818 -0.1312 -1.0450 -0.0650
  882MPD2    H512941   4.320   1.107  13.750 -3.3196  1.4399  0.4088
  882MPD2    N112942   0.036   1.073  14.120 -0.6118 -0.1927 -0.0211
  882MPD2    H712943   0.125   1.026  14.137 -0.8044 -0.7247 -0.4769
  883MPD2     C12944   2.114   1.465  16.264  0.6585  0.0523 -0.2419
  883MPD2    C112945   2.194   1.550  16.184 -0.0477 -1.0465 -0.7593
  883MPD2    C212946   2.328   1.567  16.221 -0.6735 -0.6033  0.4976
  883MPD2    C312947   2.377   1.479  16.315 -0.1817  0.0907  0.0059
  883MPD2    C412948   2.293   1.393  16.396  0.2270  0.4060  0.1543
  883MPD2    C512949   2.159   1.386  16.369 -0.4522 -0.0696 -0.0164
  883MPD2     H12950   2.393   1.636  16.168 -1.4819 -0.8899 -0.8736
  883MPD2    H112951   2.337   1.339  16.479  1.6750 -0.6758 -1.3268
  883MPD2    H212952   2.008   1.465  16.242  0.3741  1.5579  1.0701
  883MPD2    H312953   2.093   1.313  16.415  1.1223 -0.2186  1.9827
  883MPD2     N12954   2.520   1.478  16.326 -0.0623 -0.3360  0.4263
  883MPD2    H512955   2.567   1.553  16.277 -1.7339  1.0118  0.8992
  883MPD2    N112956   2.142   1.631  16.086 -0.2109  0.2515  0.5150
  883MPD2    H712957   2.218   1.688  16.050  1.5934 -1.3888  1.7907
  884MPD2     C12958   4.117   1.900  15.205  0.3259 -0.2591  0.1298
  884MPD2    C112959   4.115   2.023  15.152 -0.3293  0.2125  0.4294
  884MPD2    C212960   3.995   2.095  15.157 -0.4541 -0.4671 -0.0940
  884MPD2    C312961   3.885   2.039  15.217 -0.3001 -0.1533  0.0656
  884MPD2    C412962   3.890   1.912  15.272 -0.3382 -0.0307  0.2199
  884MPD2    C512963   4.004   1.840  15.266 -0.7163  0.1493 -0.1988
  884MPD2     H12964   3.986   2.190  15.106 -0.0570  0.5931  1.8331
  884MPD2    H112965   3.808   1.874  15.332  0.9381  0.5105  2.2813
  884MPD2    H212966   4.207   1.840  15.209  0.1346 -0.5155  0.6711
  884MPD2    H312967   4.019   1.746  15.317  0.3672 -0.9205 -2.4856
  884MPD2     N12968   3.761   2.113  15.204 -0.6550 -0.3482  0.3043
  884MPD2    H512969   3.764   2.209  15.171  0.4770 -0.7403 -0.7638
  884MPD2    N112970   4.224   2.094  15.090  0.1760  0.4180  0.0379
  884MPD2    H712971   4.201   2.168  15.024 -0.3327 -1.4463 -1.8609
  885MPD2     C12972   2.215   1.987  17.588  0.1701  0.0715  0.3887
  885MPD2    C112973   2.187   1.909  17.483 -0.1160  0.3764 -0.1360
  885MPD2    C212974   2.178   1.961  17.356 -0.0398 -0.6719 -0.5549
  885MPD2    C312975   2.183   2.103  17.341  0.1664  1.2057  0.1708
  885MPD2    C412976   2.199   2.180  17.451 -0.4176 -0.2968  0.6874
  885MPD2    C512977   2.205   2.122  17.575  0.1830  0.2845 -0.1121
  885MPD2     H12978   2.159   1.895  17.271  1.0469 -1.0667 -0.4852
  885MPD2    H112979   2.220   2.286  17.445  1.8696 -0.9401 -2.1834
  885MPD2    H212980   2.231   1.947   0.006 -0.4413 -1.6850 -0.2220
  885MPD2    H312981   2.212   2.182  17.665 -0.8909 -0.0371  0.1809
  885MPD2     N12982   2.186   2.155  17.211 -0.3030  0.5304 -0.0695
  885MPD2    H512983   2.190   2.090  17.133  0.7688  0.6464 -0.1126
  885MPD2    N112984   2.166   1.769  17.504 -0.1193  0.6533  0.0826
  885MPD2    H712985   2.181   1.741  17.601  1.8794 -1.3193 -0.7815
  886MPD2     C12986   3.415   0.873  15.696  0.4752  0.1601  0.2517
  886MPD2    C112987   3.526   0.827  15.628  0.5176  0.0020  0.1175
  886MPD2    C212988   3.545   0.874  15.502  0.4941 -0.2584 -0.6718
  886MPD2    C312989   3.468   0.969  15.450  0.5130 -0.4599  0.6999
  886MPD2    C412990   3.372   1.030  15.527  0.4674  0.2345 -0.1011
  886MPD2    C512991   3.339   0.980  15.645  0.8404  0.1212  0.7206
  886MPD2     H12992   3.621   0.826  15.441 -0.0588 -2.0717  0.0730
  886MPD2    H112993   3.314   1.112  15.487  1.7155  1.6184  0.9450
  886MPD2    H212994   3.397   0.854  15.801  1.2234 -0.6723  0.2258
  886MPD2    H312995   3.257   1.010  15.710 -0.5849  1.0506 -1.5303
  886MPD2     N12996   3.495   1.004  15.316  0.0232 -0.4672  0.3417
  886MPD2    H512997   3.564   0.950  15.265  1.3090 -0.1091  1.6888
  886MPD2    N112998   3.616   0.725  15.674 -0.9137  0.6246 -0.2626
  886MPD2    H712999   3.690   0.706  15.607  0.5526 -1.5256  1.9779
  887MPD2     C13000   4.275   0.554  15.540  0.5362 -0.0897 -0.1284
  887MPD2    C113001   4.180   0.632  15.599  0.1871 -0.0126 -0.2380
  887MPD2    C213002   4.186   0.769  15.580  0.0921  0.0415 -0.1097
  887MPD2    C313003   4.292   0.825  15.507 -0.0317  0.2605 -0.3975
  887MPD2    C413004   4.383   0.744  15.439 -0.5226 -0.5734  0.0694
  887MPD2    C513005   4.379   0.613  15.464  0.4266 -0.3029  0.4107
  887MPD2     H13006   4.106   0.837  15.609  0.3976  0.1390  0.5087
  887MPD2    H113007   4.469   0.789  15.391 -1.1446  0.2617 -0.2740
  887MPD2    H213008   4.280   0.448  15.561 -1.7236 -0.2090 -0.1732
  887MPD2    H313009   4.451   0.552  15.411 -0.5119 -1.1564  0.1195
  887MPD2     N13010   4.294   0.965  15.511  0.1828 -0.6951 -0.4059
  887MPD2    H513011   4.215   1.012  15.554 -0.6659 -0.5701 -2.1141
  887MPD2    N113012   4.070   0.588  15.676 -0.0414  0.5915  0.5959
  887MPD2    H713013   3.995   0.652  15.703 -1.7978 -0.8245 -0.8831
  888MPD2     C13014   1.325   1.093  14.884 -0.0724  0.5046  0.1563
  888MPD2    C113015   1.364   1.165  14.993 -0.2693  0.4977 -0.0820
  888MPD2    C213016   1.391   1.301  14.976 -0.0551  0.3408  0.0401
  888MPD2    C313017   1.359   1.356  14.855  0.3453 -0.1773 -0.2061
  888MPD2    C413018   1.315   1.284  14.742  0.4219 -0.4389  0.3471
  888MPD2    C513019   1.308   1.151  14.763 -0.6360 -0.0509 -0.5718
  888MPD2     H13020   1.422   1.357  15.064 -0.5754  0.2736  0.2676
  888MPD2    H113021   1.289   1.327  14.646 -0.6268 -0.7561  0.4954
  888MPD2    H213022   1.326   0.985  14.884 -1.9684  0.4749 -0.4255
  888MPD2    H313023   1.264   1.095  14.681 -0.9242 -0.5100 -0.1025
  888MPD2     N13024   1.370   1.495  14.846 -0.4918  0.0617 -0.2868
  888MPD2    H513025   1.402   1.540  14.931 -1.0555 -0.4571  0.1971
  888MPD2    N113026   1.367   1.092  15.116 -0.5115  0.0889 -0.4143
  888MPD2    H713027   1.331   0.997  15.109 -2.2435  0.7262 -0.0814
  889MPD2     C13028   0.343   0.815  12.718  0.0614  0.1913  0.5209
  889MPD2    C113029   0.357   0.765  12.849 -0.0976  0.2266  0.2850
  889MPD2    C213030   0.357   0.858  12.951  0.8198  0.2772  1.1843
  889MPD2    C313031   0.364   0.992  12.924 -0.6276 -0.7030 -0.5263
  889MPD2    C413032   0.363   1.038  12.788  0.3351 -0.3104  0.0910
  889MPD2    C513033   0.358   0.947  12.689  0.2911  0.1951 -0.4843
  889MPD2     H13034   0.332   0.830  13.053 -2.3740 -2.1424 -0.2662
  889MPD2    H113035   0.364   1.145  12.769  1.1778 -0.2605  0.3999
  889MPD2    H213036   0.334   0.745  12.635  3.6722 -1.0145  1.1193
  889MPD2    H313037   0.347   0.990  12.590  2.0848  0.4633 -0.5653
  889MPD2     N13038   0.391   1.083  13.028 -0.2588 -0.0343  0.2171
  889MPD2    H513039   0.378   1.045  13.122  1.9634  2.5992  1.5980
  889MPD2    N113040   0.329   0.631  12.885 -0.1815  0.1517 -0.3648
  889MPD2    H713041   0.335   0.603  12.982  0.4706  0.4936 -0.3111
  890MPD2     C13042   0.252   2.115  14.544  0.4130 -0.5548 -0.6272
  890MPD2    C113043   0.268   2.230  14.622  0.2497  0.4705 -0.1797
  890MPD2    C213044   0.301   2.209  14.756  0.6790  0.3160  0.1947
  890MPD2    C313045   0.314   2.079  14.809  0.3773  0.0858  0.0944
  890MPD2    C413046   0.298   1.972  14.730 -0.5043 -0.1421 -0.0356
  890MPD2    C513047   0.265   1.995  14.599 -0.4306 -0.0331 -0.0886
  890MPD2     H13048   0.328   2.289  14.823 -0.1112 -0.1279  1.0344
  890MPD2    H113049   0.333   1.873  14.756  1.1714  0.4860  0.0887
  890MPD2    H213050   0.253   2.122  14.436  0.0666  0.9861 -0.5186
  890MPD2    H313051   0.256   1.916  14.526 -1.7124 -1.1451  1.2772
  890MPD2     N13052   0.376   2.067  14.939 -0.7364 -0.1871 -0.4102
  890MPD2    H513053   0.397   2.154  14.986 -0.1448 -0.5687  0.0259
  890MPD2    N113054   0.263   2.360  14.563 -0.5601  0.4941 -0.3329
  890MPD2    H713055   0.249   2.361  14.463 -0.0393 -0.1163 -0.4186
  891MPD2     C13056   3.347   0.674  17.059 -0.0252 -0.2064  0.2170
  891MPD2    C113057   3.253   0.588  17.120  0.4070  0.3117 -0.5886
  891MPD2    C213058   3.293   0.516  17.234  0.2805  0.0027 -0.0261
  891MPD2    C313059   3.429   0.506  17.264  0.5325 -0.2586  0.3080
  891MPD2    C413060   3.522   0.586  17.196  0.7193 -0.3655 -0.1167
  891MPD2    C513061   3.479   0.671  17.096  0.1208  1.0999  0.1932
  891MPD2     H13062   3.223   0.455  17.289  1.2334 -2.0695 -1.1124
  891MPD2    H113063   3.628   0.575  17.216  0.7549  0.9014  0.3456
  891MPD2    H213064   3.314   0.736  16.977 -1.5406  2.3939  2.7663
  891MPD2    H313065   3.553   0.726  17.038 -1.6063  2.2564 -0.9159
  891MPD2     N13066   3.462   0.411  17.365  0.1659  0.3756 -0.0325
  891MPD2    H513067   3.391   0.348  17.401  0.8752  0.7393  1.9762
  891MPD2    N113068   3.124   0.578  17.057  0.4616  0.8300 -0.2031
  891MPD2    H713069   3.105   0.638  16.977 -0.2335 -0.1627 -0.7818
  892MPD2     C13070   3.955   1.740  14.508  0.6996  0.4992 -0.8027
  892MPD2    C113071   3.838   1.704  14.429  0.7743 -0.5319  0.3522
  892MPD2    C213072   3.858   1.645  14.302  0.2412 -0.5811 -0.2446
  892MPD2    C313073   3.984   1.617  14.257 -0.7620 -0.4618 -0.3814
  892MPD2    C413074   4.092   1.656  14.333 -0.0323  0.0459  0.2903
  892MPD2    C513075   4.079   1.731  14.440  1.1408  0.2119  0.4627
  892MPD2     H13076   3.773   1.621  14.240  0.7642  0.1704 -1.2353
  892MPD2    H113077   4.196   1.649  14.304  0.1203  0.0886  0.8448
  892MPD2    H213078   3.945   1.791  14.603  0.0880  0.8085 -1.0325
  892MPD2    H313079   4.162   1.757  14.504  0.3938  3.4581  0.0898
  892MPD2     N13080   4.016   1.537  14.145 -0.3744 -0.2831 -0.2645
  892MPD2    H513081   4.109   1.497  14.138 -0.3484  0.1337 -2.3202
  892MPD2    N113082   3.710   1.717  14.482  0.6186 -0.3218 -0.0754
  892MPD2    H713083   3.633   1.710  14.417 -0.5309 -3.9362  1.6840
  893MPD2     C13084   1.456   3.944   2.138  0.3386 -1.0929 -0.5264
  893MPD2    C113085   1.497   3.962   2.269 -0.5349 -0.8568  0.7120
  893MPD2    C213086   1.430   3.892   2.362 -0.0487  0.4854 -0.0594
  893MPD2    C313087   1.331   3.798   2.322 -0.2473 -0.4348 -0.9427
  893MPD2    C413088   1.292   3.785   2.194 -0.1725  0.1600  0.1731
  893MPD2    C513089   1.348   3.871   2.108 -0.5575 -0.7061 -0.2068
  893MPD2     H13090   1.467   3.883   2.463  1.6316 -1.7027 -0.8717
  893MPD2    H113091   1.233   3.702   2.157  0.9376 -0.3381 -0.4920
  893MPD2    H213092   1.511   3.987   2.055  0.3387  0.5834  0.3451
  893MPD2    H313093   1.323   3.859   2.003  2.6450  0.8151 -1.1456
  893MPD2     N13094   1.269   3.709   2.409 -0.1396  0.3011 -0.0205
  893MPD2    H513095   1.195   3.654   2.367  1.3212 -0.9556 -0.9806
  893MPD2    N113096   1.597   4.054   2.286 -0.2042 -0.3722 -0.3655
  893MPD2    H713097   1.643   4.089   2.203 -0.0668 -1.1196 -0.6028
  894MPD2     C13098   3.723   2.393   1.085 -0.3325  0.2133  0.2574
  894MPD2    C113099   3.830   2.368   1.169 -0.3581  0.3053  0.1521
  894MPD2    C213100   3.934   2.456   1.157  0.5076  0.1127  0.2680
  894MPD2    C313101   3.930   2.570   1.072  0.5079  0.3921 -0.1142
  894MPD2    C413102   3.816   2.594   0.994 -0.1224 -0.4760  0.1330
  894MPD2    C513103   3.711   2.504   1.007 -0.0890  0.1678 -0.1571
  894MPD2     H13104   4.021   2.441   1.220  0.4607 -0.3460  0.2173
  894MPD2    H113105   3.805   2.672   0.920 -1.3343 -1.3840 -0.6466
  894MPD2    H213106   3.638   2.326   1.077  0.7532 -0.9924 -1.2476
  894MPD2    H313107   3.622   2.508   0.946 -1.0266 -0.5619  1.1758
  894MPD2     N13108   4.040   2.660   1.073  0.0703  0.4477 -0.7127
  894MPD2    H513109   4.104   2.655   1.152 -0.0921 -2.6530 -0.7781
  894MPD2    N113110   3.841   2.258   1.253 -0.3384  0.3114  0.0792
  894MPD2    H713111   3.933   2.230   1.287 -1.0492 -1.5491  0.4624
  895MPD2     C13112   2.614   1.318  13.617  0.1824 -0.3592 -0.5450
  895MPD2    C113113   2.609   1.356  13.483  0.2587 -0.1911  0.7615
  895MPD2    C213114   2.733   1.391  13.423  0.1617  0.2204  0.9405
  895MPD2    C313115   2.846   1.354  13.488  0.9321  0.4200 -0.3012
  895MPD2    C413116   2.856   1.329  13.623 -0.0135 -0.2317 -0.5408
  895MPD2    C513117   2.737   1.302  13.681 -0.3932  0.1961  0.3519
  895MPD2     H13118   2.745   1.412  13.318 -2.4272 -0.6601  0.4618
  895MPD2    H113119   2.951   1.328  13.674  0.0701 -0.9083 -0.7212
  895MPD2    H213120   2.527   1.288  13.676  0.7242 -1.1839 -0.1670
  895MPD2    H313121   2.733   1.262  13.782  3.7142 -1.9735 -0.3416
  895MPD2     N13122   2.957   1.334  13.408 -0.6532 -0.6083 -0.4408
  895MPD2    H513123   2.963   1.380  13.317  0.6772  0.1879  0.0423
  895MPD2    N113124   2.489   1.374  13.412 -0.2584 -0.3761 -0.3861
  895MPD2    H713125   2.496   1.410  13.317  0.6922 -1.7626 -0.8220
  896MPD2     C13126   0.663   2.906   1.976 -0.1958  0.3948 -0.6090
  896MPD2    C113127   0.667   2.991   1.870  0.4080  0.1432  0.4905
  896MPD2    C213128   0.574   2.965   1.760 -0.3426  0.6650 -0.0231
  896MPD2    C313129   0.487   2.858   1.755  0.1491 -0.2572 -0.4303
  896MPD2    C413130   0.498   2.770   1.856 -0.1756  0.8749 -0.2853
  896MPD2    C513131   0.581   2.795   1.962  0.2302  0.0908  0.3752
  896MPD2     H13132   0.598   3.019   1.670 -0.1353 -1.9170 -1.5205
  896MPD2    H113133   0.424   2.694   1.878  1.7430 -1.2124 -1.0242
  896MPD2    H213134   0.741   2.910   2.052 -0.0256  2.4052 -0.9083
  896MPD2    H313135   0.575   2.719   2.038 -0.7589  0.4163  0.6257
  896MPD2     N13136   0.412   2.842   1.628  0.9600 -0.1759  0.0703
  896MPD2    H513137   0.410   2.913   1.555  1.0410 -0.5442 -0.2917
  896MPD2    N113138   0.760   3.094   1.878  0.8394 -0.0252 -0.7213
  896MPD2    H713139   0.826   3.084   1.955  0.0032  2.6060  0.3346
  897MPD2     C13140   1.601   0.823   9.945  0.8986 -0.5346 -0.2897
  897MPD2    C113141   1.537   0.924  10.016 -0.2756 -0.3569  0.0786
  897MPD2    C213142   1.536   0.911  10.156  0.7614 -0.0108  1.4007
  897MPD2    C313143   1.570   0.790  10.215  0.2204  0.2351  0.3729
  897MPD2    C413144   1.636   0.698  10.134 -0.4535 -0.5549 -0.0498
  897MPD2    C513145   1.661   0.717  10.004 -0.4948 -0.3397  0.4984
  897MPD2     H13146   1.470   0.970  10.220  0.3423 -1.9642  2.7851
  897MPD2    H113147   1.654   0.599  10.176 -2.0646 -1.0385 -0.5388
  897MPD2    H213148   1.621   0.844   9.840 -0.5699  0.1861 -0.4211
  897MPD2    H313149   1.724   0.643   9.955  0.8101  0.1957  1.3799
  897MPD2     N13150   1.531   0.772  10.349 -0.1391 -0.3887 -0.0486
  897MPD2    H513151   1.485   0.851  10.393 -1.4573 -1.4651  0.5085
  897MPD2    N113152   1.480   1.028   9.948  0.1859 -0.0810 -0.4959
  897MPD2    H713153   1.465   1.016   9.849  3.5448  1.4581 -1.1735
  898MPD2     C13154   3.724   0.295  17.002  0.0903  0.0831 -0.1908
  898MPD2    C113155   3.831   0.385  16.990  0.8513 -0.2260 -0.7845
  898MPD2    C213156   3.808   0.500  16.922  0.4407 -0.1230  0.0487
  898MPD2    C313157   3.687   0.530  16.860 -0.6891  0.4859  0.0457
  898MPD2    C413158   3.587   0.437  16.861  0.4025  0.3120  0.1592
  898MPD2    C513159   3.610   0.324  16.934  0.3398  0.1669  0.3077
  898MPD2     H13160   3.890   0.570  16.911 -0.6716  0.9312 -1.7098
  898MPD2    H113161   3.492   0.451  16.811  1.5462 -0.7983 -2.2909
  898MPD2    H213162   3.719   0.197  17.048 -0.9510 -0.1120 -0.7114
  898MPD2    H313163   3.526   0.255  16.939  1.1259 -0.7927  0.1961
  898MPD2     N13164   3.686   0.656  16.800 -0.6074  0.3481 -0.2938
  898MPD2    H513165   3.774   0.706  16.808 -0.8102  0.7492 -0.5531
  898MPD2    N113166   3.960   0.363  17.048  0.1502  0.3086  0.3024
  898MPD2    H713167   4.025   0.441  17.056  0.3952  0.2601 -1.1746
  899MPD2     C13168   4.584   1.975  17.496 -0.4103 -1.1380  0.1578
  899MPD2    C113169   4.487   2.053  17.445  0.1005  0.1469 -0.6701
  899MPD2    C213170   4.371   2.057  17.508 -0.5814  0.4502 -0.0651
  899MPD2    C313171   4.338   1.977  17.609  0.3569  0.1437 -0.0651
  899MPD2    C413172   4.433   1.894  17.659 -0.3156  0.2033 -0.8613
  899MPD2    C513173   4.562   1.895  17.601  0.3449  0.3372  0.3114
  899MPD2     H13174   4.293   2.122  17.471  0.0800  1.3185  0.0772
  899MPD2    H113175   4.399   1.821   0.051  1.0175 -1.2119 -1.6356
  899MPD2    H213176   4.683   1.977  17.451 -1.2172 -1.4623 -1.6008
  899MPD2    H313177   4.638   1.824  17.631  0.7486 -0.5401 -2.8224
  899MPD2     N13178   4.210   1.961  17.658 -0.3690  0.3000  0.5044
  899MPD2    H513179   4.204   1.903   0.061 -0.2549 -0.4024  0.0274
  899MPD2    N113180   4.505   2.127  17.325 -0.4787  0.2558  0.2276
  899MPD2    H713181   4.600   2.112  17.291  0.0915  1.8900  1.0939
  900MPD2     C13182   3.957   3.693  12.328  0.0050  0.2688 -0.0522
  900MPD2    C113183   3.891   3.577  12.290 -0.0845 -0.0082 -0.1518
  900MPD2    C213184   3.790   3.581  12.203 -0.5976 -0.0202  0.6068
  900MPD2    C313185   3.758   3.695  12.135  0.5714  0.5191 -0.3527
  900MPD2    C413186   3.842   3.806  12.151  0.0052  0.2654 -0.0268
  900MPD2    C513187   3.931   3.805  12.256 -0.3574 -0.3325  0.1066
  900MPD2     H13188   3.718   3.500  12.193 -0.5540 -0.1666  1.4926
  900MPD2    H113189   3.810   3.906  12.121 -0.0244  0.3142  0.1677
  900MPD2    H213190   4.031   3.699  12.407  1.1794  0.0184 -1.1426
  900MPD2    H313191   3.981   3.894  12.292  0.8595 -1.2923  0.7931
  900MPD2     N13192   3.651   3.694  12.053  0.1802  0.4072  0.0945
  900MPD2    H513193   3.582   3.620  12.061 -2.6874  3.1481  0.6363
  900MPD2    N113194   3.922   3.460  12.368 -0.2787  0.7301  0.4512
  900MPD2    H713195   4.003   3.467  12.428 -1.0067 -1.1804  1.6413
  901MPD2     C13196   3.807   2.579  13.017  0.6002  0.1902 -0.1512
  901MPD2    C113197   3.933   2.624  12.980 -0.0222 -0.0423  0.0082
  901MPD2    C213198   3.951   2.742  12.911 -0.9697  0.2849 -0.2946
  901MPD2    C313199   3.847   2.814  12.860  0.7427  0.4700  0.5011
  901MPD2    C413200   3.715   2.770  12.889 -0.7341 -0.9024 -0.1857
  901MPD2    C513201   3.699   2.656  12.974 -0.2845  0.6893 -0.2963
  901MPD2     H13202   4.047   2.783  12.880 -0.5231 -1.4738 -1.1956
  901MPD2    H113203   3.633   2.835  12.860  0.0144  0.7399  1.3921
  901MPD2    H213204   3.788   2.490  13.075  0.4597 -0.1235 -0.6800
  901MPD2    H313205   3.595   2.629  12.991  0.1449 -1.3469 -0.9048
  901MPD2     N13206   3.880   2.920  12.780  0.1063 -0.2715  0.4007
  901MPD2    H513207   3.980   2.936  12.772  0.0850 -0.6967 -0.7472
  901MPD2    N113208   4.042   2.538  13.014 -0.7763  0.1401  0.4185
  901MPD2    H713209   4.012   2.448  13.050 -1.1665  0.8054  1.7659
  902MPD2     C13210   3.433   1.625  11.992  0.5332 -0.1865 -0.3933
  902MPD2    C113211   3.296   1.606  12.016 -0.2123 -0.4889  0.4884
  902MPD2    C213212   3.223   1.538  11.920  0.1965 -0.3029  0.3238
  902MPD2    C313213   3.289   1.486  11.803 -0.3427 -0.0812  0.0391
  902MPD2    C413214   3.428   1.498  11.793 -0.3479  0.7748 -0.0944
  902MPD2    C513215   3.499   1.573  11.879 -0.5513 -0.4170 -0.1161
  902MPD2     H13216   3.121   1.510  11.942  0.7022 -1.2190  1.5230
  902MPD2    H113217   3.484   1.446  11.716 -0.6902 -3.0005  2.1863
  902MPD2    H213218   3.498   1.685  12.056 -1.0445 -0.5240  1.5178
  902MPD2    H313219   3.601   1.602  11.858 -1.2830  1.4101 -1.2128
  902MPD2     N13220   3.229   1.436  11.693  0.0671 -0.5082  0.1970
  902MPD2    H513221   3.282   1.392  11.618  1.4650 -1.2485  1.6181
  902MPD2    N113222   3.232   1.667  12.132  0.2959 -0.6153  0.0044
  902MPD2    H713223   3.295   1.708  12.201 -0.1498  2.5362 -1.4403
  903MPD2     C13224   2.685   1.676  11.051 -0.4769 -0.0697  0.6716
  903MPD2    C113225   2.651   1.601  11.163 -0.5197  0.3678 -0.2151
  903MPD2    C213226   2.527   1.611  11.227 -0.5229  0.0682  0.4127
  903MPD2    C313227   2.426   1.686  11.164  0.8129 -0.4093 -0.1558
  903MPD2    C413228   2.453   1.748  11.045 -0.3690  0.2443  0.3588
  903MPD2    C513229   2.578   1.747  10.996  0.3349 -0.6591 -0.3242
  903MPD2     H13230   2.507   1.549  11.313  0.9036 -0.9522  0.0184
  903MPD2    H113231   2.378   1.799  10.986  0.0254  0.9510  0.4704
  903MPD2    H213232   2.786   1.670  11.013 -0.2948 -0.0253  1.1386
  903MPD2    H313233   2.597   1.793  10.900 -0.6112 -1.4002 -0.8659
  903MPD2     N13234   2.298   1.687  11.229  0.2569  0.0895 -0.2756
  903MPD2    H513235   2.292   1.622  11.308 -0.9488  0.2952 -0.1993
  903MPD2    N113236   2.754   1.527  11.222  0.8112  0.3103 -0.0326
  903MPD2    H713237   2.846   1.529  11.178  1.1823  4.4472  0.8476
  904MPD2     C13238   2.781   0.675  14.103  0.0021  0.4986  0.2061
  904MPD2    C113239   2.779   0.719  13.973 -0.4706  0.0728  0.1221
  904MPD2    C213240   2.906   0.755  13.912 -0.0150 -0.1638  0.2942
  904MPD2    C313241   3.025   0.726  13.979  0.0304  0.3116 -0.7803
  904MPD2    C413242   3.016   0.657  14.094  0.2957 -0.1130 -0.7740
  904MPD2    C513243   2.897   0.637  14.156 -0.7342  0.2835  0.0308
  904MPD2     H13244   2.908   0.799  13.813  0.5225 -1.5090 -0.2874
  904MPD2    H113245   3.103   0.622  14.149  0.0648  0.5070 -0.0138
  904MPD2    H213246   2.694   0.649  14.161  1.2032  1.3389  2.3822
  904MPD2    H313247   2.904   0.608  14.260 -0.1471 -0.5939 -0.2537
  904MPD2     N13248   3.152   0.770  13.927 -0.7993  0.0163 -0.0720
  904MPD2    H513249   3.148   0.828  13.844 -2.8787 -2.2482 -1.5445
  904MPD2    N113250   2.666   0.742  13.892  0.4665 -0.1286  0.0059
  904MPD2    H713251   2.673   0.802  13.810 -1.1321  0.9689  0.6928
  905MPD2     C13252   2.415   1.074  13.193  0.6937 -0.3298  0.3141
  905MPD2    C113253   2.497   1.036  13.292 -0.5118 -0.0159 -0.4376
  905MPD2    C213254   2.636   1.054  13.275 -0.2794 -0.6322  0.1476
  905MPD2    C313255   2.692   1.107  13.157 -0.1906  0.0914  0.2828
  905MPD2    C413256   2.600   1.157  13.066 -0.6562 -0.1424 -0.6575
  905MPD2    C513257   2.463   1.136  13.083 -0.4855  0.2627 -0.0841
  905MPD2     H13258   2.704   1.019  13.352  0.0354 -1.7421 -0.6249
  905MPD2    H113259   2.630   1.202  12.973 -1.3314 -1.6683 -1.6208
  905MPD2    H213260   2.309   1.056  13.190  0.7712 -0.8453  0.6513
  905MPD2    H313261   2.393   1.184  13.016  1.3394 -0.1377 -2.2943
  905MPD2     N13262   2.823   1.121  13.118  0.4980  0.9724 -0.1078
  905MPD2    H513263   2.837   1.186  13.041  0.6218  1.0565 -0.0150
  905MPD2    N113264   2.448   0.980  13.416 -0.3069 -0.6086 -0.3862
  905MPD2    H713265   2.350   0.991  13.441 -0.3211  0.2794 -0.8336
  906MPD2     C13266   0.150   0.652  11.225  0.2297  0.1583  0.4867
  906MPD2    C113267   0.121   0.539  11.152  0.4831 -0.0822 -0.8517
  906MPD2    C213268   0.021   0.462  11.207  0.0301  0.1706 -0.4982
  906MPD2    C313269   4.669   0.487  11.319 -1.1433 -0.4144  0.4275
  906MPD2    C413270   4.699   0.596  11.393  0.2440 -0.1788 -0.3268
  906MPD2    C513271   0.083   0.670  11.350 -0.7337 -0.7069 -0.6895
  906MPD2     H13272   4.713   0.365  11.166  3.0754 -0.1070 -1.9322
  906MPD2    H113273   4.642   0.623  11.482  1.8307  0.2870  0.5630
  906MPD2    H213274   0.203   0.741  11.195 -1.3664  0.3448 -1.7540
  906MPD2    H313275   0.095   0.764  11.403  1.9768 -0.9306 -0.8896
  906MPD2     N13276   4.556   0.414  11.357 -0.1439 -0.2593 -0.0074
  906MPD2    H513277   4.492   0.439  11.432  0.2004 -1.1907  0.5869
  906MPD2    N113278   0.156   0.523  11.019 -0.4659  0.5459 -0.0413
  906MPD2    H713279   0.115   0.441  10.975 -1.2574  1.2139 -0.5439
  907MPD2     C13280   3.659   4.513  15.261 -0.9566  0.1259 -0.3063
  907MPD2    C113281   3.780   4.455  15.277 -0.6628 -0.2231  0.5878
  907MPD2    C213282   3.854   4.483  15.391 -0.2752 -0.2206  0.9097
  907MPD2    C313283   3.795   4.570  15.487  0.3546 -0.0361  0.2569
  907MPD2    C413284   3.670   4.629  15.470  0.3052 -0.1311 -0.4476
  907MPD2    C513285   3.605   4.600  15.357  0.2230 -0.4313  0.4221
  907MPD2     H13286   3.941   4.425  15.417  1.3945  1.8306 -0.1243
  907MPD2    H113287   3.622   4.689  15.547  0.8449 -0.6254  0.2743
  907MPD2    H213288   3.594   4.491  15.178  0.4980  0.4562 -1.5186
  907MPD2    H313289   3.500   4.627  15.344  0.4166 -0.7817 -1.8626
  907MPD2     N13290   3.865   4.578  15.609  0.0982  0.0129 -0.2089
  907MPD2    H513291   3.958   4.536  15.609  0.6363  1.2274 -0.9172
  907MPD2    N113292   3.835   4.361  15.188  0.1635  0.0801  0.4574
  907MPD2    H713293   3.919   4.319  15.227  0.1121 -0.9729 -0.5447
  908MPD2     C13294   1.046   0.934   9.216 -0.4835  0.9060  0.6332
  908MPD2    C113295   1.109   0.854   9.306  0.1937  0.5056 -0.0956
  908MPD2    C213296   1.139   0.906   9.438  0.2322  0.0466  0.6660
  908MPD2    C313297   1.090   1.028   9.479 -0.1246  0.2782  0.5893
  908MPD2    C413298   1.017   1.104   9.392 -0.6196 -0.1680 -0.0590
  908MPD2    C513299   1.006   1.058   9.257 -0.1599  0.1741 -0.2533
  908MPD2     H13300   1.195   0.850   9.511  2.0296  0.8922 -0.0460
  908MPD2    H113301   0.967   1.198   9.415 -0.0171  0.2797 -0.5561
  908MPD2    H213302   1.028   0.900   9.114  1.9398 -0.2649  0.5974
  908MPD2    H313303   0.955   1.123   9.186 -1.2465 -0.1679  0.2121
  908MPD2     N13304   1.101   1.058   9.615  0.4157  0.5931  0.4215
  908MPD2    H513305   1.155   0.995   9.674  1.7639 -0.0139 -1.4431
  908MPD2    N113306   1.151   0.728   9.259 -0.1956 -0.3092 -0.0677
  908MPD2    H713307   1.116   0.705   9.167 -1.0005 -2.5285  0.8043
  909MPD2     C13308   1.752   2.815  11.832 -0.3308  0.6531 -0.3718
  909MPD2    C113309   1.768   2.946  11.799 -0.0355  0.2437  0.2858
  909MPD2    C213310   1.703   3.042  11.877  0.3795  0.0510  0.3480
  909MPD2    C313311   1.606   2.999  11.972  0.9792 -0.2969  0.2940
  909MPD2    C413312   1.598   2.862  12.000 -0.9840  0.1461 -0.5464
  909MPD2    C513313   1.676   2.777  11.934  0.3624  0.2884  0.1652
  909MPD2     H13314   1.720   3.147  11.857 -0.3872 -0.4052 -2.7889
  909MPD2    H113315   1.528   2.825  12.073  1.3885  0.3773  1.8522
  909MPD2    H213316   1.810   2.742  11.777 -0.5074 -0.0402  0.3689
  909MPD2    H313317   1.676   2.671  11.957 -1.3743  0.5453  1.3314
  909MPD2     N13318   1.520   3.096  12.029  0.4550  0.2956 -0.2227
  909MPD2    H513319   1.520   3.193  12.001  0.5405 -0.4128 -2.6655
  909MPD2    N113320   1.854   3.000  11.701  0.4752 -0.2901  0.3217
  909MPD2    H713321   1.862   3.100  11.685  0.8408 -0.3171  0.3518
  910MPD2     C13322   2.983   0.104  15.957 -0.3024 -0.1716  0.1835
  910MPD2    C113323   3.092   0.085  15.870 -0.3826  0.2783  0.0860
  910MPD2    C213324   3.078   0.130  15.734  0.4297  0.1093 -0.6031
  910MPD2    C313325   2.960   0.190  15.689 -0.0055  0.6087 -0.0386
  910MPD2    C413326   2.858   0.206  15.780 -0.1206  0.1583  0.4391
  910MPD2    C513327   2.871   0.165  15.911 -0.4233  0.1394 -0.0493
  910MPD2     H13328   3.167   0.122  15.673  0.7385 -0.7616 -0.0450
  910MPD2    H113329   2.762   0.243  15.745  1.5146  3.4046 -0.6433
  910MPD2    H213330   3.001   0.082  16.062  2.3532 -0.7871 -0.4081
  910MPD2    H313331   2.793   0.184  15.983  1.2691 -0.5068  1.9357
  910MPD2     N13332   2.937   0.226  15.552 -0.4360  0.2032 -0.2016
  910MPD2    H513333   2.838   0.244  15.541 -0.0376  1.4933 -1.5908
  910MPD2    N113334   3.210   0.029  15.910  0.3012 -0.5407 -0.7360
  910MPD2    H713335   3.281   0.039  15.838  0.4548  1.2075 -0.3273
  911MPD2     C13336   1.651   0.617  16.207  0.4397 -0.3554  0.1690
  911MPD2    C113337   1.596   0.631  16.335 -0.5474  0.9236 -0.2777
  911MPD2    C213338   1.500   0.726  16.354 -0.2831  0.1509  0.3552
  911MPD2    C313339   1.448   0.786  16.241  0.1203 -0.3373 -0.1827
  911MPD2    C413340   1.498   0.761  16.115 -0.0948  0.4149 -0.3155
  911MPD2    C513341   1.610   0.689  16.099  0.4403  0.2619  0.6218
  911MPD2     H13342   1.458   0.747  16.452 -1.8894 -1.0601 -0.0669
  911MPD2    H113343   1.452   0.809  16.029  1.5943 -0.2163 -1.5700
  911MPD2    H213344   1.731   0.548  16.183  1.9041  0.9823  1.1678
  911MPD2    H313345   1.660   0.676  16.004 -0.7667  1.5218 -0.1837
  911MPD2     N13346   1.343   0.880  16.247 -0.7399 -0.0249  0.2062
  911MPD2    H513347   1.299   0.898  16.157 -1.5377  2.1672  1.0483
  911MPD2    N113348   1.629   0.532  16.437  0.2596 -0.0584  0.3555
  911MPD2    H713349   1.694   0.461  16.405 -1.0377 -0.1135 -2.1344
  912MPD2     C13350   1.296   0.829  15.797  0.2952  0.1277 -0.1689
  912MPD2    C113351   1.196   0.801  15.889  0.5871 -0.3719 -0.3855
  912MPD2    C213352   1.185   0.670  15.934  0.4726  0.2355  0.4068
  912MPD2    C313353   1.269   0.567  15.893  0.1133  0.8104  0.4845
  912MPD2    C413354   1.371   0.601  15.802 -0.4463  0.0736 -0.1336
  912MPD2    C513355   1.386   0.730  15.765 -0.3914 -0.0712  0.3079
  912MPD2     H13356   1.105   0.649  16.004 -1.6624 -0.0573 -2.0837
  912MPD2    H113357   1.446   0.527  15.777  1.2483  1.6602  0.2763
  912MPD2    H213358   1.313   0.931  15.766 -0.1984  0.4043  0.4603
  912MPD2    H313359   1.474   0.756  15.707 -1.8207  2.5032 -0.7228
  912MPD2     N13360   1.256   0.444  15.963  0.1190  0.0546  0.5465
  912MPD2    H513361   1.182   0.438  16.031  0.8934 -0.2374  1.3672
  912MPD2    N113362   1.127   0.919  15.942  0.1158 -0.0181 -0.2793
  912MPD2    H713363   1.154   1.009  15.904 -1.1581  1.0135  1.2745
  913MPD2     C13364   0.518   2.252   9.565  0.4821  0.2176  0.2722
  913MPD2    C113365   0.620   2.274   9.655 -1.4795  1.0772  0.7593
  913MPD2    C213366   0.678   2.394   9.650  0.0590 -0.5549  0.5179
  913MPD2    C313367   0.630   2.499   9.569  0.0725 -0.5534  0.1911
  913MPD2    C413368   0.524   2.477   9.486  0.4119  0.0030 -0.4502
  913MPD2    C513369   0.471   2.348   9.483  0.0123 -0.1289 -0.1226
  913MPD2     H13370   0.750   2.417   9.727  1.5009  1.7271 -1.4987
  913MPD2    H113371   0.487   2.552   9.417 -2.1372 -0.6894  0.1565
  913MPD2    H213372   0.473   2.154   9.555 -0.3656  0.9431 -2.9420
  913MPD2    H313373   0.398   2.315   9.410 -0.7449  1.5224 -0.1111
  913MPD2     N13374   0.689   2.632   9.568  0.5673  0.3331  0.0577
  913MPD2    H513375   0.661   2.691   9.490  0.7099  2.3260  1.4947
  913MPD2    N113376   0.650   2.170   9.747 -0.0979 -0.3640 -0.0015
  913MPD2    H713377   0.573   2.105   9.754 -0.6621  0.3855  0.6884
  914MPD2     C13378   4.365   2.543  12.158 -0.5777 -0.4277  0.2097
  914MPD2    C113379   4.337   2.639  12.246 -0.4027 -0.1695  0.6727
  914MPD2    C213380   4.317   2.607  12.379 -0.4216 -0.2867  0.0514
  914MPD2    C313381   4.301   2.474  12.414 -0.5173  0.1648  0.8169
  914MPD2    C413382   4.313   2.380  12.321  0.1684 -0.1131  0.1276
  914MPD2    C513383   4.344   2.415  12.188  0.1468  0.3067  0.2530
  914MPD2     H13384   4.301   2.682  12.455 -0.7447 -0.4043  0.1027
  914MPD2    H113385   4.305   2.275  12.346 -0.8915 -0.0793 -0.0354
  914MPD2    H213386   4.399   2.572  12.059  1.4834 -2.1194  0.4350
  914MPD2    H313387   4.352   2.328  12.123  1.5444 -0.1572  1.0432
  914MPD2     N13388   4.301   2.453  12.550  0.1415  0.4065  0.0780
  914MPD2    H513389   4.266   2.537  12.596 -2.7468 -0.4395 -0.5455
  914MPD2    N113390   4.347   2.774  12.198  1.1130  1.0191  0.0358
  914MPD2    H713391   4.371   2.788  12.101  0.6130  2.2037  0.0815
  915MPD2     C13392   2.004   2.143  15.375  0.0164  0.4265 -0.1553
  915MPD2    C113393   1.895   2.177  15.455  0.2225  0.2657  0.4672
  915MPD2    C213394   1.918   2.238  15.579 -0.0289  0.6595 -0.6531
  915MPD2    C313395   2.045   2.254  15.630  0.9134  0.0261 -0.1562
  915MPD2    C413396   2.148   2.186  15.570 -0.1577  0.0187  0.4903
  915MPD2    C513397   2.130   2.151  15.438 -0.2410  0.4153  0.2253
  915MPD2     H13398   1.838   2.292  15.626  1.1703  0.3770  1.7376
  915MPD2    H113399   2.251   2.182  15.604 -0.5273  1.9293  1.8390
  915MPD2    H213400   1.984   2.108  15.275 -0.1971  1.7680 -0.5920
  915MPD2    H313401   2.216   2.116  15.382 -0.4489  2.1108 -1.1418
  915MPD2     N13402   2.048   2.323  15.755 -0.5990 -0.3072 -0.3486
  915MPD2    H513403   1.966   2.376  15.783  0.2175  0.4307  0.6819
  915MPD2    N113404   1.762   2.164  15.417 -0.5703  0.2738  0.3452
  915MPD2    H713405   1.694   2.198  15.484 -1.0748 -1.3775  0.6693
  916MPD2     C13406   0.841   0.588  15.745 -0.5972  0.0851 -0.1055
  916MPD2    C113407   0.793   0.462  15.750  0.1410  0.0426  0.4535
  916MPD2    C213408   0.871   0.365  15.702 -0.2283  0.1241 -0.5439
  916MPD2    C313409   0.987   0.390  15.633  0.6480  0.7385  0.3413
  916MPD2    C413410   1.033   0.518  15.635 -0.5424  0.2886 -0.3712
  916MPD2    C513411   0.961   0.620  15.694 -0.3399  0.0388 -0.8939
  916MPD2     H13412   0.832   0.263  15.700 -1.0788  0.4770 -2.2606
  916MPD2    H113413   1.134   0.541  15.603 -0.0225  0.2026  1.2041
  916MPD2    H213414   0.777   0.667  15.781  0.1827 -0.0964  1.6657
  916MPD2    H313415   0.988   0.725  15.699 -0.4328  0.0692 -1.0278
  916MPD2     N13416   1.054   0.281  15.564 -0.0494  0.4385 -0.1193
  916MPD2    H513417   1.006   0.192  15.570 -1.6123  1.2633 -0.1460
  916MPD2    N113418   0.664   0.446  15.809  0.8250 -0.7631  0.9408
  916MPD2    H713419   0.608   0.530  15.818 -0.3221 -1.4442  0.1738
  917MPD2     C13420   0.558   3.090  11.318 -0.1858  0.2229  0.0646
  917MPD2    C113421   0.550   3.157  11.440  0.0020  0.2447  0.2777
  917MPD2    C213422   0.646   3.251  11.460 -0.1341 -0.3155  0.0822
  917MPD2    C313423   0.731   3.289  11.350  0.0147 -0.0731 -0.4358
  917MPD2    C413424   0.727   3.223  11.230 -0.1454 -0.3243 -0.3175
  917MPD2    C513425   0.639   3.126  11.217  0.3544 -0.3496  0.0945
  917MPD2     H13426   0.675   3.299  11.553 -0.9462 -1.0042  0.6911
  917MPD2    H113427   0.803   3.234  11.153  1.4554 -2.2189  1.0004
  917MPD2    H213428   0.490   3.008  11.300  1.6090 -1.6846  1.9713
  917MPD2    H313429   0.636   3.074  11.122 -0.2995  2.2291 -1.2900
  917MPD2     N13430   0.843   3.374  11.350 -0.4285  0.2525  0.0375
  917MPD2    H513431   0.890   3.389  11.262  0.5132  1.8525  0.8341
  917MPD2    N113432   0.452   3.101  11.534 -0.4202 -0.8029 -0.7379
  917MPD2    H713433   0.389   3.030  11.498 -1.0852  0.3463 -1.8020
  918MPD2     C13434   0.482   3.109  12.574  0.3881  0.4545 -0.6149
  918MPD2    C113435   0.520   2.997  12.500 -0.5031 -0.3958 -0.3959
  918MPD2    C213436   0.474   2.972  12.368  0.5491  0.2094  0.5711
  918MPD2    C313437   0.391   3.069  12.313 -0.5635 -0.1700 -0.1960
  918MPD2    C413438   0.356   3.177  12.385 -0.6373 -0.4071  0.8236
  918MPD2    C513439   0.402   3.197  12.509  1.1832 -0.4575  0.3716
  918MPD2     H13440   0.495   2.879  12.318 -2.4133 -1.3080  2.1506
  918MPD2    H113441   0.284   3.242  12.338 -0.9857 -0.1116  1.7603
  918MPD2    H213442   0.518   3.126  12.675 -1.3576  0.6646 -0.0232
  918MPD2    H313443   0.378   3.288  12.563 -2.2645 -0.7850 -0.5927
  918MPD2     N13444   0.343   3.058  12.179 -0.4513 -0.2778 -0.3292
  918MPD2    H513445   0.302   3.134  12.126  1.9034 -0.7644 -2.8852
  918MPD2    N113446   0.620   2.916  12.550 -0.0930  0.2997  0.1211
  918MPD2    H713447   0.671   2.865  12.478 -0.7291  0.1042 -0.1853
  919MPD2     C13448   1.077   1.824  11.920 -1.1215  0.3225 -0.6081
  919MPD2    C113449   1.072   1.703  11.856  0.6244 -0.1842 -0.2665
  919MPD2    C213450   1.091   1.704  11.720  0.2627  0.3577  0.2086
  919MPD2    C313451   1.104   1.812  11.643 -0.7322 -0.8980 -0.3421
  919MPD2    C413452   1.109   1.931  11.710  0.0198 -0.4400  0.0338
  919MPD2    C513453   1.093   1.941  11.847 -0.6000 -0.4692  0.7133
  919MPD2     H13454   1.103   1.604  11.679 -1.2152 -0.0323  0.7691
  919MPD2    H113455   1.118   2.024  11.657  1.0709 -0.1436  0.7250
  919MPD2    H213456   1.067   1.831  12.027  2.8923 -0.6670 -0.1643
  919MPD2    H313457   1.079   2.036  11.897  2.9835  0.0342  0.7987
  919MPD2     N13458   1.115   1.811  11.503 -0.5049  0.3984 -0.5301
  919MPD2    H513459   1.142   1.896  11.454  0.6153 -0.1976 -0.9407
  919MPD2    N113460   1.056   1.577  11.911  1.1710  0.2535  0.0804
  919MPD2    H713461   1.029   1.500  11.851 -0.0310  1.3547 -0.8146
  920MPD2     C13462   1.453   2.148  10.621  0.4167  0.2255  0.4273
  920MPD2    C113463   1.316   2.137  10.610  0.3208  0.5150  0.0205
  920MPD2    C213464   1.244   2.070  10.711 -0.5463 -0.1588 -0.5156
  920MPD2    C313465   1.310   2.004  10.815 -0.7782 -0.0848  0.2438
  920MPD2    C413466   1.449   2.002  10.810 -0.4646  0.4207 -0.1523
  920MPD2    C513467   1.515   2.087  10.726  0.1837 -0.1560  0.2565
  920MPD2     H13468   1.136   2.068  10.698 -0.4719 -3.1238 -0.6590
  920MPD2    H113469   1.509   1.942  10.878 -0.7992 -0.9351 -1.0627
  920MPD2    H213470   1.513   2.206  10.551  0.1886  1.8982  1.6211
  920MPD2    H313471   1.624   2.089  10.725  0.2411 -1.7838  2.1726
  920MPD2     N13472   1.240   1.928  10.907 -0.3717  0.4887  0.1296
  920MPD2    H513473   1.139   1.923  10.902 -0.3469 -0.5170  0.5738
  920MPD2    N113474   1.241   2.201  10.510  0.0088  0.3514  0.3208
  920MPD2    H713475   1.142   2.183  10.519 -0.6305  2.1346 -2.9099
  921MPD2     C13476   2.293   0.631  17.058 -0.0448 -0.2207  0.3816
  921MPD2    C113477   2.309   0.508  17.002 -0.4850 -0.9296 -0.0498
  921MPD2    C213478   2.197   0.441  16.958  0.0575  0.7157 -0.5876
  921MPD2    C313479   2.072   0.497  16.971 -0.0671 -1.0968  0.5801
  921MPD2    C413480   2.059   0.623  17.025  0.5100 -0.7348 -0.2793
  921MPD2    C513481   2.172   0.690  17.068 -0.5963  0.5851 -0.3689
  921MPD2     H13482   2.212   0.345  16.911  1.0900 -0.3489  1.9093
  921MPD2    H113483   1.970   0.686  17.024  1.0835  0.1226  2.2080
  921MPD2    H213484   2.380   0.690  17.086 -0.1484  0.3920 -0.6077
  921MPD2    H313485   2.178   0.796  17.092  0.8559  0.0117  1.7308
  921MPD2     N13486   1.955   0.447  16.922 -0.0336  0.5746  0.1679
  921MPD2    H513487   1.866   0.488  16.949 -1.5158 -1.6664 -1.2450
  921MPD2    N113488   2.434   0.454  16.970 -0.2980  0.0169  0.1317
  921MPD2    H713489   2.431   0.392  16.890  0.2869 -1.4138  1.2241
  922MPD2     C13490   2.837   3.248  17.080  0.3580 -0.2364 -0.1860
  922MPD2    C113491   2.925   3.146  17.060 -0.0524 -0.7425  0.4014
  922MPD2    C213492   2.878   3.014  17.043  0.6610  0.6995  0.3295
  922MPD2    C313493   2.736   2.994  17.054 -0.0172  0.2434  0.1068
  922MPD2    C413494   2.652   3.097  17.085 -0.5516 -0.0221 -0.2129
  922MPD2    C513495   2.704   3.223  17.099  0.1173  0.2724 -0.0688
  922MPD2     H13496   2.948   2.931  17.038 -0.0445 -0.0228  2.2757
  922MPD2    H113497   2.548   3.088  17.114 -0.5518  0.4585 -0.0590
  922MPD2    H213498   2.868   3.352  17.083 -2.4223  0.5487  1.5725
  922MPD2    H313499   2.632   3.299  17.130 -1.5255 -1.8337  1.2851
  922MPD2     N13500   2.667   2.872  17.029 -0.0341 -0.1401 -0.5280
  922MPD2    H513501   2.566   2.869  17.036  0.0587  0.8959  1.1090
  922MPD2    N113502   3.063   3.182  17.052 -0.1423 -0.1856  0.7330
  922MPD2    H713503   3.130   3.115  17.087  0.1565 -0.3229 -0.1038
  923MPD2     C13504   0.408   0.435   9.044  0.2431 -0.6414  0.8231
  923MPD2    C113505   0.362   0.552   9.095 -1.1041  0.3150  0.0797
  923MPD2    C213506   0.392   0.572   9.231  0.1193 -0.5791  0.1723
  923MPD2    C313507   0.454   0.488   9.319 -0.5946  0.4037 -0.0581
  923MPD2    C413508   0.485   0.365   9.267 -1.0568 -0.3990  0.6799
  923MPD2    C513509   0.471   0.342   9.130 -0.3307 -0.3679  0.7998
  923MPD2     H13510   0.349   0.664   9.269  2.2696  0.5799 -0.1977
  923MPD2    H113511   0.535   0.294   9.331  0.8499  0.3510  0.0064
  923MPD2    H213512   0.406   0.401   8.941  1.3679  1.4938  0.1001
  923MPD2    H313513   0.518   0.251   9.096  0.0087  0.3477 -0.6739
  923MPD2     N13514   0.465   0.518   9.456 -0.0638  0.2713 -0.0585
  923MPD2    H513515   0.480   0.438   9.516  3.2341  1.2845  0.4796
  923MPD2    N113516   0.271   0.625   9.018  0.3045 -0.4629 -0.5755
  923MPD2    H713517   0.258   0.596   8.922 -0.7452 -0.9051 -0.2981
  924MPD2     C13518   4.535   4.324  15.593  0.7719 -0.0893 -0.2438
  924MPD2    C113519   4.471   4.302  15.712 -0.2262 -0.4477 -0.0482
  924MPD2    C213520   4.420   4.416  15.780 -0.0770 -0.9043 -0.2128
  924MPD2    C313521   4.405   4.534  15.708  0.0354 -0.0383 -0.1654
  924MPD2    C413522   4.469   4.552  15.579  0.5281  0.1541  0.7959
  924MPD2    C513523   4.538   4.443  15.526  0.7766 -0.0010  0.2408
  924MPD2     H13524   4.385   4.409  15.882  1.6230 -3.6300  0.1653
  924MPD2    H113525   4.452   4.630  15.506 -1.3362  0.9650  2.0988
  924MPD2    H213526   4.592   4.247  15.542  0.8040  0.6960 -1.3949
  924MPD2    H313527   4.590   4.445  15.431 -0.1949 -0.3508 -0.3106
  924MPD2     N13528   4.332   4.642  15.761 -0.7372 -0.1273  0.2622
  924MPD2    H513529   4.305   4.716  15.697 -1.6805 -0.4198  0.3207
  924MPD2    N113530   4.467   4.179  15.779  0.7303  0.4980 -0.9106
  924MPD2    H713531   4.439   4.187  15.876  0.6682  1.6078 -1.0232
  925MPD2     C13532   3.038   1.307  14.427 -0.6996 -0.0898 -0.5066
  925MPD2    C113533   2.911   1.368  14.433  0.7050 -0.0513 -0.5259
  925MPD2    C213534   2.845   1.375  14.553 -0.9959 -0.8954 -0.3021
  925MPD2    C313535   2.904   1.327  14.671 -0.8032 -0.0379  0.0135
  925MPD2    C413536   3.031   1.287  14.668  0.0613 -0.0489 -0.0601
  925MPD2    C513537   3.101   1.279  14.545 -0.3016  0.1445 -0.1479
  925MPD2     H13538   2.741   1.407  14.553 -0.8198 -0.3311  2.4709
  925MPD2    H113539   3.084   1.263  14.760 -0.9082  1.1340  0.7931
  925MPD2    H213540   3.094   1.296  14.335  0.0265  1.2490 -0.2375
  925MPD2    H313541   3.202   1.240  14.536  0.1664  0.7072  2.6873
  925MPD2     N13542   2.849   1.321  14.793  0.1036  0.5815  0.0722
  925MPD2    H513543   2.908   1.259  14.847 -0.4853 -0.8099 -0.8676
  925MPD2    N113544   2.840   1.407  14.315 -0.1009 -0.1982 -0.4625
  925MPD2    H713545   2.754   1.459  14.332  0.9661  1.4452 -0.0991
  926MPD2     C13546   1.317   4.418  13.333  0.0136  0.4325 -0.1862
  926MPD2    C113547   1.316   4.554  13.347  0.5668 -0.5484  0.8044
  926MPD2    C213548   1.402   4.636  13.266  0.2567 -0.0476 -0.4587
  926MPD2    C313549   1.493   4.572  13.171  0.3318 -0.3529 -0.1612
  926MPD2    C413550   1.476   4.436  13.156 -0.0719  0.0822 -0.3913
  926MPD2    C513551   1.393   4.366  13.234 -0.0092 -0.3380  0.7166
  926MPD2     H13552   1.399   0.024  13.271 -1.8151 -0.2212  1.8927
  926MPD2    H113553   1.532   4.391  13.076  1.7142  0.3151  0.7291
  926MPD2    H213554   1.262   4.343  13.389  0.8550  0.9954  1.3940
  926MPD2    H313555   1.401   4.259  13.220  0.9875 -0.1433 -0.2305
  926MPD2     N13556   1.578   4.648  13.085  0.2255 -0.8774  0.6340
  926MPD2    H513557   1.632   4.606  13.010  1.2857  4.7226 -1.7154
  926MPD2    N113558   1.255   4.621  13.450  0.6611 -0.6058  0.2073
  926MPD2    H713559   1.259   0.002  13.458  0.3265 -0.6492  0.9170
  927MPD2     C13560   0.606   1.285   0.355  0.0806  1.1282  0.1710
  927MPD2    C113561   0.635   1.386   0.451 -0.1835  0.5919 -0.7459
  927MPD2    C213562   0.760   1.412   0.491  0.1388 -1.3321 -0.4346
  927MPD2    C313563   0.868   1.332   0.438  0.0605 -0.3061  0.0642
  927MPD2    C413564   0.835   1.232   0.354  0.2189 -0.3769 -0.4423
  927MPD2    C513565   0.713   1.218   0.302 -0.4131 -0.2583  0.0409
  927MPD2     H13566   0.779   1.489   0.565  2.1576 -2.0907 -0.1480
  927MPD2    H113567   0.913   1.164   0.323 -0.9599 -2.5764  1.4194
  927MPD2    H213568   0.506   1.264   0.317  0.2425  0.0209  0.3548
  927MPD2    H313569   0.701   1.136   0.232  0.4031  0.4044 -0.8729
  927MPD2     N13570   1.000   1.361   0.484  0.3192  0.3822 -0.1534
  927MPD2    H513571   1.014   1.425   0.562 -1.2731  0.0976  0.3709
  927MPD2    N113572   0.537   1.465   0.506 -0.1510 -0.4964  0.4046
  927MPD2    H713573   0.557   1.543   0.569 -0.3131  0.1454 -0.3438
  928MPD2     C13574   3.923   4.426   0.551  0.2879 -0.6429  0.3646
  928MPD2    C113575   3.916   4.556   0.581 -0.4332 -0.6570  0.3280
  928MPD2    C213576   4.012   4.647   0.537 -0.3239 -0.0040  0.3124
  928MPD2    C313577   4.120   4.598   0.460  0.2639 -0.8264 -0.1660
  928MPD2    C413578   4.123   4.463   0.430 -0.1121 -0.7860  0.1670
  928MPD2    C513579   4.021   4.384   0.468  0.9344 -0.2840 -0.0969
  928MPD2     H13580   4.010   0.032   0.566  0.7326  0.5232 -1.5207
  928MPD2    H113581   4.198   4.420   0.364 -1.1526 -0.6311 -1.1127
  928MPD2    H213582   3.844   4.357   0.578 -0.4811  0.5405  1.1286
  928MPD2    H313583   4.024   4.281   0.436 -0.4254  0.0069 -1.1702
  928MPD2     N13584   4.228   4.679   0.422  0.3444  0.0849  0.2530
  928MPD2    H513585   4.298   4.641   0.359  0.0077 -0.0851 -0.0188
  928MPD2    N113586   3.801   4.597   0.652 -0.2176 -0.3118  0.0975
  928MPD2    H713587   3.733   4.527   0.679 -0.6330  1.0388  2.6370
  929MPD2     C13588   4.326   0.384  10.108  0.2782  0.3046 -0.3009
  929MPD2    C113589   4.195   0.383  10.152 -0.0543 -0.3330 -0.1087
  929MPD2    C213590   4.099   0.429  10.062 -0.6869  0.1938 -0.0114
  929MPD2    C313591   4.127   0.464   9.931 -0.4867 -0.3798 -0.5799
  929MPD2    C413592   4.257   0.464   9.884  0.3813  0.3248 -0.1857
  929MPD2    C513593   4.355   0.421   9.975  0.1227 -0.6691 -0.6482
  929MPD2     H13594   3.994   0.414  10.087 -0.5515 -0.2261  0.2970
  929MPD2    H113595   4.282   0.467   9.779 -1.4254 -1.4261 -0.6609
  929MPD2    H213596   4.405   0.351  10.175  0.7767  0.9982 -0.5514
  929MPD2    H313597   4.460   0.415   9.948  0.6976  0.3336  1.3910
  929MPD2     N13598   4.034   0.509   9.836  0.1669  0.0828  0.0857
  929MPD2    H513599   4.071   0.541   9.747 -0.2647 -3.3803 -1.3448
  929MPD2    N113600   4.169   0.338  10.287  0.6929 -0.3051 -0.0206
  929MPD2    H713601   4.258   0.314  10.331  0.4094  0.9151  1.2198
  930MPD2     C13602   0.808   2.525  13.525  0.4754  0.3191  0.1936
  930MPD2    C113603   0.940   2.553  13.560  0.4971 -0.0105 -0.2270
  930MPD2    C213604   1.046   2.504  13.476  0.1487 -0.5798 -0.4065
  930MPD2    C313605   1.010   2.442  13.362  0.0613  0.0554  0.2917
  930MPD2    C413606   0.876   2.401  13.342  0.0641  0.0124 -0.3963
  930MPD2    C513607   0.780   2.435  13.429  0.2186 -0.2804 -0.4685
  930MPD2     H13608   1.146   2.535  13.503  0.0945  1.6948 -2.8064
  930MPD2    H113609   0.856   2.354  13.246  0.7136 -0.9148 -0.0778
  930MPD2    H213610   0.727   2.560  13.588  0.0980 -0.3746  0.0936
  930MPD2    H313611   0.678   2.398  13.421  0.2727 -0.5984  0.2711
  930MPD2     N13612   1.102   2.429  13.253  0.2973  0.3506  0.1083
  930MPD2    H513613   1.065   2.385  13.169 -1.7901 -1.2534  1.8648
  930MPD2    N113614   0.975   2.624  13.678 -0.3075  0.2685 -0.3571
  930MPD2    H713615   0.907   2.693  13.710  0.4297  0.2305  1.3079
  931MPD2     C13616   0.772   2.008   0.895  0.5501  0.9488 -0.4828
  931MPD2    C113617   0.742   1.874   0.874  0.1932 -0.3881  0.2884
  931MPD2    C213618   0.838   1.781   0.915  0.3621 -0.9064 -0.2118
  931MPD2    C313619   0.960   1.818   0.978  0.4278 -0.7466 -0.0358
  931MPD2    C413620   0.978   1.952   1.013  0.5792 -0.0957 -0.5552
  931MPD2    C513621   0.885   2.046   0.961  0.3958 -0.1263  0.7390
  931MPD2     H13622   0.810   1.678   0.901 -0.8985 -0.6612  0.4619
  931MPD2    H113623   1.062   1.992   1.068  0.5392  0.8358 -1.1666
  931MPD2    H213624   0.695   2.078   0.865 -1.5518 -1.3499 -0.4897
  931MPD2    H313625   0.907   2.151   0.976  0.4817  0.0422 -0.5886
  931MPD2     N13626   1.040   1.721   1.045  0.0714  0.1140  0.6694
  931MPD2    H513627   1.109   1.754   1.113  1.2603 -1.9075  0.4563
  931MPD2    N113628   0.614   1.840   0.819  0.0723  0.0099 -0.2004
  931MPD2    H713629   0.551   1.920   0.817  1.5571  1.1576 -1.4156
  932MPD2     C13630   2.769   2.122  10.365  0.5558  0.8411 -0.1630
  932MPD2    C113631   2.896   2.077  10.366 -0.0015 -0.2057  0.0834
  932MPD2    C213632   2.923   1.942  10.357 -0.3229  0.0415  0.5824
  932MPD2    C313633   2.818   1.850  10.346  0.3486 -0.0641 -0.3330
  932MPD2    C413634   2.694   1.895  10.341 -0.0466  0.1126  0.5943
  932MPD2    C513635   2.664   2.027  10.354  0.4806 -0.1584  0.0633
  932MPD2     H13636   3.027   1.911  10.349 -0.7859 -0.7460 -2.7503
  932MPD2    H113637   2.618   1.819  10.327  0.7875 -0.4524 -0.8838
  932MPD2    H213638   2.748   2.228  10.368 -0.4156  0.6483 -0.3651
  932MPD2    H313639   2.562   2.062  10.350 -0.0960 -1.7586  0.6788
  932MPD2     N13640   2.851   1.708  10.332  0.6541  0.0069 -0.2989
  932MPD2    H513641   2.774   1.651  10.301  1.0201 -0.2289 -0.7759
  932MPD2    N113642   3.012   2.166  10.375 -0.2711  0.0031 -0.4285
  932MPD2    H713643   3.107   2.130  10.372  0.4892  1.7798  2.3361
  933MPD2     C13644   3.053   0.266   1.040 -0.0302  0.6265 -0.7486
  933MPD2    C113645   3.157   0.302   0.959  0.0077  0.8306  0.2318
  933MPD2    C213646   3.155   0.429   0.888  0.2958  0.0910 -0.6421
  933MPD2    C313647   3.045   0.517   0.898 -1.3034 -0.1371  0.0239
  933MPD2    C413648   2.941   0.471   0.983 -0.1899  0.2110 -0.1002
  933MPD2    C513649   2.944   0.352   1.048  0.0358 -0.0687 -0.0920
  933MPD2     H13650   3.245   0.458   0.835  0.3580  0.2861 -0.4274
  933MPD2    H113651   2.861   0.542   1.001 -3.4633 -3.2522 -1.0978
  933MPD2    H213652   3.058   0.175   1.099 -0.1150  1.1208  0.0145
  933MPD2    H313653   2.858   0.326   1.108  0.9775  0.1934  1.3598
  933MPD2     N13654   3.043   0.648   0.845  0.1271  0.2705  0.2591
  933MPD2    H513655   3.132   0.663   0.798  0.4885  2.6175  1.7072
  933MPD2    N113656   3.265   0.217   0.941 -0.5778  0.4347  0.1583
  933MPD2    H713657   3.264   0.129   0.993 -0.7881  0.3104 -0.0565
  934MPD2     C13658   0.814   1.994   1.674  0.6795  0.3196 -0.4806
  934MPD2    C113659   0.771   2.113   1.622  0.4926  0.0841 -0.0915
  934MPD2    C213660   0.644   2.122   1.564 -0.0768 -0.0546  0.6841
  934MPD2    C313661   0.566   2.011   1.550  0.3697 -0.2730 -0.2722
  934MPD2    C413662   0.604   1.893   1.608  0.0448  0.4768  0.4142
  934MPD2    C513663   0.727   1.882   1.675  0.0943 -0.1564  0.2679
  934MPD2     H13664   0.616   2.217   1.519 -0.8056 -1.1386 -1.1556
  934MPD2    H113665   0.539   1.806   1.602  1.7132 -0.8228  0.7905
  934MPD2    H213666   0.914   1.980   1.714  0.5772  2.5840  0.5108
  934MPD2    H313667   0.761   1.787   1.713 -0.4338  0.0727  1.3324
  934MPD2     N13668   0.442   2.012   1.480 -0.4732 -0.3145 -0.0686
  934MPD2    H513669   0.397   1.924   1.458 -0.8881 -1.0102  3.7222
  934MPD2    N113670   0.850   2.231   1.620  0.3113  0.4267  0.0663
  934MPD2    H713671   0.813   2.314   1.573 -0.7507 -1.2002 -1.9380
  935MPD2     C13672   0.271   1.431   0.962  0.6365 -0.0413  0.2134
  935MPD2    C113673   0.151   1.499   0.943  0.3114 -0.0476  0.0132
  935MPD2    C213674   0.110   1.610   1.022 -0.7288 -0.3121 -0.4746
  935MPD2    C313675   0.182   1.638   1.131  0.5404 -0.0608  0.4109
  935MPD2    C413676   0.302   1.566   1.158 -0.2996 -0.0037  0.2287
  935MPD2    C513677   0.345   1.465   1.070  0.1808 -0.2872 -0.2536
  935MPD2     H13678   0.022   1.667   0.994  0.7960  1.6050 -1.3395
  935MPD2    H113679   0.352   1.587   1.252 -0.5988 -0.3297  0.4648
  935MPD2    H213680   0.299   1.346   0.901 -0.3071 -0.1816 -0.0137
  935MPD2    H313681   0.432   1.405   1.093  1.4408  1.8957  0.7327
  935MPD2     N13682   0.154   1.751   1.206 -0.0280 -0.1400 -0.0369
  935MPD2    H513683   0.227   1.770   1.274  0.4505 -0.5758 -0.4251
  935MPD2    N113684   0.066   1.463   0.834  0.0540 -0.0713 -0.2575
  935MPD2    H713685   4.704   1.523   0.831  1.6150  2.0816  0.0914
  936MPD2     C13686   3.122   0.406  12.176 -1.3151 -0.6623  0.0757
  936MPD2    C113687   3.220   0.355  12.255 -0.8441  0.1120 -0.6236
  936MPD2    C213688   3.299   0.441  12.327 -0.0577  0.6118  0.0102
  936MPD2    C313689   3.269   0.576  12.333  0.1607  0.3489 -0.5251
  936MPD2    C413690   3.170   0.627  12.255 -0.5035 -0.5783 -0.0903
  936MPD2    C513691   3.105   0.541  12.166  1.2863  0.1939  0.1258
  936MPD2     H13692   3.389   0.402  12.372 -0.0758 -0.1908 -0.6299
  936MPD2    H113693   3.142   0.731  12.251 -1.2877 -0.7959 -0.1717
  936MPD2    H213694   3.055   0.350  12.111 -2.4641 -0.1364  0.8028
  936MPD2    H313695   3.028   0.580  12.101  0.8374  1.2767  1.3135
  936MPD2     N13696   3.362   0.651  12.407 -0.0487  0.1472  0.2033
  936MPD2    H513697   3.439   0.609  12.459 -1.2898 -2.9948 -0.4777
  936MPD2    N113698   3.252   0.221  12.258 -0.2789 -0.1041  0.5894
  936MPD2    H713699   3.339   0.197  12.303 -0.7148  1.6133  2.3406
  937MPD2     C13700   1.188   0.954  11.671 -0.0342  0.0286 -0.0263
  937MPD2    C113701   1.185   1.091  11.669 -0.1188  0.2106 -0.6973
  937MPD2    C213702   1.219   1.159  11.556 -0.1680 -0.4847  0.0666
  937MPD2    C313703   1.269   1.094  11.450 -0.3240 -0.0956  1.0289
  937MPD2    C413704   1.286   0.955  11.454 -0.3997 -0.4061  0.0583
  937MPD2    C513705   1.249   0.885  11.570  0.6136 -0.0378  0.8075
  937MPD2     H13706   1.202   1.266  11.547 -0.1719 -0.3763  1.3811
  937MPD2    H113707   1.324   0.898  11.371 -0.0764 -0.6819  0.3965
  937MPD2    H213708   1.142   0.899  11.752 -2.3842 -0.8154 -1.9688
  937MPD2    H313709   1.272   0.780  11.581 -1.4899 -0.6756 -0.9069
  937MPD2     N13710   1.297   1.169  11.330  0.1216 -0.1947 -0.4283
  937MPD2    H513711   1.305   1.269  11.341  0.2702 -0.3021  0.4899
  937MPD2    N113712   1.104   1.164  11.760 -0.2495 -0.1311 -0.3404
  937MPD2    H713713   1.091   1.263  11.742  2.6914  0.4392  0.7335
  938MPD2     C13714   3.641   2.475   0.693  0.1888  0.0787  0.4635
  938MPD2    C113715   3.748   2.394   0.726  0.2340 -0.1588 -0.4392
  938MPD2    C213716   3.721   2.268   0.770 -0.0240 -0.9022  0.1137
  938MPD2    C313717   3.589   2.225   0.794  0.1508  0.0608 -0.5645
  938MPD2    C413718   3.487   2.308   0.769  0.3590  0.1177 -0.0167
  938MPD2    C513719   3.515   2.430   0.716 -0.7686 -0.5529  0.4048
  938MPD2     H13720   3.803   2.201   0.793  0.3792 -0.9231 -1.3953
  938MPD2    H113721   3.384   2.280   0.787  0.8551 -1.7023 -0.0434
  938MPD2    H213722   3.651   2.573   0.648 -1.5153 -0.6962 -1.6248
  938MPD2    H313723   3.434   2.493   0.680 -0.1378 -1.1650 -2.0643
  938MPD2     N13724   3.555   2.086   0.829  0.3512 -0.0028  0.6142
  938MPD2    H513725   3.456   2.066   0.839  0.3592 -0.3751 -0.0820
  938MPD2    N113726   3.881   2.429   0.693  0.1343  0.6962  0.4291
  938MPD2    H713727   3.949   2.361   0.726  1.0085  1.2097 -0.3242
  939MPD2     C13728   1.081   3.157   1.161  0.7260  0.0589  0.2770
  939MPD2    C113729   0.990   3.243   1.102  0.4971  0.0044 -0.2967
  939MPD2    C213730   1.014   3.269   0.966  0.1594  0.1879 -0.3082
  939MPD2    C313731   1.128   3.220   0.901  0.3626 -0.0864  0.5733
  939MPD2    C413732   1.205   3.128   0.966  0.1825  0.0038 -0.1345
  939MPD2    C513733   1.179   3.091   1.092  0.1000 -0.4457  0.3875
  939MPD2     H13734   0.944   3.326   0.907  1.4783  0.4450 -1.6301
  939MPD2    H113735   1.292   3.075   0.928 -0.5270  0.2880 -2.1464
  939MPD2    H213736   1.052   3.141   1.264  2.3310  0.3499  0.7587
  939MPD2    H313737   1.242   3.024   1.149  0.3852  0.1083  0.7228
  939MPD2     N13738   1.165   3.267   0.773 -0.1162  0.3103 -0.1793
  939MPD2    H513739   1.094   3.327   0.731 -2.0142 -1.5699  0.3027
  939MPD2    N113740   0.880   3.292   1.180 -0.2634  0.5649  0.4078
  939MPD2    H713741   0.875   3.263   1.277 -0.8802  1.8424  0.7562
  940MPD2     C13742   3.630   4.237  13.138 -0.9641 -0.0078  0.3895
  940MPD2    C113743   3.747   4.190  13.187 -0.0830  0.6231 -0.0375
  940MPD2    C213744   3.850   4.174  13.095  0.0421 -0.6609 -0.5665
  940MPD2    C313745   3.849   4.216  12.963  0.0045 -0.2111 -0.3309
  940MPD2    C413746   3.731   4.277  12.928 -0.2391  0.6225 -0.4057
  940MPD2    C513747   3.620   4.283  13.007 -0.0691  0.3804 -0.4491
  940MPD2     H13748   3.942   4.132  13.135  0.9815  1.2567 -0.7057
  940MPD2    H113749   3.723   4.306  12.824 -1.8580  1.6424  0.0005
  940MPD2    H213750   3.554   4.248  13.214 -0.3773 -1.0448  1.1381
  940MPD2    H313751   3.530   4.331  12.969 -0.2876  0.7132  0.5048
  940MPD2     N13752   3.959   4.213  12.879 -0.0298  0.2831 -0.1046
  940MPD2    H513753   3.948   4.243  12.783 -0.5122 -0.5520 -0.3102
  940MPD2    N113754   3.779   4.168  13.324  0.5838 -0.1893 -0.2961
  940MPD2    H713755   3.867   4.120  13.344  0.0410 -1.1450 -0.1852
  941MPD2     C13756   3.750   3.012   9.056 -0.0146 -0.1870 -0.0955
  941MPD2    C113757   3.688   2.994   9.182 -0.0422  0.0702 -0.1858
  941MPD2    C213758   3.587   2.898   9.186 -0.4815 -0.2429  0.7404
  941MPD2    C313759   3.544   2.833   9.071 -0.3696 -0.3623 -0.3036
  941MPD2    C413760   3.618   2.845   8.955 -0.7204 -0.2084 -0.2215
  941MPD2    C513761   3.719   2.936   8.949  0.6514 -0.6418  0.3740
  941MPD2     H13762   3.529   2.881   9.276  0.2545  1.1622  1.4765
  941MPD2    H113763   3.596   2.786   8.867 -0.7715 -2.2355  1.1466
  941MPD2    H213764   3.822   3.092   9.040  1.5828 -1.3420  1.2750
  941MPD2    H313765   3.751   2.964   8.849 -1.2561  1.1106  0.2480
  941MPD2     N13766   3.439   2.736   9.058 -0.3007  0.0829  0.1817
  941MPD2    H513767   3.413   2.704   8.965  0.1443 -1.2266  0.5116
  941MPD2    N113768   3.720   3.069   9.299 -0.1343 -0.4445 -0.5223
  941MPD2    H713769   3.649   3.061   9.371 -0.1620 -2.1716 -0.7327
  942MPD2     C13770   4.574   0.558   8.857  0.1843  0.2989 -0.0438
  942MPD2    C113771   4.656   0.472   8.786 -0.6357  0.4022 -0.0321
  942MPD2    C213772   0.016   0.380   8.856  0.0938  0.2114 -0.4586
  942MPD2    C313773   0.003   0.367   8.991  0.0216  0.0590  0.3017
  942MPD2    C413774   4.643   0.460   9.056 -0.1865 -0.0285  0.2160
  942MPD2    C513775   4.567   0.551   8.997 -0.1368  0.3929  0.3611
  942MPD2     H13776   0.083   0.317   8.799  1.7863 -0.1731  1.9508
  942MPD2    H113777   4.628   0.452   9.163  0.0198  1.3836  0.3507
  942MPD2    H213778   4.526   0.647   8.819  1.4488  1.4780  1.1146
  942MPD2    H313779   4.511   0.619   9.060 -1.9327  0.4350 -1.3030
  942MPD2     N13780   0.065   0.278   9.078 -0.0142  0.2950  0.3601
  942MPD2    H513781   0.063   0.297   9.178 -1.8457  0.3299  0.3083
  942MPD2    N113782   4.670   0.492   8.645  0.3389 -0.3603 -0.2983
  942MPD2    H713783   0.021   0.440   8.593  1.3859  1.5654 -0.7749
  943MPD2     C13784   2.042   3.740   9.044  0.2466 -0.1075  0.4769
  943MPD2    C113785   1.928   3.669   9.060 -0.6984  0.3778  0.0591
  943MPD2    C213786   1.838   3.678   8.951  0.2984 -0.3468  0.2092
  943MPD2    C313787   1.855   3.754   8.834  0.3338  0.0388 -0.0748
  943MPD2    C413788   1.975   3.826   8.827  0.3289  0.2421 -0.1522
  943MPD2    C513789   2.060   3.819   8.937 -0.0158  0.2488  0.3489
  943MPD2     H13790   1.748   3.620   8.961  0.7587 -1.2918 -1.1257
  943MPD2    H113791   2.002   3.871   8.733  1.4263 -2.0902 -0.9457
  943MPD2    H213792   2.119   3.738   9.121  0.3862 -0.5182  0.3248
  943MPD2    H313793   2.156   3.869   8.929  0.9508 -1.5269  0.8423
  943MPD2     N13794   1.785   3.737   8.716 -0.7044 -0.1961 -0.0095
  943MPD2    H513795   1.825   3.786   8.636 -0.1409 -0.4409  0.1180
  943MPD2    N113796   1.919   3.596   9.179  0.0566  0.4119  0.2774
  943MPD2    H713797   1.998   3.609   9.242  1.5601  0.9868 -1.7206
  944MPD2     C13798   1.348   2.491  10.918  0.0174  0.5061 -0.1196
  944MPD2    C113799   1.475   2.502  10.971 -0.9357 -0.4383 -0.3496
  944MPD2    C213800   1.486   2.568  11.093  1.0191  0.4592 -0.2318
  944MPD2    C313801   1.373   2.616  11.162  0.0012 -0.5884 -0.2591
  944MPD2    C413802   1.251   2.605  11.109  0.8321  0.2743  0.4728
  944MPD2    C513803   1.238   2.543  10.988 -0.0420  0.1530 -0.1924
  944MPD2     H13804   1.582   2.577  11.142  0.9294 -2.1284  0.4038
  944MPD2    H113805   1.166   2.648  11.160  0.0761  1.1011 -1.4716
  944MPD2    H213806   1.326   2.455  10.818 -0.7210 -0.4487  0.3868
  944MPD2    H313807   1.140   2.545  10.941 -0.4932 -0.1684  0.7479
  944MPD2     N13808   1.396   2.691  11.278  0.3061 -0.1230  0.5284
  944MPD2    H513809   1.486   2.729  11.303  0.1101  0.2437  0.6740
  944MPD2    N113810   1.583   2.451  10.891 -0.0726 -0.3516 -0.0003
  944MPD2    H713811   1.557   2.427  10.797 -0.5666 -0.9853  0.2999
    1TCq1    O113812   4.699   3.002  14.163  0.0812  0.1743 -0.8374
    1TCq1    C113813   4.622   3.074  14.083  0.1128  0.2398  0.0904
    1TCq1    O213814   4.546   3.032  13.995  0.2624 -0.1115 -0.6414
    1TCq1    C213815   4.602   3.193  14.156  0.0504  0.4338 -0.2486
    1TCq1    C313816   4.473   3.249  14.148  0.1792 -1.0038 -0.2539
    1TCq1    C413817   4.440   3.353  14.226 -0.2599 -0.7227  0.0808
    1TCq1    C513818   4.537   3.414  14.301  0.3528 -0.4285 -0.0250
    1TCq1    C613819   4.662   3.360  14.306 -0.1123  0.7271  0.2767
    1TCq1    C713820   4.689   3.244  14.239  0.3021 -0.6039  0.5684
    1TCq1    C813821   0.044   3.430  14.373 -0.4455 -0.3910  0.4038
    1TCq1    O413822   0.140   3.369  14.419  0.5773 -0.5790  0.6020
    1TCq1    C913823   4.308   3.406  14.213 -0.1063  0.4278 -0.2220
    1TCq1    O513824   4.260   3.462  14.314 -0.0949  0.2193  0.4804
    1TCq1    O613825   4.241   3.360  14.116  0.2246  0.1146 -0.6817
    1TCq1    H113826   4.701   2.906  14.146 -1.1196 -0.1380  0.7366
    1TCq1    H213827   4.405   3.210  14.072  0.4660 -0.6010 -0.7161
    1TCq1    H313828   4.510   3.504  14.355  0.7991 -2.6184  3.8023
    1TCq1    H413829   0.063   3.191  14.253 -0.1384 -1.1762  1.2834
    2MPD2     C13830   0.264   3.876  14.514 -0.3210 -0.8027  0.6798
    2MPD2    C113831   0.165   3.901  14.420  0.3340 -0.1465 -0.1479
    2MPD2    C213832   0.091   3.799  14.364  0.0207  0.6643  0.8565
    2MPD2    C313833   0.105   3.664  14.403  0.3253  0.1256  0.1165
    2MPD2    C413834   0.196   3.649  14.501  0.2568  0.9176  0.3700
    2MPD2    C513835   0.264   3.746  14.555 -0.2128  0.5194 -0.1955
    2MPD2     H13836   0.020   3.810  14.283  0.1427 -2.3447  0.3358
    2MPD2    H113837   0.211   3.552  14.547  0.9073  1.3128  0.9949
    2MPD2    H213838   0.337   3.949  14.547  0.8239 -1.5148 -0.2420
    2MPD2    H313839   0.330   3.727  14.639  0.0370 -1.2882 -0.8074
    2MPD2     N13840   0.018   3.565  14.353 -0.4017  0.1502 -0.1357
    2MPD2    H513841   4.678   3.590  14.274 -0.4008  0.1535 -0.1353
    2MPD2    N113842   0.156   4.032  14.376  0.1205 -0.4576 -0.4707
    2MPD2    H713843   0.222   4.100  14.414 -0.5814  0.8728 -1.6214
    3TMC2    C113844   0.099   4.211  14.233 -0.5098  0.2464 -0.8465
    3TMC2    C213845   0.132   4.303  14.330 -0.5119  0.6442 -0.6845
    3TMC2    C313846   0.135   4.438  14.293 -0.4366  0.4579 -0.2349
    3TMC2    C413847   0.096   4.233  14.104 -0.6316  0.7013  0.1219
    3TMC2    C513848   0.096   4.366  14.070  0.1939 -0.0270  0.6081
    3TMC2    C613849   0.113   4.466  14.166  0.2567 -0.5575  0.9495
    3TMC2     C13850   0.085   4.069  14.266 -0.1573 -0.1887 -0.4096
    3TMC2     O13851   0.027   4.006  14.181 -0.1889 -0.5967 -0.1322
    3TMC2     H13852   0.130   4.287  14.437  2.8916  1.3568 -0.5420
    3TMC2    H113853   0.062   4.157  14.035  0.9853  0.8013 -0.7975
    3TMC2    H213854   0.118   4.571  14.138 -1.2285 -1.1130 -1.3887
    3TMC2    C713855   0.006   4.405  13.965  0.0967 -0.5231 -0.3609
    3TMC2    C813856   0.187   4.543  14.377 -0.4057  0.1107 -0.6892
    3TMC2    O113857   4.646   4.496  13.993 -0.3266  0.4268 -0.2233
    3TMC2    O213858   0.165   4.658  14.364 -0.1114 -1.1415  0.0472
    3TMC2    O513859   0.313   4.498  14.394 -0.1508  0.3188  0.6283
    3TMC2    H513860   0.319   4.400  14.388  0.1816  0.3102  1.1553
    4MPD2     C13861   3.934   0.783  13.487  0.4324 -0.2561  0.2325
    4MPD2    C113862   3.945   0.734  13.358  0.0547  0.6939 -0.3478
    4MPD2    C213863   4.001   0.607  13.339  0.3171  0.2843  0.4813
    4MPD2    C313864   4.044   0.534  13.443 -0.6998 -0.3253 -0.1007
    4MPD2    C413865   4.041   0.589  13.574 -0.2678  0.3134 -0.1555
    4MPD2    C513866   3.972   0.707  13.595  0.0081  0.1698  0.2105
    4MPD2     H13867   4.003   0.562  13.240 -1.3953  0.4692  0.3682
    4MPD2    H113868   4.088   0.545  13.661 -2.6166 -1.1249  0.3650
    4MPD2    H213869   3.895   0.882  13.505  0.2869 -0.0470 -1.2243
    4MPD2    H313870   3.973   0.750  13.694  1.1254 -1.1880  0.7723
    4MPD2     N13871   4.088   0.399  13.421 -0.1006 -0.6906 -0.0775
    4MPD2    H513872   4.100   0.364  13.327 -1.8860  0.5675 -0.7965
    4MPD2    N113873   3.913   0.823  13.254  0.0905  1.0640 -0.4103
    4MPD2    H713874   3.870   0.912  13.280  0.9428  1.2623  0.3241
    5TCq2    C113875   4.105   0.302  13.518 -0.5096  0.0818  0.2520
    5TCq2    O213876   4.088   0.313  13.639 -0.2141  0.2659 -0.1043
    5TCq2    C213877   4.146   0.175  13.469  0.4613 -0.7493 -0.4430
    5TCq2    C313878   4.125   0.140  13.339  0.5906  0.3189 -0.5889
    5TCq2    C413879   4.166   0.018  13.292 -0.1374  0.9202  0.2952
    5TCq2    C513880   4.233   4.649  13.375  0.7647  0.0416  0.1281
    5TCq2    C613881   4.250   4.688  13.503  0.0491 -0.1560 -0.0250
    5TCq2    C713882   4.204   0.089  13.558  0.5600 -0.5413  0.0981
    5TCq2    C813883   4.356   4.620  13.581  0.0154  0.0601  0.4079
    5TCq2    O413884   4.350   4.632  13.700  0.2666  0.5817  0.3760
    5TCq2    C913885   4.124   4.698  13.162  0.3577  0.0909 -0.4762
    5TCq2    O513886   4.048   0.051  13.090  0.0414 -0.2189  0.5440
    5TCq2    O613887   4.163   4.583  13.129  0.0598 -0.2651  0.0482
    5TCq2    H213888   4.061   0.193  13.269  1.1772  1.8650  0.0489
    5TCq2    H313889   4.274   4.558  13.334 -0.4858 -0.3011 -0.3927
    5TCq2    H413890   4.234   0.126  13.655 -1.5004 -0.3951  0.6740
    6MPD1     C13891   3.617   2.613  12.570 -0.1311  0.3735  0.1042
    6MPD1    C113892   3.693   2.534  12.484 -0.3658 -0.0499  0.1987
    6MPD1    C213893   3.687   2.395  12.496  0.0320 -0.0883 -0.0295
    6MPD1    C313894   3.604   2.335  12.592 -0.0577  0.7580 -0.2653
    6MPD1    C413895   3.540   2.415  12.678 -0.1238 -0.2323 -0.3164
    6MPD1    C513896   3.555   2.555  12.671  0.9048 -0.6875  0.4367
    6MPD1     H13897   3.748   2.327  12.438 -0.0001  0.7647 -1.0693
    6MPD1    H113898   3.497   2.376  12.770 -1.3750 -0.1609 -0.8640
    6MPD1    H213899   3.609   2.720  12.560  0.1403  0.4901  1.0845
    6MPD1    H313900   3.508   2.625  12.740  3.9088  1.4627  0.2795
    6MPD1     N13901   3.602   2.193  12.614 -0.1652  0.3183  0.1448
    6MPD1    H513902   3.560   2.160  12.701 -0.3503  2.7131  0.9666
    6MPD1    N113903   3.760   2.595  12.376 -0.0122  0.1007  1.2968
    6MPD1    H613904   3.780   2.690  12.406  1.0019  0.1742  0.3749
    6MPD1    H713905   3.841   2.540  12.348 -0.4508  0.3570 -0.4538
    7MPD2     C13906   3.508   1.574  13.089 -0.2688 -0.2188 -0.1645
    7MPD2    C113907   3.543   1.534  12.963  0.3933  0.8853  0.3446
    7MPD2    C213908   3.562   1.400  12.945  0.1430  0.1805  0.7009
    7MPD2    C313909   3.537   1.307  13.038 -0.3114  0.2101  0.6663
    7MPD2    C413910   3.484   1.344  13.158 -0.0467 -0.3556  0.7108
    7MPD2    C513911   3.479   1.484  13.185  0.6541 -0.3480 -0.0904
    7MPD2     H13912   3.611   1.367  12.854 -2.6946 -2.6585  0.2312
    7MPD2    H113913   3.462   1.273  13.237  4.1432 -0.6021  1.6319
    7MPD2    H213914   3.495   1.678  13.113  0.6191  0.2627 -1.7611
    7MPD2    H313915   3.439   1.517  13.280 -0.1721  0.0117 -0.5617
    7MPD2     N13916   3.566   1.179  13.001  0.4097  0.1743  0.5009
    7MPD2    H513917   3.591   1.170  12.903  0.8179  0.2619  0.5963
    7MPD2    N113918   3.580   1.622  12.856 -0.0646  0.4987  0.1656
    7MPD2    H713919   3.598   1.579  12.765  1.1172 -0.2703  0.7646
    8TMC3    C113920   3.609   0.951  13.013  0.1457  0.3671  0.2185
    8TMC3    C213921   3.706   0.900  13.090  0.6831 -0.1802 -0.0762
    8TMC3    C313922   3.833   0.870  13.043 -0.0105  0.0520 -1.2517
    8TMC3    C413923   3.644   0.979  12.881  0.6968 -0.0673 -0.5539
    8TMC3    C513924   3.771   0.961  12.834 -0.2427 -0.0033  0.8851
    8TMC3    C613925   3.869   0.907  12.914  0.4343 -0.2178  0.1533
    8TMC3     C13926   3.553   1.065  13.077  0.2745 -0.0746  1.2406
    8TMC3     O13927   3.536   1.058  13.199 -0.0732  0.1728  0.3280
    8TMC3     H13928   3.667   0.865  13.185  0.0602 -1.1414 -0.6797
    8TMC3    H113929   3.561   1.018  12.823 -1.0213 -3.2765 -0.1976
    8TMC3    H213930   3.970   0.903  12.877 -0.1799 -1.0077 -1.4518
    8TMC3    C713931   3.811   1.072  12.752  0.0026 -0.2903 -0.4829
    8TMC3    C813932   3.929   0.786  13.120  0.3591  0.7541 -0.1980
    8TMC3    O113933   3.724   1.158  12.755  0.4375 -0.5004 -0.0875
    8TMC3    O213934   3.987   0.700  13.061  0.0858 -0.3136  0.2065
    9TMC3    C113935   3.681   1.964  12.580 -0.1915 -0.1924  0.4227
    9TMC3    C213936   3.768   1.879  12.508 -0.1445  0.1186 -0.5469
    9TMC3    C313937   3.791   1.764  12.569  0.1551 -0.2688  0.0946
    9TMC3    C413938   3.633   1.933  12.709  0.1423  0.2981 -0.0539
    9TMC3    C513939   3.657   1.807  12.749 -0.6333  0.3277 -0.5781
    9TMC3    C613940   3.742   1.721  12.689  0.2798  0.3368  0.0507
    9TMC3     C13941   3.664   2.097  12.527 -0.3431  0.0547 -0.3580
    9TMC3     O13942   3.707   2.113  12.417 -0.3970 -0.1034 -0.4677
    9TMC3     H13943   3.807   1.901  12.409  1.0320  1.6761  0.2545
    9TMC3    H113944   3.561   1.997  12.759 -0.3005 -0.0070 -0.2987
    9TMC3    H213945   3.792   1.641  12.744  0.6981  2.6334  2.9828
    9TMC3    C713946   3.576   1.756  12.858  0.1543  0.9448  0.2444
    9TMC3    C813947   3.889   1.665  12.511  0.2435 -0.3139  0.0324
    9TMC3    O113948   3.532   1.841  12.933  0.2207  0.1375  0.2606
    9TMC3    O213949   3.984   1.702  12.442 -0.0073 -0.2967  0.1280
   10MPD2     C13950   4.075   1.181  12.519 -0.3611  0.1014 -0.0162
   10MPD2    C113951   3.967   1.183  12.601 -0.0906  0.5207  0.8906
   10MPD2    C213952   3.900   1.309  12.603  0.3491  0.1318 -0.0421
   10MPD2    C313953   3.939   1.421  12.531 -0.3191  0.5145  0.6883
   10MPD2    C413954   4.047   1.410  12.452  0.0012 -0.1119 -0.2818
   10MPD2    C513955   4.111   1.290  12.444 -0.4719 -0.0415 -0.3143
   10MPD2     H13956   3.808   1.317  12.660  1.0295 -0.1905  1.1144
   10MPD2    H113957   4.089   1.489  12.390 -0.9500  2.5103  2.4435
   10MPD2    H213958   4.128   1.088  12.505 -2.5121 -1.0947 -0.1970
   10MPD2    H313959   4.194   1.274  12.377  1.9250 -0.3402  2.7414
   10MPD2     N13960   3.861   1.537  12.548 -0.3419  0.6056 -0.0583
   10MPD2    H513961   3.773   1.525  12.597 -0.2960  2.9896  0.6207
   10MPD2    N113962   3.934   1.073  12.686 -0.2746  0.7446 -0.2177
   10MPD2    H713963   3.990   0.989  12.675  1.3390  1.9592 -1.1755
   11MPD2     C13964   0.025   4.281  13.613  0.3881 -0.5136 -0.8997
   11MPD2    C113965   4.683   4.350  13.712  0.5206  0.4548 -0.2757
   11MPD2    C213966   4.575   4.433  13.677  0.0742 -0.3329  0.3229
   11MPD2    C313967   4.541   4.457  13.547 -0.2990 -0.3010  0.4849
   11MPD2    C413968   4.607   4.393  13.449 -0.1759  0.1501  0.3307
   11MPD2    C513969   4.699   4.299  13.479 -0.5354  0.2560 -0.3272
   11MPD2     H13970   4.535   4.487  13.762 -1.5457 -0.8957 -0.0931
   11MPD2    H113971   4.569   4.411  13.349  0.5241  1.7877  0.3665
   11MPD2    H213972   0.107   4.215  13.638  0.3242 -0.0491  0.5563
   11MPD2    H313973   0.014   4.244  13.392 -0.2653  0.8453 -0.5903
   11MPD2     N13974   4.438   4.543  13.503 -0.3570  0.6461 -0.3324
   11MPD2    H513975   4.440   4.569  13.405  2.3362 -5.3195 -1.8943
   11MPD2    N113976   0.019   4.335  13.847 -0.5053 -0.3254 -0.1261
   11MPD2    H713977   0.082   4.256  13.855  0.0814  0.1649  0.1349
    1MPD1     C13978   2.404   0.841  16.796  0.5464 -0.2555  0.8810
    1MPD1    C113979   2.302   0.811  16.708  0.3777  0.2681 -0.1293
    1MPD1    C213980   2.295   0.879  16.588 -0.6357  0.3549  0.1451
    1MPD1    C313981   2.386   0.976  16.551  0.0446 -0.0832 -0.7008
    1MPD1    C413982   2.490   1.006  16.631 -0.0884  0.6044 -0.1478
    1MPD1    C513983   2.499   0.931  16.749  0.5636 -0.0141  0.5331
    1MPD1     H13984   2.221   0.855  16.512  1.0316 -1.5802 -0.8790
    1MPD1    H113985   2.573   1.069  16.602 -0.5110  0.5283 -1.5072
    1MPD1    H213986   2.426   0.772  16.876  1.2045 -0.6288  0.3775
    1MPD1    H313987   2.586   0.951  16.811  0.3181  0.4798  0.7178
    1MPD1     N13988   2.374   1.059  16.434  0.2329  0.2462 -0.4931
    1MPD1    H513989   2.440   1.136  16.426 -0.6048  0.9734 -0.3849
    1MPD1    N113990   2.226   0.691  16.733  0.7087 -0.3589 -0.0637
    1MPD1    H613991   2.213   0.681  16.834 -0.9541  1.0924 -0.1239
    1MPD1    H713992   2.133   0.682  16.692 -0.4174  1.5450  2.0450
    2MPD1     C13993   2.932   1.654  15.974 -0.4205 -0.1829  0.4046
    2MPD1    C113994   2.808   1.682  15.910  0.5548  0.0389 -0.7010
    2MPD1    C213995   2.709   1.589  15.919  0.1103 -1.0974  0.2717
    2MPD1    C313996   2.733   1.461  15.970 -0.4893  0.3183 -0.3257
    2MPD1    C413997   2.863   1.431  16.015  0.5561  0.3333 -0.0436
    2MPD1    C513998   2.957   1.529  16.014 -0.6439 -0.6402  0.0137
    2MPD1     H13999   2.617   1.615  15.867  1.7428  0.2394 -1.9464
    2MPD1    H114000   2.889   1.329  16.040  0.7388  0.7964  1.6392
    2MPD1    H214001   3.005   1.734  15.983  0.1582 -0.9685  2.6898
    2MPD1    H314002   3.060   1.512  16.046 -0.8387 -1.2021  0.3502
    2MPD1     N14003   2.625   1.369  15.984  0.1194  0.1601  0.1825
    2MPD1    H514004   2.540   1.410  15.947 -0.0205  0.0375  0.3686
    2MPD1    N114005   2.777   1.820  15.874 -0.0269 -0.0736  0.1286
    2MPD1    H614006   2.701   1.824  15.806 -0.5152  0.5489  0.6996
    2MPD1    H714007   2.856   1.873  15.839  0.1691 -0.8569 -0.6069
    3TMC3    C114008   2.493   1.201  16.070 -0.3021 -0.0495  0.0925
    3TMC3    C214009   2.396   1.235  15.976 -0.0713  0.5807 -0.0371
    3TMC3    C314010   2.268   1.200  16.000  0.3734  0.6220  0.7558
    3TMC3    C414011   2.453   1.136  16.183 -0.1696  0.3503  0.3759
    3TMC3    C514012   2.324   1.101  16.205 -1.0416 -1.1170 -0.0715
    3TMC3    C614013   2.230   1.131  16.109  0.7675 -0.1948  0.2102
    3TMC3     C14014   2.629   1.256  16.055  0.1112  0.3114 -0.1210
    3TMC3     O14015   2.711   1.206  16.123 -0.3102 -0.0431  0.3312
    3TMC3     H14016   2.424   1.284  15.884 -0.4699 -0.6564 -0.8261
    3TMC3    H114017   2.536   1.144  16.252 -0.8032 -2.8101  1.5317
    3TMC3    H214018   2.128   1.093  16.113 -0.0072  1.8877  0.3830
    3TMC3    C714019   2.291   1.031  16.326  0.6162  0.9006  0.5468
    3TMC3    C814020   2.168   1.249  15.900 -0.0872 -0.8062  0.0173
    3TMC3    O114021   2.194   0.960  16.322 -0.5154 -0.3643  0.2142
    3TMC3    O214022   2.054   1.259  15.940  0.6287 -0.1561  0.1782
    4MPD1     C14023   1.985   1.432  15.464 -0.0325 -0.0597  0.1623
    4MPD1    C114024   2.099   1.362  15.430 -0.0216  0.8485  0.3911
    4MPD1    C214025   2.166   1.291  15.534 -0.1563 -0.5776  0.5548
    4MPD1    C314026   2.127   1.322  15.666  0.0697 -0.0575  0.2325
    4MPD1    C414027   2.015   1.397  15.694 -0.2225  0.3714  0.2257
    4MPD1    C514028   1.940   1.441  15.590  0.5215  0.2911  0.2952
    4MPD1     H14029   2.249   1.226  15.509 -0.6942 -1.3670  0.8197
    4MPD1    H114030   1.985   1.413  15.797  1.6850  0.8388  0.7080
    4MPD1    H214031   1.935   1.492  15.390  1.7829  1.4089  0.1309
    4MPD1    H314032   1.852   1.501  15.605  0.7308  0.6786 -0.0380
    4MPD1     N14033   2.207   1.259  15.772 -0.3825 -0.4554  0.5692
    4MPD1    H514034   2.301   1.225  15.759  0.3379  1.0606  1.7903
    4MPD1    N114035   2.129   1.349  15.293  0.4985  0.8603 -0.1224
    4MPD1    H614036   2.231   1.345  15.289  0.5343  0.0344  1.7434
    4MPD1    H714037   2.100   1.430  15.239 -0.7628 -0.3826 -1.3201
    1TCq1    O114038   3.336   2.006  10.616 -0.1791 -0.1357  0.5606
    1TCq1    C114039   3.295   1.944  10.501  0.2895  0.1536 -0.0727
    1TCq1    O214040   3.252   1.998  10.401  0.1920  0.4818 -0.1480
    1TCq1    C214041   3.379   1.833  10.484 -0.6534 -0.4243  0.2920
    1TCq1    C314042   3.372   1.745  10.582  0.0746  0.1734 -0.1329
    1TCq1    C414043   3.434   1.628  10.556 -0.5072  1.0457  0.2559
    1TCq1    C514044   3.512   1.612  10.445 -0.8117 -0.3015  0.4998
    1TCq1    C614045   3.499   1.700  10.337  0.1102  0.3746 -0.0935
    1TCq1    C714046   3.438   1.820  10.364 -0.7682  0.0311  0.7585
    1TCq1    C814047   3.592   1.706  10.231  0.4490  0.3297  0.0050
    1TCq1    O414048   3.615   1.812  10.182 -0.3156  0.0462  0.8350
    1TCq1    C914049   3.448   1.542  10.670  0.4478 -0.4578 -0.2102
    1TCq1    O514050   3.435   1.597  10.784 -0.5117  0.2818  0.2902
    1TCq1    O614051   3.495   1.425  10.649 -0.1682  0.4203  0.7459
    1TCq1    H114052   3.370   1.942  10.682  0.2004  2.2831  2.7161
    1TCq1    H214053   3.310   1.751  10.671  0.3791 -2.9608  0.3081
    1TCq1    H314054   3.577   1.527  10.435 -0.5430 -0.2258  1.5517
    1TCq1    H414055   3.445   1.906  10.298 -2.2425 -0.3914  0.0650
    2MPD1     C14056   3.936   1.475   9.936 -0.2501  0.2301  0.2817
    2MPD1    C114057   3.845   1.382   9.981 -0.3286 -0.2142  0.1507
    2MPD1    C214058   3.756   1.414  10.081 -0.0836 -0.8240  0.0798
    2MPD1    C314059   3.747   1.549  10.126  0.4277  0.1612 -0.3609
    2MPD1    C414060   3.838   1.644  10.077  0.4664  0.0451  0.0207
    2MPD1    C514061   3.933   1.602   9.985  0.0746 -0.3438 -0.6175
    2MPD1     H14062   3.689   1.337  10.118  0.4562 -1.1384  0.4065
    2MPD1    H114063   3.838   1.749  10.102 -0.6862  0.8518 -3.4058
    2MPD1    H214064   4.007   1.454   9.857  1.8857  1.8787  1.7738
    2MPD1    H314065   4.004   1.673   9.946  1.3315 -0.6315  1.1383
    2MPD1     N14066   3.644   1.581  10.215  0.6171  0.3929 -0.0902
    2MPD1    H514067   3.594   1.505  10.260 -1.8660 -0.4142 -4.1644
    2MPD1    N114068   3.850   1.253   9.932 -0.4836  0.0086 -0.0046
    2MPD1    H614069   3.896   1.242   9.842  0.7317  0.1509  0.6000
    2MPD1    H714070   3.759   1.209   9.916  0.4301 -1.8433 -0.2021
    1TCq1    O114071   1.449   0.772   9.615  0.0144  0.0386  0.0825
    1TCq1    C114072   1.495   0.896   9.591 -0.2466  0.2313  0.9256
    1TCq1    O214073   1.477   0.992   9.662  0.5164  0.0518  0.3254
    1TCq1    C214074   1.501   0.898   9.441  0.7916 -0.0380  0.8046
    1TCq1    C314075   1.552   0.788   9.377 -0.3073 -0.7403  0.0451
    1TCq1    C414076   1.513   0.775   9.242 -0.8537  0.1158 -0.8523
    1TCq1    C514077   1.461   0.886   9.185  0.1674  0.5165  0.3057
    1TCq1    C614078   1.446   1.005   9.250  0.3114  0.3264 -0.0552
    1TCq1    C714079   1.454   1.010   9.387 -0.1139 -0.4998 -0.6384
    1TCq1    C814080   1.382   1.111   9.178  0.8703 -0.2503  0.2756
    1TCq1    O414081   1.381   1.102   9.056  0.1120 -0.1418 -0.0259
    1TCq1    C914082   1.567   0.661   9.161 -0.0425  0.8649  0.2485
    1TCq1    O514083   1.513   0.652   9.047 -1.0583 -0.0419  0.1888
    1TCq1    O614084   1.663   0.596   9.204 -0.3787 -0.4259  0.3103
    1TCq1    H114085   1.430   0.717   9.536  4.1332 -2.1023  0.5701
    1TCq1    H214086   1.592   0.707   9.437 -2.1891 -0.7029  1.3549
    1TCq1    H314087   1.450   0.881   9.078 -1.0810  2.2264  0.3488
    1TCq1    H414088   1.412   1.094   9.442 -0.2229 -0.0428 -1.4289
    2MPD1     C14089   1.118   1.547   9.120 -0.3482  0.0810  0.6529
    2MPD1    C114090   1.102   1.512   9.251  0.0969  0.6267 -0.5197
    2MPD1    C214091   1.159   1.391   9.286  0.2245  0.0612 -0.2133
    2MPD1    C314092   1.252   1.324   9.207  0.7820  0.5229  0.0224
    2MPD1    C414093   1.291   1.378   9.087  0.1432  0.1478 -0.3154
    2MPD1    C514094   1.216   1.487   9.047 -0.7419  0.0569  0.1546
    2MPD1     H14095   1.138   1.345   9.382 -0.3933  1.1893  0.1937
    2MPD1    H114096   1.368   1.334   9.024  0.2648  1.3615 -1.0235
    2MPD1    H214097   1.074   1.634   9.072  0.5217  1.3878  2.1897
    2MPD1    H314098   1.231   1.541   8.955 -0.2817  0.4616  0.4655
    2MPD1     N14099   1.311   1.203   9.256 -0.3522 -0.7252  0.0335
    2MPD1    H514100   1.290   1.180   9.352 -1.7877  2.2981  0.4409
    2MPD1    N114101   1.007   1.571   9.335 -0.0278 -0.4943  0.4217
    2MPD1    H614102   0.988   1.669   9.319 -2.2375 -1.0538 -0.4351
    2MPD1    H714103   1.017   1.540   9.432  3.0705 -1.4191 -0.1945
    1MPD1     C14104   4.429   0.923  12.208 -0.0887  0.0189 -0.3480
    1MPD1    C114105   4.538   0.854  12.161  0.1508  0.4931 -0.0121
    1MPD1    C214106   4.645   0.918  12.108 -0.1025  0.0230 -0.1950
    1MPD1    C314107   4.635   1.052  12.079  0.1205  0.4661 -0.4721
    1MPD1    C414108   4.522   1.122  12.111  0.4871  0.6076 -0.5866
    1MPD1    C514109   4.425   1.057  12.179  0.0529 -0.1147  0.1977
    1MPD1     H14110   0.020   0.869  12.089 -0.4535 -1.1469  1.0647
    1MPD1    H114111   4.510   1.230  12.116 -2.5004  0.2217  0.7763
    1MPD1    H214112   4.341   0.881  12.255  0.1490  1.2508  1.2211
    1MPD1    H314113   4.343   1.115  12.220  0.3894  1.1039 -0.8738
    1MPD1     N14114   0.018   1.115  12.009 -0.1441 -0.1995  0.4117
    1MPD1    H514115   0.090   1.050  11.982  0.2722  0.2912  0.3426
    1MPD1    N114116   4.556   0.716  12.197  0.3226  0.5890 -0.4652
    1MPD1    H614117   4.476   0.675  12.244 -0.4886  2.0861 -0.5489
    1MPD1    H714118   4.612   0.657  12.136  0.6552 -0.1709  0.5668
    2MPD1     C14119   4.302   1.436  11.201 -0.3564 -0.1847  0.3894
    2MPD1    C114120   4.256   1.364  11.093  0.3055  0.2680 -0.2555
    2MPD1    C214121   4.332   1.257  11.048  0.2372  0.1862 -0.0915
    2MPD1    C314122   4.462   1.229  11.101 -0.0591  0.2286  0.2506
    2MPD1    C414123   4.505   1.311  11.204  0.1962  0.2013 -0.7375
    2MPD1    C514124   4.428   1.413  11.249 -0.0744 -0.7401  0.2465
    2MPD1     H14125   4.286   1.204  10.966  0.2334 -1.4039  0.9384
    2MPD1    H114126   4.605   1.289  11.240 -0.3132 -0.6933  0.1256
    2MPD1    H214127   4.242   1.521  11.234 -0.5866 -0.9895  2.0332
    2MPD1    H314128   4.467   1.459  11.339  1.7440  0.6869 -1.2523
    2MPD1     N14129   4.553   1.140  11.050  0.0756 -0.0675  0.6376
    2MPD1    H514130   4.649   1.126  11.082 -0.7562 -0.0511  3.1340
    2MPD1    N114131   4.127   1.387  11.041  0.2480 -0.1670  0.2525
    2MPD1    H614132   4.079   1.469  11.075  1.8522  1.8686 -2.3631
    2MPD1    H714133   4.139   1.394  10.940  1.7771 -2.3509  0.2726
    3MPD1     C14134   4.701   0.419  10.219  0.4725 -0.5460 -0.1465
    3MPD1    C114135   0.065   0.525  10.219  0.5032  0.5984  0.5889
    3MPD1    C214136   0.081   0.603  10.337 -0.8050  0.2560 -0.4532
    3MPD1    C314137   4.711   0.590  10.441  0.0977 -0.3608  0.0033
    3MPD1    C414138   4.617   0.483  10.438  0.9960  0.1511 -0.1234
    3MPD1    C514139   4.602   0.409  10.319 -0.1123 -0.2210 -0.9774
    3MPD1     H14140   0.146   0.687  10.320 -0.5938 -0.4530 -3.2407
    3MPD1    H114141   4.547   0.463  10.518  1.3131  0.2387  0.1763
    3MPD1    H214142   4.694   0.355  10.132 -0.2030  1.1090 -1.2978
    3MPD1    H314143   4.527   0.330  10.318  1.1856 -1.4543 -0.1206
    3MPD1     N14144   0.010   0.687  10.544 -0.3871  0.9622 -0.3905
    3MPD1    H514145   0.080   0.757  10.523 -0.6704  1.0819 -0.9343
    3MPD1    N114146   0.153   0.546  10.113  0.5938 -0.2240  0.2332
    3MPD1    H614147   0.109   0.502  10.033 -1.4906  1.1657  0.6109
    3MPD1    H714148   0.157   0.641  10.076  0.2755 -0.3733 -0.1870
    4MPD2     C14149   0.376   1.603  11.400  0.3059 -0.2123  0.2362
    4MPD2    C114150   0.439   1.524  11.490 -0.1869  0.7159  0.6654
    4MPD2    C214151   0.559   1.469  11.459  0.4968 -1.3014  0.2133
    4MPD2    C314152   0.614   1.488  11.332  0.4685 -0.7093 -0.0317
    4MPD2    C414153   0.550   1.570  11.240  0.1110 -0.1612 -0.8870
    4MPD2    C514154   0.433   1.628  11.279  0.5592 -0.1715 -0.2979
    4MPD2     H14155   0.609   1.414  11.538 -1.2845 -1.9352  0.8935
    4MPD2    H114156   0.582   1.584  11.138  1.6783 -1.7275 -0.5996
    4MPD2    H214157   0.295   1.667  11.433 -0.3333  0.0205 -1.7450
    4MPD2    H314158   0.391   1.706  11.216 -1.9124 -1.9892 -0.9257
    4MPD2     N14159   0.738   1.441  11.292  0.2475 -0.3304 -0.5223
    4MPD2    H514160   0.777   1.473  11.204 -0.5739 -1.0990 -1.1643
    4MPD2    N114161   0.389   1.499  11.620 -0.4373 -0.0721  0.1295
    4MPD2    H714162   0.458   1.448  11.675  0.0563 -1.5096 -1.8277
    5TMC3    C114163   0.242   1.464  11.796 -0.5887 -0.6930  0.3669
    5TMC3    C214164   0.132   1.392  11.807 -0.4111  0.5014 -1.0948
    5TMC3    C314165   0.137   1.268  11.868  0.3319 -0.0506  0.0797
    5TMC3    C414166   0.357   1.427  11.859  0.3698 -0.1631  0.1844
    5TMC3    C514167   0.371   1.300  11.905  0.0888 -0.2224  0.3506
    5TMC3    C614168   0.259   1.217  11.915  0.2782 -0.0962  0.1115
    5TMC3     C14169   0.254   1.515  11.661  0.0453 -1.5644 -0.7465
    5TMC3     O14170   0.159   1.550  11.593 -0.0884  0.0833 -0.3535
    5TMC3     H14171   0.043   1.413  11.748  0.2906  0.3508 -2.2086
    5TMC3    H114172   0.443   1.493  11.858  1.8893 -2.1632 -0.6389
    5TMC3    H214173   0.269   1.118  11.958  1.0601 -0.4711 -0.9242
    5TMC3    C714174   0.493   1.230  11.860 -0.2932  0.3435  0.3012
    5TMC3    C814175   0.015   1.233  11.937  0.3048  0.6168 -0.2334
    5TMC3    O114176   0.566   1.308  11.794 -0.5148 -0.0066  0.1097
    5TMC3    O214177   4.636   1.306  11.920  0.0939 -0.3732  0.3052
    6TMC3    C114178   4.629   0.978  10.887 -0.4530  0.7223 -0.6393
    6TMC3    C214179   4.579   0.872  10.813  0.3288  0.2620 -0.2250
    6TMC3    C314180   4.683   0.818  10.735  0.1484 -0.1950 -0.0287
    6TMC3    C414181   0.039   1.024  10.887  0.3918 -0.9764 -0.2415
    6TMC3    C514182   0.134   0.968  10.803 -0.5771  0.2723  0.2444
    6TMC3    C614183   0.096   0.859  10.728  0.5705 -0.1642 -0.0853
    6TMC3     C14184   4.516   1.049  10.946  1.0174 -0.4165  0.3124
    6TMC3     O14185   4.407   1.030  10.898  0.2940  0.4194 -0.5662
    6TMC3     H14186   4.478   0.835  10.818  0.2531  0.0656 -2.7413
    6TMC3    H114187   0.055   1.113  10.947  1.1517 -1.0129 -0.3897
    6TMC3    H214188   0.166   0.794  10.678  0.3004  0.4206 -1.2240
    6TMC3    C714189   0.271   1.006  10.821  0.2888 -0.5206 -0.4148
    6TMC3    C814190   4.640   0.713  10.648  0.6282 -0.2498  0.7628
    6TMC3    O114191   0.295   1.090  10.904  0.2039 -0.1942  0.4283
    6TMC3    O214192   4.546   0.655  10.700  0.4886  0.1212 -0.9577
    7MPD2     C14193   0.748   0.842  11.656 -0.1260  0.0995  0.4409
    7MPD2    C114194   0.756   0.980  11.630  0.6738  0.2820 -0.5661
    7MPD2    C214195   0.684   1.069  11.708 -0.1447  0.1981 -0.0942
    7MPD2    C314196   0.601   1.017  11.813  0.4237 -0.3323  0.2674
    7MPD2    C414197   0.610   0.889  11.850  0.2269  0.3580 -0.2881
    7MPD2    C514198   0.669   0.806  11.766  0.0027 -0.3877 -0.3355
    7MPD2     H14199   0.681   1.174  11.682 -1.3949 -0.6333 -3.2279
    7MPD2    H114200   0.543   0.852  11.926 -2.2728 -1.0913 -3.2160
    7MPD2    H214201   0.804   0.769  11.599  0.3364  1.7007 -1.1582
    7MPD2    H314202   0.671   0.699  11.787 -0.1200  0.1192  2.2297
    7MPD2     N14203   0.506   1.093  11.886  0.0103 -0.1481  0.3241
    7MPD2    H514204   0.445   1.046  11.952 -0.2923 -0.9762 -0.5435
    7MPD2    N114205   0.839   1.031  11.527 -0.6933 -0.1513 -0.8404
    7MPD2    H714206   0.831   1.132  11.514  0.3986  0.2362  1.4964
    8TMC3    C114207   0.971   1.037  11.332  0.5672 -1.1842 -0.6147
    8TMC3    C214208   0.942   0.991  11.206 -0.3039 -0.5470  0.3077
    8TMC3    C314209   0.873   1.076  11.125  0.1582  0.2532 -0.0605
    8TMC3    C414210   0.959   1.174  11.359  0.1075 -0.5694  0.7996
    8TMC3    C514211   0.891   1.256  11.277 -1.0298 -0.3866 -0.7411
    8TMC3    C614212   0.841   1.203  11.158  0.2358 -0.7006  0.6994
    8TMC3     C14213   0.913   0.957  11.437 -0.8057  0.4589  0.2788
    8TMC3     O14214   0.938   0.839  11.419  0.5915 -0.0883 -0.1199
    8TMC3     H14215   0.942   0.888  11.172 -0.5227 -1.2822  2.5490
    8TMC3    H114216   0.998   1.211  11.453 -0.2451  0.0480  0.6999
    8TMC3    H214217   0.779   1.266  11.096  0.5156 -1.5500 -0.4416
    8TMC3    C714218   0.800   1.340  11.358 -0.3765 -0.2331  0.5587
    8TMC3    C814219   0.779   1.016  11.033  0.5489 -0.0448  0.4039
    8TMC3    O114220   0.776   1.300  11.471  0.0023  0.0235  0.5781
    8TMC3    O214221   0.723   0.911  11.061 -0.0816 -0.9364 -0.7296
    9MPD2     C14222   0.741   1.069  10.672 -0.7041 -0.0792  0.3711
    9MPD2    C114223   0.694   1.055  10.806  0.3564  0.2232  0.2256
    9MPD2    C214224   0.559   1.024  10.823  0.6724  0.6196  0.9353
    9MPD2    C314225   0.485   0.995  10.707  0.3064  0.6753 -0.3845
    9MPD2    C414226   0.538   0.986  10.580  0.0843  0.3125 -0.4643
    9MPD2    C514227   0.662   1.044  10.560 -0.4957  0.5897  0.3580
    9MPD2     H14228   0.515   1.015  10.922 -0.6733  1.6700  0.4467
    9MPD2    H114229   0.475   0.963  10.495 -0.0391 -1.0448 -0.0073
    9MPD2    H214230   0.846   1.084  10.651 -0.4239 -0.8937  1.1940
    9MPD2    H314231   0.722   1.028  10.471  1.3534  1.8264  1.3674
    9MPD2     N14232   0.346   0.966  10.711 -0.0259  0.7535 -0.3208
    9MPD2    H514233   0.304   0.919  10.632  0.8360 -1.1696  0.3463
    9MPD2    N114234   0.782   1.081  10.916 -0.0162  0.7769 -0.4824
    9MPD2    H714235   0.860   1.143  10.899 -2.0857  3.1730 -1.0768
    1MPD1     C14236   0.354   4.221  17.024 -0.3702  0.2169 -0.0019
    1MPD1    C114237   0.453   4.305  16.974 -0.2098 -0.7890 -0.0550
    1MPD1    C214238   0.427   4.363  16.851  0.5284  0.0398 -0.4327
    1MPD1    C314239   0.317   4.330  16.782  0.4821 -0.7603  0.6772
    1MPD1    C414240   0.222   4.243  16.836  0.0941  0.1527 -0.0318
    1MPD1    C514241   0.243   4.193  16.961  0.3520 -0.1528  0.2457
    1MPD1     H14242   0.505   4.429  16.812  1.8919 -0.5692  1.2706
    1MPD1    H114243   0.129   4.230  16.782  0.5443 -0.7869 -0.5753
    1MPD1    H214244   0.363   4.171  17.119  2.0547  1.0138  0.1941
    1MPD1    H314245   0.167   4.134  17.012  0.2947 -1.0844 -0.9219
    1MPD1     N14246   0.296   4.378  16.648  0.3672 -0.3445 -0.3393
    1MPD1    H514247   0.204   4.343  16.622  0.6171 -2.0193  0.9922
    1MPD1    N114248   0.566   4.325  17.048 -0.2374  0.3357 -0.2298
    1MPD1    H614249   0.648   4.337  16.989 -1.8185  1.0985 -2.2661
    1MPD1    H714250   0.572   4.244  17.110 -3.1289  0.8616  0.7322
    2MPD1     C14251   0.927   4.684  15.939  0.2066 -0.3085 -0.4631
    2MPD1    C114252   0.925   4.681  16.078  0.0605 -0.7634 -0.4483
    2MPD1    C214253   0.804   4.671  16.149  1.0166  0.4677 -0.1355
    2MPD1    C314254   0.688   4.650  16.075 -0.3574  0.5557 -0.3319
    2MPD1    C414255   0.695   4.631  15.941 -0.3025 -0.5622 -0.3177
    2MPD1    C514256   0.808   4.658  15.872 -0.4019  0.7906  0.1292
    2MPD1     H14257   0.807   4.670  16.258  0.3631 -0.3653 -0.1206
    2MPD1    H114258   0.606   4.612  15.881 -0.4514 -1.4158  0.1720
    2MPD1    H214259   1.019   4.708  15.887  0.6578 -1.2853 -0.0930
    2MPD1    H314260   0.801   4.654  15.764  0.2014  1.4211  0.0672
    2MPD1     N14261   0.570   4.638  16.147 -0.8476  0.4148  0.1897
    2MPD1    H514262   0.566   4.671  16.243 -0.8483  1.7779 -0.2820
    2MPD1    N114263   1.037   0.003  16.157 -0.1361 -0.3576 -0.3863
    2MPD1    H614264   1.119   4.667  16.134  1.8462  2.9553 -1.2620
    2MPD1    H714265   1.026   4.705  16.257  0.8165  1.5160  0.0387
    3TCq2    C114266   0.457   4.580  16.105  0.5045  0.0669  0.0861
    3TCq2    O214267   0.420   4.547  15.991  0.3694  0.2321 -0.0164
    3TCq2    C214268   0.368   4.556  16.217  0.0058 -0.0336  0.9293
    3TCq2    C314269   0.239   4.517  16.179 -0.6601  0.2731 -0.3961
    3TCq2    C414270   0.161   4.451  16.265  0.0516  0.0761  0.0273
    3TCq2    C514271   0.203   4.428  16.391 -0.6866  0.9885  0.2311
    3TCq2    C614272   0.332   4.463  16.427 -0.3557 -0.2837 -0.3399
    3TCq2    C714273   0.423   4.532  16.343  0.3160 -0.7923 -0.5663
    3TCq2    C814274   0.381   4.445  16.561  0.4119  0.0655 -0.5783
    3TCq2    O414275   0.497   4.487  16.572  0.0930  0.0139 -0.2395
    3TCq2    C914276   0.026   4.403  16.232  1.1603 -0.0095  0.2445
    3TCq2    O514277   4.708   4.412  16.114 -0.3020  0.5013 -0.2374
    3TCq2    O614278   4.682   4.350  16.324 -0.0080  0.4473 -0.0575
    3TCq2    H214279   0.208   4.538  16.077  1.9318 -1.8216 -1.6272
    3TCq2    H314280   0.140   4.375  16.462 -0.0120 -1.4342 -0.9521
    3TCq2    H414281   0.517   4.578  16.373 -0.1990 -0.8009  1.0602
    1TCq1    O114282   3.549   4.524  13.355 -0.1145  0.4602 -0.2152
    1TCq1    C114283   3.417   4.562  13.351  0.8791  0.0463  0.4554
    1TCq1    O214284   3.376   4.643  13.273  0.0867  0.3564 -0.5872
    1TCq1    C214285   3.334   4.518  13.461  0.3044  0.3155 -1.2090
    1TCq1    C314286   3.201   4.527  13.437 -0.3335  0.3466  0.2706
    1TCq1    C414287   3.118   4.515  13.538  0.1049 -0.3455  0.5105
    1TCq1    C514288   3.165   4.491  13.665  0.3157 -0.8857 -0.0574
    1TCq1    C614289   3.300   4.473  13.690 -0.1572 -0.9293  0.0597
    1TCq1    C714290   3.391   4.477  13.585 -0.4890  0.6866 -0.3247
    1TCq1    C814291   3.343   4.395  13.809 -0.3496 -0.3157  0.3042
    1TCq1    O414292   3.444   4.322  13.808 -0.1570 -0.5871 -0.1745
    1TCq1    C914293   2.976   4.513  13.517  0.2249 -0.2153  0.4097
    1TCq1    O514294   2.920   4.450  13.605 -0.0599 -0.0567  0.1073
    1TCq1    O614295   2.944   4.504  13.397  0.2686  0.5072 -0.2870
    1TCq1    H114296   3.558   4.433  13.391 -0.0239  1.7522  3.0781
    1TCq1    H214297   3.183   4.567  13.337  1.3972 -1.4425 -0.7718
    1TCq1    H314298   3.095   4.473  13.745 -1.5393  0.5461 -1.3774
    1TCq1    H414299   3.497   4.463  13.599 -0.6700  0.0317  0.3745
    2MPD2     C14300   3.129   4.400  14.108 -0.4848 -0.0743 -0.3598
    2MPD2    C114301   3.232   4.352  14.034 -0.4153  0.6240 -0.6509
    2MPD2    C214302   3.326   4.274  14.085 -0.1605  0.2431  0.7371
    2MPD2    C314303   3.307   4.217  14.213 -0.2791 -0.2749  0.0151
    2MPD2    C414304   3.196   4.256  14.287 -0.1788 -0.2692 -0.0719
    2MPD2    C514305   3.114   4.346  14.231 -0.6540  0.6689  0.3567
    2MPD2     H14306   3.407   4.241  14.021 -0.5286  1.0647 -0.1575
    2MPD2    H114307   3.165   4.217  14.384  0.5365 -0.0375  0.2538
    2MPD2    H214308   3.065   4.473  14.060 -1.1651 -0.2740  0.2366
    2MPD2    H314309   3.028   4.380  14.288 -1.4281 -0.4861 -0.1205
    2MPD2     N14310   3.395   4.109  14.244  0.1551 -0.3779  0.0367
    2MPD2    H514311   3.456   4.072  14.171  2.0242  1.7996  0.5227
    2MPD2    N114312   3.251   4.412  13.908 -0.0545 -0.2321 -0.4701
    2MPD2    H714313   3.184   4.484  13.882  0.1438 -1.2142 -3.7374
    3TCq1    O114314   3.548   3.583  14.625 -0.2658  0.1318 -0.2547
    3TCq1    C114315   3.430   3.634  14.598 -0.3999  0.4141  0.6582
    3TCq1    O214316   3.352   3.666  14.689  0.6378  0.1520 -0.1423
    3TCq1    C214317   3.440   3.704  14.477  0.4017 -0.0795  0.1241
    3TCq1    C314318   3.468   3.639  14.365  0.5325  0.0960 -0.0950
    3TCq1    C414319   3.477   3.706  14.253 -0.8536 -0.7743 -0.0837
    3TCq1    C514320   3.466   3.843  14.244  0.1370 -0.0583 -1.0583
    3TCq1    C614321   3.451   3.909  14.360  0.4930 -0.0374  0.0156
    3TCq1    C714322   3.433   3.839  14.478  0.3684 -0.0488  0.6016
    3TCq1    C814323   3.402   4.049  14.362  0.4754 -0.2139  0.3194
    3TCq1    O414324   3.352   4.088  14.465 -0.3082 -0.1318 -0.2048
    3TCq1    C914325   3.521   3.643  14.130  0.0212  0.4973  0.3207
    3TCq1    O514326   3.581   3.536  14.144  0.2162 -0.0919  0.3898
    3TCq1    O614327   3.510   3.709  14.025  0.4061  0.0580 -0.5870
    3TCq1    H114328   3.606   3.573  14.547 -1.1546 -0.6284 -0.8145
    3TCq1    H214329   3.476   3.532  14.375  1.8835  0.1756 -0.2981
    3TCq1    H314330   3.513   3.884  14.156  1.2382  0.0133 -0.4311
    3TCq1    H414331   3.399   3.889  14.568  2.4509  0.3741  1.1460
    1MPD2     C14332   2.783   4.526  14.902  0.6173 -0.2817 -0.0890
    1MPD2    C114333   2.740   4.440  14.806  0.8927 -0.7244  0.0417
    1MPD2    C214334   2.820   4.332  14.770  0.3031  0.3736 -0.4111
    1MPD2    C314335   2.940   4.314  14.829 -0.6208  0.9197 -0.5836
    1MPD2    C414336   2.982   4.409  14.924  0.4733 -0.0084  0.0731
    1MPD2    C514337   2.904   4.517  14.959 -0.6597 -0.9336 -0.0810
    1MPD2     H14338   2.776   4.255  14.707  1.5823 -0.5929 -0.1277
    1MPD2    H114339   3.080   4.413  14.969 -0.4252 -0.2346  2.0187
    1MPD2    H214340   2.719   4.606  14.938  2.9856  0.8331  1.6155
    1MPD2    H314341   2.936   4.578  15.042  0.8048 -0.7620 -0.7817
    1MPD2     N14342   3.031   4.208  14.794  0.0099 -0.0757  0.0089
    1MPD2    H514343   3.115   4.195  14.849  0.6029 -2.4867 -1.4817
    1MPD2    N114344   2.617   4.473  14.742  0.7095 -0.3815 -0.0270
    1MPD2    H714345   2.559   4.544  14.786 -0.2187 -2.2893  1.8383
    2TMC3    C114346   2.425   4.430  14.601 -0.7684 -0.1036 -0.3301
    2TMC3    C214347   2.401   4.363  14.486  1.4687 -0.0602 -0.7491
    2TMC3    C314348   2.289   4.283  14.469  0.1075  0.5798 -0.3520
    2TMC3    C414349   2.329   4.433  14.692  0.0346  0.3226 -0.3892
    2TMC3    C514350   2.211   4.368  14.676 -0.3142 -0.5014 -0.1050
    2TMC3    C614351   2.194   4.278  14.571 -0.2457  0.2904  0.5106
    2TMC3     C14352   2.558   4.404  14.637 -0.4271  0.5067  0.2477
    2TMC3     O14353   2.602   4.304  14.577 -0.3221 -0.1900 -0.2465
    2TMC3     H14354   2.477   4.359  14.408  0.9729  0.3072 -1.2500
    2TMC3    H114355   2.360   4.454  14.793 -0.2204 -0.3036 -0.1791
    2TMC3    H214356   2.103   4.222  14.555 -1.1177  0.9800  3.0733
    2TMC3    C714357   2.101   4.449  14.698  0.2502  0.0452  0.1641
    2TMC3    C814358   2.315   4.150  14.418  0.2744 -0.5978 -0.1554
    2TMC3    O114359   1.991   4.403  14.693  0.2350  0.1847  0.3611
    2TMC3    O214360   2.226   4.092  14.351 -0.0799 -0.5507 -0.4780
    3TCq1    O114361   2.074   0.949  14.686  0.4208 -0.2352 -0.1465
    3TCq1    C114362   2.185   0.922  14.610 -0.3885  0.1011  0.4997
    3TCq1    O214363   2.264   1.015  14.594  0.8770  0.4844 -0.2244
    3TCq1    C214364   2.231   0.793  14.638 -0.3162 -0.2779  0.4302
    3TCq1    C314365   2.361   0.771  14.666 -1.0815 -0.6576  0.7080
    3TCq1    C414366   2.391   0.642  14.688  0.4081 -0.6588 -0.0147
    3TCq1    C514367   2.296   0.548  14.721 -0.2143 -0.5514  0.2825
    3TCq1    C614368   2.167   0.575  14.688  0.3780  0.0547  0.1345
    3TCq1    C714369   2.129   0.700  14.642  0.3878  0.3558 -0.5842
    3TCq1    C814370   2.069   0.470  14.678 -1.0983 -0.1552  0.7398
    3TCq1    O414371   1.963   0.502  14.625 -0.6585  0.4634  0.1959
    3TCq1    C914372   2.535   0.619  14.722 -0.3213  0.3243  0.3615
    3TCq1    O514373   2.612   0.716  14.705  0.1215  0.2600  0.2366
    3TCq1    O614374   2.569   0.505  14.762 -0.4926 -0.3983  0.2711
    3TCq1    H114375   2.034   0.866  14.719  0.7828 -0.4819 -0.3290
    3TCq1    H214376   2.439   0.844  14.655 -0.2836 -1.5569  0.3769
    3TCq1    H314377   2.328   0.452  14.761 -0.6782 -0.3432  1.1506
    3TCq1    H414378   2.027   0.724  14.615  0.6341 -0.1639 -1.9671
    4MPD2     C14379   1.912   0.210  14.729 -0.0564 -0.5066  0.3318
    4MPD2    C114380   2.046   0.215  14.726  0.0874  0.2659  0.2910
    4MPD2    C214381   2.109   0.090  14.746  0.4722  0.2315 -0.0356
    4MPD2    C314382   2.048   4.688  14.726  0.4330  0.4495  0.0431
    4MPD2    C414383   1.914   4.692  14.709  0.5280 -0.7659 -0.5849
    4MPD2    C514384   1.840   0.091  14.718 -0.1285 -0.4308 -0.1242
    4MPD2     H14385   2.215   0.090  14.765  1.0239 -0.7639 -3.2244
    4MPD2    H114386   1.862   4.600  14.685  0.1609 -0.0915 -2.3515
    4MPD2    H214387   1.851   0.299  14.736  0.5567  0.0054 -0.8274
    4MPD2    H314388   1.732   0.095  14.716 -0.1016 -0.1446 -0.8010
    4MPD2     N14389   2.139   4.575  14.714 -0.2210 -0.0131  0.2820
    4MPD2    H514390   2.237   4.598  14.726 -0.1925 -0.3024  0.6172
    4MPD2    N114391   2.118   0.340  14.718  0.1732  0.1064 -0.0416
    4MPD2    H714392   2.219   0.337  14.730  0.1322 -2.7132 -0.4704
    5TMC2    C114393   3.048   3.819  14.559  1.2919  0.1169  0.3936
    5TMC2    C214394   3.069   3.746  14.676  0.1044  0.1528 -0.2602
    5TMC2    C314395   3.107   3.816  14.783  0.0864 -0.1790  0.6365
    5TMC2    C414396   3.080   3.951  14.546  0.3312  0.2085 -0.3725
    5TMC2    C514397   3.108   4.025  14.658 -0.1372 -0.1835 -0.3938
    5TMC2    C614398   3.124   3.953  14.778  0.1729 -0.5575 -0.0316
    5TMC2     C14399   2.920   3.781  14.500 -0.1172 -0.2711 -0.1650
    5TMC2     O14400   2.897   3.666  14.465  0.1969  0.4041  0.6973
    5TMC2     H14401   3.054   3.639  14.678 -0.8083  0.2902  0.4644
    5TMC2    H114402   3.063   4.000  14.451  3.0891  0.9891 -0.4765
    5TMC2    H214403   3.144   4.009  14.869 -1.7811  0.2040 -0.0545
    5TMC2    C714404   3.017   4.137  14.671 -0.6734 -0.0963  0.6066
    5TMC2    C814405   3.118   3.753  14.910  0.1165 -0.3958 -0.0158
    5TMC2    O114406   2.928   4.140  14.582 -0.0317 -0.5805 -0.5038
    5TMC2    O214407   3.124   3.821  15.010 -0.2588  0.0082  0.1111
    5TMC2    O514408   3.189   3.646  14.887 -0.0110  0.0663  0.0253
    5TMC2    H514409   3.234   3.642  14.800  0.4128 -1.6104  0.3296
    6MPD2     C14410   2.454   3.904  14.345 -0.1813  0.5882  0.2348
    6MPD2    C114411   2.509   4.003  14.415 -0.4417 -0.6835  0.5403
    6MPD2    C214412   2.639   4.007  14.452  0.4630  0.0287 -0.1642
    6MPD2    C314413   2.719   3.895  14.424 -0.3702 -0.3445  0.4910
    6MPD2    C414414   2.668   3.794  14.350 -0.2970 -0.3519  0.5648
    6MPD2    C514415   2.537   3.801  14.312  0.0820 -0.6341  0.3069
    6MPD2     H14416   2.675   4.093  14.506  1.4475  0.3222 -1.2998
    6MPD2    H114417   2.727   3.722  14.294  1.4287  2.2074 -0.9044
    6MPD2    H214418   2.351   3.912  14.312  0.1999  0.9015 -0.8789
    6MPD2    H314419   2.493   3.718  14.259 -0.3021  0.1085 -0.5361
    6MPD2     N14420   2.840   3.890  14.482  0.2812  0.5987  0.3923
    6MPD2    H514421   2.873   3.977  14.521  0.9255  0.0082  1.1740
    6MPD2    N114422   2.444   4.122  14.450  0.0882  0.7774  0.2679
    6MPD2    H714423   2.505   4.185  14.501 -0.2282  0.0112  1.5887
  945NH4     N114424   3.184   0.668  11.851 -0.3967 -0.0885  0.2005
  945NH4     H214425   3.121   0.587  11.835  0.5129 -0.8551  0.4922
  945NH4     H314426   3.243   0.695  11.769 -0.8442 -0.1755 -0.1497
  945NH4     H414427   3.246   0.651  11.933 -0.1095  0.2591  0.0561
  945NH4     H514428   3.125   0.748  11.884  1.3043  1.4218 -0.4038
  946SOD     NA14429   1.233   0.079  14.771  0.4958  0.0839  0.0760
  947SOD     NA14430   4.054   3.399  14.255 -0.0540  0.2492 -0.4151
  948SOD     NA14431   2.562   1.067  10.306  0.2694  0.2754  0.6490
  949SOD     NA14432   2.217   0.934   8.678  0.4151  0.6512  0.5677
  950SOD     NA14433   4.221   4.396   7.782  0.2230  0.1870  0.1508
  951SOD     NA14434   2.429   3.540   9.987  0.0869 -0.1185 -0.1036
  952SOD     NA14435   2.270   2.574  11.022 -0.2846 -0.1435 -0.1368
  953SOD     NA14436   3.469   3.108   9.929 -0.3277 -0.0138 -0.2906
  954SOD     NA14437   2.327   2.827  10.782  0.3313  0.0143  0.2192
  955SOD     NA14438   0.077   0.828   0.715 -0.0253 -0.1927  0.2946
  956SOD     NA14439   0.781   2.679  13.209  0.5823 -0.2765 -0.2258
  957SOD     NA14440   2.881   3.372   7.453  0.0701 -0.3401 -0.0744
  958SOD     NA14441   4.178   0.629   0.017  0.2209  0.3238 -0.2485
  959SOD     NA14442   1.461   1.065   1.348 -0.1660 -0.0609 -0.5048
  960SOD     NA14443   0.021   3.118   0.769 -0.1361  0.2910  0.0390
  961SOD     NA14444   3.068   3.639   3.596  0.5789 -0.0476 -0.6465
  962SOD     NA14445   2.109   3.094   9.673 -0.5189  0.1104 -0.2900
  963SOD     NA14446   4.422   2.369   4.047  0.1735  0.0949 -0.0991
  964SOD     NA14447   1.282   0.492   8.367  0.9399  0.6061 -0.2759
  965SOD     NA14448   4.532   0.992   0.150  0.3612 -0.0837  0.2702
  966SOD     NA14449   2.009   3.658  10.120 -0.1697  0.0302  0.2890
  967SOD     NA14450   4.543   0.232  10.953 -0.3046  0.0316 -0.1982
  968SOD     NA14451   2.757   3.589   0.163 -0.1820  0.1720 -0.0349
  969SOD     NA14452   2.345   3.581  13.552 -0.0586  0.2984 -0.2663
  970SOD     NA14453   2.033   0.613  13.879 -0.5150 -0.4969  0.2498
  971SOD     NA14454   4.229   4.037  11.555 -0.0416 -0.2782 -0.0655
  972SOD     NA14455   0.608   4.644  15.121  0.3152  0.4798 -0.0154
  973SOD     NA14456   3.909   0.515   7.673 -0.2449  0.0873  0.1714
  974SOD     NA14457   3.065   1.535   2.567  0.2816 -0.1177  0.3207
  975SOD     NA14458   2.268   2.582  12.516  0.0953  0.5948 -0.0789
  976SOD     NA14459   1.748   2.334   1.579 -0.2060  0.0691 -0.1170
  977SOD     NA14460   3.425   3.801  11.248  0.0505  0.1515  0.4068
  978SOD     NA14461   2.794   1.065   4.130  0.2329 -0.1569 -0.3584
  979SOD     NA14462   2.303   1.170   1.637 -0.2012  0.2487  0.1601
  980SOD     NA14463   3.803   3.540  14.165 -0.6666  0.4753 -0.3133
  981SOD     NA14464   4.151   4.148   9.278 -0.3432 -0.5813 -0.3058
  982SOD     NA14465   2.127   3.359   9.924 -0.3239 -0.2195 -1.2812
  983SOD     NA14466   3.250   3.101  10.748  0.2676  0.0432 -0.6865
  984SOD     NA14467   2.164   0.620  11.263 -0.2235  0.2516  0.0274
  985SOD     NA14468   3.363   4.023  11.465 -0.6164 -0.3529 -0.5581
  986SOD     NA14469   4.242   3.735   0.133 -0.3551  0.0097 -0.1811
  987SOD     NA14470   4.548   0.168  14.035  0.2835  0.1984 -1.1812
  988SOD     NA14471   2.893   4.220  13.613  0.6017 -0.3039  0.0468
  989SOD     NA14472   1.559   2.939   0.322  0.3096 -0.3068 -0.1885
  990SOD     NA14473   4.249   1.604   5.655  0.2228 -0.1268 -0.4698
  991SOD     NA14474   3.367   1.245  14.020  0.2961 -0.3812  0.0214
  992SOD     NA14475   2.853   3.446  14.507  0.3613  0.6732 -0.5184
  993SOD     NA14476   4.228   3.653  14.447  0.1363  0.3740 -0.6039
  994SOD     NA14477   2.842   0.787  14.713  0.2417  0.2091 -0.4374
  995SOD     NA14478   0.071   0.563   2.383 -0.1087  0.3128 -0.0415
  996SOD     NA14479   1.599   3.506  12.492 -0.1729 -0.9149 -0.3361
  997SOD     NA14480   2.199   0.843  15.816 -0.3107  0.2782  0.1742
  998SOD     NA14481   3.138   3.652  11.355 -0.0205  0.0632 -0.0551
  999SOD     NA14482   2.917   0.261   9.211  0.1052 -0.2051 -0.1331
 1000SOD     NA14483   4.360   1.756  14.809 -0.0290 -0.1020 -0.1441
 1001SOD     NA14484   3.273   4.232  15.331  0.2131 -0.7380 -0.0086
 1002SOD     NA14485   1.689   4.695  10.971 -0.6987  0.0244  0.3001
 1003SOD     NA14486   0.647   4.675  17.606 -0.6112  0.3753  0.2653
 1004SOD     NA14487   2.610   1.002   2.640  0.0250 -0.0507 -0.1850
 1005SOD     NA14488   4.235   4.191  13.214 -0.4829 -0.0168 -0.1470
 1006SOD     NA14489   4.327   2.835  13.094 -0.2093 -0.1948  0.3117
 1007SOD     NA14490   2.582   0.433  12.146 -0.2795  0.3208 -0.4145
 1008SOD     NA14491   3.760   4.308   1.056 -0.4060 -0.1291 -0.1683
 1009SOD     NA14492   2.402   3.846   8.048  0.6657  0.0723  0.0698
 1010SOD     NA14493   0.674   0.715  11.150 -0.4047  0.0365 -0.0931
 1011SOL     OW14494   4.105   4.244   8.619 -0.2817  0.5195  0.3976
 1011SOL    HW114495   4.100   4.211   8.709  0.8368 -2.4517 -0.6475
 1011SOL    HW214496   4.024   4.296   8.615 -0.6628  0.0591  1.9770
 1012SOL     OW14497   0.638   4.313  13.898  0.1733  0.2445 -0.0497
 1012SOL    HW114498   0.682   4.303  13.814  1.3344 -0.8856  0.6961
 1012SOL    HW214499   0.698   4.261  13.951 -2.9987 -2.3468  1.0513
 1013SOL     OW14500   4.576   0.486   3.006 -0.1016 -0.1260 -0.0517
 1013SOL    HW114501   4.580   0.581   3.018 -0.7856  0.0853 -1.4501
 1013SOL    HW214502   4.481   0.481   2.996  0.0018 -1.4380 -0.3100
 1014SOL     OW14503   2.725   3.459  12.378  0.4734  0.1147 -0.1370
 1014SOL    HW114504   2.818   3.440  12.366  0.1271 -1.5680 -0.1699
 1014SOL    HW214505   2.727   3.551  12.405 -2.9981  0.5986 -1.4998
 1015SOL     OW14506   0.710   1.480   9.055  0.1371  0.1494 -0.3626
 1015SOL    HW114507   0.717   1.428   8.975 -1.7586  2.1672 -1.8233
 1015SOL    HW214508   0.749   1.418   9.117 -0.8013  0.9440  1.0047
 1016SOL     OW14509   1.702   0.897   7.905  0.3115  0.0269  0.1186
 1016SOL    HW114510   1.689   0.859   7.818 -0.9677  2.6509 -0.8339
 1016SOL    HW214511   1.630   0.959   7.893  0.3839  0.1522  0.3369
 1017SOL     OW14512   3.598   4.122   6.953  0.0806  0.3943 -0.3990
 1017SOL    HW114513   3.644   4.175   6.888  0.8101  0.5575  0.2550
 1017SOL    HW214514   3.557   4.056   6.897  1.9994 -0.5993 -0.6238
 1018SOL     OW14515   1.734   3.372   4.737  0.3483  0.1020  0.4893
 1018SOL    HW114516   1.767   3.439   4.795  2.8614  0.0229 -0.8522
 1018SOL    HW214517   1.808   3.318   4.708  0.7773 -0.9916  3.7023
 1019SOL     OW14518   0.458   4.313   5.692  0.5071 -0.4502  0.0542
 1019SOL    HW114519   0.444   4.292   5.784 -1.0100  1.0988  0.1742
 1019SOL    HW214520   0.371   4.304   5.653  0.2882  0.5892  0.2987
 1020SOL     OW14521   3.885   3.232   4.825  0.7279 -0.0914 -0.2447
 1020SOL    HW114522   3.838   3.308   4.789  0.9430 -0.8200 -2.0502
 1020SOL    HW214523   3.845   3.159   4.779  0.8695  0.2509 -0.9048
 1021SOL     OW14524   2.796   1.221  12.098 -0.5300  0.3430  0.1599
 1021SOL    HW114525   2.785   1.177  12.013  2.7170 -0.8608  0.3681
 1021SOL    HW214526   2.870   1.170  12.131 -3.2265 -3.0524  0.9571
 1022SOL     OW14527   1.173   3.101  16.326 -0.0187  0.0676 -0.3975
 1022SOL    HW114528   1.208   3.113  16.414  0.4700 -1.2348 -0.4101
 1022SOL    HW214529   1.244   3.126  16.267  2.0025 -0.6290  1.7400
 1023SOL     OW14530   2.095   4.644   9.409 -0.3462 -0.4183  0.3302
 1023SOL    HW114531   2.044   4.567   9.436 -1.7817  0.6478  0.7060
 1023SOL    HW214532   2.112   4.691   9.490  1.7974 -1.1403  0.3003
 1024SOL     OW14533   1.876   2.133   8.342 -0.2376  0.1692  0.4093
 1024SOL    HW114534   1.875   2.076   8.419 -0.8185  0.6070  0.7269
 1024SOL    HW214535   1.824   2.208   8.373 -1.0872 -0.8481  1.4488
 1025SOL     OW14536   4.151   0.399   6.331  0.3925  0.1116  0.3033
 1025SOL    HW114537   4.155   0.451   6.251  1.4871 -0.5049 -0.0339
 1025SOL    HW214538   4.244   0.395   6.349  0.5470  0.5709 -0.4062
 1026SOL     OW14539   3.458   1.937   0.322 -0.0048  0.1316 -0.3602
 1026SOL    HW114540   3.370   1.972   0.311  0.0960  0.4165 -0.2289
 1026SOL    HW214541   3.502   2.009   0.366 -0.3818  0.3726 -0.3755
 1027SOL     OW14542   0.174   3.278  15.732 -0.6550 -0.8593  0.8869
 1027SOL    HW114543   0.177   3.310  15.642 -3.2498 -0.7342  0.8590
 1027SOL    HW214544   0.092   3.305  15.772 -1.2850  0.5659 -1.3863
 1028SOL     OW14545   3.617   2.850   1.103 -0.0663 -0.4761  0.0689
 1028SOL    HW114546   3.603   2.781   1.168 -1.3568 -0.9889 -0.7525
 1028SOL    HW214547   3.577   2.819   1.021  1.2469 -1.2604 -0.2661
 1029SOL     OW14548   2.811   2.633   2.722  0.1769  0.3772  0.0944
 1029SOL    HW114549   2.869   2.673   2.786  1.9368 -1.4715 -0.3552
 1029SOL    HW214550   2.800   2.541   2.748  2.1307 -0.4584 -2.0278
 1030SOL     OW14551   1.177   2.350  14.447  0.1146 -0.0328 -0.9060
 1030SOL    HW114552   1.176   2.255  14.458 -0.5795 -0.1009 -1.5417
 1030SOL    HW214553   1.206   2.373  14.535 -0.6582  3.4065 -1.5604
 1031SOL     OW14554   4.239   4.129   4.540  0.3054 -0.0745  0.1467
 1031SOL    HW114555   4.180   4.202   4.519  1.2258  0.6944  0.2284
 1031SOL    HW214556   4.232   4.125   4.635 -1.8883 -0.7197 -0.0498
 1032SOL     OW14557   3.430   3.665  17.453  0.7114 -0.3513  0.2717
 1032SOL    HW114558   3.449   3.588  17.399 -0.4185  0.2183 -0.9390
 1032SOL    HW214559   3.513   3.712  17.455 -0.5860  1.9755 -0.1572
 1033SOL     OW14560   4.134   4.407   1.989 -0.3785 -0.0053  0.1431
 1033SOL    HW114561   4.134   4.452   1.905 -0.6526  0.6651  0.5018
 1033SOL    HW214562   4.211   4.452   2.025 -0.0114 -0.2595 -0.3172
 1034SOL     OW14563   2.084   1.339   5.571  0.3897  0.1039  0.2020
 1034SOL    HW114564   2.039   1.271   5.522  0.4919  0.2218 -0.0520
 1034SOL    HW214565   2.172   1.301   5.572  1.2503  2.0662 -0.4742
 1035SOL     OW14566   1.185   1.480   0.147  0.7759  0.0563  0.0568
 1035SOL    HW114567   1.139   1.451   0.068 -2.0767 -0.0816  1.7596
 1035SOL    HW214568   1.166   1.407   0.206  0.4538  1.1902  1.3643
 1036SOL     OW14569   4.195   1.638  13.550  0.4864  0.0069 -0.1153
 1036SOL    HW114570   4.234   1.722  13.525 -0.7141  0.6724  0.3019
 1036SOL    HW214571   4.196   1.647  13.646 -0.5064  0.6695 -0.1679
 1037SOL     OW14572   3.749   0.066   9.083  0.0139  0.5317 -0.0412
 1037SOL    HW114573   3.787   0.129   9.023  1.7261 -2.0363 -1.6636
 1037SOL    HW214574   3.811   0.080   9.155 -0.8479 -0.6917  0.9473
 1038SOL     OW14575   1.716   0.547   8.640 -0.5471  0.4528  0.3271
 1038SOL    HW114576   1.666   0.465   8.641  0.1332  0.0220 -0.6312
 1038SOL    HW214577   1.665   0.593   8.707 -0.1542 -2.0721  2.3594
 1039SOL     OW14578   3.648   2.502  12.136 -0.0598 -0.1126 -0.1003
 1039SOL    HW114579   3.669   2.586  12.095 -1.8317  0.4274  0.0675
 1039SOL    HW214580   3.714   2.501  12.204  0.1854  1.4192 -0.3163
 1040SOL     OW14581   2.232   3.693   3.900 -0.1390 -0.1027 -0.7945
 1040SOL    HW114582   2.218   3.766   3.841  0.3608  0.2650 -0.4509
 1040SOL    HW214583   2.149   3.697   3.948  0.0731 -2.2604 -0.2493
 1041SOL     OW14584   2.516   3.400   3.696  0.3287  0.3314 -0.1378
 1041SOL    HW114585   2.504   3.480   3.748  1.4097 -0.3207  1.1271
 1041SOL    HW214586   2.522   3.337   3.768  0.4569 -0.8995 -1.2299
 1042SOL     OW14587   3.698   0.366  15.525  0.0495 -0.2748  0.5456
 1042SOL    HW114588   3.758   0.309  15.476  0.6901  0.8279  0.0228
 1042SOL    HW214589   3.616   0.316  15.526 -0.0032 -0.2351 -1.5915
 1043SOL     OW14590   0.921   3.803   4.618  0.3476  0.2798 -0.7129
 1043SOL    HW114591   0.867   3.751   4.677  1.7503  0.2226  0.5128
 1043SOL    HW214592   0.860   3.847   4.558  0.7755  4.5074  1.9668
 1044SOL     OW14593   1.371   4.318   8.797 -0.5492  0.0179  0.7160
 1044SOL    HW114594   1.302   4.258   8.766 -0.0216 -0.2789  0.1311
 1044SOL    HW214595   1.359   4.396   8.743  1.1624 -1.3096 -1.5439
 1045SOL     OW14596   3.073   0.093   1.331  0.5253  0.5357  0.1299
 1045SOL    HW114597   3.105   0.079   1.420 -1.0508  0.2474  0.6647
 1045SOL    HW214598   3.063   0.188   1.335 -0.5437  0.4150  0.5541
 1046SOL     OW14599   1.103   2.730   8.312  0.1459 -0.2238  0.1785
 1046SOL    HW114600   1.120   2.797   8.379 -0.5844  0.1549 -0.0187
 1046SOL    HW214601   1.040   2.682   8.365  1.7309  0.9563  3.1698
 1047SOL     OW14602   3.048   2.227  15.739 -0.4024 -0.6366  0.8551
 1047SOL    HW114603   3.136   2.254  15.714 -0.6444 -0.5456  0.1193
 1047SOL    HW214604   2.995   2.306  15.749  1.4597  0.9334 -1.7220
 1048SOL     OW14605   3.285   3.506   4.541 -0.0182 -0.0639  0.3355
 1048SOL    HW114606   3.298   3.506   4.446  0.1029  1.0581  0.3532
 1048SOL    HW214607   3.219   3.574   4.552  0.2997  0.2806  0.0868
 1049SOL     OW14608   1.685   0.877  13.687  0.1891 -0.3131  0.1104
 1049SOL    HW114609   1.752   0.852  13.623  0.5057 -1.4944  0.9045
 1049SOL    HW214610   1.623   0.916  13.625 -0.2856 -1.0542  0.1204
 1050SOL     OW14611   3.302   0.284   4.315  0.7112  0.2556 -0.6439
 1050SOL    HW114612   3.353   0.223   4.368  0.0325 -0.7506 -1.1452
 1050SOL    HW214613   3.250   0.331   4.380  1.4133 -0.7523  0.6530
 1051SOL     OW14614   3.390   1.519  12.424 -0.4519 -0.3702 -0.1856
 1051SOL    HW114615   3.456   1.514  12.356 -1.5685 -1.0668 -1.2246
 1051SOL    HW214616   3.345   1.434  12.423  0.1249 -0.6714 -0.5259
 1052SOL     OW14617   3.444   4.426  11.134  0.4959  0.2827  0.2500
 1052SOL    HW114618   3.479   4.515  11.135  1.3234 -0.0610  1.9020
 1052SOL    HW214619   3.451   4.402  11.226  1.8404 -0.5616 -0.0754
 1053SOL     OW14620   3.406   3.283   5.649  0.0363  0.3338 -0.6389
 1053SOL    HW114621   3.378   3.306   5.561 -0.7238  0.8318 -0.2635
 1053SOL    HW214622   3.420   3.372   5.681 -2.0898 -0.1116  1.4923
 1054SOL     OW14623   0.802   4.709  10.288  0.3579  0.0813  0.3039
 1054SOL    HW114624   0.722   0.019  10.329  0.1700 -0.3035  0.2157
 1054SOL    HW214625   0.859   0.023  10.357  0.0859 -0.0126  0.5712
 1055SOL     OW14626   3.881   3.041   2.131 -0.2041  0.2900  0.4066
 1055SOL    HW114627   3.821   2.983   2.085 -0.6665  0.0754  1.2806
 1055SOL    HW214628   3.956   3.027   2.073 -1.0943  0.0717 -0.6862
 1056SOL     OW14629   2.813   3.485  11.394 -0.2623  0.0861  0.2601
 1056SOL    HW114630   2.729   3.504  11.352  0.4199  0.6521 -0.8657
 1056SOL    HW214631   2.786   3.441  11.474 -0.3058  0.7286  0.6020
 1057SOL     OW14632   1.179   2.878   5.768 -0.2880  0.2872  0.0223
 1057SOL    HW114633   1.088   2.901   5.784  0.4443  2.7470  0.6667
 1057SOL    HW214634   1.185   2.787   5.799 -0.2696  0.6396  1.0429
 1058SOL     OW14635   1.373   1.359   3.100  0.1341 -0.2262  0.3266
 1058SOL    HW114636   1.311   1.315   3.043  0.2480 -1.1076  0.8863
 1058SOL    HW214637   1.448   1.356   3.040  0.9752  0.2485  1.3615
 1059SOL     OW14638   2.141   0.378   9.582  0.1837  0.1441  0.2133
 1059SOL    HW114639   2.213   0.440   9.593 -0.9568  1.7391 -1.3602
 1059SOL    HW214640   2.108   0.404   9.496  1.2170 -1.2924 -0.6306
 1060SOL     OW14641   3.178   0.025  11.664  0.3743  0.1092 -0.4259
 1060SOL    HW114642   3.271   0.038  11.682  0.5495 -0.9097 -0.5847
 1060SOL    HW214643   3.145   0.080  11.735  0.0732  1.3605 -1.5343
 1061SOL     OW14644   4.194   3.988   5.626  0.2727 -0.4503  0.3329
 1061SOL    HW114645   4.259   3.919   5.616  0.1536  0.0251 -3.5240
 1061SOL    HW214646   4.258   4.059   5.619 -1.1582  0.9422  1.1945
 1062SOL     OW14647   4.213   2.815  11.474  0.0081  0.2901  0.3371
 1062SOL    HW114648   4.271   2.797  11.400  0.8322  1.8821  0.5916
 1062SOL    HW214649   4.140   2.765  11.437  0.3400 -1.4693  2.0782
 1063SOL     OW14650   2.104   4.553   4.129 -0.2475  0.4604 -0.3634
 1063SOL    HW114651   2.198   4.542   4.114 -0.0749  1.6073 -0.1272
 1063SOL    HW214652   2.083   4.460   4.134 -0.3554  0.4287 -1.5562
 1064SOL     OW14653   2.380   4.170   3.624 -0.5059  0.3440 -0.2310
 1064SOL    HW114654   2.377   4.261   3.594  0.1189  1.2475  2.4810
 1064SOL    HW214655   2.391   4.120   3.544  1.3245  0.2155  0.1007
 1065SOL     OW14656   2.215   1.071   4.355  0.9009 -0.1904 -0.1992
 1065SOL    HW114657   2.155   1.124   4.407  1.3217  0.1081 -0.0163
 1065SOL    HW214658   2.158   1.034   4.288  0.1119 -0.1125  0.4358
 1066SOL     OW14659   4.075   3.576   3.065  1.1038 -0.2455 -0.0098
 1066SOL    HW114660   4.110   3.662   3.040  1.1748 -0.5241 -0.8400
 1066SOL    HW214661   4.067   3.542   2.977 -0.2211  2.9156 -1.1182
 1067SOL     OW14662   2.334   0.245   3.991 -0.1001 -0.2782 -0.0066
 1067SOL    HW114663   2.314   0.338   3.989  2.0181  0.1474 -1.1943
 1067SOL    HW214664   2.427   0.243   3.969 -0.6889  1.2662 -2.6269
 1068SOL     OW14665   1.655   0.838   3.976 -0.1479 -0.3671 -0.1336
 1068SOL    HW114666   1.686   0.749   3.995 -1.1376 -0.6432  0.2080
 1068SOL    HW214667   1.566   0.820   3.945  0.5649 -2.5123 -0.9992
 1069SOL     OW14668   1.784   2.114   4.533 -0.0234 -0.0984  0.4281
 1069SOL    HW114669   1.736   2.181   4.581  2.4108  0.5323  2.0246
 1069SOL    HW214670   1.801   2.056   4.608 -1.0550  0.2863  0.9488
 1070SOL     OW14671   3.288   1.186   8.375 -0.2561  0.2740  0.5657
 1070SOL    HW114672   3.285   1.140   8.459 -1.8294  1.0773  0.9521
 1070SOL    HW214673   3.348   1.256   8.401  0.7022  0.0625 -1.0756
 1071SOL     OW14674   3.264   1.651   0.432  0.1378 -0.2434 -1.0546
 1071SOL    HW114675   3.251   1.729   0.378  2.2087  0.9908  0.2157
 1071SOL    HW214676   3.336   1.602   0.392 -0.9680 -2.4225 -0.3737
 1072SOL     OW14677   1.028   2.738   5.497  0.1639 -0.3711 -0.1651
 1072SOL    HW114678   0.995   2.827   5.510  0.9992 -0.2023  0.7569
 1072SOL    HW214679   0.952   2.681   5.507 -0.0080  0.3617  2.5503
 1073SOL     OW14680   3.589   0.045  15.019 -0.5102  0.0714  0.3574
 1073SOL    HW114681   3.672   0.049  14.973 -0.8383 -2.2359 -0.4099
 1073SOL    HW214682   3.542   4.707  14.959  1.9427 -1.3513 -0.1468
 1074SOL     OW14683   4.282   3.561   1.343  0.3543 -0.1108  0.0176
 1074SOL    HW114684   4.325   3.518   1.417 -0.8947 -0.0356  0.8015
 1074SOL    HW214685   4.254   3.486   1.291 -0.2290  0.4504 -0.4737
 1075SOL     OW14686   1.709   3.389  11.563  0.2818 -0.1494 -0.0412
 1075SOL    HW114687   1.638   3.444  11.529  1.1445  1.7281  1.1625
 1075SOL    HW214688   1.661   3.308  11.552  0.2305 -0.1616  0.2660
 1076SOL     OW14689   4.489   2.850  11.341 -0.3223  0.2115  0.8805
 1076SOL    HW114690   4.448   2.907  11.275  1.9514  1.2470  0.3638
 1076SOL    HW214691   4.460   2.888  11.424 -0.2764 -0.1013  1.0382
 1077SOL     OW14692   3.532   0.507  11.464 -0.2274  0.2474  0.2252
 1077SOL    HW114693   3.443   0.527  11.491 -0.1959  1.2575 -0.4215
 1077SOL    HW214694   3.563   0.435  11.520  1.1360 -0.5649 -1.5861
 1078SOL     OW14695   1.126   2.205  13.501  0.0245  0.1771  0.0183
 1078SOL    HW114696   1.177   2.164  13.571 -1.5720 -0.8681  0.5642
 1078SOL    HW214697   1.147   2.298  13.513  0.7224 -0.1610  1.4836
 1079SOL     OW14698   3.475   1.792  12.303 -0.5027  0.3893 -0.1462
 1079SOL    HW114699   3.530   1.848  12.249 -1.0235 -0.5380 -1.6313
 1079SOL    HW214700   3.517   1.707  12.286 -1.3459 -0.0591  0.0193
 1080SOL     OW14701   0.298   3.937  10.374  0.1334  0.2920 -0.3702
 1080SOL    HW114702   0.302   3.940  10.279 -1.1608  0.1165 -0.4351
 1080SOL    HW214703   0.260   4.023  10.389 -1.3086  0.0318 -2.5105
 1081SOL     OW14704   2.285   1.269   5.930  0.1871  0.0366 -0.0663
 1081SOL    HW114705   2.355   1.216   5.893  1.6369  0.4117  2.1794
 1081SOL    HW214706   2.286   1.224   6.014  0.8238 -1.2338 -0.7677
 1082SOL     OW14707   2.861   0.665   9.077 -0.0317 -0.4897 -0.3523
 1082SOL    HW114708   2.772   0.686   9.105  0.4871 -0.5058  1.3240
 1082SOL    HW214709   2.870   0.586   9.129 -0.2185  0.2333  0.7881
 1083SOL     OW14710   4.635   2.939  12.879  0.2471  0.3095 -0.3574
 1083SOL    HW114711   4.705   2.952  12.944  1.8479  2.0045 -2.4116
 1083SOL    HW214712   4.623   3.032  12.859  0.3744  0.0326 -1.7079
 1084SOL     OW14713   2.281   1.457  14.902  0.7469 -0.6402 -0.5002
 1084SOL    HW114714   2.256   1.371  14.868  1.2336 -1.0442  0.1885
 1084SOL    HW214715   2.195   1.499  14.901  1.6723  1.2150 -2.7549
 1085SOL     OW14716   1.872   2.280   6.088  0.1147 -0.1527  0.1120
 1085SOL    HW114717   1.881   2.268   5.994 -1.9938 -1.6892  0.1104
 1085SOL    HW214718   1.853   2.193   6.123 -1.1519  0.0014 -0.1872
 1086SOL     OW14719   4.309   2.695  11.716 -0.2684 -0.9167  0.0743
 1086SOL    HW114720   4.216   2.681  11.733 -0.2147 -0.6416  0.5892
 1086SOL    HW214721   4.310   2.772  11.658  0.3868  0.1223  1.4626
 1087SOL     OW14722   0.272   4.615  12.089  0.8938 -0.0015 -0.1492
 1087SOL    HW114723   0.239   4.672  12.020 -3.4291  0.7707  2.5687
 1087SOL    HW214724   0.334   4.676  12.132 -0.0068  1.6778 -1.2386
 1088SOL     OW14725   2.273   1.624   8.526  0.1295  0.4913  0.3087
 1088SOL    HW114726   2.348   1.564   8.524  1.3299  1.9094  1.8125
 1088SOL    HW214727   2.260   1.607   8.620 -0.2331 -0.7992  0.0170
 1089SOL     OW14728   3.294   3.865  12.808  0.8367  0.2775  0.5040
 1089SOL    HW114729   3.334   3.821  12.883  1.1535  0.2843  0.3424
 1089SOL    HW214730   3.361   3.933  12.794  0.0660  0.7158 -1.0112
 1090SOL     OW14731   0.242   2.423  10.814 -0.2095  0.5637 -0.6681
 1090SOL    HW114732   0.224   2.489  10.746 -1.5636  2.0623  1.1223
 1090SOL    HW214733   0.310   2.472  10.859  1.0697 -0.8712 -1.0638
 1091SOL     OW14734   2.475   4.514   7.987  0.1702  0.1663  0.2583
 1091SOL    HW114735   2.381   4.496   7.983 -0.0923  1.9122 -1.2998
 1091SOL    HW214736   2.492   4.522   8.081  0.6175 -1.5937  0.3305
 1092SOL     OW14737   0.145   3.936   0.242  0.3080 -0.5722 -1.0414
 1092SOL    HW114738   0.139   3.863   0.303 -0.1523  1.1525  0.9913
 1092SOL    HW214739   0.235   3.970   0.246 -0.3175  0.7079  1.9218
 1093SOL     OW14740   3.171   0.916   1.952  0.3447 -0.2010  0.1387
 1093SOL    HW114741   3.136   0.827   1.955  0.1210 -0.0145  3.0701
 1093SOL    HW214742   3.096   0.972   1.974 -1.5391 -2.8979  0.5386
 1094SOL     OW14743   0.745   2.627   6.365  0.0059  0.3313 -0.2192
 1094SOL    HW114744   0.674   2.674   6.321 -1.0966 -0.6096  0.5638
 1094SOL    HW214745   0.823   2.676   6.341  0.3124  0.2600  0.6437
 1095SOL     OW14746   4.587   2.752   6.214  0.1558  1.1134  0.3881
 1095SOL    HW114747   4.598   2.822   6.150 -0.9603  1.0434  0.1316
 1095SOL    HW214748   4.494   2.731   6.209  0.4332  0.0378 -0.2385
 1096SOL     OW14749   0.816   1.547   6.178  0.0221 -0.4003 -0.0064
 1096SOL    HW114750   0.739   1.492   6.169 -0.7317  0.0123  3.7848
 1096SOL    HW214751   0.882   1.489   6.217  1.4462  0.9951 -0.3617
 1097SOL     OW14752   0.182   2.886  16.696  0.1162 -0.2277 -0.6948
 1097SOL    HW114753   0.180   2.952  16.627 -4.0159 -1.1170 -1.4390
 1097SOL    HW214754   0.134   2.934  16.763 -0.2972 -2.5776  0.7193
 1098SOL     OW14755   0.645   3.465   0.501 -0.0588  0.0815  0.5640
 1098SOL    HW114756   0.728   3.493   0.540 -0.0252 -1.2252  1.4591
 1098SOL    HW214757   0.652   3.483   0.407 -0.9242  0.7423  0.6261
 1099SOL     OW14758   1.803   3.279   3.696 -0.2030  0.5868 -0.4235
 1099SOL    HW114759   1.793   3.361   3.745  0.0569 -1.6197  3.3457
 1099SOL    HW214760   1.726   3.294   3.641 -2.0260 -0.0730  1.9395
 1100SOL     OW14761   0.737   4.018  12.325 -0.8502  0.2105  0.3038
 1100SOL    HW114762   0.713   3.980  12.410 -1.5082 -0.6785 -0.2772
 1100SOL    HW214763   0.705   3.951  12.265 -0.4137  0.8628 -0.6615
 1101SOL     OW14764   2.284   1.043   8.110  0.1724  0.1058  0.3396
 1101SOL    HW114765   2.195   1.009   8.106  0.7625 -1.4213  0.1150
 1101SOL    HW214766   2.284   1.086   8.196  0.4676 -1.9520  1.3654
 1102SOL     OW14767   2.484   3.302   3.951  0.0040 -0.1422 -0.1338
 1102SOL    HW114768   2.390   3.316   3.959 -0.1936 -1.6290  0.0289
 1102SOL    HW214769   2.500   3.248   4.028 -0.3851  0.0227  0.0599
 1103SOL     OW14770   1.653   0.609   3.314  0.0936  0.1442 -0.0339
 1103SOL    HW114771   1.575   0.599   3.259 -1.5523 -5.2732  3.2395
 1103SOL    HW214772   1.688   0.684   3.266 -0.0891  0.9751  1.1346
 1104SOL     OW14773   2.022   4.111   5.965 -0.4352  0.3862 -0.6124
 1104SOL    HW114774   2.095   4.136   5.908  1.7158  1.0253  2.4127
 1104SOL    HW214775   1.990   4.036   5.915 -1.8950  0.5978 -0.0044
 1105SOL     OW14776   1.090   1.773   6.536 -0.8038  0.1694 -0.6489
 1105SOL    HW114777   1.079   1.739   6.447 -0.1676 -1.2307 -0.2030
 1105SOL    HW214778   1.014   1.831   6.539 -0.8022  0.0807  0.8175
 1106SOL     OW14779   3.677   1.300  10.512  0.3497  0.2058  0.6449
 1106SOL    HW114780   3.763   1.341  10.502 -1.3974  3.7651  0.2960
 1106SOL    HW214781   3.624   1.360  10.564 -1.9563 -0.9626 -0.3497
 1107SOL     OW14782   3.562   1.201   8.225 -0.1916 -0.0208 -0.7171
 1107SOL    HW114783   3.531   1.262   8.292  2.0858 -1.1116  1.3173
 1107SOL    HW214784   3.600   1.252   8.153 -2.3494 -0.6332 -2.3180
 1108SOL     OW14785   0.753   3.633   4.772 -0.4302 -0.3844  0.3067
 1108SOL    HW114786   0.665   3.604   4.751  0.0286 -2.3838  1.1297
 1108SOL    HW214787   0.759   3.613   4.865  1.0584 -2.2902 -0.1979
 1109SOL     OW14788   2.046   3.667   8.364  0.1213  0.5588  0.0963
 1109SOL    HW114789   1.966   3.623   8.337  1.4115 -0.2385 -2.3871
 1109SOL    HW214790   2.007   3.750   8.391  0.0910  0.4047  0.5405
 1110SOL     OW14791   1.676   1.752   4.914  0.2088 -0.3678 -0.1119
 1110SOL    HW114792   1.671   1.768   5.008 -0.9423 -0.6318 -0.1353
 1110SOL    HW214793   1.749   1.690   4.908 -0.9659 -1.5509 -2.2908
 1111SOL     OW14794   0.726   3.395  13.127 -0.4242 -0.0873  0.2690
 1111SOL    HW114795   0.684   3.325  13.177 -1.0412  1.0374  1.3114
 1111SOL    HW214796   0.741   3.348  13.045 -0.7603 -0.5450  0.4699
 1112SOL     OW14797   0.210   4.127  13.837 -0.0824  0.7451 -0.2986
 1112SOL    HW114798   0.214   4.043  13.882 -1.7143  1.4975  1.2478
 1112SOL    HW214799   0.298   4.143  13.803  1.5554 -1.7581  2.7038
 1113SOL     OW14800   2.057   3.793   5.266 -0.0042  0.3268 -0.0846
 1113SOL    HW114801   2.031   3.885   5.274  1.9687  0.8327  0.5180
 1113SOL    HW214802   1.997   3.757   5.201  1.8389  1.0982 -2.2039
 1114SOL     OW14803   0.199   0.511  12.234 -0.4500 -0.0410  0.1374
 1114SOL    HW114804   0.158   0.540  12.316 -2.0017 -1.6774 -0.0623
 1114SOL    HW214805   0.189   0.416  12.247 -0.5182 -0.2200 -1.2248
 1115SOL     OW14806   3.581   1.227   4.732  0.7672  0.9970  0.1688
 1115SOL    HW114807   3.615   1.316   4.735 -1.1684  1.7765 -0.9359
 1115SOL    HW214808   3.488   1.240   4.717  0.9255 -1.6977 -3.4624
 1116SOL     OW14809   2.978   2.969  14.453  0.1504 -0.5270  0.1318
 1116SOL    HW114810   2.900   3.013  14.487  0.3285 -1.8630  2.2765
 1116SOL    HW214811   2.957   2.878  14.476 -2.2433 -0.7519 -2.8911
 1117SOL     OW14812   3.982   1.299   4.482  0.2864 -0.1929 -0.3198
 1117SOL    HW114813   4.016   1.251   4.407 -1.3725 -2.1288  0.1780
 1117SOL    HW214814   3.962   1.226   4.540  0.5084  1.3024  1.6626
 1118SOL     OW14815   3.103   0.397   5.981 -0.3253 -0.1575  0.2925
 1118SOL    HW114816   3.105   0.310   5.942  1.1075  0.2223 -0.4810
 1118SOL    HW214817   3.040   0.374   6.050 -0.6649  4.2183  1.4359
 1119SOL     OW14818   3.982   4.430  12.675 -0.1636  0.4128 -0.6339
 1119SOL    HW114819   4.056   4.440  12.616  0.0853 -1.1747 -0.5980
 1119SOL    HW214820   4.023   4.474  12.750 -0.3407  1.9370 -1.4368
 1120SOL     OW14821   0.569   3.201   7.116 -0.1398  0.2269 -0.6222
 1120SOL    HW114822   0.626   3.238   7.183 -2.6470  0.8894  1.1722
 1120SOL    HW214823   0.523   3.278   7.082 -0.4872  0.8047  1.1188
 1121SOL     OW14824   0.405   2.305   3.397  0.5810 -0.4518 -0.1162
 1121SOL    HW114825   0.438   2.220   3.369 -0.9474 -0.8694 -0.6626
 1121SOL    HW214826   0.412   2.298   3.493  0.8759  0.4841 -0.0720
 1122SOL     OW14827   0.222   3.932  14.016 -0.2108  0.1607 -0.2329
 1122SOL    HW114828   0.288   3.970  14.074  0.7676 -1.4342 -0.3041
 1122SOL    HW214829   0.151   3.944  14.080  0.1549 -2.6475  0.6945
 1123SOL     OW14830   0.383   3.469  11.235 -0.6529  0.0158  0.7017
 1123SOL    HW114831   0.362   3.480  11.328 -0.3678 -0.3889  0.8176
 1123SOL    HW214832   0.339   3.385  11.217  1.7091 -1.1803  0.4777
 1124SOL     OW14833   2.997   0.213   3.366  0.2357 -0.7400  0.3017
 1124SOL    HW114834   2.917   0.214   3.418  0.0533  1.1253 -0.0097
 1124SOL    HW214835   3.068   0.221   3.429 -0.1670  2.0497  0.4026
 1125SOL     OW14836   1.376   3.480   8.842 -0.2498  0.4006 -0.0491
 1125SOL    HW114837   1.377   3.422   8.918 -1.1246 -1.6919 -1.6228
 1125SOL    HW214838   1.468   3.505   8.835 -0.0474  0.8593  4.1431
 1126SOL     OW14839   3.086   0.577   8.618  0.4055  0.4997  0.1824
 1126SOL    HW114840   3.090   0.577   8.714 -0.0084  0.7903  0.1982
 1126SOL    HW214841   2.993   0.591   8.601  0.1123  0.9910  2.2164
 1127SOL     OW14842   2.465   3.283   7.307  0.4441  0.1395  0.0575
 1127SOL    HW114843   2.431   3.246   7.388 -0.2027 -0.9725 -0.7281
 1127SOL    HW214844   2.389   3.288   7.249  0.8608 -3.1487 -0.7178
 1128SOL     OW14845   0.002   0.965   5.068 -0.3785  0.0447  0.5436
 1128SOL    HW114846   0.075   0.961   5.006  0.3668 -4.0595  1.6509
 1128SOL    HW214847   4.679   1.039   5.024 -0.1667 -1.0021 -1.4151
 1129SOL     OW14848   2.804   0.754   3.517 -0.1482 -0.2248  0.2328
 1129SOL    HW114849   2.727   0.702   3.490  0.4337 -1.0033  0.0614
 1129SOL    HW214850   2.882   0.707   3.489 -1.9621 -2.5554 -0.9912
 1130SOL     OW14851   1.764   2.407   6.746 -0.5438  0.3719  0.3801
 1130SOL    HW114852   1.847   2.440   6.715 -1.0687  1.4841  0.1786
 1130SOL    HW214853   1.757   2.420   6.840 -0.2986 -0.5525  0.5328
 1131SOL     OW14854   0.833   3.900   3.756  0.1764 -0.2066 -0.3138
 1131SOL    HW114855   0.906   3.849   3.791  1.5467  1.8685 -0.1389
 1131SOL    HW214856   0.764   3.874   3.817 -0.4235  2.6164  0.2279
 1132SOL     OW14857   3.562   0.258   8.132  0.6200 -0.2657 -0.2466
 1132SOL    HW114858   3.483   0.286   8.179  1.8591 -0.0199  1.7046
 1132SOL    HW214859   3.616   0.226   8.205  0.3039  0.3534  0.2614
 1133SOL     OW14860   0.957   2.071  10.547 -0.3538 -0.0551  0.4594
 1133SOL    HW114861   0.862   2.061  10.549 -0.1850 -2.0143 -1.3517
 1133SOL    HW214862   0.983   1.995  10.494  0.6133 -0.4145  1.4303
 1134SOL     OW14863   3.380   1.550  15.238  0.1958 -0.3383 -0.3177
 1134SOL    HW114864   3.444   1.486  15.207 -0.3552  1.1861 -4.6128
 1134SOL    HW214865   3.385   1.616  15.169  1.8031  3.1549  3.1207
 1135SOL     OW14866   0.090   0.965   2.512  0.3892  0.0108 -0.7995
 1135SOL    HW114867   0.101   0.870   2.524  0.2439 -0.1394 -1.8588
 1135SOL    HW214868   0.012   0.977   2.457  0.5999 -2.1380 -1.5870
 1136SOL     OW14869   2.748   3.026   1.996  0.2028 -0.2019  0.4537
 1136SOL    HW114870   2.735   3.011   1.902 -1.3568 -1.2920  0.8394
 1136SOL    HW214871   2.752   3.121   1.997 -0.5225 -0.1702 -0.0898
 1137SOL     OW14872   1.925   1.208   2.611 -0.0860 -0.2260  0.0738
 1137SOL    HW114873   1.992   1.142   2.592 -0.3831 -1.0331  1.7677
 1137SOL    HW214874   1.964   1.287   2.574  0.5911  0.5308  2.3681
 1138SOL     OW14875   2.366   3.631  12.975 -0.3927  0.0441  0.5004
 1138SOL    HW114876   2.328   3.566  12.916  0.8796 -0.9653  0.7886
 1138SOL    HW214877   2.297   3.696  12.989  0.2942  0.5929  1.3036
 1139SOL     OW14878   1.908   1.075  17.269 -0.4411  0.1565 -0.3769
 1139SOL    HW114879   1.982   1.112  17.221  0.0668  1.0296  1.0723
 1139SOL    HW214880   1.860   1.155  17.290  2.4501  1.7909 -0.0223
 1140SOL     OW14881   1.718   1.963  14.054 -0.1536  0.0542  0.2318
 1140SOL    HW114882   1.657   1.957  14.127 -1.6739 -0.1324 -1.0457
 1140SOL    HW214883   1.728   1.869  14.034  1.0400  0.3195 -0.4149
 1141SOL     OW14884   1.589   3.192   6.264  0.1241  0.3131 -0.0162
 1141SOL    HW114885   1.496   3.173   6.272 -0.0471  0.1739 -2.4052
 1141SOL    HW214886   1.601   3.246   6.343 -0.0005  0.4659 -0.1014
 1142SOL     OW14887   1.401   1.619   7.881  0.0583 -0.2720 -0.2424
 1142SOL    HW114888   1.402   1.704   7.838  1.4633  0.5541  1.4068
 1142SOL    HW214889   1.413   1.639   7.974 -1.3784  0.8338 -0.2998
 1143SOL     OW14890   1.626   4.349   0.971 -0.4549  0.7678  0.1940
 1143SOL    HW114891   1.716   4.333   0.998 -0.2971  3.4042  1.2775
 1143SOL    HW214892   1.622   4.442   0.993  0.5771  0.6982  0.6454
 1144SOL     OW14893   1.918   0.401   9.379  0.3002  0.1353  0.1459
 1144SOL    HW114894   1.903   0.307   9.366 -0.0317  0.4014 -1.3630
 1144SOL    HW214895   1.829   0.424   9.404 -0.1701 -0.1144 -1.2648
 1145SOL     OW14896   0.804   0.958   5.515 -0.3315 -0.0586  0.6360
 1145SOL    HW114897   0.826   0.991   5.602 -0.3014  0.1971  0.5298
 1145SOL    HW214898   0.724   0.906   5.527 -1.7729  1.8697 -0.6923
 1146SOL     OW14899   2.761   2.601  10.488 -1.0016 -0.4483  0.1365
 1146SOL    HW114900   2.802   2.651  10.417 -1.0306  0.0773  0.4864
 1146SOL    HW214901   2.822   2.528  10.482 -0.9596 -0.4337  0.3904
 1147SOL     OW14902   4.616   0.135   3.563  0.6249 -0.9388  0.3956
 1147SOL    HW114903   4.599   0.179   3.646  3.9897  0.9187  0.1408
 1147SOL    HW214904   4.658   0.202   3.508  3.3801 -1.6126  1.6576
 1148SOL     OW14905   3.195   3.092  14.524  0.2023 -0.0645  0.1148
 1148SOL    HW114906   3.170   3.110  14.615 -0.6560 -1.8105  0.2388
 1148SOL    HW214907   3.115   3.046  14.499  0.0300  0.3647 -0.1180
 1149SOL     OW14908   2.689   4.334  13.556  0.2141  0.0134  0.7733
 1149SOL    HW114909   2.761   4.398  13.562  1.3996 -1.3588  1.1786
 1149SOL    HW214910   2.633   4.366  13.485 -0.3249 -0.5497  0.9489
 1150SOL     OW14911   3.869   2.617   2.800 -0.1396  0.4359 -0.2698
 1150SOL    HW114912   3.933   2.688   2.794  2.2348 -1.4569  2.8279
 1150SOL    HW214913   3.850   2.613   2.894 -1.8153  2.9208 -0.4896
 1151SOL     OW14914   0.710   2.689  13.947 -0.2295 -0.9752  0.0239
 1151SOL    HW114915   0.769   2.754  13.908 -2.6119  0.6031 -0.9321
 1151SOL    HW214916   0.759   2.668  14.027 -1.4983 -0.3098  0.9669
 1152SOL     OW14917   4.488   3.176   4.570  0.5406 -0.0064  0.5500
 1152SOL    HW114918   4.553   3.116   4.606  1.5619 -0.0995 -1.4271
 1152SOL    HW214919   4.407   3.132   4.596 -0.1514 -0.4383 -2.3102
 1153SOL     OW14920   2.557   4.569   4.476 -0.1081  0.1787 -0.4110
 1153SOL    HW114921   2.554   4.493   4.534  2.0652 -0.9015 -1.7393
 1153SOL    HW214922   2.622   4.624   4.519  0.1380  0.0789 -0.6596
 1154SOL     OW14923   2.100   1.535   6.983 -0.1338 -0.5888  0.2467
 1154SOL    HW114924   2.094   1.625   7.017 -0.7433 -0.2299 -0.8087
 1154SOL    HW214925   2.073   1.476   7.053 -1.3191 -1.3892 -0.8898
 1155SOL     OW14926   0.492   1.859   2.666 -0.1993 -0.5592 -0.1733
 1155SOL    HW114927   0.524   1.785   2.614  0.3562 -1.0530  0.8776
 1155SOL    HW214928   0.398   1.864   2.646 -0.0377 -0.0685 -0.8019
 1156SOL     OW14929   0.438   1.611   4.815 -0.5343  0.9418 -0.4325
 1156SOL    HW114930   0.436   1.617   4.720  0.3720  0.6620 -0.4662
 1156SOL    HW214931   0.450   1.516   4.820 -0.6362  0.9662  0.3704
 1157SOL     OW14932   3.524   3.298   4.830 -0.1244  0.4311 -0.8201
 1157SOL    HW114933   3.594   3.261   4.776 -0.6179  0.9053 -1.7882
 1157SOL    HW214934   3.512   3.387   4.795 -0.5943  0.5091 -0.4692
 1158SOL     OW14935   4.289   4.520   3.268 -0.0387  0.5708  0.6438
 1158SOL    HW114936   4.276   4.517   3.363  0.1004 -1.5482  0.6015
 1158SOL    HW214937   4.307   4.611   3.245 -0.3503 -0.3209 -3.0902
 1159SOL     OW14938   1.274   0.107   3.744  0.3710  0.3857 -0.0682
 1159SOL    HW114939   1.256   0.039   3.809 -1.3162  0.1151 -0.7967
 1159SOL    HW214940   1.318   0.060   3.674 -3.5723 -2.0932 -0.8910
 1160SOL     OW14941   0.736   1.654   8.427 -0.3404  0.0688 -0.1949
 1160SOL    HW114942   0.685   1.658   8.508  0.7862  1.9202  0.4097
 1160SOL    HW214943   0.691   1.720   8.376  0.1294  0.1281 -0.5305
 1161SOL     OW14944   4.362   1.774  11.212 -0.5594 -0.3056 -0.6922
 1161SOL    HW114945   4.317   1.851  11.246 -0.9038 -1.3034  1.0862
 1161SOL    HW214946   4.399   1.739  11.293 -0.7985  0.5949 -0.1848
 1162SOL     OW14947   4.678   4.165   7.385  0.3847  0.6117 -0.0939
 1162SOL    HW114948   4.699   4.243   7.436  0.6556  2.3924 -2.9208
 1162SOL    HW214949   4.684   4.210   7.300  1.1491  0.2048 -0.2493
 1163SOL     OW14950   0.023   3.843   5.908  0.1207 -0.1017  0.0013
 1163SOL    HW114951   4.681   3.808   5.973 -0.2791  0.3247 -0.1452
 1163SOL    HW214952   4.681   3.884   5.848  1.1121 -0.0289 -0.9694
 1164SOL     OW14953   2.820   3.312   9.801 -0.3364  0.2739 -0.1734
 1164SOL    HW114954   2.744   3.275   9.847 -0.2583  0.0452 -0.2288
 1164SOL    HW214955   2.793   3.387   9.747 -1.9645  0.2832  0.6422
 1165SOL     OW14956   3.493   2.791   0.215 -0.4385  0.4667 -0.3473
 1165SOL    HW114957   3.458   2.720   0.160 -1.0171 -2.4906  3.7893
 1165SOL    HW214958   3.539   2.746   0.286 -0.1346  0.5462 -0.4944
 1166SOL     OW14959   4.009   0.995  15.361  0.9491  0.5425  0.4912
 1166SOL    HW114960   3.979   0.987  15.451 -0.2823  2.1586  0.2161
 1166SOL    HW214961   3.970   0.920  15.315 -1.0948  0.3815  2.5221
 1167SOL     OW14962   0.015   4.490   2.069  0.2210  0.3601  0.3684
 1167SOL    HW114963   4.691   4.407   2.050  0.9545  0.2413 -0.8542
 1167SOL    HW214964   0.037   4.517   1.979  2.8896  1.3897  1.3095
 1168SOL     OW14965   4.026   0.180   5.195 -0.4718 -0.1975  0.3579
 1168SOL    HW114966   3.941   0.136   5.204  0.0548 -1.0407  1.1379
 1168SOL    HW214967   4.087   0.110   5.171  0.8575  1.1992 -0.3597
 1169SOL     OW14968   3.093   0.793   8.161  0.4996  0.1150 -0.4471
 1169SOL    HW114969   3.106   0.839   8.078  1.1452  1.0076  0.1469
 1169SOL    HW214970   3.043   0.855   8.214  2.2631  1.1894 -0.0295
 1170SOL     OW14971   0.291   4.116   2.483  0.8233  0.3744  0.2931
 1170SOL    HW114972   0.215   4.173   2.467  0.6278 -0.5249 -2.0913
 1170SOL    HW214973   0.281   4.089   2.574  0.0251 -0.3109 -0.0005
 1171SOL     OW14974   4.639   2.079  11.072  0.2128  0.1383  0.0059
 1171SOL    HW114975   4.682   2.151  11.025 -1.3543 -0.4630 -2.3852
 1171SOL    HW214976   4.652   2.091  11.166 -0.4081 -0.6719  0.1909
 1172SOL     OW14977   1.806   1.731   7.145  0.2514  0.0426  0.4101
 1172SOL    HW114978   1.801   1.799   7.213  2.5346  1.1719 -0.5535
 1172SOL    HW214979   1.839   1.662   7.202  1.0862  1.2776  1.4301
 1173SOL     OW14980   1.395   1.210   7.618  0.4921 -0.1763 -0.3483
 1173SOL    HW114981   1.356   1.294   7.644 -0.0752 -0.2110 -1.0944
 1173SOL    HW214982   1.481   1.246   7.596  1.1267  1.5796  4.9798
 1174SOL     OW14983   0.387   2.350  15.084 -0.0672  0.8942  0.6138
 1174SOL    HW114984   0.385   2.422  15.147  0.9544  0.3385  1.2873
 1174SOL    HW214985   0.304   2.316  15.117  0.4300 -0.0845  0.8497
 1175SOL     OW14986   0.017   1.011   4.396 -0.1187  0.2003 -0.4062
 1175SOL    HW114987   0.094   1.061   4.425 -0.4409  0.1117  0.5929
 1175SOL    HW214988   4.669   1.035   4.459  0.1155 -1.0049  0.3045
 1176SOL     OW14989   4.631   0.380   9.400  0.3299  0.3261  0.2242
 1176SOL    HW114990   4.541   0.388   9.366  0.8311  0.0891 -1.1402
 1176SOL    HW214991   4.666   0.469   9.398 -0.8621  0.8003  0.1896
 1177SOL     OW14992   4.149   1.710   3.980  0.2297  0.0137  0.1025
 1177SOL    HW114993   4.155   1.655   4.058 -3.1046 -0.7292 -0.1443
 1177SOL    HW214994   4.242   1.715   3.960  0.5280 -1.8208  1.0589
 1178SOL     OW14995   0.633   3.552  11.092  0.1196  0.0893  0.5238
 1178SOL    HW114996   0.569   3.492  11.131  1.7708 -3.0749 -1.6411
 1178SOL    HW214997   0.669   3.509  11.014 -0.4024 -2.4191  1.6417
 1179SOL     OW14998   2.082   2.686   9.290  0.4696 -0.4870  0.0873
 1179SOL    HW114999   2.008   2.651   9.241 -1.7299 -1.0837  3.8527
 1179SOL    HW215000   2.032   2.698   9.371  0.4683  2.1413 -0.2873
 1180SOL     OW15001   3.082   4.636   1.771 -0.3334 -0.4342 -0.1153
 1180SOL    HW115002   3.041   4.550   1.768 -0.4790 -0.3308 -1.3935
 1180SOL    HW215003   3.116   4.651   1.859 -1.6347 -1.0906  0.4882
 1181SOL     OW15004   1.545   0.446   3.932 -0.0173  0.1159  0.3057
 1181SOL    HW115005   1.560   0.512   3.864 -0.3023  0.0425  0.1710
 1181SOL    HW215006   1.457   0.473   3.956 -0.9758 -1.6270 -1.2191
 1182SOL     OW15007   2.567   4.122   2.418  0.5374  0.4889 -0.5777
 1182SOL    HW115008   2.579   4.066   2.495 -4.4001  0.8862  0.5227
 1182SOL    HW215009   2.658   4.120   2.389  0.1899 -1.4558 -1.5241
 1183SOL     OW15010   0.609   0.317   1.703 -0.0569 -0.3694  0.1518
 1183SOL    HW115011   0.525   0.305   1.660 -0.2442  2.2640 -0.1859
 1183SOL    HW215012   0.591   0.397   1.752 -2.2540 -0.4790 -0.5147
 1184SOL     OW15013   2.183   3.811  13.049  0.6930  0.2517 -0.0174
 1184SOL    HW115014   2.151   3.792  13.137 -0.6634  0.3682 -0.4921
 1184SOL    HW215015   2.237   3.889  13.061 -2.0178  2.1154 -0.0663
 1185SOL     OW15016   1.621   1.383   9.047  0.0600 -0.1183  0.1406
 1185SOL    HW115017   1.557   1.432   9.098 -1.6417 -0.1595 -1.9420
 1185SOL    HW215018   1.690   1.377   9.113 -0.0020  2.9792  0.4792
 1186SOL     OW15019   3.555   1.694   5.014  0.7110 -0.1983 -0.0776
 1186SOL    HW115020   3.518   1.610   5.040 -1.0986  0.5119 -0.3087
 1186SOL    HW215021   3.485   1.740   5.061  2.7052  1.8851  0.8942
 1187SOL     OW15022   1.522   4.085  12.823  0.3842  0.7576  0.1048
 1187SOL    HW115023   1.519   4.014  12.759  0.4366 -2.5818  3.8617
 1187SOL    HW215024   1.466   4.150  12.781  0.2724  0.4703 -0.1951
 1188SOL     OW15025   0.408   2.446   5.565  0.1408 -0.1895 -0.1667
 1188SOL    HW115026   0.321   2.479   5.541 -0.7105 -1.1822  1.4642
 1188SOL    HW215027   0.392   2.429   5.658  3.1123 -1.1413  0.1619
 1189SOL     OW15028   1.250   3.722   4.177  0.0359  0.1439  0.6681
 1189SOL    HW115029   1.252   3.630   4.202 -2.9035 -1.0976 -3.6026
 1189SOL    HW215030   1.204   3.765   4.249  0.2545 -0.8951  1.4354
 1190SOL     OW15031   0.592   0.047  12.438 -0.1070 -0.0198 -0.1308
 1190SOL    HW115032   0.516   0.009  12.393  0.2015  0.6141 -1.1889
 1190SOL    HW215033   0.633   4.682  12.452  1.6703  1.0492  1.0615
 1191SOL     OW15034   3.122   2.854  13.185  0.1527  0.1807  0.1152
 1191SOL    HW115035   3.143   2.817  13.271 -1.9201  0.3818  0.7035
 1191SOL    HW215036   3.205   2.843  13.139  0.9863  1.6239  1.2678
 1192SOL     OW15037   2.041   0.287   7.886  0.1975  0.1196  0.6046
 1192SOL    HW115038   2.108   0.331   7.833 -0.5413  1.6123  0.9214
 1192SOL    HW215039   2.100   0.255   7.954  0.1091  0.6807  0.9471
 1193SOL     OW15040   0.641   0.245   7.697  0.3433 -0.2249  0.0154
 1193SOL    HW115041   0.552   0.274   7.677  0.8102  0.8485 -0.4884
 1193SOL    HW215042   0.661   0.305   7.768 -0.6624 -0.0788  0.1718
 1194SOL     OW15043   3.576   1.834   4.178 -0.3972  0.3328  0.3988
 1194SOL    HW115044   3.554   1.916   4.222  1.5339  1.6760 -1.1658
 1194SOL    HW215045   3.509   1.835   4.109 -1.8606 -0.9361  1.8029
 1195SOL     OW15046   3.418   1.901  10.849  0.1813 -0.8992 -0.3616
 1195SOL    HW115047   3.431   1.828  10.910 -0.8783 -1.4439 -0.7762
 1195SOL    HW215048   3.350   1.945  10.900  1.0030  0.5668 -0.5502
 1196SOL     OW15049   0.431   4.690   6.990 -0.3277 -0.2644 -0.7786
 1196SOL    HW115050   0.512   4.686   6.939  1.2776 -1.9410  1.9310
 1196SOL    HW215051   0.462   4.684   7.080 -2.4406  1.6623  0.0767
 1197SOL     OW15052   1.283   0.185   2.334  0.3953  0.8151 -0.3049
 1197SOL    HW115053   1.205   0.218   2.291 -0.4541 -2.1227 -1.0195
 1197SOL    HW215054   1.242   0.155   2.415  1.3394  3.0429  1.0035
 1198SOL     OW15055   1.226   0.690   8.989  0.4173 -0.0139 -0.1400
 1198SOL    HW115056   1.191   0.765   8.941 -0.5181 -1.3113 -1.4837
 1198SOL    HW215057   1.318   0.710   9.003  0.1699  0.9370  0.1818
 1199SOL     OW15058   0.340   1.126   0.408 -0.2189 -0.9242 -0.4656
 1199SOL    HW115059   0.251   1.124   0.374  0.0389 -0.6294 -1.1416
 1199SOL    HW215060   0.354   1.220   0.396  1.0582 -0.9768  0.6122
 1200SOL     OW15061   2.387   0.563  12.114 -0.3081 -0.5689  0.1845
 1200SOL    HW115062   2.395   0.655  12.139  1.1289 -0.5299 -0.4159
 1200SOL    HW215063   2.305   0.573  12.065 -0.9046 -1.7897  0.9273
 1201SOL     OW15064   1.170   1.569   6.112 -0.1507  0.5622 -0.1789
 1201SOL    HW115065   1.200   1.479   6.123 -1.2941  0.2341  0.2221
 1201SOL    HW215066   1.180   1.576   6.017  0.9986 -2.0761 -0.2634
 1202SOL     OW15067   3.975   1.629  14.819  0.1604  0.2895 -0.2793
 1202SOL    HW115068   3.982   1.665  14.907  2.6612 -1.8681  0.3667
 1202SOL    HW215069   3.910   1.683  14.773 -1.1003 -0.3604  0.7301
 1203SOL     OW15070   4.657   2.942   3.724 -0.2194  0.0134 -0.2318
 1203SOL    HW115071   4.622   2.917   3.638 -1.7066  1.8696 -0.1777
 1203SOL    HW215072   0.028   2.911   3.718  0.9286  2.9235  1.8041
 1204SOL     OW15073   4.309   2.239  13.380  0.3119 -0.2935  0.2767
 1204SOL    HW115074   4.334   2.292  13.305 -0.9827 -1.1941 -0.7984
 1204SOL    HW215075   4.357   2.160  13.353 -2.0362 -1.1563 -1.3835
 1205SOL     OW15076   1.093   4.614  14.771 -0.4078 -0.1484 -0.3928
 1205SOL    HW115077   1.001   4.587  14.767 -0.2394 -0.6993 -0.6533
 1205SOL    HW215078   1.122   4.592  14.860  1.4808 -0.4196 -1.0790
 1206SOL     OW15079   3.844   0.199   8.849  0.2365  0.1150 -0.3082
 1206SOL    HW115080   3.923   0.228   8.805  0.2874  0.3849 -0.0414
 1206SOL    HW215081   3.803   0.283   8.871 -2.3732 -1.4066  0.7343
 1207SOL     OW15082   2.702   3.034   7.621 -0.0525  0.3479  0.7006
 1207SOL    HW115083   2.706   3.108   7.561 -2.2268  0.3035  0.4944
 1207SOL    HW215084   2.638   2.987   7.567  0.4455  0.0599  0.3567
 1208SOL     OW15085   0.720   1.552   6.629  0.1101 -0.2673 -0.4469
 1208SOL    HW115086   0.635   1.572   6.589 -0.3767 -1.6183 -0.0607
 1208SOL    HW215087   0.720   1.624   6.692 -1.8366  1.5431 -2.5305
 1209SOL     OW15088   3.748   3.207  10.242 -0.1455 -0.3336  0.3365
 1209SOL    HW115089   3.799   3.229  10.163 -0.4760 -4.5243 -1.0481
 1209SOL    HW215090   3.813   3.224  10.311  0.5726  0.5968 -0.5616
 1210SOL     OW15091   4.474   1.672   4.234  0.3943 -0.1845  0.6588
 1210SOL    HW115092   4.454   1.730   4.161  0.1098  1.0777  1.7514
 1210SOL    HW215093   4.538   1.620   4.185  0.9109 -0.5989  1.7447
 1211SOL     OW15094   3.407   2.640   1.268  0.1861 -0.3423 -0.0825
 1211SOL    HW115095   3.370   2.562   1.226  1.7109 -0.6053 -0.9436
 1211SOL    HW215096   3.495   2.610   1.293 -0.7046 -0.9004  2.4043
 1212SOL     OW15097   4.048   1.103  11.137  0.2970 -0.1042 -0.2063
 1212SOL    HW115098   4.045   1.197  11.118  0.0163 -0.2406 -0.8512
 1212SOL    HW215099   4.067   1.099  11.230 -0.9619 -2.8675 -0.0694
 1213SOL     OW15100   2.684   4.625  16.154 -0.2524  0.2419 -0.1187
 1213SOL    HW115101   2.763   4.645  16.203  0.3770 -0.5655 -0.7939
 1213SOL    HW215102   2.633   4.702  16.178 -1.0463 -0.0710 -0.8016
 1214SOL     OW15103   1.694   2.793   2.813  0.7351  0.1764  0.7272
 1214SOL    HW115104   1.616   2.782   2.867 -0.1629  0.6811 -0.4705
 1214SOL    HW215105   1.661   2.744   2.738 -0.7904  1.1349  0.7576
 1215SOL     OW15106   1.811   1.849   5.172 -0.1328 -0.0594  0.1443
 1215SOL    HW115107   1.894   1.851   5.124  0.6566  1.2981  1.5422
 1215SOL    HW215108   1.839   1.850   5.264 -0.1897 -2.7880  0.1662
 1216SOL     OW15109   3.488   3.766   9.924 -0.1624  0.2976  0.6197
 1216SOL    HW115110   3.540   3.694   9.960 -0.6156 -0.3274  0.0320
 1216SOL    HW215111   3.421   3.762   9.993  0.2256 -1.5401  0.8788
 1217SOL     OW15112   2.586   0.254   1.895 -0.3303 -0.0515 -0.0016
 1217SOL    HW115113   2.585   0.246   1.800 -1.6992 -3.4983  0.3132
 1217SOL    HW215114   2.514   0.316   1.905  1.5090  1.8184  1.7078
 1218SOL     OW15115   1.357   2.491   7.601  0.0014 -0.0641 -0.5029
 1218SOL    HW115116   1.324   2.403   7.582  1.4847 -0.2416 -2.2867
 1218SOL    HW215117   1.410   2.503   7.522 -1.6754 -0.0268 -1.6101
 1219SOL     OW15118   3.992   3.300   8.796 -0.2074  0.4332  1.0652
 1219SOL    HW115119   3.925   3.364   8.819 -0.9407 -0.0804  0.3679
 1219SOL    HW215120   4.036   3.288   8.881  2.2032 -1.8878 -0.4729
 1220SOL     OW15121   2.714   2.874   2.289 -0.3130 -0.0655  0.3932
 1220SOL    HW115122   2.702   2.897   2.381 -0.4071 -2.4986  0.9976
 1220SOL    HW215123   2.712   2.951   2.232 -3.2930  0.3645  1.0869
 1221SOL     OW15124   1.060   2.787  14.081  0.0648  0.5768 -0.8045
 1221SOL    HW115125   1.039   2.693  14.087  0.3962  0.6142  1.1185
 1221SOL    HW215126   0.996   2.801  14.012 -0.3170  0.0310 -0.5598
 1222SOL     OW15127   3.305   3.442   3.306 -0.2473 -0.0134  0.1003
 1222SOL    HW115128   3.315   3.444   3.211 -1.3153  0.3842 -0.0046
 1222SOL    HW215129   3.393   3.462   3.337 -0.3538  0.8187 -0.1316
 1223SOL     OW15130   0.319   1.146   7.545 -0.1474  0.0294  0.0850
 1223SOL    HW115131   0.329   1.086   7.619  2.4992  0.7522  0.2978
 1223SOL    HW215132   0.406   1.179   7.526 -0.5631 -0.7874 -3.1893
 1224SOL     OW15133   4.502   3.790   7.616  0.0424  0.6824  0.8370
 1224SOL    HW115134   4.558   3.781   7.539  0.2881  0.3439  1.0573
 1224SOL    HW215135   4.505   3.705   7.660 -3.2905  0.4441  0.6278
 1225SOL     OW15136   1.331   4.107   1.872  0.2334 -0.6141  0.1238
 1225SOL    HW115137   1.407   4.165   1.876  0.3842 -0.7295 -0.9865
 1225SOL    HW215138   1.337   4.056   1.791 -1.1541  0.5189 -0.7019
 1226SOL     OW15139   1.990   1.817   0.601  0.0388  0.2365  0.5867
 1226SOL    HW115140   1.963   1.743   0.655 -0.2862  1.5559  2.2687
 1226SOL    HW215141   1.994   1.780   0.513  0.2862  0.7932  0.3660
 1227SOL     OW15142   2.484   3.838   8.250  0.2311  0.1596 -0.2835
 1227SOL    HW115143   2.481   3.913   8.309 -0.3901 -0.7063  0.7806
 1227SOL    HW215144   2.556   3.785   8.286  0.6791  1.4610  0.7285
 1228SOL     OW15145   4.149   3.102  14.222 -0.2128 -0.3605 -0.3376
 1228SOL    HW115146   4.122   3.046  14.149  2.1753 -0.9032 -0.7865
 1228SOL    HW215147   4.179   3.180  14.176  1.5420 -1.8117 -1.6662
 1229SOL     OW15148   1.171   2.980  15.937 -0.5777  0.5535 -0.2063
 1229SOL    HW115149   1.212   2.940  15.861 -3.2960  1.0368 -1.9211
 1229SOL    HW215150   1.221   2.934  16.004 -1.6070 -1.1244 -0.5874
 1230SOL     OW15151   0.032   0.434   4.217  0.0490 -0.5385  0.5354
 1230SOL    HW115152   0.071   0.457   4.302  0.1115  1.6807 -0.0957
 1230SOL    HW215153   0.096   0.373   4.182  0.5026  0.9160 -1.1660
 1231SOL     OW15154   4.593   3.888  11.198  0.6337 -0.3291  0.2274
 1231SOL    HW115155   4.600   3.971  11.150 -0.2343  0.0337  0.7332
 1231SOL    HW215156   4.507   3.851  11.176  1.4230 -1.4602 -1.0218
 1232SOL     OW15157   0.035   2.341   7.875  0.0717  0.0921 -0.3487
 1232SOL    HW115158   0.021   2.403   7.946 -0.6060  0.1403 -0.5189
 1232SOL    HW215159   0.129   2.327   7.870  0.1214  0.6718 -1.1161
 1233SOL     OW15160   1.243   3.041   3.296  0.4972 -0.7342 -0.4307
 1233SOL    HW115161   1.253   3.089   3.214 -1.1737 -0.6306 -0.5826
 1233SOL    HW215162   1.151   3.061   3.316  0.8616  0.9475 -0.4874
 1234SOL     OW15163   4.242   0.141  12.909 -0.4778 -0.0985  0.0408
 1234SOL    HW115164   4.173   0.120  12.972  0.6199 -0.7351  1.0185
 1234SOL    HW215165   4.263   0.060  12.863  0.2887  0.9725 -1.5167
 1235SOL     OW15166   2.336   3.926   5.630  0.9173 -0.6280 -0.1647
 1235SOL    HW115167   2.428   3.951   5.623  1.2652 -1.7869  0.2107
 1235SOL    HW215168   2.350   3.879   5.712  0.2092  1.2480  1.0192
 1236SOL     OW15169   0.959   2.212   5.902 -0.3557 -0.0584 -0.6600
 1236SOL    HW115170   1.006   2.266   5.838 -0.5068  2.0943  1.0629
 1236SOL    HW215171   1.015   2.134   5.905 -0.6037 -0.2646 -1.3329
 1237SOL     OW15172   4.231   0.814  13.165 -0.1651 -0.2365 -0.2117
 1237SOL    HW115173   4.160   0.785  13.108 -3.3585  1.4946  2.9142
 1237SOL    HW215174   4.252   0.891  13.114  0.9262 -1.2105 -1.2484
 1238SOL     OW15175   3.590   0.734  15.151  0.0186  0.3086  0.1993
 1238SOL    HW115176   3.602   0.656  15.205  0.5820  0.6876  0.6149
 1238SOL    HW215177   3.647   0.714  15.077  0.1704  1.1654  0.0859
 1239SOL     OW15178   4.474   3.364  16.003 -0.2292 -0.3189 -0.6178
 1239SOL    HW115179   4.380   3.377  16.011 -0.2538 -1.9543  1.6702
 1239SOL    HW215180   4.481   3.296  16.070  1.9393 -0.2974 -0.7970
 1240SOL     OW15181   2.999   1.366   8.206 -0.0330  0.3422  0.1392
 1240SOL    HW115182   3.057   1.292   8.189  0.8323  1.1348 -0.4192
 1240SOL    HW215183   3.066   1.419   8.249  2.4551 -1.0813 -1.9635
 1241SOL     OW15184   0.545   0.727   3.713 -0.3199 -0.4993 -0.0367
 1241SOL    HW115185   0.601   0.797   3.679 -0.5645 -0.4153 -0.2698
 1241SOL    HW215186   0.527   0.760   3.801  1.8075  0.3435  0.0954
 1242SOL     OW15187   2.237   3.668   4.625 -0.6263 -0.5871  0.0252
 1242SOL    HW115188   2.198   3.705   4.704  0.4422  0.9053 -0.1554
 1242SOL    HW215189   2.242   3.741   4.563 -0.4011  1.4637  2.4527
 1243SOL     OW15190   3.027   0.353   6.326 -0.4316 -0.0873 -0.5002
 1243SOL    HW115191   3.023   0.266   6.286 -1.7565 -0.9261  1.4688
 1243SOL    HW215192   2.995   0.336   6.414  0.1129  0.6025 -0.1694
 1244SOL     OW15193   3.172   3.841  15.328  0.2764 -0.2059 -0.0033
 1244SOL    HW115194   3.167   3.853  15.234 -4.2881  3.7696  0.7529
 1244SOL    HW215195   3.113   3.914  15.351 -0.1570 -0.0828 -1.5303
 1245SOL     OW15196   2.482   1.004  10.092 -0.4021  0.4398 -0.1397
 1245SOL    HW115197   2.536   0.948  10.036 -0.9159  0.0390 -0.2342
 1245SOL    HW215198   2.410   1.016  10.031 -1.3184  1.3911  1.1181
 1246SOL     OW15199   4.103   0.694  17.491 -0.4470 -0.2960 -0.3466
 1246SOL    HW115200   4.135   0.741  17.414  0.2703 -1.8082 -0.9687
 1246SOL    HW215201   4.038   0.649  17.437 -0.7375 -0.2582 -0.0339
 1247SOL     OW15202   2.396   3.147   7.561 -0.2246  0.4723  0.6823
 1247SOL    HW115203   2.417   3.054   7.555 -0.3997  0.5303 -0.7913
 1247SOL    HW215204   2.422   3.158   7.653  2.3026  3.4385 -0.4213
 1248SOL     OW15205   1.303   2.415   4.011 -0.0088  0.4118 -0.1469
 1248SOL    HW115206   1.272   2.489   4.064 -0.5128 -0.4066  0.7224
 1248SOL    HW215207   1.294   2.458   3.926  2.6337  1.3935  0.0914
 1249SOL     OW15208   2.072   2.038   4.919  0.3065  0.1942  0.7445
 1249SOL    HW115209   2.166   2.058   4.913  0.3430 -0.3534 -0.5568
 1249SOL    HW215210   2.065   1.988   4.837  0.0406 -0.1316  0.9656
 1250SOL     OW15211   0.780   2.967   0.410  0.1283  0.2809  0.6254
 1250SOL    HW115212   0.798   3.042   0.354 -0.2017  0.9232  1.3662
 1250SOL    HW215213   0.721   3.015   0.468 -0.6779  1.0022 -0.8011
 1251SOL     OW15214   4.386   4.325   6.496 -0.7020 -0.0395  0.1933
 1251SOL    HW115215   4.475   4.300   6.473 -0.4135  0.8925  0.2979
 1251SOL    HW215216   4.385   4.412   6.456 -1.0853  0.0802  0.4597
 1252SOL     OW15217   3.423   2.184  12.872  0.5123 -0.3272 -0.7015
 1252SOL    HW115218   3.332   2.194  12.843  0.2936 -0.6045 -0.1056
 1252SOL    HW215219   3.421   2.121  12.944  0.0682  0.1692 -0.2767
 1253SOL     OW15220   1.396   0.568  13.474  0.4769  0.1726  0.5852
 1253SOL    HW115221   1.423   0.500  13.535 -3.1792 -0.2884  1.6633
 1253SOL    HW215222   1.301   0.578  13.483  0.0942 -1.3245 -1.8728
 1254SOL     OW15223   2.497   0.875  11.484  0.2961  0.2197 -0.3770
 1254SOL    HW115224   2.528   0.954  11.439 -0.9977  0.9708  0.0489
 1254SOL    HW215225   2.573   0.865  11.541  0.6336  1.1610 -0.6633
 1255SOL     OW15226   1.148   2.734   3.297  0.2191 -0.7351  0.1481
 1255SOL    HW115227   1.117   2.696   3.215  0.8470 -1.3417  0.1875
 1255SOL    HW215228   1.232   2.776   3.276 -0.3622  0.2705 -0.1573
 1256SOL     OW15229   1.546   3.435  14.914  0.1393  0.3234  0.2610
 1256SOL    HW115230   1.481   3.371  14.886  1.4295  0.1149 -2.2362
 1256SOL    HW215231   1.499   3.516  14.935  1.5057  1.0044  0.6653
 1257SOL     OW15232   0.812   4.637  16.563  0.0307  0.1874  0.3626
 1257SOL    HW115233   0.726   4.627  16.602  0.3210  0.0935  0.9787
 1257SOL    HW215234   0.794   4.714  16.508 -1.0462 -1.4615 -1.5860
 1258SOL     OW15235   3.790   3.086   8.090 -0.1702 -0.1290 -0.2337
 1258SOL    HW115236   3.794   3.015   8.026 -3.2211  1.3349 -2.0777
 1258SOL    HW215237   3.880   3.118   8.091 -0.0698 -0.4057 -0.2796
 1259SOL     OW15238   1.699   1.293  12.137 -0.0250 -0.2678 -0.3806
 1259SOL    HW115239   1.713   1.386  12.159 -1.6259 -0.4919  1.5431
 1259SOL    HW215240   1.632   1.266  12.200 -2.3246  2.4726 -1.6191
 1260SOL     OW15241   0.713   1.654  16.142  0.2253 -0.2326 -0.5886
 1260SOL    HW115242   0.717   1.593  16.069 -1.3862 -0.5946 -0.3753
 1260SOL    HW215243   0.782   1.715  16.118  0.5480 -0.4957 -0.3280
 1261SOL     OW15244   3.739   3.837   6.245  0.5681  1.3071 -0.8089
 1261SOL    HW115245   3.805   3.896   6.282  1.4347  0.5152 -1.0985
 1261SOL    HW215246   3.710   3.805   6.331 -0.4925 -0.1462 -1.7097
 1262SOL     OW15247   2.061   1.304   6.475 -0.5187 -0.5371  0.1857
 1262SOL    HW115248   1.999   1.376   6.488  0.2062  0.0252  0.5227
 1262SOL    HW215249   2.093   1.321   6.563 -0.3241 -1.5792  0.3047
 1263SOL     OW15250   4.599   4.303  14.989  0.2509 -0.6037 -0.2945
 1263SOL    HW115251   4.570   4.390  15.017  1.6919 -0.2306  0.0234
 1263SOL    HW215252   4.537   4.274  14.922  0.8633  2.6842 -2.2672
 1264SOL     OW15253   2.320   1.115   9.679  0.0091 -0.2007 -0.2487
 1264SOL    HW115254   2.236   1.128   9.635 -0.3115 -0.4137  0.3008
 1264SOL    HW215255   2.323   1.195   9.732  0.5577  0.1029 -0.7426
 1265SOL     OW15256   3.670   1.235   2.003  0.1723  0.0202 -0.4019
 1265SOL    HW115257   3.719   1.311   2.034 -1.4142  0.3858  1.2074
 1265SOL    HW215258   3.582   1.271   1.993  0.0980 -0.4399 -1.4724
 1266SOL     OW15259   4.188   1.183   2.183 -0.3064  0.4765  0.2422
 1266SOL    HW115260   4.179   1.181   2.279 -1.8801  0.8461  0.0939
 1266SOL    HW215261   4.112   1.128   2.165 -1.0936  1.3056  1.0603
 1267SOL     OW15262   2.259   4.150   7.252 -0.0445 -0.6095 -0.1170
 1267SOL    HW115263   2.302   4.213   7.310  1.5949 -1.0582 -0.8568
 1267SOL    HW215264   2.194   4.198   7.199  0.8772  0.5481 -0.2087
 1268SOL     OW15265   2.642   2.099   7.523 -0.0775 -0.2068 -1.1119
 1268SOL    HW115266   2.708   2.099   7.592 -0.4505 -0.1794 -0.7575
 1268SOL    HW215267   2.665   2.017   7.480 -1.5503 -0.2360 -1.8283
 1269SOL     OW15268   0.843   3.342   6.060 -0.6306 -0.0350 -0.1158
 1269SOL    HW115269   0.784   3.389   6.002 -0.2297  0.3632 -0.1940
 1269SOL    HW215270   0.921   3.335   6.005 -0.1529  1.0763  0.4173
 1270SOL     OW15271   2.575   1.113   7.028 -0.2652 -0.7554 -0.0243
 1270SOL    HW115272   2.653   1.098   7.081  0.3458  2.0399 -0.1213
 1270SOL    HW215273   2.513   1.152   7.090 -0.5921  0.5521 -1.1580
 1271SOL     OW15274   2.954   3.986   7.548 -0.5239 -0.7482 -0.0401
 1271SOL    HW115275   2.913   4.039   7.479 -0.7533 -0.6525  0.1702
 1271SOL    HW215276   3.028   4.045   7.555 -1.1911 -0.1571  1.8260
 1272SOL     OW15277   4.064   0.289   3.810 -0.8891  0.1256 -0.1673
 1272SOL    HW115278   4.009   0.236   3.869  0.1248  0.7570  1.3320
 1272SOL    HW215279   4.041   0.378   3.837 -0.3334  0.4879 -0.9092
 1273SOL     OW15280   1.788   3.079   9.036  0.6106  0.3902  0.2434
 1273SOL    HW115281   1.693   3.077   9.033  0.6153 -0.8807  0.8408
 1273SOL    HW215282   1.806   3.029   9.116 -0.6094  0.0582  0.3064
 1274SOL     OW15283   1.544   1.558   7.140  0.8064 -0.2650 -0.6746
 1274SOL    HW115284   1.625   1.602   7.167  0.3676 -0.3793  0.7975
 1274SOL    HW215285   1.547   1.573   7.045 -0.0632  3.6412 -0.0997
 1275SOL     OW15286   4.402   1.216   2.444  0.3369 -0.3337 -0.7309
 1275SOL    HW115287   4.477   1.159   2.427 -1.3157 -1.9853 -2.6665
 1275SOL    HW215288   4.344   1.178   2.378 -0.7234  0.7356 -0.4031
 1276SOL     OW15289   1.174   2.989   1.526 -0.2711  0.0512 -0.1240
 1276SOL    HW115290   1.097   2.943   1.492 -0.0472 -1.2600  1.1438
 1276SOL    HW215291   1.176   2.951   1.614  1.9529  0.1661 -0.1300
 1277SOL     OW15292   0.694   1.640   9.424  0.0237  0.1092  0.0090
 1277SOL    HW115293   0.708   1.591   9.506  0.3258  1.5775  0.8262
 1277SOL    HW215294   0.783   1.618   9.398 -0.3466 -0.8006 -0.4724
 1278SOL     OW15295   3.415   3.707   9.653  0.1557 -0.1112 -0.6693
 1278SOL    HW115296   3.444   3.711   9.744 -1.2523 -0.6024 -0.1875
 1278SOL    HW215297   3.352   3.635   9.653 -0.7665  0.6890 -0.2687
 1279SOL     OW15298   2.579   1.056   1.179 -0.3536  0.0413 -0.1020
 1279SOL    HW115299   2.540   1.131   1.224 -1.7736 -1.2267  0.7676
 1279SOL    HW215300   2.503   0.999   1.180  0.1553 -0.6437 -1.3499
 1280SOL     OW15301   1.183   4.477   6.207 -0.1791  0.3618 -0.6122
 1280SOL    HW115302   1.165   4.388   6.176 -0.9334  0.0930  0.5737
 1280SOL    HW215303   1.276   4.470   6.225 -0.3097 -0.8070 -0.3457
 1281SOL     OW15304   0.210   0.634   2.191  0.1971 -0.0860 -0.2541
 1281SOL    HW115305   0.288   0.686   2.172  1.2363 -1.5982 -0.1610
 1281SOL    HW215306   0.180   0.613   2.103  0.9397 -0.9823 -0.2910
 1282SOL     OW15307   4.128   4.560   5.230 -0.1575 -0.3443 -0.3175
 1282SOL    HW115308   4.125   4.529   5.320 -0.8334 -2.1542 -0.9384
 1282SOL    HW215309   4.054   4.620   5.232  0.4262  0.3234  0.8325
 1283SOL     OW15310   3.146   0.823  16.587  0.2511 -0.3897  0.2308
 1283SOL    HW115311   3.182   0.761  16.649 -2.9281  0.6946  3.1643
 1283SOL    HW215312   3.059   0.836  16.624  0.1536 -0.3328 -0.0141
 1284SOL     OW15313   4.707   3.184  16.346  0.2081  0.8554  0.3648
 1284SOL    HW115314   4.719   3.239  16.423 -3.5274 -0.4070  1.8551
 1284SOL    HW215315   0.055   3.122  16.372 -0.3254  0.5845  1.0936
 1285SOL     OW15316   4.221   3.200   4.093 -0.2444 -0.1947  0.2298
 1285SOL    HW115317   4.129   3.226   4.089  0.3765  1.7560 -1.6120
 1285SOL    HW215318   4.213   3.124   4.150 -1.3026 -0.8057 -0.7230
 1286SOL     OW15319   3.591   0.319  10.928  0.2072 -0.0197  0.8825
 1286SOL    HW115320   3.656   0.254  10.903 -0.0839  0.8840 -2.2539
 1286SOL    HW215321   3.634   0.396  10.890  1.0583 -1.9736 -2.0885
 1287SOL     OW15322   2.638   1.062   4.299  0.1855 -0.1942 -0.0967
 1287SOL    HW115323   2.585   1.142   4.305  2.1851  1.0688  0.8715
 1287SOL    HW215324   2.633   1.025   4.388  0.7335 -0.8795 -0.3554
 1288SOL     OW15325   2.922   0.306  13.917  0.0264  0.1120 -0.1222
 1288SOL    HW115326   3.015   0.313  13.939  0.5419 -1.1215 -1.9008
 1288SOL    HW215327   2.891   0.331  14.004  0.6202  1.0857 -0.1966
 1289SOL     OW15328   1.023   4.701   4.422 -0.1368  0.4741 -0.7538
 1289SOL    HW115329   0.989   0.037   4.352 -0.2522  2.6513  1.0167
 1289SOL    HW215330   0.970   0.010   4.496 -0.4916 -2.9774  0.2980
 1290SOL     OW15331   2.222   0.286   5.148  0.3131  0.0911  0.4027
 1290SOL    HW115332   2.152   0.335   5.193 -1.0906  0.3781 -2.0814
 1290SOL    HW215333   2.172   0.222   5.097 -1.7759  1.3516  0.8675
 1291SOL     OW15334   0.371   3.475   8.215 -0.2627 -0.0774 -0.0424
 1291SOL    HW115335   0.306   3.460   8.284  0.0154 -1.6349 -0.1243
 1291SOL    HW215336   0.435   3.530   8.262  2.4828 -0.2996 -3.5540
 1292SOL     OW15337   1.673   0.642   5.358  0.5179 -0.1847 -0.2815
 1292SOL    HW115338   1.610   0.643   5.430 -0.3668  1.7161 -1.0830
 1292SOL    HW215339   1.618   0.659   5.281 -0.2967  3.4099  1.0801
 1293SOL     OW15340   4.246   2.503   4.141 -0.1490 -0.1580 -0.2298
 1293SOL    HW115341   4.300   2.565   4.190  1.8244 -0.6842 -1.7618
 1293SOL    HW215342   4.209   2.566   4.079  0.4044  1.2203  0.8231
 1294SOL     OW15343   0.927   0.481  10.895  0.3461 -0.9564 -0.0996
 1294SOL    HW115344   0.969   0.478  10.809 -0.8149  1.8234 -0.7706
 1294SOL    HW215345   0.884   0.566  10.892 -1.3864 -1.8008  0.8107
 1295SOL     OW15346   2.942   3.590   2.477  0.0109 -0.4881 -0.1610
 1295SOL    HW115347   2.996   3.629   2.545 -0.3622 -2.0700  1.0450
 1295SOL    HW215348   2.961   3.647   2.403  0.2642 -1.2862 -0.7178
 1296SOL     OW15349   1.342   1.049   2.313  0.1461  0.0265  0.1539
 1296SOL    HW115350   1.374   1.138   2.300  0.8825  0.0124  1.9490
 1296SOL    HW215351   1.392   1.013   2.386 -1.2424 -1.6694  0.2859
 1297SOL     OW15352   1.886   3.172   8.169  0.0455 -0.4366 -0.0723
 1297SOL    HW115353   1.816   3.233   8.149 -1.3149 -1.1727  2.4621
 1297SOL    HW215354   1.967   3.223   8.167  0.6133 -1.1580  4.6635
 1298SOL     OW15355   1.682   0.960  12.244  0.2261  0.0924  0.4608
 1298SOL    HW115356   1.606   0.980  12.298 -0.0788 -1.6807  0.6845
 1298SOL    HW215357   1.683   1.022  12.171  0.7994 -1.7827 -1.1308
 1299SOL     OW15358   0.063   3.803  17.615 -0.4516 -0.4684  0.1818
 1299SOL    HW115359   0.122   3.876  17.596  0.7277 -1.5856 -0.4567
 1299SOL    HW215360   4.704   3.846  17.582 -1.1734 -2.4589 -0.7136
 1300SOL     OW15361   3.924   2.794   0.192 -0.1469 -0.2308  0.9585
 1300SOL    HW115362   3.908   2.887   0.205 -1.5197 -0.4685  1.0058
 1300SOL    HW215363   4.013   2.780   0.224 -0.0558  1.4961  1.4594
 1301SOL     OW15364   0.354   2.319   4.299  0.0872 -0.4024 -0.1017
 1301SOL    HW115365   0.439   2.320   4.254 -0.2632  0.5124 -0.7430
 1301SOL    HW215366   0.302   2.253   4.254  1.0366 -0.8884 -0.4991
 1302SOL     OW15367   2.431   2.181  13.454 -0.0749 -0.1270 -0.3862
 1302SOL    HW115368   2.376   2.257  13.436 -2.0671 -1.3174  0.7115
 1302SOL    HW215369   2.511   2.203  13.407 -0.1169 -1.2797 -0.9842
 1303SOL     OW15370   1.398   4.275  11.800  0.1921 -0.3209  0.0899
 1303SOL    HW115371   1.336   4.338  11.837 -0.3793 -0.8355  0.0089
 1303SOL    HW215372   1.475   4.284  11.856 -0.6004  1.4303  0.8874
 1304SOL     OW15373   0.014   2.658  15.207  0.2469 -0.1514 -0.6667
 1304SOL    HW115374   0.053   2.664  15.120 -2.1148 -0.3172 -1.7221
 1304SOL    HW215375   4.658   2.714  15.191  0.0169 -0.3852 -0.3939
 1305SOL     OW15376   0.057   1.451  11.108  0.4135  0.3001 -0.3161
 1305SOL    HW115377   0.080   1.543  11.093 -0.4421  0.1921 -2.2485
 1305SOL    HW215378   4.691   1.439  11.068 -0.1448 -0.3577  1.0845
 1306SOL     OW15379   0.598   1.782   2.270  0.6555  0.4460  0.0955
 1306SOL    HW115380   0.640   1.784   2.184  0.2831 -0.2231 -0.1054
 1306SOL    HW215381   0.614   1.871   2.301  0.7613 -0.3415  2.3023
 1307SOL     OW15382   3.429   0.644   6.183 -0.1964 -0.2293 -0.2686
 1307SOL    HW115383   3.410   0.575   6.120 -1.1564  0.1518 -0.3972
 1307SOL    HW215384   3.522   0.625   6.175 -0.1319  0.5380 -1.4468
 1308SOL     OW15385   3.421   0.556   7.154 -0.0814  0.0788  0.7413
 1308SOL    HW115386   3.349   0.559   7.091 -0.2664 -1.4203  0.8924
 1308SOL    HW215387   3.425   0.648   7.182  3.6063  0.7666 -1.9208
 1309SOL     OW15388   3.055   2.281   4.432 -0.4767  0.2154 -0.2350
 1309SOL    HW115389   3.052   2.274   4.337  0.6422 -1.4295 -0.1457
 1309SOL    HW215390   3.022   2.369   4.448 -2.5222 -0.5552 -0.1740
 1310SOL     OW15391   4.413   0.715   6.994  0.3938  0.3957  0.3762
 1310SOL    HW115392   4.462   0.670   6.925  1.6322  0.5549  1.1616
 1310SOL    HW215393   4.342   0.653   7.011  0.5697  0.3038  0.7672
 1311SOL     OW15394   1.599   2.408   8.288  0.3018  0.3841  0.0630
 1311SOL    HW115395   1.588   2.495   8.326  1.5456  1.0565 -1.1125
 1311SOL    HW215396   1.668   2.416   8.222  0.8209  2.3091  0.8422
 1312SOL     OW15397   4.460   3.380   7.187 -0.4966  0.4327 -0.2977
 1312SOL    HW115398   4.374   3.365   7.226  0.2951  0.7380  1.5636
 1312SOL    HW215399   4.501   3.372   7.273  0.3888  0.0482 -0.7516
 1313SOL     OW15400   1.907   2.075   8.649  0.1715  0.2181 -0.5698
 1313SOL    HW115401   1.977   2.126   8.610 -0.5675  1.7443  0.1126
 1313SOL    HW215402   1.888   2.106   8.737 -1.4903  1.5138 -1.3842
 1314SOL     OW15403   1.067   2.021   2.894  0.6374  0.5173 -0.0655
 1314SOL    HW115404   1.003   1.974   2.948  1.1092  2.1316  1.9063
 1314SOL    HW215405   1.010   2.082   2.847 -0.1324  0.3712  0.6652
 1315SOL     OW15406   0.940   2.078   7.870  0.2366  0.0538 -0.1128
 1315SOL    HW115407   0.982   2.071   7.955 -1.6653 -2.9903  0.5668
 1315SOL    HW215408   0.853   2.089   7.907  0.4684 -0.0133  0.4455
 1316SOL     OW15409   0.787   2.691   0.386  0.3813 -0.1864 -0.3117
 1316SOL    HW115410   0.796   2.778   0.425 -0.2384 -0.4659  0.4548
 1316SOL    HW215411   0.817   2.709   0.297  1.4972 -0.3097  0.0287
 1317SOL     OW15412   0.758   0.499   2.498 -0.1011  0.0873  0.5220
 1317SOL    HW115413   0.741   0.536   2.585  1.7431 -0.1492  0.9858
 1317SOL    HW215414   0.694   0.429   2.488 -3.6718  3.5193 -0.5684
 1318SOL     OW15415   4.332   0.811   5.538 -0.4412  0.2757 -0.1677
 1318SOL    HW115416   4.421   0.829   5.508 -0.3873  0.3032  0.0106
 1318SOL    HW215417   4.321   0.723   5.503 -3.2940  0.1342  1.0811
 1319SOL     OW15418   4.520   4.386   5.652 -0.0457 -0.0098 -0.3809
 1319SOL    HW115419   4.588   4.370   5.587 -0.2401  0.3994 -0.6877
 1319SOL    HW215420   4.561   4.367   5.736 -2.2150 -2.1266  0.2072
 1320SOL     OW15421   3.113   0.359   7.058  0.5279  0.6677 -0.5014
 1320SOL    HW115422   3.056   0.397   7.124  3.1137  0.9384  1.5879
 1320SOL    HW215423   3.077   0.271   7.062 -0.7442  1.2077 -0.2504
 1321SOL     OW15424   1.866   0.263   0.927  0.3148  0.4007  0.0077
 1321SOL    HW115425   1.808   0.198   0.968 -0.8296 -0.5806 -3.1947
 1321SOL    HW215426   1.910   0.295   1.006  2.3033 -0.7182 -0.6683
 1322SOL     OW15427   3.727   1.502  16.529 -0.1859 -1.0557 -0.2283
 1322SOL    HW115428   3.749   1.593  16.509 -2.4513 -0.5854 -0.5940
 1322SOL    HW215429   3.633   1.507  16.548  0.0943  1.1549  0.4910
 1323SOL     OW15430   0.520   0.189   7.389  0.7428 -0.2335  0.1792
 1323SOL    HW115431   0.516   0.280   7.358  0.4294 -0.1259  0.5350
 1323SOL    HW215432   0.463   0.192   7.466  2.3739  4.9055  1.1850
 1324SOL     OW15433   1.717   2.484   2.734  0.0126 -0.3000 -0.4263
 1324SOL    HW115434   1.658   2.408   2.734  0.1113 -0.3788  0.5052
 1324SOL    HW215435   1.686   2.524   2.653  0.7804 -0.8549 -0.9923
 1325SOL     OW15436   2.854   4.459   2.406  0.3233  0.2722  0.2779
 1325SOL    HW115437   2.945   4.456   2.438  0.6985  2.1724 -0.5717
 1325SOL    HW215438   2.873   4.455   2.312 -0.3691 -1.4989  0.2158
 1326SOL     OW15439   3.138   4.154   8.138  0.0720 -0.2005 -0.1893
 1326SOL    HW115440   3.047   4.172   8.162  1.0542  2.8334  1.3422
 1326SOL    HW215441   3.153   4.088   8.207  1.7766  1.2864  0.8636
 1327SOL     OW15442   2.252   4.006   1.410  0.2106 -0.5333  0.0158
 1327SOL    HW115443   2.281   4.094   1.386 -0.1690 -0.5087 -0.3649
 1327SOL    HW215444   2.317   3.953   1.363  1.6751  0.8403  0.5043
 1328SOL     OW15445   3.953   0.792   4.548  0.3021  0.0196  0.0801
 1328SOL    HW115446   3.885   0.759   4.489 -0.8100 -0.4645  1.6401
 1328SOL    HW215447   4.022   0.725   4.543  0.5424  0.3019 -0.3711
 1329SOL     OW15448   1.097   0.461   7.366  0.0353 -0.5634 -0.2979
 1329SOL    HW115449   1.033   0.533   7.374  1.6043  0.7917 -0.0330
 1329SOL    HW215450   1.120   0.435   7.456  1.6151 -2.8515 -1.3704
 1330SOL     OW15451   2.187   4.028   6.670  0.4074 -0.0078  0.1124
 1330SOL    HW115452   2.218   4.045   6.759 -3.2121  1.4388  1.1237
 1330SOL    HW215453   2.134   4.107   6.661  1.7023  0.6778 -1.5249
 1331SOL     OW15454   2.949   3.020  16.461 -0.5629  0.0146  0.4498
 1331SOL    HW115455   2.907   3.102  16.489 -1.7228 -0.3236 -0.2928
 1331SOL    HW215456   3.012   3.010  16.533 -0.0506 -0.3738 -0.0533
 1332SOL     OW15457   2.775   0.009   2.316  0.3469  0.8329  0.0504
 1332SOL    HW115458   2.759   0.022   2.410  0.1247  3.2502 -0.3348
 1332SOL    HW215459   2.791   4.634   2.315  0.4846  0.8290  2.4502
 1333SOL     OW15460   4.199   3.508  12.487  0.3552  0.2992  0.2021
 1333SOL    HW115461   4.225   3.578  12.427  1.9074 -0.2494  0.2356
 1333SOL    HW215462   4.262   3.516  12.559 -1.1412 -0.4232  1.5764
 1334SOL     OW15463   2.782   0.736   8.792 -0.0700 -0.2259 -0.0069
 1334SOL    HW115464   2.853   0.768   8.848  0.7820 -0.8818 -0.7103
 1334SOL    HW215465   2.766   0.813   8.738 -1.2222 -1.1901 -1.0511
 1335SOL     OW15466   2.915   0.444   7.222  0.7328 -0.1170  0.7248
 1335SOL    HW115467   2.874   0.398   7.296 -0.9176  1.5752  0.8736
 1335SOL    HW215468   2.834   0.466   7.176 -0.5616 -2.1617  2.0133
 1336SOL     OW15469   0.475   1.191   4.271  0.0236 -0.3760  0.7795
 1336SOL    HW115470   0.531   1.114   4.269  1.5428  0.7000  1.6666
 1336SOL    HW215471   0.502   1.229   4.187 -2.3075 -1.5513 -0.5174
 1337SOL     OW15472   3.499   1.528   0.357 -0.2910 -0.6585 -0.4949
 1337SOL    HW115473   3.498   1.466   0.283 -3.3158 -0.2635 -0.8169
 1337SOL    HW215474   3.577   1.582   0.356 -1.8364  1.5586 -0.3162
 1338SOL     OW15475   1.795   3.833   4.726  0.5158 -0.3975 -0.2804
 1338SOL    HW115476   1.886   3.832   4.754  0.9454  1.7349 -1.6404
 1338SOL    HW215477   1.805   3.825   4.631 -0.6393  2.5169 -0.6443
 1339SOL     OW15478   2.116   1.744   5.097  0.3211 -0.0900 -0.6592
 1339SOL    HW115479   2.170   1.666   5.113 -1.2281 -1.1081 -0.3713
 1339SOL    HW215480   2.173   1.785   5.033 -2.6893  1.6494 -2.1895
 1340SOL     OW15481   4.584   4.037   7.058 -0.7068 -0.0674  0.2008
 1340SOL    HW115482   4.642   4.112   7.066  0.2349 -0.8204  0.4889
 1340SOL    HW215483   4.640   3.962   7.078  1.0977  1.3340  0.3405
 1341SOL     OW15484   3.959   0.056   2.522 -0.2536  0.3454 -0.2174
 1341SOL    HW115485   4.023   4.706   2.511 -1.9536 -0.9866 -1.5318
 1341SOL    HW215486   4.017   0.132   2.518 -0.1004  0.3086  1.3374
 1342SOL     OW15487   0.125   2.169  17.322  0.0789 -0.3002 -0.1254
 1342SOL    HW115488   0.195   2.186  17.385  0.1511  1.4505 -0.7019
 1342SOL    HW215489   0.146   2.081  17.289 -1.0532 -0.5376 -0.1896
 1343SOL     OW15490   1.762   0.372   6.952  0.1441  0.6695  0.1986
 1343SOL    HW115491   1.778   0.371   6.857 -2.3286 -0.6875 -0.1801
 1343SOL    HW215492   1.688   0.432   6.965  0.5415  0.7108  2.2845
 1344SOL     OW15493   3.098   4.103   3.787  0.0822 -0.0748 -0.2793
 1344SOL    HW115494   3.032   4.068   3.728  1.7015 -2.0738 -0.9150
 1344SOL    HW215495   3.081   4.068   3.874  1.0967 -0.5699 -0.2785
 1345SOL     OW15496   3.920   2.289   5.064  0.2385 -0.0644  0.3994
 1345SOL    HW115497   3.848   2.240   5.104  0.1990  0.0410  0.4578
 1345SOL    HW215498   3.906   2.378   5.097 -0.1033  0.1955 -0.4328
 1346SOL     OW15499   0.369   4.589  10.827  0.4479  0.1535 -0.0669
 1346SOL    HW115500   0.386   4.611  10.919 -0.0340  1.4726 -0.2928
 1346SOL    HW215501   0.275   4.607  10.822  0.5339  0.9374  1.0116
 1347SOL     OW15502   3.474   3.398   2.524 -0.4587 -0.2126 -0.1749
 1347SOL    HW115503   3.401   3.405   2.463 -1.4086 -4.0350  0.5015
 1347SOL    HW215504   3.535   3.449   2.470 -1.0585 -0.5406 -1.1696
 1348SOL     OW15505   1.288   1.571  10.145 -0.3232 -0.5564 -0.2604
 1348SOL    HW115506   1.236   1.651  10.145  0.8532  0.2098 -1.2760
 1348SOL    HW215507   1.374   1.604  10.119 -0.0458 -1.4745 -0.4923
 1349SOL     OW15508   3.069   1.441   8.824 -0.0016  0.2363  0.0027
 1349SOL    HW115509   3.088   1.425   8.916  0.4591 -0.2087 -0.1715
 1349SOL    HW215510   2.991   1.386   8.825 -0.8016  1.3447 -0.8644
 1350SOL     OW15511   4.010   4.144  14.113 -0.6128  0.2389 -0.0983
 1350SOL    HW115512   4.054   4.112  14.192  1.5587  1.0497 -0.9831
 1350SOL    HW215513   3.920   4.151  14.144 -1.1127 -2.8840 -0.8488
 1351SOL     OW15514   0.779   3.658   5.052 -0.1249 -0.4251  0.3186
 1351SOL    HW115515   0.847   3.724   5.064 -0.0243 -0.2852 -0.9278
 1351SOL    HW215516   0.712   3.726   5.046 -1.0262 -1.2394  1.1864
 1352SOL     OW15517   1.686   4.656  10.744  0.8482  0.1397 -0.0995
 1352SOL    HW115518   1.668   4.715  10.671 -0.8449 -0.5424 -0.2298
 1352SOL    HW215519   1.736   4.588  10.698  0.1903 -0.7933  0.5738
 1353SOL     OW15520   4.640   4.430   4.889 -0.2327  0.1007  0.6929
 1353SOL    HW115521   4.599   4.423   4.803  0.2950 -1.4665  0.5813
 1353SOL    HW215522   4.562   4.448   4.942 -0.3590  3.9854 -0.7984
 1354SOL     OW15523   3.194   4.605   8.817 -0.6155  0.9496  0.4222
 1354SOL    HW115524   3.268   4.636   8.764  0.8727 -1.8835  0.8808
 1354SOL    HW215525   3.126   4.600   8.749 -1.1636 -2.5669  1.2511
 1355SOL     OW15526   4.154   1.160   4.287  0.2685 -0.0439  0.2506
 1355SOL    HW115527   4.191   1.248   4.287 -1.4184  0.6741 -2.0611
 1355SOL    HW215528   4.208   1.115   4.351  1.2041  0.6507 -0.0653
 1356SOL     OW15529   1.913   3.208   7.143  0.1918  0.8622 -0.4747
 1356SOL    HW115530   1.937   3.148   7.073  1.3314  1.6723 -0.7752
 1356SOL    HW215531   1.835   3.246   7.102 -0.0645  1.1664  0.2894
 1357SOL     OW15532   4.387   2.202  16.186  0.5757 -0.0207  0.0421
 1357SOL    HW115533   4.311   2.163  16.143 -1.4805  1.1384  2.6521
 1357SOL    HW215534   4.452   2.178  16.120 -0.6309 -1.2542 -0.6809
 1358SOL     OW15535   2.459   1.887   4.415  0.1302  0.5253  0.3464
 1358SOL    HW115536   2.394   1.924   4.356  0.4587 -2.3666 -1.8853
 1358SOL    HW215537   2.415   1.805   4.441  0.0327  0.5395  0.2272
 1359SOL     OW15538   0.050   3.662  11.335  0.6158 -0.1538 -0.2039
 1359SOL    HW115539   0.004   3.723  11.277 -1.4265  2.8782  4.5928
 1359SOL    HW215540   0.133   3.708  11.327  0.3291  0.1877 -1.1348
 1360SOL     OW15541   0.246   1.125   4.949  0.3951  0.2819 -0.5178
 1360SOL    HW115542   0.327   1.083   4.920 -0.0834 -0.1726 -1.1941
 1360SOL    HW215543   0.270   1.171   5.030  0.7539 -0.3753 -0.2466
 1361SOL     OW15544   0.747   1.771   6.863  0.1063  0.3294 -0.1171
 1361SOL    HW115545   0.774   1.746   6.951 -0.5809  0.1639  0.0475
 1361SOL    HW215546   0.692   1.844   6.888  0.5625  0.3855  0.7095
 1362SOL     OW15547   2.090   1.315  13.870 -0.1451 -0.5365 -0.3322
 1362SOL    HW115548   2.142   1.238  13.892  0.7646  0.7281  1.9464
 1362SOL    HW215549   2.140   1.393  13.894  1.5003 -1.3950 -0.9633
 1363SOL     OW15550   2.656   0.576   1.858  0.2218 -0.6155  0.6273
 1363SOL    HW115551   2.605   0.514   1.910  0.0843  0.0513  1.2894
 1363SOL    HW215552   2.589   0.621   1.806 -0.8440 -0.1105  2.4387
 1364SOL     OW15553   0.865   1.224   6.024  0.6424 -0.3721 -0.3380
 1364SOL    HW115554   0.846   1.301   5.971 -0.1131 -1.2259 -1.3030
 1364SOL    HW215555   0.959   1.237   6.027  0.4707  0.5229  1.2584
 1365SOL     OW15556   2.759   0.213   7.228 -0.3560  0.0827  0.0029
 1365SOL    HW115557   2.778   0.230   7.136 -1.4104 -1.8370 -0.5746
 1365SOL    HW215558   2.664   0.204   7.223 -0.3532 -0.0927  0.2493
 1366SOL     OW15559   1.582   1.288  12.408 -0.1949  0.2518  0.0081
 1366SOL    HW115560   1.533   1.367  12.386 -0.5397 -0.1240 -0.5668
 1366SOL    HW215561   1.657   1.322  12.457 -1.4015  1.2816  1.1581
 1367SOL     OW15562   4.613   0.632   0.409  0.1594  0.6172 -0.5275
 1367SOL    HW115563   4.677   0.672   0.468  1.2780  0.1536 -1.4369
 1367SOL    HW215564   4.567   0.574   0.470 -0.2329  3.1333  1.5813
 1368SOL     OW15565   0.221   3.915   4.731 -0.0288  0.4716  0.3461
 1368SOL    HW115566   0.193   3.824   4.719  3.8719 -0.9477  1.9583
 1368SOL    HW215567   0.278   3.912   4.808  0.6012 -2.0278 -0.1918
 1369SOL     OW15568   3.817   2.023   7.436  0.1514 -0.2877  0.6738
 1369SOL    HW115569   3.803   1.944   7.487  0.5381 -1.8294 -1.6364
 1369SOL    HW215570   3.909   2.005   7.419  0.3016  0.8168  0.2447
 1370SOL     OW15571   3.641   4.275  10.298 -0.0024 -0.1364  0.0882
 1370SOL    HW115572   3.731   4.244  10.296  0.2477  0.3786  3.5233
 1370SOL    HW215573   3.622   4.299  10.207 -0.4175 -1.5608 -0.1875
 1371SOL     OW15574   3.493   0.293   8.590 -0.0857 -0.1260  0.2000
 1371SOL    HW115575   3.555   0.263   8.656  2.5779 -0.0402 -2.2711
 1371SOL    HW215576   3.521   0.383   8.577 -0.1859  0.0737  1.3570
 1372SOL     OW15577   2.291   4.321   2.919  0.5808  0.3757 -0.3744
 1372SOL    HW115578   2.363   4.279   2.871  1.7538 -1.3105  2.8996
 1372SOL    HW215579   2.307   4.410   2.886 -0.3287  1.1251  1.2181
 1373SOL     OW15580   4.667   2.115  13.681  0.6284  0.0986 -0.7443
 1373SOL    HW115581   4.651   2.209  13.687  1.1491  0.0567  1.1537
 1373SOL    HW215582   0.042   2.112  13.663  0.5242 -2.1713 -0.8790
 1374SOL     OW15583   0.879   1.534   6.909  0.4151  0.7548 -0.5955
 1374SOL    HW115584   0.795   1.569   6.878  0.2005 -0.4010 -1.3371
 1374SOL    HW215585   0.851   1.506   6.997  1.7724  1.2022 -0.0253
 1375SOL     OW15586   3.969   1.050   4.627  0.2852  0.0401 -0.5381
 1375SOL    HW115587   3.951   0.956   4.634  0.5513  0.2161  2.4498
 1375SOL    HW215588   4.062   1.049   4.647  0.3770  1.2722 -0.9300
 1376SOL     OW15589   3.831   0.395  14.796 -0.0762 -0.4443 -0.2206
 1376SOL    HW115590   3.782   0.325  14.838  0.3310 -0.1285  0.7969
 1376SOL    HW215591   3.881   0.425  14.873  0.0981 -1.4103  0.0344
 1377SOL     OW15592   0.600   3.812   2.130  0.2848 -0.3023 -0.6160
 1377SOL    HW115593   0.548   3.821   2.050  0.6315  1.5655 -0.6131
 1377SOL    HW215594   0.688   3.828   2.096 -1.2602  0.7797 -4.0989
 1378SOL     OW15595   3.829   4.546   1.841  0.1939 -0.1073  0.5480
 1378SOL    HW115596   3.812   4.572   1.931  1.5749 -0.4994  0.9135
 1378SOL    HW215597   3.741   4.547   1.803  0.5151 -0.2070 -0.2065
 1379SOL     OW15598   1.600   0.625  14.082  0.5979 -0.1450 -0.2579
 1379SOL    HW115599   1.517   0.671  14.098  0.0451 -0.8907 -0.9802
 1379SOL    HW215600   1.658   0.694  14.050  1.4191 -0.7292 -0.0395
 1380SOL     OW15601   2.954   4.101   7.262 -0.2451 -0.3706 -0.4650
 1380SOL    HW115602   2.909   4.165   7.317  2.2676  0.1960  0.9653
 1380SOL    HW215603   2.900   4.101   7.183 -1.8932  0.1548  0.6794
 1381SOL     OW15604   3.032   4.259   5.881 -0.3400 -0.3108 -0.2958
 1381SOL    HW115605   3.031   4.339   5.934  0.3441 -0.8370  0.5108
 1381SOL    HW215606   2.998   4.294   5.798 -1.0218 -0.6301 -0.1556
 1382SOL     OW15607   2.788   3.591   3.891  0.0932  0.0737 -0.0020
 1382SOL    HW115608   2.693   3.600   3.884  0.3204  1.1688 -1.6179
 1382SOL    HW215609   2.807   3.501   3.865 -0.5024 -0.6957  2.1987
 1383SOL     OW15610   3.008   0.266   0.346  0.0578  0.1852 -0.0345
 1383SOL    HW115611   3.035   0.292   0.433 -1.3033  2.2569 -0.2315
 1383SOL    HW215612   2.921   0.230   0.364 -1.2731  4.3153  1.5708
 1384SOL     OW15613   4.556   3.700   2.607 -0.2790  0.6594  0.2650
 1384SOL    HW115614   4.612   3.636   2.563 -1.9324 -1.1172  0.7372
 1384SOL    HW215615   4.593   3.681   2.693  2.7421  1.6935 -0.8316
 1385SOL     OW15616   0.950   2.817   5.192  0.1609  0.1068  0.4898
 1385SOL    HW115617   0.993   2.825   5.277  0.6895  1.5748  0.0820
 1385SOL    HW215618   0.985   2.738   5.151  0.6142  1.7203 -2.2110
 1386SOL     OW15619   4.182   3.639  17.617 -0.4738  0.2058 -0.1433
 1386SOL    HW115620   4.265   3.622  17.571 -0.0216 -1.1938  1.1773
 1386SOL    HW215621   4.163   3.545  17.622 -0.2886  0.2042  0.5435
 1387SOL     OW15622   1.406   1.356   7.254 -0.3366  0.1522  0.2964
 1387SOL    HW115623   1.450   1.441   7.249 -1.6124  0.7585 -0.4969
 1387SOL    HW215624   1.491   1.313   7.240 -0.0759  0.3971  1.1008
 1388SOL     OW15625   2.111   1.977  11.796 -0.1671  0.6168 -0.0732
 1388SOL    HW115626   2.131   1.890  11.761  0.8942  1.2248 -0.9801
 1388SOL    HW215627   2.058   2.017  11.727 -0.8798  0.1760  0.2210
 1389SOL     OW15628   3.223   0.855  11.400  0.2599 -0.1156 -0.3870
 1389SOL    HW115629   3.308   0.897  11.415  0.2524 -1.0504  2.2543
 1389SOL    HW215630   3.208   0.904  11.319 -3.4525  0.8090  0.8833
 1390SOL     OW15631   1.937   2.331   1.141 -0.2256 -0.2637  0.6543
 1390SOL    HW115632   1.854   2.378   1.154  0.3513  0.8619  0.2417
 1390SOL    HW215633   1.966   2.379   1.064  1.0935  0.6322  1.7049
 1391SOL     OW15634   3.853   3.068   0.234 -0.0191  0.1850  0.1061
 1391SOL    HW115635   3.886   3.115   0.157 -0.6779 -2.4139 -1.7287
 1391SOL    HW215636   3.763   3.065   0.204 -0.0797 -2.1089  0.5633
 1392SOL     OW15637   3.360   3.081   3.181  0.1005  0.0783  0.5363
 1392SOL    HW115638   3.436   3.068   3.126  0.2515  0.6614  0.6095
 1392SOL    HW215639   3.383   3.153   3.240  1.4180 -2.1956  2.7971
 1393SOL     OW15640   2.964   3.418   4.997  0.0287 -0.6022 -0.1430
 1393SOL    HW115641   2.880   3.408   5.042  0.2889  0.0690  0.4762
 1393SOL    HW215642   3.020   3.422   5.074 -2.2248  0.0193  1.4601
 1394SOL     OW15643   2.406   3.330   0.875 -0.1638  0.0030  0.1939
 1394SOL    HW115644   2.324   3.289   0.902 -1.0308  1.2908 -0.4699
 1394SOL    HW215645   2.377   3.404   0.821  1.6101  0.5614  0.0325
 1395SOL     OW15646   0.479   3.107   1.226 -0.0951  0.0877  0.2371
 1395SOL    HW115647   0.564   3.096   1.183  0.4175 -0.6042  1.4205
 1395SOL    HW215648   0.421   3.152   1.164  0.3425  0.9721  0.4709
 1396SOL     OW15649   1.272   1.207   2.015 -0.5131  0.3969 -0.6358
 1396SOL    HW115650   1.344   1.197   2.078 -3.0652  0.1157  2.2086
 1396SOL    HW215651   1.319   1.171   1.939  1.9726 -1.5240  1.8429
 1397SOL     OW15652   2.446   2.329   3.096  0.1828  0.0749 -0.2397
 1397SOL    HW115653   2.453   2.253   3.039 -0.3425 -0.1936  0.0512
 1397SOL    HW215654   2.518   2.388   3.077  0.4464  0.0873  0.7914
 1398SOL     OW15655   4.500   3.822   4.283  0.2714  0.2482 -0.6412
 1398SOL    HW115656   4.436   3.805   4.214 -1.2590 -0.2704  0.9224
 1398SOL    HW215657   4.484   3.741   4.330  2.2560  0.6617  0.7279
 1399SOL     OW15658   2.830   1.462  15.278 -0.3023 -0.9852 -0.3478
 1399SOL    HW115659   2.863   1.535  15.330  0.6632 -2.7153  1.5072
 1399SOL    HW215660   2.825   1.495  15.189  1.1033 -0.0048 -0.0605
 1400SOL     OW15661   3.973   3.540  10.934  0.1868  0.2094  0.2523
 1400SOL    HW115662   4.047   3.565  10.880  0.7499 -0.1819  0.8406
 1400SOL    HW215663   3.901   3.547  10.871 -0.1329 -0.9637  0.5003
 1401SOL     OW15664   0.341   2.043   7.494 -0.4443  0.1664  0.2790
 1401SOL    HW115665   0.351   1.985   7.419 -1.0670  0.4249  0.0008
 1401SOL    HW215666   0.251   2.024   7.520 -0.5079  0.0065 -0.0541
 1402SOL     OW15667   3.647   1.915   2.501 -0.0705  0.2819 -0.6701
 1402SOL    HW115668   3.576   1.900   2.438  0.2723  0.2410 -1.0426
 1402SOL    HW215669   3.596   1.918   2.582  0.0868  0.1173 -0.5661
 1403SOL     OW15670   2.451   2.228  14.247 -0.0646  0.1181  0.1167
 1403SOL    HW115671   2.382   2.165  14.227 -1.7701  2.2710 -0.7545
 1403SOL    HW215672   2.406   2.313  14.243 -0.3672  0.0278  1.4260
 1404SOL     OW15673   3.876   1.946   4.512 -0.2867  0.4039 -0.1907
 1404SOL    HW115674   3.823   1.915   4.440  2.7015 -1.8039 -1.4315
 1404SOL    HW215675   3.909   1.877   4.571  2.1786  0.5578 -1.3867
 1405SOL     OW15676   0.798   1.055   4.467 -0.2438 -0.5054  0.3204
 1405SOL    HW115677   0.769   1.029   4.379  1.9072 -0.7889 -0.3040
 1405SOL    HW215678   0.872   0.997   4.482 -1.2332 -1.0771  2.8910
 1406SOL     OW15679   3.641   1.615   6.288  0.4212 -0.1143  0.0019
 1406SOL    HW115680   3.607   1.702   6.270  1.0590 -0.0730 -0.9748
 1406SOL    HW215681   3.560   1.566   6.268  0.8391 -0.1982 -1.4626
 1407SOL     OW15682   3.288   4.585   3.016  0.4809  0.0514 -0.0880
 1407SOL    HW115683   3.257   4.565   3.104  0.0180  1.3489  0.0494
 1407SOL    HW215684   3.363   4.528   3.002 -2.8342 -3.5569 -2.9305
 1408SOL     OW15685   3.853   0.262   2.659 -0.2649 -0.2277  0.1297
 1408SOL    HW115686   3.838   0.327   2.590  1.8556  0.2571  0.1457
 1408SOL    HW215687   3.870   0.177   2.619 -1.4948 -0.8343  0.8849
 1409SOL     OW15688   0.367   3.026   2.057 -0.4816 -0.3014  0.1135
 1409SOL    HW115689   0.425   3.027   1.981 -0.7218 -2.2363 -0.1023
 1409SOL    HW215690   0.324   2.941   2.045  2.1432 -1.7230  0.8345
 1410SOL     OW15691   4.585   1.587   1.936  0.0678  0.2648  0.0594
 1410SOL    HW115692   4.647   1.588   1.863  1.4671 -0.2095  1.2393
 1410SOL    HW215693   4.630   1.549   2.012  1.0399  0.2407 -0.5265
 1411SOL     OW15694   0.804   1.435   9.574  0.1329 -0.4463 -0.0265
 1411SOL    HW115695   0.867   1.365   9.588  2.2857  0.9447 -2.7259
 1411SOL    HW215696   0.754   1.421   9.654 -1.8327 -0.7039 -1.2833
 1412SOL     OW15697   3.507   3.183  10.146  0.4119 -0.2042 -0.1866
 1412SOL    HW115698   3.481   3.273  10.168  3.3537  1.0623 -1.7613
 1412SOL    HW215699   3.593   3.185  10.189 -0.3135 -2.1049  1.3193
 1413SOL     OW15700   4.229   1.642  12.557  0.5678 -0.5425  0.7381
 1413SOL    HW115701   4.219   1.700  12.632 -1.9070 -1.0061  0.7557
 1413SOL    HW215702   4.139   1.646  12.524  0.5359  2.1188  1.1450
 1414SOL     OW15703   3.728   1.134  11.610 -0.2903 -0.4993 -0.5690
 1414SOL    HW115704   3.812   1.154  11.651 -0.2763  0.0759 -0.8794
 1414SOL    HW215705   3.677   1.128  11.691  2.8374  0.0175  1.4182
 1415SOL     OW15706   2.448   3.922   4.684  0.2169 -0.1140  0.0222
 1415SOL    HW115707   2.408   3.945   4.768 -1.1754  1.7907 -1.1760
 1415SOL    HW215708   2.422   4.001   4.636 -0.6241 -0.9077 -0.8200
 1416SOL     OW15709   0.068   0.088   7.647  0.4796  0.2221  0.4385
 1416SOL    HW115710   0.062   0.042   7.731 -1.5845 -0.2551  0.0336
 1416SOL    HW215711   0.159   0.070   7.623  0.5204  1.4821 -0.3183
 1417SOL     OW15712   0.788   1.933  11.684  0.4199 -0.2358 -0.0308
 1417SOL    HW115713   0.863   1.893  11.727  0.4507  0.4079  0.5303
 1417SOL    HW215714   0.757   1.852  11.645  0.3618 -1.5384  2.6872
 1418SOL     OW15715   1.794   2.286   3.147  0.1502 -0.9055 -0.0684
 1418SOL    HW115716   1.776   2.219   3.081 -1.2595 -0.2610 -0.3441
 1418SOL    HW215717   1.711   2.333   3.137  0.7718 -0.0109 -1.0725
 1419SOL     OW15718   1.249   1.849   6.992  0.1027 -0.6729  0.0400
 1419SOL    HW115719   1.232   1.756   7.007 -1.2317 -0.4640 -0.1683
 1419SOL    HW215720   1.175   1.877   6.938  0.8701  0.1937 -0.5844
 1420SOL     OW15721   1.987   4.600  12.945 -0.1480  0.1955 -0.1428
 1420SOL    HW115722   1.896   4.572  12.935 -0.2839  0.2270  0.9449
 1420SOL    HW215723   2.033   4.542  12.884  0.4002  0.6221 -0.1300
 1421SOL     OW15724   0.720   4.300  12.306  0.4647 -0.0655  0.2962
 1421SOL    HW115725   0.628   4.305  12.330  0.1499 -3.3761 -0.1941
 1421SOL    HW215726   0.734   4.205  12.308 -2.5704 -0.3989  3.9937
 1422SOL     OW15727   0.187   0.680   2.555  0.1532 -0.2809 -0.1248
 1422SOL    HW115728   0.280   0.675   2.534  0.9433 -0.8230  3.4610
 1422SOL    HW215729   0.197   0.705   2.647 -1.9285  0.6169 -0.1351
 1423SOL     OW15730   3.431   1.415  16.654 -0.0062  0.2028 -0.5469
 1423SOL    HW115731   3.416   1.449  16.742 -1.1961 -2.1392  0.1467
 1423SOL    HW215732   3.467   1.327  16.661 -0.2552  0.0924 -0.6582
 1424SOL     OW15733   3.556   0.955   5.899  0.6366 -0.1511  0.0935
 1424SOL    HW115734   3.522   1.045   5.895  0.7347 -0.0896  0.6635
 1424SOL    HW215735   3.498   0.912   5.962  1.5823 -0.2922  0.8698
 1425SOL     OW15736   1.082   1.748   8.020 -0.0477  0.3555 -0.4776
 1425SOL    HW115737   1.021   1.795   8.077  0.4151  0.8223 -0.3740
 1425SOL    HW215738   1.057   1.656   8.033 -0.2723  0.5490  0.4152
 1426SOL     OW15739   0.630   3.264  14.009 -0.3871 -0.1175  0.6503
 1426SOL    HW115740   0.644   3.312  13.928 -1.5193 -0.3425  0.3214
 1426SOL    HW215741   0.573   3.326  14.056  0.6803 -0.5188  2.4694
 1427SOL     OW15742   4.415   2.236  11.002 -0.0516  0.0244 -0.7243
 1427SOL    HW115743   4.456   2.150  10.989 -0.5303 -0.2866 -0.1647
 1427SOL    HW215744   4.479   2.277  11.060 -2.2598  2.6990 -0.2064
 1428SOL     OW15745   1.009   3.839  16.518  0.0590 -0.2019  0.2078
 1428SOL    HW115746   0.996   3.764  16.459  0.0458 -0.1468  0.1406
 1428SOL    HW215747   0.996   3.792  16.601  2.2709 -0.7450  0.2504
 1429SOL     OW15748   1.322   1.000   8.592  0.3456 -0.8003 -0.0839
 1429SOL    HW115749   1.263   1.047   8.651  1.7093 -2.0492  2.2825
 1429SOL    HW215750   1.298   0.914   8.627 -0.5137 -1.4287 -2.2384
 1430SOL     OW15751   2.218   2.637   6.185 -0.2470  0.1203  0.2936
 1430SOL    HW115752   2.151   2.601   6.127 -0.5473 -0.4042  0.9707
 1430SOL    HW215753   2.247   2.708   6.127 -0.3543 -1.9442 -2.2488
 1431SOL     OW15754   0.541   1.297   7.471 -0.4908  0.0228  0.0225
 1431SOL    HW115755   0.517   1.353   7.545  0.6534  2.8181 -1.7120
 1431SOL    HW215756   0.621   1.339   7.440 -0.6897  1.1250  1.0156
 1432SOL     OW15757   1.124   0.528  13.442  0.6872  0.3904 -0.3597
 1432SOL    HW115758   1.086   0.471  13.509  2.1746 -1.1736 -0.8490
 1432SOL    HW215759   1.050   0.558  13.389 -0.2151 -1.9973 -0.4192
 1433SOL     OW15760   0.924   0.307   5.256  0.4355 -0.0315  0.3007
 1433SOL    HW115761   0.916   0.387   5.203  1.2918 -0.6450 -0.7479
 1433SOL    HW215762   0.854   0.251   5.223  1.8896 -1.5319 -0.2506
 1434SOL     OW15763   1.269   4.054   1.242 -0.1087  0.1290 -0.1219
 1434SOL    HW115764   1.311   4.135   1.214 -0.3237  0.8474  1.6693
 1434SOL    HW215765   1.258   4.026   1.151 -1.7906 -1.1265  0.4816
 1435SOL     OW15766   1.593   2.450   8.648 -0.3456  0.2911 -0.3573
 1435SOL    HW115767   1.563   2.535   8.614  5.0153  1.2080 -2.7979
 1435SOL    HW215768   1.633   2.473   8.733  2.0544 -0.9094 -1.1530
 1436SOL     OW15769   2.508   2.983   4.157  0.6409 -0.0008  0.0191
 1436SOL    HW115770   2.563   3.057   4.184  0.9821  0.5469 -2.1634
 1436SOL    HW215771   2.582   2.930   4.128 -0.0558  0.4578 -2.5486
 1437SOL     OW15772   0.024   3.637   0.134 -0.0463 -0.1627  0.3821
 1437SOL    HW115773   0.050   3.697   0.204 -0.3465  1.8640 -1.2341
 1437SOL    HW215774   0.034   3.690   0.055 -1.1285 -0.5451 -0.0071
 1438SOL     OW15775   1.068   2.892   7.125  0.0806 -0.0372  0.3288
 1438SOL    HW115776   1.098   2.803   7.143 -0.3616 -0.4373 -0.9554
 1438SOL    HW215777   1.012   2.901   7.202 -0.4384 -1.0529  0.0712
 1439SOL     OW15778   1.718   4.605  16.843 -0.5311 -0.0570 -0.1146
 1439SOL    HW115779   1.706   4.514  16.871 -1.0842 -0.6947 -2.4031
 1439SOL    HW215780   1.626   4.620  16.821 -0.4332 -0.9331 -1.1197
 1440SOL     OW15781   2.008   0.845  13.951  0.4626  0.1505  0.4066
 1440SOL    HW115782   1.970   0.932  13.935 -1.4735 -0.4658  1.5869
 1440SOL    HW215783   2.030   0.863  14.042  1.1298 -0.7159  0.4065
 1441SOL     OW15784   4.636   0.635   5.784 -0.5000 -0.8812  0.5030
 1441SOL    HW115785   4.651   0.647   5.690 -2.9630  0.2432  0.2348
 1441SOL    HW215786   4.717   0.666   5.824 -1.9459  0.5770  2.3548
 1442SOL     OW15787   3.833   1.987  16.836  0.0230  0.2226 -0.4369
 1442SOL    HW115788   3.750   2.016  16.797 -0.6019 -1.3343 -0.2693
 1442SOL    HW215789   3.895   2.058  16.819 -0.3621  0.7443  0.3424
 1443SOL     OW15790   0.102   3.719  15.053 -0.4291  0.7309 -0.1598
 1443SOL    HW115791   0.069   3.745  14.966 -1.0992 -0.4510 -0.2669
 1443SOL    HW215792   0.059   3.633  15.053  1.4274 -0.1848  0.1849
 1444SOL     OW15793   3.594   1.728  14.071 -0.0604 -0.1842  0.0601
 1444SOL    HW115794   3.544   1.803  14.037  0.3243  0.5695  1.1281
 1444SOL    HW215795   3.645   1.779  14.134 -0.5615 -0.6030  0.8109
 1445SOL     OW15796   3.576   3.270   4.484 -0.4941 -0.1370 -0.3009
 1445SOL    HW115797   3.638   3.335   4.518 -1.6957  1.0558 -0.3880
 1445SOL    HW215798   3.582   3.206   4.555  0.2357 -2.2300 -2.2556
 1446SOL     OW15799   2.546   3.779   4.440  0.2734  0.1233 -0.4310
 1446SOL    HW115800   2.504   3.807   4.521 -1.7875 -0.5808 -1.2608
 1446SOL    HW215801   2.571   3.861   4.397 -2.4429  0.6750 -0.9642
 1447SOL     OW15802   2.926   2.682   7.607  0.5072 -0.0307 -0.3491
 1447SOL    HW115803   2.836   2.661   7.583  1.3360 -2.5704 -1.1853
 1447SOL    HW215804   2.919   2.776   7.626  0.6025 -0.2450  0.7622
 1448SOL     OW15805   2.416   0.448   1.975  0.0916  0.0290  0.0777
 1448SOL    HW115806   2.390   0.494   2.054  1.4154  0.5350  0.2113
 1448SOL    HW215807   2.329   0.422   1.944  0.5409  0.4226 -1.5505
 1449SOL     OW15808   0.183   4.338  12.050  0.6827 -0.7778  0.1917
 1449SOL    HW115809   0.194   4.432  12.058  3.0256 -1.0469 -0.0279
 1449SOL    HW215810   0.271   4.313  12.078  0.6152 -1.4287 -0.1700
 1450SOL     OW15811   0.792   2.949   7.871  0.0797 -0.4093  0.9271
 1450SOL    HW115812   0.698   2.931   7.871  0.0771 -0.3910 -0.6798
 1450SOL    HW215813   0.789   3.044   7.882  0.5336 -0.3864  0.8171
 1451SOL     OW15814   1.034   1.718   6.291 -0.0433 -0.6145  0.6607
 1451SOL    HW115815   1.088   1.659   6.238  1.1134  1.0112  0.0172
 1451SOL    HW215816   0.945   1.690   6.272 -0.3382  0.1939  0.8455
 1452SOL     OW15817   0.005   1.653  11.372  0.0769 -0.5075 -0.0407
 1452SOL    HW115818   0.078   1.622  11.426  0.4514  0.2530 -0.1058
 1452SOL    HW215819   0.011   1.594  11.298  2.3586 -0.1058 -0.1750
 1453SOL     OW15820   4.686   0.500   5.517  0.4190  0.4393 -0.2547
 1453SOL    HW115821   4.717   0.498   5.427  1.9739 -0.4819  0.2778
 1453SOL    HW215822   4.693   0.593   5.537  1.1786  0.3213  0.0560
 1454SOL     OW15823   0.441   4.352   3.428 -0.2803 -0.3182 -0.2112
 1454SOL    HW115824   0.433   4.432   3.479 -0.6853 -1.0581  0.8707
 1454SOL    HW215825   0.537   4.344   3.428 -0.1808  0.8482 -1.3940
 1455SOL     OW15826   1.449   1.289   2.256  0.4832  0.0662  0.0101
 1455SOL    HW115827   1.416   1.374   2.226 -0.6122 -0.5571 -0.5683
 1455SOL    HW215828   1.536   1.291   2.217  0.7714 -1.7457  0.5791
 1456SOL     OW15829   3.189   1.266   7.068  0.6982 -0.0971  0.3956
 1456SOL    HW115830   3.196   1.273   7.163  2.1582  1.2629  0.1889
 1456SOL    HW215831   3.117   1.206   7.048  1.6436 -0.2266 -2.7440
 1457SOL     OW15832   0.897   3.861  16.092 -0.2011 -0.1505 -0.6589
 1457SOL    HW115833   0.900   3.909  16.175  1.2004  2.1006 -1.9973
 1457SOL    HW215834   0.941   3.922  16.032 -1.0792 -0.1849 -1.3291
 1458SOL     OW15835   2.775   4.062   0.515 -1.0503 -0.3712  0.2175
 1458SOL    HW115836   2.724   3.983   0.531 -1.5022 -0.1619 -0.1850
 1458SOL    HW215837   2.852   4.024   0.472 -1.3477 -1.2901  0.5085
 1459SOL     OW15838   1.666   2.930   6.538  0.0969  0.9100 -0.0884
 1459SOL    HW115839   1.571   2.921   6.537  0.2073 -0.2657 -0.7898
 1459SOL    HW215840   1.682   2.850   6.487  2.3260  0.5224  1.2390
 1460SOL     OW15841   0.658   3.524   4.390 -0.0754 -0.4422  0.7251
 1460SOL    HW115842   0.719   3.492   4.457 -1.9901 -2.7110  1.3708
 1460SOL    HW215843   0.661   3.451   4.329  0.6516  0.6409 -0.5403
 1461SOL     OW15844   3.744   0.613  15.448  0.0460 -0.5870 -0.1636
 1461SOL    HW115845   3.712   0.527  15.476  0.3436 -1.3245 -2.1094
 1461SOL    HW215846   3.815   0.575  15.396  1.3653  0.6486  0.7251
 1462SOL     OW15847   1.622   3.102   5.954  0.0570 -0.3601  0.0055
 1462SOL    HW115848   1.646   3.183   5.998 -0.2157 -0.5918  0.5717
 1462SOL    HW215849   1.575   3.149   5.884  1.4595  2.4803  0.9678
 1463SOL     OW15850   3.314   0.706  12.893 -0.1188  0.0873  0.0682
 1463SOL    HW115851   3.364   0.632  12.928 -1.1664 -1.1459 -1.0327
 1463SOL    HW215852   3.252   0.729  12.962  0.1002 -0.7786  0.5451
 1464SOL     OW15853   3.089   1.182   3.857  0.4527  0.1123 -0.0105
 1464SOL    HW115854   3.175   1.174   3.814 -0.3527 -1.2033 -1.3885
 1464SOL    HW215855   3.045   1.200   3.774  2.7331  0.4756 -1.1442
 1465SOL     OW15856   0.364   2.651   4.788 -0.6961 -0.1253 -0.0492
 1465SOL    HW115857   0.417   2.686   4.859 -1.1571  1.2044 -0.3675
 1465SOL    HW215858   0.322   2.578   4.833 -1.5686 -0.4673 -1.4211
 1466SOL     OW15859   3.369   0.239   2.032 -0.1482  0.5474  0.0803
 1466SOL    HW115860   3.373   0.309   2.097 -2.8163 -0.0848  0.9289
 1466SOL    HW215861   3.369   0.162   2.088 -0.0497  1.3406  1.1714
 1467SOL     OW15862   2.592   4.029  15.425  0.3982  0.1746  0.4700
 1467SOL    HW115863   2.523   3.968  15.396  0.3804 -0.7319  2.4397
 1467SOL    HW215864   2.613   3.981  15.505 -1.0769  1.2812  1.5318
 1468SOL     OW15865   3.554   4.429   0.627  0.0908  0.8167  0.0695
 1468SOL    HW115866   3.521   4.491   0.562  0.5237 -0.0560 -0.9811
 1468SOL    HW215867   3.475   4.387   0.660 -0.7668  2.0943 -0.3615
 1469SOL     OW15868   2.935   1.123  13.876 -0.0543  0.4529 -0.0031
 1469SOL    HW115869   2.974   1.039  13.851 -1.3370  0.7869 -3.0161
 1469SOL    HW215870   2.917   1.112  13.970  0.9137 -0.2898  0.0984
 1470SOL     OW15871   2.691   1.167   6.467  0.3975 -0.4883 -0.0494
 1470SOL    HW115872   2.729   1.245   6.507 -0.9215  1.3119 -2.3064
 1470SOL    HW215873   2.609   1.157   6.515 -0.9858  1.5905 -1.9607
 1471SOL     OW15874   2.720   1.450   6.594  0.0171 -0.1480 -0.1845
 1471SOL    HW115875   2.720   1.394   6.671  0.5584 -1.1867 -0.9333
 1471SOL    HW215876   2.780   1.513   6.633  1.4480 -2.1968  0.9057
 1472SOL     OW15877   1.926   3.533   4.933 -0.5622  0.0618  0.3539
 1472SOL    HW115878   1.980   3.590   4.878 -0.5158  2.6538  3.0774
 1472SOL    HW215879   1.888   3.590   5.001  0.7254  0.0462  1.0725
 1473SOL     OW15880   4.545   1.821   4.927  0.3606 -0.3324 -0.0710
 1473SOL    HW115881   4.610   1.799   4.860  0.4788  1.0138 -0.4072
 1473SOL    HW215882   4.595   1.887   4.974  1.8380 -2.4483  1.2683
 1474SOL     OW15883   3.020   1.353  12.370 -0.2750  0.0453  0.3755
 1474SOL    HW115884   3.004   1.303  12.290  1.9765 -1.7544  1.0233
 1474SOL    HW215885   2.929   1.374  12.389  0.9065  1.6669  4.2755
 1475SOL     OW15886   3.471   0.821   7.126 -0.6988 -0.6402 -0.0022
 1475SOL    HW115887   3.533   0.872   7.073 -1.0568  0.4266  0.6057
 1475SOL    HW215888   3.399   0.882   7.113 -0.4094 -0.5930 -1.4003
 1476SOL     OW15889   2.194   0.307   1.963  0.2521  0.2328 -0.0335
 1476SOL    HW115890   2.109   0.295   2.006 -0.0381  0.5823 -0.5114
 1476SOL    HW215891   2.176   0.270   1.877  1.5541 -1.7555  0.5675
 1477SOL     OW15892   2.115   4.252   7.711 -0.6186 -0.0055  0.3389
 1477SOL    HW115893   2.099   4.271   7.803 -0.1584 -1.5960  0.7449
 1477SOL    HW215894   2.024   4.250   7.680 -0.9201 -2.2681  1.3975
 1478SOL     OW15895   1.984   0.718  11.387  0.4220  0.1639  0.1240
 1478SOL    HW115896   1.914   0.754  11.333 -1.6498 -3.9878  0.0208
 1478SOL    HW215897   1.928   0.694  11.462  0.6976  0.1634  0.3302
 1479SOL     OW15898   3.350   3.067   1.763 -0.0755  0.5369 -0.5085
 1479SOL    HW115899   3.353   3.138   1.827 -3.1737  1.0928 -1.0022
 1479SOL    HW215900   3.289   3.101   1.698 -0.4626  2.0896  0.6971
 1480SOL     OW15901   4.242   4.620   1.553 -0.3556 -0.8168 -0.0837
 1480SOL    HW115902   4.188   4.684   1.600 -1.2844 -0.9920 -0.8918
 1480SOL    HW215903   4.188   4.547   1.585 -0.2191 -1.2113 -0.7599
 1481SOL     OW15904   1.471   4.428   3.755  0.0134 -0.0536 -0.0061
 1481SOL    HW115905   1.439   4.350   3.802  0.9706  0.4547  1.4759
 1481SOL    HW215906   1.505   4.481   3.827  1.6870  1.1096 -1.6626
 1482SOL     OW15907   4.546   2.732  15.660 -0.7103 -0.1717 -0.3624
 1482SOL    HW115908   4.580   2.680  15.587  1.1427  1.1653 -0.4409
 1482SOL    HW215909   4.589   2.695  15.737 -2.3954  0.5467  0.9028
 1483SOL     OW15910   2.363   0.097   5.457  0.1038  0.0954  0.2605
 1483SOL    HW115911   2.393   0.161   5.522 -2.2389 -1.2088  2.6655
 1483SOL    HW215912   2.402   0.138   5.381  1.5406  0.1134  1.0009
 1484SOL     OW15913   0.986   3.950   5.348  0.0666  0.4541 -0.6475
 1484SOL    HW115914   1.059   3.982   5.295  1.1849 -1.9036 -0.5147
 1484SOL    HW215915   0.987   4.012   5.421 -1.2131  0.2992 -0.5012
 1485SOL     OW15916   4.064   2.328   4.249  0.2710  0.2694 -0.2296
 1485SOL    HW115917   4.039   2.280   4.170 -0.9869  1.4992 -0.5800
 1485SOL    HW215918   4.143   2.374   4.219  1.6074  0.2860  3.3268
 1486SOL     OW15919   0.462   3.325  12.948 -0.3874 -0.3414  0.1969
 1486SOL    HW115920   0.515   3.405  12.954 -1.6455  0.4384  0.7620
 1486SOL    HW215921   0.372   3.348  12.972 -0.7659 -1.1546 -0.4330
 1487SOL     OW15922   4.412   2.669   9.178 -0.2969  0.2976  0.4512
 1487SOL    HW115923   4.431   2.748   9.230 -1.7782  0.2780  1.0305
 1487SOL    HW215924   4.392   2.610   9.251 -0.9150  0.2299  0.2264
 1488SOL     OW15925   3.049   1.532  11.064 -0.0511  0.0460 -0.2375
 1488SOL    HW115926   3.121   1.564  11.118 -0.1607  0.5335 -0.3766
 1488SOL    HW215927   3.061   1.577  10.980  0.0459  0.4176 -0.0194
 1489SOL     OW15928   0.402   1.253  10.493  0.0345 -0.5646 -0.1140
 1489SOL    HW115929   0.449   1.179  10.531 -2.1655 -1.4740  0.8483
 1489SOL    HW215930   0.338   1.271  10.562  0.6812  1.2248  0.0144
 1490SOL     OW15931   3.218   2.767  14.653 -0.5366  0.8570 -0.0811
 1490SOL    HW115932   3.300   2.741  14.696 -1.4840 -0.2169  1.0921
 1490SOL    HW215933   3.241   2.806  14.569 -1.8472  0.8672 -0.4361
 1491SOL     OW15934   4.175   1.027  14.088 -0.1834  0.1932  0.3011
 1491SOL    HW115935   4.156   0.943  14.044  2.0341 -1.1967  2.0152
 1491SOL    HW215936   4.126   1.025  14.170  0.7343  1.1517  0.8666
 1492SOL     OW15937   3.260   2.039  11.457 -0.0755 -0.6497 -0.4230
 1492SOL    HW115938   3.234   1.957  11.498 -2.3767  1.2142  1.8253
 1492SOL    HW215939   3.174   2.074  11.436  0.4537  1.2860  0.6786
 1493SOL     OW15940   3.054   0.538   8.024 -0.5009  0.0045 -0.2542
 1493SOL    HW115941   2.990   0.568   8.089 -0.0306 -1.0411  0.6831
 1493SOL    HW215942   3.118   0.608   8.007  1.2335 -1.9336 -1.6640
 1494SOL     OW15943   1.104   2.344   5.655 -0.1965  0.0657 -0.2164
 1494SOL    HW115944   1.076   2.281   5.588 -1.9345  1.1307 -0.4973
 1494SOL    HW215945   1.194   2.359   5.626 -0.5430 -1.1131 -1.9243
 1495SOL     OW15946   1.874   1.426   2.331  0.1949 -0.9700  0.0617
 1495SOL    HW115947   1.801   1.460   2.384  1.8132 -0.3272  1.8819
 1495SOL    HW215948   1.823   1.391   2.259 -0.0732 -0.0969 -0.1783
 1496SOL     OW15949   1.156   1.848   1.294  0.5921  0.1210  0.4555
 1496SOL    HW115950   1.114   1.836   1.379 -0.9968  1.1324 -0.1817
 1496SOL    HW215951   1.206   1.928   1.306 -0.1327  0.6326  0.0625
 1497SOL     OW15952   3.329   3.399   2.760  0.0172  0.1922 -0.1804
 1497SOL    HW115953   3.325   3.304   2.755  0.2422  0.1216  1.0713
 1497SOL    HW215954   3.379   3.419   2.680 -1.0652  0.3689 -0.8063
 1498SOL     OW15955   0.390   1.400   6.670  0.2599 -0.0425  0.0249
 1498SOL    HW115956   0.357   1.321   6.712 -0.9685  0.7202  0.5083
 1498SOL    HW215957   0.395   1.370   6.579 -0.6299 -1.1126  0.3194
 1499SOL     OW15958   2.433   3.893   3.221  0.6288 -1.0949 -0.3697
 1499SOL    HW115959   2.505   3.896   3.159 -0.6676 -0.0308 -1.8227
 1499SOL    HW215960   2.368   3.836   3.182  1.1534 -1.2502 -1.0203
 1500SOL     OW15961   3.156   2.220   2.727 -0.7998 -0.0042 -0.3724
 1500SOL    HW115962   3.151   2.127   2.703 -1.7218 -0.2962  0.9514
 1500SOL    HW215963   3.250   2.220   2.745 -1.1873  2.4368  1.6641
 1501SOL     OW15964   4.245   0.855   7.842  0.1519  0.5171 -0.2066
 1501SOL    HW115965   4.280   0.931   7.888  2.6577  0.5456 -2.1556
 1501SOL    HW215966   4.169   0.893   7.799 -0.0773 -1.1647 -1.3135
 1502SOL     OW15967   0.464   3.718   6.706 -0.0657  0.6088  0.6164
 1502SOL    HW115968   0.490   3.676   6.624  1.1177 -1.5320  2.0904
 1502SOL    HW215969   0.545   3.761   6.733  0.0931  0.6450  0.0891
 1503SOL     OW15970   0.095   4.454   6.726 -0.2271 -0.2708  0.5877
 1503SOL    HW115971   0.187   4.433   6.712 -0.3240 -0.9084  0.9142
 1503SOL    HW215972   0.094   4.525   6.790 -0.8040 -0.1589  0.4604
 1504SOL     OW15973   0.121   2.496   5.342 -0.5611 -0.9191 -0.5105
 1504SOL    HW115974   0.029   2.519   5.330  0.2348  3.1208  1.0794
 1504SOL    HW215975   0.139   2.486   5.248 -0.9231 -0.8809 -0.5821
 1505SOL     OW15976   0.544   0.320   5.471 -0.8734 -0.2923 -0.1771
 1505SOL    HW115977   0.528   0.228   5.449 -0.3831 -0.6027  0.7527
 1505SOL    HW215978   0.600   0.303   5.548 -1.4160 -0.8026  0.1091
 1506SOL     OW15979   2.912   1.051   1.507 -0.5146  0.4670  0.1574
 1506SOL    HW115980   2.911   1.048   1.411 -0.0206 -0.3451  0.1735
 1506SOL    HW215981   2.822   1.023   1.523  0.3027 -2.4966 -0.3973
 1507SOL     OW15982   4.679   1.768   7.828  0.5594 -0.0135 -0.1533
 1507SOL    HW115983   4.706   1.797   7.741  0.8263 -1.5463 -0.5983
 1507SOL    HW215984   0.042   1.785   7.874  1.7212 -1.4386 -1.7005
 1508SOL     OW15985   3.907   3.224  10.026  0.0115  0.0101  0.2260
 1508SOL    HW115986   3.964   3.295   9.996  1.1680 -0.3700  1.5238
 1508SOL    HW215987   3.837   3.221   9.960 -0.6527 -2.8050  1.0723
 1509SOL     OW15988   1.118   1.270   4.286  0.2044 -0.1628  0.6401
 1509SOL    HW115989   1.148   1.335   4.223  0.5725 -1.3174 -0.3824
 1509SOL    HW215990   1.200   1.223   4.300  0.7562  0.4423 -0.5731
 1510SOL     OW15991   3.653   2.499   1.366  0.2908 -0.9040  0.4138
 1510SOL    HW115992   3.650   2.514   1.461 -0.0645  2.5050 -0.1198
 1510SOL    HW215993   3.722   2.434   1.355 -0.4107 -1.5702 -0.0462
 1511SOL     OW15994   2.886   0.352   4.923 -0.0183  0.0952  0.0463
 1511SOL    HW115995   2.841   0.317   4.846  0.4965 -0.2648 -0.0923
 1511SOL    HW215996   2.892   0.446   4.907 -0.6124  0.5137  2.3156
 1512SOL     OW15997   4.534   1.030   5.947 -0.0423 -0.3212  0.5248
 1512SOL    HW115998   4.469   1.029   6.018  0.3601  1.3422  0.9329
 1512SOL    HW215999   4.466   1.032   5.880  0.7079  0.8997 -0.1920
 1513SOL     OW16000   3.607   2.922   8.600  0.0283 -0.3230  0.0464
 1513SOL    HW116001   3.660   2.978   8.544  2.1191 -1.9609  0.4084
 1513SOL    HW216002   3.670   2.851   8.613  1.4144  0.8134 -0.4229
 1514SOL     OW16003   3.439   3.192  13.641  0.1442  0.3477  0.0274
 1514SOL    HW116004   3.494   3.205  13.564 -1.3692 -2.0671 -1.4719
 1514SOL    HW216005   3.394   3.276  13.649  0.7102  0.6306  0.1845
 1515SOL     OW16006   4.116   2.595   1.357  0.1572  1.0141  0.3672
 1515SOL    HW116007   4.148   2.662   1.418  0.6333 -0.3929  1.6618
 1515SOL    HW216008   4.109   2.515   1.410 -1.4287  1.9644  1.6192
 1516SOL     OW16009   3.943   3.804   5.766  0.5375 -0.2540  0.2691
 1516SOL    HW116010   3.926   3.873   5.830 -0.3985  0.4749 -0.7631
 1516SOL    HW216011   4.038   3.803   5.773  0.4514 -1.5811  1.3218
 1517SOL     OW16012   4.537   3.598   5.667 -0.7239  0.0191 -0.4888
 1517SOL    HW116013   4.628   3.580   5.647 -0.7801 -0.7923  0.0155
 1517SOL    HW216014   4.521   3.546   5.745 -1.0633 -0.2031 -0.7059
 1518SOL     OW16015   0.980   1.440   6.686  1.0792 -0.4914  0.2689
 1518SOL    HW116016   0.957   1.469   6.774 -0.6558 -1.2207  0.0599
 1518SOL    HW216017   0.897   1.466   6.646  0.5909  1.7660  2.7683
 1519SOL     OW16018   4.501   1.943   4.170 -0.4814 -0.1226 -0.7682
 1519SOL    HW116019   4.554   2.003   4.117 -0.5845  1.5040  0.9626
 1519SOL    HW216020   4.558   1.939   4.246 -1.3860 -0.3383 -0.1086
 1520SOL     OW16021   3.877   3.788   5.518 -0.3577 -0.4321  0.2932
 1520SOL    HW116022   3.904   3.825   5.601 -0.0737 -0.9823  0.4493
 1520SOL    HW216023   3.966   3.773   5.486 -0.2246  1.5174 -0.2552
 1521SOL     OW16024   4.409   2.839   0.864 -0.6572 -0.4205 -0.1363
 1521SOL    HW116025   4.412   2.746   0.839 -1.8026 -0.4526 -0.1820
 1521SOL    HW216026   4.362   2.877   0.790  1.1847  1.3529 -0.3838
 1522SOL     OW16027   0.538   4.484   2.952  0.2603  0.4819 -0.4998
 1522SOL    HW116028   0.524   4.575   2.978  2.4927  0.9449 -0.8742
 1522SOL    HW216029   0.533   4.437   3.035 -0.6461 -2.2897 -2.1360
 1523SOL     OW16030   4.178   4.370   5.437 -0.3691  0.4365 -0.0554
 1523SOL    HW116031   4.088   4.386   5.463  0.3148 -0.3271  2.7274
 1523SOL    HW216032   4.227   4.447   5.467  0.9687  0.1326 -1.4354
 1524SOL     OW16033   3.850   1.366  14.493 -0.6584 -0.3840  0.5821
 1524SOL    HW116034   3.906   1.319  14.432 -0.2626 -2.1215  2.2928
 1524SOL    HW216035   3.856   1.458  14.467  1.9818 -1.5677 -2.9547
 1525SOL     OW16036   2.843   3.005   8.216 -0.7903 -0.0836 -0.4138
 1525SOL    HW116037   2.924   3.026   8.261 -1.4733 -1.3338  1.3969
 1525SOL    HW216038   2.847   2.909   8.218 -2.2378 -0.1269  0.3058
 1526SOL     OW16039   4.700   4.033  17.236  0.4334  0.5145 -0.2882
 1526SOL    HW116040   4.695   4.025  17.141  0.6551  1.8550 -0.4044
 1526SOL    HW216041   0.026   3.951  17.258  0.3070  0.4228 -0.3658
 1527SOL     OW16042   3.913   1.627   3.302 -0.2061  0.1339 -0.0528
 1527SOL    HW116043   3.843   1.593   3.357 -2.4900 -1.5547 -3.9758
 1527SOL    HW216044   3.917   1.710   3.350 -0.4936 -0.3948  0.8678
 1528SOL     OW16045   0.693   1.550  16.446 -0.1757 -0.0840 -0.3229
 1528SOL    HW116046   0.676   1.611  16.374 -0.0224  0.3674  0.0214
 1528SOL    HW216047   0.788   1.542  16.446 -0.3249 -1.9293 -0.9269
 1529SOL     OW16048   4.111   0.388   5.902 -0.0988 -0.1139  0.3440
 1529SOL    HW116049   4.131   0.461   5.961  1.9232  0.2392 -0.7740
 1529SOL    HW216050   4.181   0.411   5.841  0.6655 -1.4499  0.7324
 1530SOL     OW16051   1.817   4.564   3.334 -0.4601 -0.1023  0.2984
 1530SOL    HW116052   1.722   4.554   3.341 -0.5677  0.0325 -0.9842
 1530SOL    HW216053   1.845   4.484   3.291  1.2218  1.9113 -2.3206
 1531SOL     OW16054   2.788   2.719   0.784  0.1417 -0.0989  0.0804
 1531SOL    HW116055   2.734   2.744   0.859 -2.3226 -0.7883 -1.5009
 1531SOL    HW216056   2.738   2.639   0.767  3.1888 -2.4863  2.3085
 1532SOL     OW16057   2.650   2.189  12.405  0.2951  0.0640 -0.1481
 1532SOL    HW116058   2.642   2.251  12.477 -2.5773 -0.2844 -0.1927
 1532SOL    HW216059   2.583   2.126  12.431  1.3651  0.2441  3.0910
 1533SOL     OW16060   0.772   1.502  15.845  0.1470 -0.3072  0.4892
 1533SOL    HW116061   0.757   1.431  15.784  0.5847  0.2702 -0.2911
 1533SOL    HW216062   0.688   1.545  15.825  0.8902  0.4947 -0.8772
 1534SOL     OW16063   1.599   2.763  16.847 -0.6303  0.3547  0.0137
 1534SOL    HW116064   1.689   2.792  16.861 -0.1997 -0.7967 -0.3770
 1534SOL    HW216065   1.551   2.842  16.871 -0.9854  0.2954 -0.4917
 1535SOL     OW16066   1.120   0.892   5.119  0.1750 -0.4722 -0.2090
 1535SOL    HW116067   1.212   0.902   5.097  0.8142 -0.6584  2.3137
 1535SOL    HW216068   1.105   0.797   5.115 -0.6961 -0.3503  0.1117
 1536SOL     OW16069   3.546   3.019  14.152 -0.1267  0.9538 -0.1844
 1536SOL    HW116070   3.601   3.093  14.127 -0.9464  1.6345  0.0052
 1536SOL    HW216071   3.474   3.027  14.090  0.7341 -0.6887 -1.3897
 1537SOL     OW16072   0.857   2.075   2.169 -0.1990 -0.4720 -0.0205
 1537SOL    HW116073   0.863   2.166   2.141  0.7270  0.2882  2.6700
 1537SOL    HW216074   0.944   2.079   2.209  0.1547  0.9409 -0.9433
 1538SOL     OW16075   4.015   3.333   5.848 -0.8829  0.1018  0.4922
 1538SOL    HW116076   4.082   3.356   5.784  1.6823 -1.6440  2.5285
 1538SOL    HW216077   4.037   3.394   5.919  0.6988 -0.5435  0.5389
 1539SOL     OW16078   2.686   2.597   7.513  0.1218  0.0108  0.4763
 1539SOL    HW116079   2.662   2.506   7.498  0.7312 -0.2588  1.1463
 1539SOL    HW216080   2.605   2.630   7.553  0.3402  1.9198 -0.6420
 1540SOL     OW16081   2.197   3.154   1.890 -0.1803  0.2314  0.3727
 1540SOL    HW116082   2.191   3.227   1.952  1.1996  0.5074  0.1631
 1540SOL    HW216083   2.149   3.085   1.936  1.2227  0.9230  2.8648
 1541SOL     OW16084   1.935   0.927  10.996 -0.7874  0.0155 -0.3761
 1541SOL    HW116085   1.974   1.003  11.040 -1.7708  0.6937 -0.6661
 1541SOL    HW216086   1.858   0.973  10.961 -0.5118  2.4816  2.2308
 1542SOL     OW16087   0.144   3.477   7.325  0.6692 -0.2611  0.2490
 1542SOL    HW116088   0.156   3.426   7.245  1.8119  1.4648 -0.6787
 1542SOL    HW216089   0.198   3.431   7.390  1.9103  0.5828 -0.1831
 1543SOL     OW16090   1.885   3.301   1.137  0.2752 -0.1894 -0.4214
 1543SOL    HW116091   1.903   3.354   1.059  2.6725  0.3145  0.4577
 1543SOL    HW216092   1.804   3.346   1.161 -0.7886 -3.2925  1.7646
 1544SOL     OW16093   0.953   1.897   0.257  0.3596 -0.1987 -0.0429
 1544SOL    HW116094   1.015   1.916   0.327 -0.3521  2.2013 -0.0793
 1544SOL    HW216095   0.884   1.864   0.314  0.2397 -1.2905 -0.7990
 1545SOL     OW16096   1.696   0.999  10.912  0.1092 -0.8187 -0.3919
 1545SOL    HW116097   1.703   0.997  10.816  0.3133 -1.7610 -0.3503
 1545SOL    HW216098   1.603   0.991  10.934  0.3941 -0.0889  1.0583
 1546SOL     OW16099   3.333   2.472  15.747 -0.0239 -0.1307 -0.5478
 1546SOL    HW116100   3.330   2.553  15.799 -1.5999 -0.1549 -0.6171
 1546SOL    HW216101   3.397   2.489  15.678  1.5895  0.6077  1.1398
 1547SOL     OW16102   4.279   4.069   9.107 -0.1867 -0.3625 -0.3867
 1547SOL    HW116103   4.282   4.050   9.014 -0.1167  0.2040 -0.4999
 1547SOL    HW216104   4.372   4.066   9.129 -0.4038  3.1282  0.9161
 1548SOL     OW16105   4.497   2.496   2.884  0.4826  0.1090 -0.2376
 1548SOL    HW116106   4.534   2.571   2.931 -2.0264  0.5114  1.1002
 1548SOL    HW216107   4.578   2.474   2.839  0.5495  5.3609 -2.7381
 1549SOL     OW16108   3.678   0.943   3.716 -0.7834  0.0503  0.1787
 1549SOL    HW116109   3.746   0.887   3.753 -0.6802 -0.2985 -0.5500
 1549SOL    HW216110   3.668   0.900   3.631  0.4683  2.4151 -1.1482
 1550SOL     OW16111   0.620   2.469   3.380  0.3104 -0.4532  0.2973
 1550SOL    HW116112   0.541   2.415   3.373 -0.6392  0.6646  2.5181
 1550SOL    HW216113   0.687   2.401   3.373  0.1642 -0.3156 -2.3978
 1551SOL     OW16114   0.023   4.444   8.355 -0.7544  0.4435 -0.1514
 1551SOL    HW116115   4.663   4.498   8.351 -0.6847  0.5322 -0.3598
 1551SOL    HW216116   4.718   4.385   8.284 -0.6894  0.4575 -0.1859
 1552SOL     OW16117   1.549   2.276   1.699 -0.3823 -0.2832 -0.2512
 1552SOL    HW116118   1.501   2.196   1.716  0.9865 -0.6574  1.8901
 1552SOL    HW216119   1.506   2.339   1.756  0.5932 -0.2515  0.4534
 1553SOL     OW16120   1.341   2.939   0.058 -0.1832 -0.2899 -0.5061
 1553SOL    HW116121   1.256   2.954   0.102  0.2629 -0.0607  0.2836
 1553SOL    HW216122   1.336   3.009  17.674  1.7405  0.7356  0.4500
 1554SOL     OW16123   3.712   3.660  15.427  0.0438 -0.2287  0.3282
 1554SOL    HW116124   3.686   3.626  15.342 -0.3078 -4.2509  2.0145
 1554SOL    HW216125   3.803   3.684  15.410 -0.0339 -0.4065 -0.3123
 1555SOL     OW16126   1.622   1.568   5.199 -0.1418  0.0178  0.1803
 1555SOL    HW116127   1.615   1.476   5.174 -0.7610 -0.3653  1.8185
 1555SOL    HW216128   1.696   1.589   5.141  0.5808 -4.4519 -0.5138
 1556SOL     OW16129   3.601   2.990  16.014  0.1005  0.3002  0.2178
 1556SOL    HW116130   3.691   3.015  15.996  0.2189 -0.4381 -0.2135
 1556SOL    HW216131   3.569   3.072  16.051 -0.5962 -0.1759  0.6673
 1557SOL     OW16132   4.023   3.760   2.301  0.1752  0.3199 -0.5018
 1557SOL    HW116133   4.047   3.818   2.229  1.8089  0.7537  0.3839
 1557SOL    HW216134   4.006   3.677   2.257 -2.7481  0.6050  0.0665
 1558SOL     OW16135   2.109   4.578   4.678 -0.2236  0.4605 -0.1838
 1558SOL    HW116136   2.138   4.638   4.610 -0.8571  0.7702 -0.1827
 1558SOL    HW216137   2.041   4.521   4.642  0.8677 -1.0079  0.0870
 1559SOL     OW16138   2.443   2.805  13.591 -0.0466  0.0329  0.5993
 1559SOL    HW116139   2.454   2.729  13.648  0.8718  0.0553  0.4396
 1559SOL    HW216140   2.360   2.829  13.634 -1.1306  0.8540 -1.9616
 1560SOL     OW16141   0.256   2.550   2.195 -0.4309  0.5884  0.3324
 1560SOL    HW116142   0.228   2.475   2.143 -0.2501  0.2887  0.6629
 1560SOL    HW216143   0.313   2.508   2.260 -1.7393  1.2391  1.9004
 1561SOL     OW16144   1.815   1.408  11.685  0.2944 -0.0295 -0.4759
 1561SOL    HW116145   1.793   1.489  11.730  1.6543  0.2632 -0.3573
 1561SOL    HW216146   1.872   1.357  11.742  0.1122  1.4520  1.0266
 1562SOL     OW16147   0.198   0.929   7.438  0.4134  0.0625 -0.5760
 1562SOL    HW116148   0.125   0.937   7.500  0.3982  1.1054 -0.7235
 1562SOL    HW216149   0.244   1.012   7.450  0.6780 -0.2122  0.3074
 1563SOL     OW16150   3.189   3.431   7.486 -0.3236 -0.3035  0.7123
 1563SOL    HW116151   3.136   3.508   7.470  0.8984  0.1332 -1.2929
 1563SOL    HW216152   3.227   3.419   7.399 -0.4427  1.8649  0.3597
 1564SOL     OW16153   2.588   0.861  14.912 -0.0515 -0.5029  0.0795
 1564SOL    HW116154   2.582   0.830  14.822  0.5574  0.1989 -0.2030
 1564SOL    HW216155   2.666   0.816  14.944  0.0145  0.5638  1.4132
 1565SOL     OW16156   3.040   1.935  12.878  0.5992  0.3135  0.1475
 1565SOL    HW116157   3.093   1.862  12.847 -1.0462 -1.9295  2.6104
 1565SOL    HW216158   2.951   1.900  12.877  0.4172  0.7639  1.0384
 1566SOL     OW16159   4.180   1.941  17.248  0.1275 -0.9951  0.1091
 1566SOL    HW116160   4.168   1.972  17.338 -0.4764 -1.5155  0.2103
 1566SOL    HW216161   4.214   2.021  17.208 -1.4106 -1.8184 -2.8944
 1567SOL     OW16162   2.289   1.869   5.673 -0.0874  0.2619  0.0410
 1567SOL    HW116163   2.229   1.912   5.734  2.1141  0.8171  1.8414
 1567SOL    HW216164   2.307   1.944   5.616  1.5354  0.1874  0.4368
 1568SOL     OW16165   4.397   2.022   6.508 -0.1214 -0.2149  0.1311
 1568SOL    HW116166   4.326   1.958   6.515  0.2894 -0.6114  0.6743
 1568SOL    HW216167   4.462   1.972   6.557  0.2679  0.2828  0.1183
 1569SOL     OW16168   3.980   3.418   8.291  1.0529  0.1112  0.1901
 1569SOL    HW116169   3.922   3.411   8.215  0.8021 -1.4629  0.5375
 1569SOL    HW216170   3.922   3.386   8.360  1.0040 -0.1944  0.0097
 1570SOL     OW16171   2.454   0.482   2.865  0.3827  0.4326  0.2329
 1570SOL    HW116172   2.427   0.491   2.773  0.6681  2.6670  0.3664
 1570SOL    HW216173   2.376   0.443   2.905  1.5515 -1.1481  0.9739
 1571SOL     OW16174   1.480   3.480  13.310  0.2850 -0.7924  0.1906
 1571SOL    HW116175   1.500   3.568  13.344  0.3522 -0.2987 -1.1279
 1571SOL    HW216176   1.502   3.435  13.391  0.2872  0.0955  0.6853
 1572SOL     OW16177   2.030   0.422  14.373 -0.2956  0.1253  0.2170
 1572SOL    HW116178   1.985   0.423  14.458 -0.5100  0.0794  0.1030
 1572SOL    HW216179   1.959   0.445  14.313  1.5070  1.2016 -1.4842
 1573SOL     OW16180   0.013   1.161   8.206 -0.2841 -0.0364 -0.2026
 1573SOL    HW116181   0.002   1.248   8.243  1.8226 -1.3431  3.5327
 1573SOL    HW216182   4.644   1.131   8.226  0.6206 -0.7900  2.6166
 1574SOL     OW16183   2.108   3.989  14.636 -0.0803  0.4093  0.0144
 1574SOL    HW116184   2.088   4.007  14.545  1.8078  0.1404 -0.4480
 1574SOL    HW216185   2.021   3.955  14.659 -0.4177  0.0276 -1.8981
 1575SOL     OW16186   1.688   1.519   1.841 -0.1494 -0.8977 -0.4874
 1575SOL    HW116187   1.691   1.610   1.811 -2.5509 -0.7073 -0.1646
 1575SOL    HW216188   1.758   1.473   1.794 -0.1706 -0.0440 -1.3529
 1576SOL     OW16189   2.555   2.838   6.896 -0.4813  0.0497  0.1862
 1576SOL    HW116190   2.643   2.852   6.932 -0.4683 -0.5628  0.4002
 1576SOL    HW216191   2.587   2.820   6.808 -1.6717  0.8550 -0.4028
 1577SOL     OW16192   3.890   3.584   6.652 -0.0561  0.1953  0.0830
 1577SOL    HW116193   3.854   3.666   6.616 -0.9457 -0.0519  0.4165
 1577SOL    HW216194   3.968   3.586   6.597  0.1363  1.4733  0.3886
 1578SOL     OW16195   3.042   3.497  11.239  0.3256 -0.2149  0.2568
 1578SOL    HW116196   2.951   3.500  11.269 -0.1335  0.9958 -1.2843
 1578SOL    HW216197   3.042   3.424  11.177 -1.6466 -0.2885  0.3484
 1579SOL     OW16198   4.552   3.616  14.857 -0.0274 -0.0466 -0.0180
 1579SOL    HW116199   4.621   3.552  14.844 -0.2208 -0.6832  2.1931
 1579SOL    HW216200   4.545   3.678  14.784 -0.0588  0.1193  0.1278
 1580SOL     OW16201   2.724   1.606   3.624 -0.1869 -0.5301 -0.0502
 1580SOL    HW116202   2.818   1.624   3.629  0.1868 -1.8525 -2.2862
 1580SOL    HW216203   2.689   1.690   3.652  1.0740  0.2932 -0.9568
 1581SOL     OW16204   2.497   3.523   1.255  0.1878  0.1005 -0.4620
 1581SOL    HW116205   2.429   3.588   1.235  1.2811  1.5918  0.6294
 1581SOL    HW216206   2.542   3.568   1.327  0.0349  1.2159 -1.0543
 1582SOL     OW16207   3.170   4.656  15.173 -0.3988  0.3935  0.0670
 1582SOL    HW116208   3.195   0.027  15.190 -0.0286  0.2268  0.3976
 1582SOL    HW216209   3.111   4.644  15.248  0.5644  0.7720  0.8775
 1583SOL     OW16210   3.733   3.639  14.886 -0.4436 -0.5695 -0.4068
 1583SOL    HW116211   3.789   3.633  14.963  2.1580  1.8639 -2.1142
 1583SOL    HW216212   3.761   3.570  14.827  0.3178 -1.7104  1.3016
 1584SOL     OW16213   1.951   2.672  15.076 -0.2954 -0.2865 -0.2710
 1584SOL    HW116214   2.027   2.627  15.039 -2.4132 -2.4508 -1.9779
 1584SOL    HW216215   1.903   2.596  15.108 -0.4096 -0.8902 -1.9014
 1585SOL     OW16216   3.448   0.307   9.167  0.1784  0.1414 -0.6225
 1585SOL    HW116217   3.500   0.228   9.180  0.3983 -0.0281 -2.5285
 1585SOL    HW216218   3.437   0.328   9.260  2.9844  0.8673 -0.4736
 1586SOL     OW16219   0.598   1.828   0.364 -0.0741  0.4768 -0.1757
 1586SOL    HW116220   0.543   1.767   0.314 -4.1162  1.3116  3.2456
 1586SOL    HW216221   0.681   1.782   0.378  0.9004  2.1752 -0.4380
 1587SOL     OW16222   2.767   3.980   2.203  0.8562  0.1539  0.0255
 1587SOL    HW116223   2.682   3.963   2.161 -0.7390 -0.5726  3.5551
 1587SOL    HW216224   2.832   3.964   2.134  1.4897  0.5830  0.5298
 1588SOL     OW16225   2.548   1.174   2.505 -0.3052  0.5557 -0.2021
 1588SOL    HW116226   2.465   1.192   2.549 -1.6304 -0.4967 -2.2678
 1588SOL    HW216227   2.575   1.261   2.473  1.4135  0.8196  1.9351
 1589SOL     OW16228   4.354   1.370  10.325 -0.0218  0.2103 -0.0735
 1589SOL    HW116229   4.310   1.287  10.305  2.9677 -1.0201 -1.5823
 1589SOL    HW216230   4.277   1.418  10.353  0.3720  1.1315 -0.5910
 1590SOL     OW16231   2.846   4.361  11.175  0.5135  0.1314  0.1108
 1590SOL    HW116232   2.765   4.322  11.207  0.6490 -1.1936 -1.2064
 1590SOL    HW216233   2.849   4.437  11.233 -0.3666 -2.5614  3.6962
 1591SOL     OW16234   2.691   2.086   9.762 -0.6247  0.4911 -0.0890
 1591SOL    HW116235   2.678   1.992   9.753  0.0608  0.3217  0.6957
 1591SOL    HW216236   2.683   2.097   9.857  0.1872  1.4222 -0.1308
 1592SOL     OW16237   3.791   4.126   4.243  0.4117 -0.4021  0.7989
 1592SOL    HW116238   3.832   4.204   4.205 -0.3552 -1.0366 -1.3346
 1592SOL    HW216239   3.801   4.156   4.334 -2.6141 -1.5567  1.5140
 1593SOL     OW16240   0.236   4.542   4.195 -0.3095 -0.6679  0.2370
 1593SOL    HW116241   0.256   4.455   4.162  0.6718 -0.3075 -0.1116
 1593SOL    HW216242   0.247   4.598   4.118 -1.1340 -0.0038  0.5871
 1594SOL     OW16243   0.619   0.436   5.192 -0.3739  0.5679  0.6426
 1594SOL    HW116244   0.650   0.370   5.129  0.5489 -0.1494  1.8489
 1594SOL    HW216245   0.597   0.392   5.274 -1.5486 -1.1338 -0.5678
 1595SOL     OW16246   4.140   0.646   7.364  0.1579 -0.0236 -0.1669
 1595SOL    HW116247   4.167   0.617   7.277  2.3416 -3.7661  1.7515
 1595SOL    HW216248   4.187   0.729   7.361  3.5024 -1.8858  0.4711
 1596SOL     OW16249   3.448   4.424  14.969  0.3857 -0.0851  0.0600
 1596SOL    HW116250   3.537   4.397  14.991 -0.1872 -2.1917 -0.1468
 1596SOL    HW216251   3.449   4.480  14.891 -0.3056  1.3330  1.0827
 1597SOL     OW16252   2.728   2.983   4.511 -0.5362 -0.0516  0.2144
 1597SOL    HW116253   2.672   3.026   4.576  0.1372  0.8697  0.1896
 1597SOL    HW216254   2.661   2.936   4.463 -1.5158  1.2347  0.3297
 1598SOL     OW16255   2.327   3.431   7.968  0.1019  0.4434  0.4620
 1598SOL    HW116256   2.374   3.447   8.050  2.1019  1.5896 -0.8991
 1598SOL    HW216257   2.244   3.475   7.985 -0.4488 -0.0004 -1.0459
 1599SOL     OW16258   3.123   1.179   7.372 -0.0122 -0.0967  0.1325
 1599SOL    HW116259   3.065   1.223   7.434 -0.5866  1.1158 -1.2606
 1599SOL    HW216260   3.074   1.102   7.345  0.8564 -0.1651 -1.2369
 1600SOL     OW16261   3.202   4.102   6.819  0.6026 -0.5701  0.5224
 1600SOL    HW116262   3.219   4.041   6.890  0.0155 -0.3627  0.8471
 1600SOL    HW216263   3.279   4.159   6.826  0.5869 -0.4438 -0.2485
 1601SOL     OW16264   3.989   2.539   7.688  0.4493  0.3667  0.4051
 1601SOL    HW116265   4.027   2.592   7.618  1.6185  0.9744  1.5009
 1601SOL    HW216266   4.022   2.579   7.769  1.0988  1.1510 -0.2386
 1602SOL     OW16267   0.727   4.461   2.758  0.2015  0.4610 -0.8147
 1602SOL    HW116268   0.657   4.459   2.823 -0.3856 -0.6640 -1.4742
 1602SOL    HW216269   0.715   4.555   2.740 -1.9322  0.3921  0.2168
 1603SOL     OW16270   3.090   2.490  17.391  0.3350  0.2253 -0.2501
 1603SOL    HW116271   3.097   2.396  17.377 -0.5660  0.1362 -0.0863
 1603SOL    HW216272   3.009   2.488  17.442  1.1849 -0.8329  1.0645
 1604SOL     OW16273   4.460   3.195   6.017 -0.3479 -0.2407  0.0889
 1604SOL    HW116274   4.417   3.111   6.029  3.5933 -2.3326 -0.2994
 1604SOL    HW216275   4.500   3.211   6.102  0.6008  0.0170 -0.4091
 1605SOL     OW16276   2.931   3.930   9.051  0.0202 -0.2693  0.6415
 1605SOL    HW116277   2.951   3.837   9.046  2.1159  0.3151 -1.8631
 1605SOL    HW216278   2.903   3.939   9.142 -0.2148  1.5459  0.3969
 1606SOL     OW16279   3.887   3.061  15.966 -0.1881 -0.7237 -0.4119
 1606SOL    HW116280   3.887   3.108  15.882  1.5824 -1.9464 -1.1118
 1606SOL    HW216281   3.930   2.979  15.941 -0.1485 -1.3310  1.6769
 1607SOL     OW16282   3.864   4.494  13.265  0.1652 -0.4913 -0.4381
 1607SOL    HW116283   3.780   4.487  13.310  0.2429  0.9819 -0.0628
 1607SOL    HW216284   3.837   4.523  13.178 -0.1548 -1.5914 -0.7049
 1608SOL     OW16285   4.533   4.137   0.457 -0.4819  0.2801  0.4516
 1608SOL    HW116286   4.547   4.200   0.528  1.2467 -0.2006  0.5361
 1608SOL    HW216287   4.479   4.075   0.505  1.4602 -0.9064  1.1194
 1609SOL     OW16288   0.597   4.263   0.973 -0.3753  0.5159  0.0618
 1609SOL    HW116289   0.621   4.212   0.895 -1.9806  1.0371 -0.7660
 1609SOL    HW216290   0.648   4.220   1.042 -1.1069 -2.0596 -0.9811
 1610SOL     OW16291   0.911   3.380   6.747  0.4897  0.2298 -0.0979
 1610SOL    HW116292   0.879   3.463   6.711  0.5504 -0.1960 -1.1395
 1610SOL    HW216293   0.922   3.331   6.665 -0.1354 -0.0544 -0.0152
 1611SOL     OW16294   2.158   0.252  16.324  0.0382  0.1649  0.5656
 1611SOL    HW116295   2.109   0.227  16.403 -1.5330  0.5401 -0.2836
 1611SOL    HW216296   2.213   0.321  16.361  0.8108  0.1263 -0.5395
 1612SOL     OW16297   1.152   4.560   0.228 -0.2099  0.3843 -0.0464
 1612SOL    HW116298   1.084   4.496   0.247 -0.1073 -0.3262 -2.0838
 1612SOL    HW216299   1.221   4.499   0.201 -2.0524 -1.7585  0.1238
 1613SOL     OW16300   2.902   1.152   2.941 -0.2165  0.1423  0.0574
 1613SOL    HW116301   2.878   1.203   3.018  1.7901 -1.0259  1.4428
 1613SOL    HW216302   2.950   1.221   2.894  0.1856  1.1790  2.0046
 1614SOL     OW16303   1.152   0.115   1.023  0.1956  0.1116 -0.5794
 1614SOL    HW116304   1.164   0.109   1.117 -1.5228  2.0136 -0.2444
 1614SOL    HW216305   1.216   0.178   0.991  0.3471  0.2576  0.0176
 1615SOL     OW16306   4.381   2.823  15.474 -0.2227  0.0304  0.1571
 1615SOL    HW116307   4.361   2.734  15.443 -0.2031  0.8143 -2.1280
 1615SOL    HW216308   4.438   2.808  15.549  0.0914 -0.1817 -0.1232
 1616SOL     OW16309   3.979   3.331   3.479  0.5430 -0.1437 -0.0566
 1616SOL    HW116310   4.025   3.401   3.525  0.4486  0.6921 -1.2665
 1616SOL    HW216311   3.978   3.273   3.555 -1.4597  0.3177  0.2686
 1617SOL     OW16312   1.350   0.556   5.039 -0.0051 -0.3545  0.2484
 1617SOL    HW116313   1.283   0.597   5.094 -1.4765 -0.7016 -1.2660
 1617SOL    HW216314   1.341   0.611   4.961  1.6005  3.5162  2.8046
 1618SOL     OW16315   3.891   2.013   1.965  0.3253 -0.1505  0.4464
 1618SOL    HW116316   3.973   2.050   1.933 -1.3939  1.8391 -1.6821
 1618SOL    HW216317   3.862   2.065   2.040 -2.2394 -0.1702 -0.5585
 1619SOL     OW16318   3.546   0.177   9.868  0.7035 -0.0028  0.1407
 1619SOL    HW116319   3.477   0.232   9.833  0.4583  0.4041  1.2568
 1619SOL    HW216320   3.520   0.165   9.959 -2.7224  2.1478 -0.5951
 1620SOL     OW16321   1.346   3.139   1.395  0.6371 -0.2810 -0.5201
 1620SOL    HW116322   1.339   3.200   1.469 -2.2365  1.1471 -1.9541
 1620SOL    HW216323   1.288   3.069   1.425 -0.4178  0.6517 -0.3927
 1621SOL     OW16324   3.026   1.008   6.019  0.0308 -0.3130 -0.3869
 1621SOL    HW116325   3.078   0.942   5.974  1.1542  0.3328 -0.0206
 1621SOL    HW216326   2.977   0.959   6.085 -0.4704 -0.0767 -0.5815
 1622SOL     OW16327   0.146   1.728  11.022 -0.3588 -0.2045 -0.0503
 1622SOL    HW116328   0.173   1.782  11.096 -0.1702 -1.5810  0.8872
 1622SOL    HW216329   0.226   1.684  10.993 -0.7973 -2.0898  1.5886
 1623SOL     OW16330   4.587   2.238   8.195  1.5062 -0.1335  1.3263
 1623SOL    HW116331   4.614   2.210   8.282  2.9776 -0.0296  0.9055
 1623SOL    HW216332   4.598   2.333   8.189 -3.4595  0.3581  0.2510
 1624SOL     OW16333   1.721   2.840  12.632 -0.3241  0.3616  0.0540
 1624SOL    HW116334   1.641   2.847  12.683 -0.6023 -0.0742 -0.3215
 1624SOL    HW216335   1.791   2.862  12.694 -1.7889  4.5331  0.2224
 1625SOL     OW16336   2.581   2.667   0.363  0.3191 -0.0770  0.1007
 1625SOL    HW116337   2.594   2.577   0.334 -0.4821 -0.0569 -0.3225
 1625SOL    HW216338   2.649   2.678   0.430 -0.1339  1.8907  0.2436
 1626SOL     OW16339   3.680   3.130   3.220  0.2006  0.5019 -0.0965
 1626SOL    HW116340   3.717   3.217   3.204 -1.2860  1.1377 -0.0527
 1626SOL    HW216341   3.640   3.120   3.133  0.0477  0.4945 -0.0247
 1627SOL     OW16342   2.487   0.950  11.821  0.0730 -0.3948  0.2106
 1627SOL    HW116343   2.432   0.949  11.899 -1.9278 -0.3393 -1.1948
 1627SOL    HW216344   2.427   0.980  11.753 -0.9101 -2.9760 -0.0783
 1628SOL     OW16345   4.481   1.792   1.806  0.1705 -0.2959  0.1076
 1628SOL    HW116346   4.444   1.739   1.735 -0.0697 -0.8051  0.6186
 1628SOL    HW216347   4.499   1.726   1.873 -1.1760 -0.4872  0.2837
 1629SOL     OW16348   0.606   3.161   2.920  0.0256 -0.3916  0.3449
 1629SOL    HW116349   0.676   3.096   2.919  0.5677  0.1790  2.3933
 1629SOL    HW216350   0.642   3.239   2.962  0.0038  0.2581 -0.8296
 1630SOL     OW16351   0.321   3.507  16.254  0.2654  0.2848  0.4774
 1630SOL    HW116352   0.275   3.479  16.175  0.0589  1.1974  0.2696
 1630SOL    HW216353   0.248   3.537  16.308 -1.6269 -2.6225 -0.5071
 1631SOL     OW16354   2.541   0.666   8.215  0.3420  0.1514  0.3567
 1631SOL    HW116355   2.468   0.606   8.200 -0.0741  0.4104  1.3450
 1631SOL    HW216356   2.609   0.603   8.193  0.2668  0.0157  0.5134
 1632SOL     OW16357   1.011   0.185   3.633 -0.5604 -0.4873  0.1049
 1632SOL    HW116358   1.099   0.157   3.657 -0.9908  0.0906  2.2931
 1632SOL    HW216359   0.967   0.102   3.611 -0.3412 -0.9910  1.6003
 1633SOL     OW16360   0.584   1.765   8.894  0.7663  0.2745 -0.3902
 1633SOL    HW116361   0.585   1.857   8.920  0.5542  0.4387 -0.9805
 1633SOL    HW216362   0.605   1.718   8.975  1.4214  1.2513  0.0066
 1634SOL     OW16363   1.182   0.262   5.692 -0.3522  0.3428 -0.7164
 1634SOL    HW116364   1.214   0.182   5.650 -0.2236 -0.7465  1.4220
 1634SOL    HW216365   1.101   0.231   5.734  0.0287  2.0755  1.2945
 1635SOL     OW16366   0.371   1.067   3.729 -0.4752 -0.7299 -0.2532
 1635SOL    HW116367   0.420   1.016   3.664  1.5755  3.2544 -1.8565
 1635SOL    HW216368   0.321   1.135   3.684 -0.7012 -0.6905  0.0644
 1636SOL     OW16369   2.958   3.984   6.578  0.0269 -0.1661 -0.6764
 1636SOL    HW116370   3.004   3.978   6.662 -0.4476 -1.4869 -0.4984
 1636SOL    HW216371   2.879   4.030   6.606 -0.6998 -0.9041 -1.5246
 1637SOL     OW16372   2.318   3.812   5.348 -0.3972  0.6561  0.4126
 1637SOL    HW116373   2.247   3.799   5.285 -0.1740  0.5775  0.1795
 1637SOL    HW216374   2.281   3.790   5.434 -1.3849 -4.0498 -1.2106
 1638SOL     OW16375   0.568   4.551  13.039 -0.2000 -0.2149 -0.2987
 1638SOL    HW116376   0.490   4.603  13.058  1.0967  1.6197  0.0072
 1638SOL    HW216377   0.600   4.609  12.970 -0.7650  1.1618  0.6130
 1639SOL     OW16378   2.601   0.961  12.101 -0.3082 -0.0604 -0.0583
 1639SOL    HW116379   2.681   0.977  12.151  0.2421  0.2918 -1.0509
 1639SOL    HW216380   2.607   1.028  12.033  0.1127  0.8987  0.9192
 1640SOL     OW16381   3.329   3.910   1.589 -0.0656 -0.3874 -0.1415
 1640SOL    HW116382   3.275   3.867   1.523  0.0923 -1.5821  0.5067
 1640SOL    HW216383   3.380   3.970   1.536 -2.2594  2.7146  1.2514
 1641SOL     OW16384   2.857   1.361   2.629 -0.0969  0.4679  0.0277
 1641SOL    HW116385   2.844   1.404   2.714 -0.4024 -1.8146  1.1355
 1641SOL    HW216386   2.789   1.404   2.577  0.7048  1.4089 -0.2390
 1642SOL     OW16387   1.298   3.933  16.029  0.0694 -0.2963  0.1173
 1642SOL    HW116388   1.302   3.839  16.047  0.1789 -0.1240  0.9589
 1642SOL    HW216389   1.220   3.938  15.973 -0.2734 -0.9628  0.5269
 1643SOL     OW16390   1.084   3.073   2.835  0.3766 -0.0312 -0.3999
 1643SOL    HW116391   1.168   3.031   2.856  0.2152  0.8512  2.0607
 1643SOL    HW216392   1.122   3.154   2.803  0.0685 -0.0107 -0.7026
 1644SOL     OW16393   0.134   1.625   5.429  0.1647  0.8498 -0.0830
 1644SOL    HW116394   0.124   1.691   5.498 -0.3197  1.9364 -1.1910
 1644SOL    HW216395   0.229   1.615   5.424  0.0411  1.1321 -3.2819
 1645SOL     OW16396   3.896   2.958   6.320  0.0248 -0.0282  0.1083
 1645SOL    HW116397   3.887   3.049   6.349 -1.1965  0.1480 -0.8499
 1645SOL    HW216398   3.985   2.968   6.287  0.0493 -1.0187 -0.1378
 1646SOL     OW16399   3.771   3.052   7.529  0.2755 -0.2852  1.0149
 1646SOL    HW116400   3.681   3.083   7.543 -0.3364 -1.9148  0.6654
 1646SOL    HW216401   3.774   3.035   7.435  0.7849  2.1679  0.5759
 1647SOL     OW16402   0.554   2.752   4.288 -0.5004  0.0579 -0.1488
 1647SOL    HW116403   0.498   2.813   4.337  0.1414 -0.6093  1.4136
 1647SOL    HW216404   0.574   2.687   4.355  3.0065  1.9095  0.6212
 1648SOL     OW16405   0.799   0.498   4.283 -0.4108  0.3791  0.3239
 1648SOL    HW116406   0.723   0.440   4.275 -0.0042 -0.0649 -0.3133
 1648SOL    HW216407   0.748   0.575   4.255 -2.4430 -1.4948 -1.0850
 1649SOL     OW16408   3.008   2.228   4.151 -0.0419  0.4521 -0.1843
 1649SOL    HW116409   2.950   2.304   4.150 -1.7842 -0.8642 -0.5210
 1649SOL    HW216410   2.946   2.156   4.168  1.4491 -0.4136  1.4824
 1650SOL     OW16411   2.367   1.451   9.025  0.1720 -0.2116 -0.3828
 1650SOL    HW116412   2.402   1.524   8.975 -2.3146  0.3609 -1.2948
 1650SOL    HW216413   2.340   1.391   8.956  0.1999  0.5025 -1.0052
 1651SOL     OW16414   3.384   4.510   0.921  0.1881  0.4491 -0.2468
 1651SOL    HW116415   3.341   4.463   0.993  2.7330 -0.1673  0.8807
 1651SOL    HW216416   3.315   4.508   0.854  0.1885 -4.1446 -0.1177
 1652SOL     OW16417   1.125   2.544  10.673  0.0353 -0.3133 -0.0773
 1652SOL    HW116418   1.101   2.451  10.667 -0.6424 -0.0176 -2.1558
 1652SOL    HW216419   1.046   2.568  10.721 -0.7668  0.7239 -1.8901
 1653SOL     OW16420   3.949   4.417   0.948  0.1236 -0.2403  0.3286
 1653SOL    HW116421   3.990   4.433   0.863 -1.5357  0.2640 -0.3862
 1653SOL    HW216422   4.016   4.457   1.003 -0.0796 -0.6974  0.9094
 1654SOL     OW16423   3.239   4.704   5.967  0.9366  0.2586  0.0432
 1654SOL    HW116424   3.272   0.037   5.894 -1.7587  0.4063 -1.0464
 1654SOL    HW216425   3.309   0.001   6.031  0.0931 -2.4216  1.6452
 1655SOL     OW16426   0.472   2.963   9.198  0.0306  0.7081  0.3336
 1655SOL    HW116427   0.553   2.997   9.235  0.1304  1.6557 -0.7790
 1655SOL    HW216428   0.422   2.953   9.279 -1.6574 -0.3365 -0.8190
 1656SOL     OW16429   1.348   1.147  16.709  0.3888 -0.0305  0.1030
 1656SOL    HW116430   1.437   1.148  16.744  0.2942  1.7029  0.2992
 1656SOL    HW216431   1.356   1.092  16.631 -3.2228 -0.1618 -0.2044
 1657SOL     OW16432   4.461   2.905   9.293  0.8060 -0.0794 -0.2110
 1657SOL    HW116433   4.394   2.968   9.267 -1.5125 -2.4035  0.1488
 1657SOL    HW216434   4.531   2.967   9.313  0.5297  0.2843 -0.3746
 1658SOL     OW16435   3.790   3.655   7.611  0.5548 -0.1348 -0.7598
 1658SOL    HW116436   3.770   3.647   7.518 -0.6307 -1.4278 -0.3953
 1658SOL    HW216437   3.825   3.744   7.607 -1.3180  0.5477 -1.7772
 1659SOL     OW16438   0.992   4.055   8.197  0.6808 -0.2587  0.2154
 1659SOL    HW116439   0.918   4.113   8.179  0.4458 -0.6831 -0.1641
 1659SOL    HW216440   0.966   3.970   8.162 -0.2896  0.0159  0.2734
 1660SOL     OW16441   2.087   0.438  11.417 -0.1834 -0.2317 -0.0307
 1660SOL    HW116442   2.088   0.370  11.349  0.2653 -1.1334  0.8816
 1660SOL    HW216443   2.009   0.405  11.463 -1.0217  0.6936 -0.7789
 1661SOL     OW16444   0.174   1.605   4.879 -0.2961  0.5128  0.4637
 1661SOL    HW116445   0.268   1.617   4.864 -0.4101 -1.0390 -1.5907
 1661SOL    HW216446   0.160   1.684   4.930  0.1469  0.8460  0.0641
 1662SOL     OW16447   0.216   1.152   4.675 -0.3106  0.0721 -0.2756
 1662SOL    HW116448   0.202   1.186   4.763  0.1393 -1.3127  0.3277
 1662SOL    HW216449   0.181   1.229   4.631 -2.4027 -0.7504 -0.0084
 1663SOL     OW16450   1.245   2.369   7.133 -0.3324 -0.5504  0.5249
 1663SOL    HW116451   1.304   2.327   7.072  2.5753 -0.1265  3.0355
 1663SOL    HW216452   1.184   2.297   7.149 -0.4633 -0.6023 -0.2388
 1664SOL     OW16453   1.994   1.206  12.150 -0.3643 -0.1260 -0.0314
 1664SOL    HW116454   1.972   1.290  12.191  0.5993  1.7503 -3.3754
 1664SOL    HW216455   1.985   1.132  12.210 -3.8364 -0.4927 -1.0106
 1665SOL     OW16456   4.137   0.523   9.555  0.3869  0.3315  0.1696
 1665SOL    HW116457   4.110   0.586   9.488 -2.5541  0.8335  1.8073
 1665SOL    HW216458   4.216   0.565   9.587  0.8751  0.2769 -0.9791
 1666SOL     OW16459   3.689   2.610   4.204 -0.1575  0.3529 -0.3621
 1666SOL    HW116460   3.665   2.645   4.289 -0.7753  1.4533 -0.9884
 1666SOL    HW216461   3.747   2.540   4.234  0.8986  0.3325 -2.4571
 1667SOL     OW16462   3.926   2.756   3.586 -0.2211  0.2580 -0.3140
 1667SOL    HW116463   3.833   2.737   3.602 -0.3814  0.4316 -1.0335
 1667SOL    HW216464   3.923   2.846   3.554  1.0063 -0.8704 -3.5288
 1668SOL     OW16465   4.595   0.210   0.529 -0.4497  0.1741  0.2069
 1668SOL    HW116466   4.543   0.204   0.609  2.1953 -3.3848  1.6676
 1668SOL    HW216467   4.685   0.234   0.549 -1.3375  2.4212  1.4689
 1669SOL     OW16468   4.297   1.418  16.795 -0.1037  0.0843  0.0057
 1669SOL    HW116469   4.362   1.350  16.778 -0.1134  0.4415 -1.4677
 1669SOL    HW216470   4.329   1.487  16.736 -0.5024  0.2258 -0.0441
 1670SOL     OW16471   0.295   4.106   4.314 -0.1954 -0.4919  0.0379
 1670SOL    HW116472   0.361   4.068   4.372  2.1465 -0.9879 -2.9581
 1670SOL    HW216473   0.285   4.041   4.244  1.0106  0.9789 -1.4736
 1671SOL     OW16474   0.083   3.336   0.769 -0.1911  0.6736 -0.3275
 1671SOL    HW116475   0.101   3.402   0.702  0.0693  0.9091 -0.0256
 1671SOL    HW216476   0.144   3.368   0.836 -2.3731  0.4993  1.7182
 1672SOL     OW16477   3.223   2.933   9.393 -0.1151 -0.6589 -0.1718
 1672SOL    HW116478   3.146   2.919   9.338  0.5821 -0.3862 -1.2171
 1672SOL    HW216479   3.269   2.855   9.362  2.8068  1.0835 -0.1349
 1673SOL     OW16480   4.632   3.964   1.929 -0.0833 -0.6069 -0.1976
 1673SOL    HW116481   4.687   3.892   1.897 -0.7055 -1.6062  0.9497
 1673SOL    HW216482   4.669   3.973   2.017  2.3000 -0.1423 -1.2355
 1674SOL     OW16483   2.178   0.790  11.120  0.4015  0.0675  0.0599
 1674SOL    HW116484   2.249   0.805  11.058 -0.0505 -0.2890 -0.5329
 1674SOL    HW216485   2.100   0.817  11.072 -0.2180 -1.3770  0.2584
 1675SOL     OW16486   1.147   2.070   3.169 -0.0682 -0.3067 -0.3642
 1675SOL    HW116487   1.139   2.118   3.252  1.9123 -0.7916  0.1130
 1675SOL    HW216488   1.233   2.028   3.165 -0.1591 -0.6196  1.0482
 1676SOL     OW16489   1.787   0.052  13.731  0.0544  0.1679  0.0471
 1676SOL    HW116490   1.824   0.117  13.790 -2.9826  0.8256  1.2412
 1676SOL    HW216491   1.849   0.059  13.658 -1.1794 -3.5556 -1.3630
 1677SOL     OW16492   1.307   2.516   3.753 -0.6534  0.3974  0.3637
 1677SOL    HW116493   1.362   2.465   3.694 -0.9644 -0.5601  0.8942
 1677SOL    HW216494   1.224   2.516   3.706  0.7366  1.5892 -2.0882
 1678SOL     OW16495   1.340   1.085   4.332 -0.1672  0.6422  0.1475
 1678SOL    HW116496   1.357   1.023   4.261 -2.5943  2.3339 -1.9164
 1678SOL    HW216497   1.416   1.142   4.319  0.7209  0.0558  2.8513
 1679SOL     OW16498   3.751   3.490   2.384  0.8368  0.4603  0.0499
 1679SOL    HW116499   3.783   3.518   2.470  0.6170 -1.0062  0.6047
 1679SOL    HW216500   3.835   3.469   2.343  1.5342  1.6899  0.8849
 1680SOL     OW16501   1.350   4.625   8.898  0.7652 -0.0442 -0.0011
 1680SOL    HW116502   1.292   4.588   8.831 -0.7976  3.4223 -0.5141
 1680SOL    HW216503   1.280   4.648   8.959  2.0640  2.1083  0.6419
 1681SOL     OW16504   0.530   0.918   9.257 -0.1172  0.3431 -0.1648
 1681SOL    HW116505   0.493   0.867   9.330 -1.2133 -0.4588 -1.2804
 1681SOL    HW216506   0.463   0.984   9.238  1.3149  2.2983  1.4597
 1682SOL     OW16507   0.958   4.325   2.527 -0.2824  0.4320 -0.8239
 1682SOL    HW116508   1.032   4.267   2.513  1.8746  2.3131  2.7192
 1682SOL    HW216509   0.992   4.396   2.472  0.6946  1.2459  0.8371
 1683SOL     OW16510   0.072   0.935   4.787 -0.1478  0.0494  0.2424
 1683SOL    HW116511   0.140   0.997   4.760  0.6765 -0.2889  1.5541
 1683SOL    HW216512   4.711   0.965   4.744  0.7932  1.4098 -0.5639
 1684SOL     OW16513   0.720   4.160   1.568 -0.6567  0.4766 -0.0465
 1684SOL    HW116514   0.756   4.155   1.479 -0.9074  0.6158 -0.1570
 1684SOL    HW216515   0.670   4.240   1.554 -1.9005  0.0152  1.8258
 1685SOL     OW16516   2.011   2.112   2.628  0.1240  0.0895  0.0676
 1685SOL    HW116517   2.001   2.174   2.556  0.4065  0.5221  0.4001
 1685SOL    HW216518   1.925   2.071   2.642 -0.2310  0.2185 -1.7787
 1686SOL     OW16519   0.963   2.276   9.019 -0.0716  0.4134  0.7820
 1686SOL    HW116520   1.020   2.230   8.958 -1.2717  0.1891 -0.1681
 1686SOL    HW216521   0.962   2.222   9.098  1.0810 -0.4683  0.1927
 1687SOL     OW16522   1.782   2.435  15.134  0.0187  0.1630 -0.3150
 1687SOL    HW116523   1.828   2.437  15.219  1.5635  1.7298 -1.1866
 1687SOL    HW216524   1.706   2.490  15.153  0.1271 -0.7080  2.7466
 1688SOL     OW16525   3.059   2.533   1.907 -0.5423 -0.8022 -0.5720
 1688SOL    HW116526   3.133   2.590   1.929 -1.8338  0.4741  0.5346
 1688SOL    HW216527   2.993   2.554   1.974  1.3865  1.0611  0.7555
 1689SOL     OW16528   4.500   0.868   7.482 -0.9008 -0.4216 -0.3820
 1689SOL    HW116529   4.506   0.865   7.387  1.3296  0.4735 -0.2498
 1689SOL    HW216530   4.408   0.891   7.497 -1.0409 -0.4127 -1.3045
 1690SOL     OW16531   0.839   1.137   5.702  0.6502  0.5915  0.1901
 1690SOL    HW116532   0.865   1.140   5.794  2.0136  1.0411 -0.2140
 1690SOL    HW216533   0.770   1.202   5.689 -1.2666 -1.2976  0.8812
 1691SOL     OW16534   2.046   2.954   7.082 -0.0644 -0.2524 -0.1837
 1691SOL    HW116535   2.015   2.881   7.029  1.4277 -0.4508 -0.7896
 1691SOL    HW216536   2.065   3.016   7.011 -0.2425  0.3718  0.3064
 1692SOL     OW16537   4.069   0.672   7.685  0.0372  0.5283  0.3658
 1692SOL    HW116538   4.092   0.764   7.697  0.7076  0.4019  0.0483
 1692SOL    HW216539   4.106   0.664   7.598 -1.4375 -0.8105 -0.1494
 1693SOL     OW16540   1.710   2.924   6.161 -0.8685  0.1334  0.0130
 1693SOL    HW116541   1.655   2.973   6.100  0.7259  0.6466 -1.0134
 1693SOL    HW216542   1.756   2.992   6.211  0.0375  0.6183 -1.4692
 1694SOL     OW16543   4.019   3.232   3.230 -0.0159  0.3974  0.2703
 1694SOL    HW116544   3.952   3.271   3.174  0.1739 -0.5121 -0.5887
 1694SOL    HW216545   4.000   3.269   3.316  1.6356  0.9021  0.4239
 1695SOL     OW16546   3.463   4.029   0.808 -0.3363  0.3553  0.2377
 1695SOL    HW116547   3.514   3.968   0.861  0.5741  0.9709  0.0696
 1695SOL    HW216548   3.429   3.967   0.743  0.6344  0.1773 -0.0976
 1696SOL     OW16549   0.959   0.746  15.014 -0.0323 -0.2760 -0.2678
 1696SOL    HW116550   0.929   0.657  15.035  0.1666  0.2636  2.2845
 1696SOL    HW216551   0.917   0.800  15.081 -1.2151 -0.8259 -0.5524
 1697SOL     OW16552   1.143   1.198  16.957  0.7905  0.4664 -0.0340
 1697SOL    HW116553   1.142   1.102  16.948  0.0355  0.4785 -0.0902
 1697SOL    HW216554   1.230   1.224  16.928  1.0055 -0.7134 -0.4634
 1698SOL     OW16555   0.354   0.435  10.268  0.6972 -0.3161 -0.4486
 1698SOL    HW116556   0.419   0.409  10.203 -0.8780 -1.6117 -1.5064
 1698SOL    HW216557   0.272   0.454  10.224  0.8643  4.4660  1.2688
 1699SOL     OW16558   3.992   3.602   1.376  0.0205 -0.2451  0.0016
 1699SOL    HW116559   4.087   3.596   1.375  0.0088 -0.3836 -0.2413
 1699SOL    HW216560   3.995   3.696   1.359 -1.4206 -0.5578 -1.9872
 1700SOL     OW16561   2.668   1.823   2.658 -0.3029  0.7056  0.0662
 1700SOL    HW116562   2.619   1.742   2.664 -2.1685  1.7104 -1.5194
 1700SOL    HW216563   2.595   1.875   2.692 -1.2428 -2.7776  3.3180
 1701SOL     OW16564   0.528   3.476   7.523 -0.6528  0.1179  0.0848
 1701SOL    HW116565   0.520   3.476   7.427 -1.9638 -3.2374  0.1658
 1701SOL    HW216566   0.569   3.391   7.538  0.2700  1.2006  3.5535
 1702SOL     OW16567   3.338   0.193  15.168 -0.6643 -0.1800 -0.5388
 1702SOL    HW116568   3.415   0.175  15.115 -0.5085 -0.7346 -0.1124
 1702SOL    HW216569   3.375   0.204  15.255 -1.9653  2.3076 -0.2803
 1703SOL     OW16570   0.867   1.969  16.438  0.2856  0.2181  0.5428
 1703SOL    HW116571   0.863   2.013  16.524 -0.2505 -0.3871  0.8250
 1703SOL    HW216572   0.773   1.960  16.422  0.9588 -1.3318 -2.5025
 1704SOL     OW16573   4.509   0.809   2.121  0.6707 -0.4414  0.4968
 1704SOL    HW116574   4.594   0.827   2.082  0.8460  1.2474  1.6523
 1704SOL    HW216575   4.498   0.718   2.095 -2.7165 -0.0834  0.6199
 1705SOL     OW16576   1.903   3.413   3.340 -0.3547 -0.0032  0.1189
 1705SOL    HW116577   1.928   3.457   3.421 -0.3493  0.5582 -0.1855
 1705SOL    HW216578   1.872   3.326   3.364 -0.0738 -0.2310 -0.3269
 1706SOL     OW16579   1.910   3.963  12.988  0.1205 -0.0567 -0.3381
 1706SOL    HW116580   1.997   3.999  13.002  0.3005 -1.1763  1.4100
 1706SOL    HW216581   1.863   3.998  13.064  0.8835  0.1383  0.0405
 1707SOL     OW16582   1.357   4.423  15.032  0.0755  0.1364 -0.4635
 1707SOL    HW116583   1.300   4.498  15.015  1.2395  1.0234 -0.4541
 1707SOL    HW216584   1.320   4.365  14.965 -1.3886  0.4201  0.0980
 1708SOL     OW16585   0.864   3.481   4.554  0.0224  0.1124  0.3009
 1708SOL    HW116586   0.947   3.480   4.601  1.0901 -0.2136 -1.5954
 1708SOL    HW216587   0.820   3.530   4.623 -0.4434  2.0791 -1.3894
 1709SOL     OW16588   0.656   0.422   3.524 -0.3256  0.5891  0.0544
 1709SOL    HW116589   0.647   0.366   3.448 -0.8781 -0.3059  0.7818
 1709SOL    HW216590   0.703   0.488   3.472 -0.6827  1.5635  0.9554
 1710SOL     OW16591   1.416   4.021   5.093 -0.2152 -0.6401  0.4208
 1710SOL    HW116592   1.390   3.967   5.019 -1.6039 -0.0501  0.4856
 1710SOL    HW216593   1.406   4.106   5.050  1.0668 -0.9232 -0.4426
 1711SOL     OW16594   1.565   1.311   5.567  0.3455 -0.1424  0.3702
 1711SOL    HW116595   1.649   1.345   5.600  1.2415  2.0738 -4.0863
 1711SOL    HW216596   1.602   1.235   5.521  0.3706  0.8314 -1.2277
 1712SOL     OW16597   1.989   0.650   6.201  0.6194 -0.3046 -0.1504
 1712SOL    HW116598   2.049   0.657   6.127 -1.4055  3.8972 -1.4537
 1712SOL    HW216599   1.925   0.717   6.177 -0.8494 -1.3909  0.7406
 1713SOL     OW16600   3.065   3.926   7.948 -0.5524 -0.1161 -0.5415
 1713SOL    HW116601   3.075   3.893   7.859 -0.3476 -1.6746  0.0642
 1713SOL    HW216602   3.124   4.002   7.947  1.7922 -1.9456  1.5510
 1714SOL     OW16603   4.122   0.130   4.502 -0.3290  0.1653  0.2125
 1714SOL    HW116604   4.093   0.216   4.472  0.8738  0.2932 -0.5857
 1714SOL    HW216605   4.068   0.113   4.579 -2.5090  1.5726 -1.0103
 1715SOL     OW16606   4.366   2.766   2.316  0.4060  0.6790  0.0351
 1715SOL    HW116607   4.295   2.807   2.366 -0.8268 -0.8399 -0.4979
 1715SOL    HW216608   4.412   2.725   2.389  0.3077  0.2106 -0.1708
 1716SOL     OW16609   0.197   1.481  16.159  0.4250  0.2055  0.6794
 1716SOL    HW116610   0.104   1.473  16.179  0.2206  1.9850  0.3929
 1716SOL    HW216611   0.226   1.413  16.220 -0.6559 -2.0330 -1.2989
 1717SOL     OW16612   0.440   3.956  11.909 -0.1454  0.0044  0.1984
 1717SOL    HW116613   0.497   3.889  11.870 -2.8353 -1.0886 -1.8553
 1717SOL    HW216614   0.485   4.039  11.917 -1.0573  0.4115  1.0637
 1718SOL     OW16615   0.814   4.560  14.791  0.0785  0.5322 -0.3556
 1718SOL    HW116616   0.792   4.637  14.844  3.2174  1.3050 -0.1833
 1718SOL    HW216617   0.756   4.489  14.818  0.1618  0.5447 -0.1493
 1719SOL     OW16618   2.588   1.990   1.704  0.6826 -0.7396  0.3187
 1719SOL    HW116619   2.667   1.948   1.738  2.4581  1.5633 -0.9502
 1719SOL    HW216620   2.551   1.926   1.643 -1.4434 -0.6389  1.5081
 1720SOL     OW16621   2.189   4.633   5.565 -0.4762 -0.4913  0.3331
 1720SOL    HW116622   2.236   4.704   5.520  0.9947 -1.4715  0.3295
 1720SOL    HW216623   2.103   4.672   5.578  0.4610  0.3312  4.0881
 1721SOL     OW16624   3.677   4.369  12.587 -0.2964  0.9083 -0.2511
 1721SOL    HW116625   3.767   4.364  12.620 -0.6571 -0.6007  0.5192
 1721SOL    HW216626   3.696   4.312  12.513 -0.5657  1.2324 -0.5682
 1722SOL     OW16627   2.967   0.969  12.128 -0.1883 -0.8042  0.2383
 1722SOL    HW116628   2.968   0.915  12.048  0.9150  0.5096 -0.6335
 1722SOL    HW216629   2.932   0.916  12.199 -1.3322  1.2617  1.1890
 1723SOL     OW16630   2.870   4.658   8.941 -0.2490 -0.2142 -0.6442
 1723SOL    HW116631   2.963   4.636   8.940  0.3345  2.2868  0.1820
 1723SOL    HW216632   2.853   4.667   9.034 -1.0159 -2.6341 -0.5431
 1724SOL     OW16633   0.493   0.624  12.297  0.0556  0.1919  0.3501
 1724SOL    HW116634   0.402   0.598  12.285  0.4942  0.4196 -3.4066
 1724SOL    HW216635   0.508   0.603  12.389 -1.8899 -0.1433  0.5963
 1725SOL     OW16636   2.397   3.215   2.334 -0.6506 -0.4298  0.2999
 1725SOL    HW116637   2.419   3.160   2.409 -0.0265 -1.3925 -0.5722
 1725SOL    HW216638   2.427   3.157   2.263 -2.0768 -0.4721 -0.2693
 1726SOL     OW16639   2.480   2.052   3.590  0.2534 -0.0967 -0.3888
 1726SOL    HW116640   2.520   2.139   3.589 -0.3634  0.1882 -0.4087
 1726SOL    HW216641   2.389   2.064   3.617  0.4561  1.1956 -0.2618
 1727SOL     OW16642   0.370   1.616  10.948 -0.2859 -0.2261 -0.2952
 1727SOL    HW116643   0.427   1.690  10.970 -1.0757  0.0921  0.7037
 1727SOL    HW216644   0.436   1.548  10.934  0.2509  0.2996 -0.3346
 1728SOL     OW16645   3.429   2.792   3.972 -0.3834 -0.2319 -0.0246
 1728SOL    HW116646   3.518   2.760   3.978  0.1586  1.0858 -0.9900
 1728SOL    HW216647   3.373   2.725   4.012  0.6751 -0.9603  0.2121
 1729SOL     OW16648   1.283   4.180   4.727  0.0989  0.2886  0.1306
 1729SOL    HW116649   1.274   4.173   4.632 -2.9772 -2.2314  0.6024
 1729SOL    HW216650   1.332   4.100   4.747  0.3182  0.4436  0.2204
 1730SOL     OW16651   1.370   1.784   8.805  0.3895  0.3114 -0.7282
 1730SOL    HW116652   1.363   1.821   8.718 -0.2955  0.4101 -0.6342
 1730SOL    HW216653   1.442   1.721   8.801  0.8864  0.8618 -0.5114
 1731SOL     OW16654   4.180   2.026   5.138 -0.2559  0.0946  0.1783
 1731SOL    HW116655   4.251   2.008   5.076  0.7949  1.6311  0.9212
 1731SOL    HW216656   4.134   1.942   5.140 -0.6464  0.3507  1.8452
 1732SOL     OW16657   2.489   2.653  10.952 -0.1914  0.9231 -0.0224
 1732SOL    HW116658   2.532   2.668  10.868  1.3888 -1.1064  0.4430
 1732SOL    HW216659   2.553   2.694  11.010 -1.1216  3.2921 -0.6390
 1733SOL     OW16660   2.882   1.720   3.847  0.2156  0.1378  0.1822
 1733SOL    HW116661   2.849   1.641   3.891  1.8953 -0.3941  0.4705
 1733SOL    HW216662   2.797   1.763   3.836  1.6767  3.0546  0.4171
 1734SOL     OW16663   0.358   3.913   5.665 -0.4342 -0.0008 -0.2429
 1734SOL    HW116664   0.389   3.825   5.686 -0.2669 -0.0723 -0.7887
 1734SOL    HW216665   0.270   3.909   5.704 -0.2717  1.3062  0.2541
 1735SOL     OW16666   0.336   4.178   4.720  0.0546  0.2389 -0.3894
 1735SOL    HW116667   0.269   4.242   4.699 -1.0741 -1.5812 -2.3505
 1735SOL    HW216668   0.285   4.097   4.709 -3.0735  2.2273 -0.4472
 1736SOL     OW16669   0.803   2.517   4.983 -0.2442  0.0851  0.2178
 1736SOL    HW116670   0.728   2.465   5.011  0.4274 -0.4984  0.9550
 1736SOL    HW216671   0.841   2.531   5.070  1.4425  0.5354 -0.5833
 1737SOL     OW16672   2.523   3.726  13.547 -0.2529  0.2870  0.6485
 1737SOL    HW116673   2.595   3.710  13.485  1.0156  0.0082  2.2110
 1737SOL    HW216674   2.522   3.821  13.538  2.6505 -0.0096 -2.9468
 1738SOL     OW16675   3.410   4.499   7.650 -0.4581  0.0139  0.1513
 1738SOL    HW116676   3.481   4.469   7.593  0.6991  1.0163  1.0632
 1738SOL    HW216677   3.333   4.475   7.598 -0.7861 -3.0057  2.0626
 1739SOL     OW16678   1.289   3.468  12.704 -0.2860 -0.1671  0.3149
 1739SOL    HW116679   1.344   3.538  12.669 -1.7921  0.5497 -0.6281
 1739SOL    HW216680   1.261   3.518  12.781  1.2300  0.5520  0.4005
 1740SOL     OW16681   0.065   0.760   4.321 -0.2660  0.0109  0.1102
 1740SOL    HW116682   0.071   0.852   4.346  1.2363 -0.4877  1.5628
 1740SOL    HW216683   4.706   0.752   4.266 -1.3205  1.7356  1.3472
 1741SOL     OW16684   1.442   2.477   7.333  0.2488  0.3274 -0.5217
 1741SOL    HW116685   1.388   2.440   7.264 -0.8305  0.1446  0.4205
 1741SOL    HW216686   1.436   2.570   7.310  0.0199  0.0969 -1.3755
 1742SOL     OW16687   3.482   0.647  10.913  0.0641  0.1646  1.0882
 1742SOL    HW116688   3.521   0.615  10.994  0.4868 -1.3390  0.2856
 1742SOL    HW216689   3.557   0.633  10.855 -1.4653 -1.9013 -0.4076
 1743SOL     OW16690   4.495   3.075   5.397 -0.1613  0.0696 -0.4161
 1743SOL    HW116691   4.557   3.126   5.346  0.5388  2.1011  2.4784
 1743SOL    HW216692   4.415   3.082   5.344 -0.7749 -2.1897  0.1813
 1744SOL     OW16693   2.931   3.104   2.328 -0.2885 -0.0308 -0.5310
 1744SOL    HW116694   2.961   3.069   2.244 -1.6363  2.1629 -1.9269
 1744SOL    HW216695   2.842   3.131   2.305 -0.0868  0.1268 -1.1224
 1745SOL     OW16696   3.395   2.621   7.530 -0.4956  0.1496 -0.2527
 1745SOL    HW116697   3.302   2.611   7.549 -0.3688 -3.3733 -1.3101
 1745SOL    HW216698   3.425   2.610   7.620 -0.1834 -1.0817 -0.5025
 1746SOL     OW16699   3.552   2.809  15.556  0.0821  0.2001  0.1217
 1746SOL    HW116700   3.527   2.899  15.580 -2.3783 -0.4460 -0.0780
 1746SOL    HW216701   3.569   2.774  15.644  1.3428  0.4023 -0.0445
 1747SOL     OW16702   1.807   3.079   6.346 -0.0929 -0.3772 -0.4536
 1747SOL    HW116703   1.779   3.034   6.425  1.5116 -0.2368  0.2049
 1747SOL    HW216704   1.725   3.126   6.331  0.0988  0.3894  0.8580
 1748SOL     OW16705   1.593   4.552   1.867 -0.1789 -0.1826 -0.1990
 1748SOL    HW116706   1.608   4.569   1.960 -2.8290  1.9000 -0.1533
 1748SOL    HW216707   1.528   4.619   1.845  0.0906 -0.0324 -0.5339
 1749SOL     OW16708   4.101   2.026   6.824  0.2653 -0.2613 -0.0342
 1749SOL    HW116709   4.148   1.949   6.855  0.7554  1.0195  2.3919
 1749SOL    HW216710   4.149   2.101   6.858 -2.1430  1.0991  0.4212
 1750SOL     OW16711   4.543   1.642   9.361 -0.1232  0.4234  0.3608
 1750SOL    HW116712   4.497   1.639   9.445  1.0783 -0.4059  0.9960
 1750SOL    HW216713   4.625   1.622   9.406 -1.2192 -1.5058  1.4870
 1751SOL     OW16714   1.317   3.974  10.248  0.2156  0.0778 -0.1741
 1751SOL    HW116715   1.327   4.019  10.164 -0.3579  0.4571 -0.0431
 1751SOL    HW216716   1.398   4.002  10.292 -0.6683 -1.2022  2.2385
 1752SOL     OW16717   2.644   1.673   0.251 -0.2949 -0.3230  0.2104
 1752SOL    HW116718   2.735   1.702   0.256 -0.0784 -1.4462  2.6704
 1752SOL    HW216719   2.618   1.701   0.163  0.4156  3.1119  1.0845
 1753SOL     OW16720   2.397   1.118   7.487 -0.3956 -0.3253  0.2705
 1753SOL    HW116721   2.348   1.039   7.512  0.2867 -0.7628  0.2184
 1753SOL    HW216722   2.459   1.134   7.558 -0.9317  0.0452  0.6532
 1754SOL     OW16723   2.075   0.657   2.644 -0.4839  0.3166 -0.3688
 1754SOL    HW116724   2.171   0.658   2.641 -0.4879 -0.6639 -0.6027
 1754SOL    HW216725   2.060   0.571   2.683 -1.2524  0.2551 -0.8148
 1755SOL     OW16726   0.516   2.625   0.435  0.2780  0.1737 -0.0109
 1755SOL    HW116727   0.490   2.603   0.345 -1.5837 -0.3229  0.6542
 1755SOL    HW216728   0.606   2.655   0.417  0.7729 -1.4574 -0.2632
 1756SOL     OW16729   4.341   3.351  16.445  0.4223  0.1787  0.7565
 1756SOL    HW116730   4.310   3.435  16.477 -0.7610 -0.0355  0.1570
 1756SOL    HW216731   4.344   3.301  16.527 -1.4493  0.9360  1.2824
 1757SOL     OW16732   4.437   0.005   7.180  0.2055  0.2369  0.3404
 1757SOL    HW116733   4.517   0.006   7.233 -2.6432 -0.6769  4.6274
 1757SOL    HW216734   4.413   4.633   7.194 -1.0688  0.3741 -1.0033
 1758SOL     OW16735   0.806   3.854   1.511 -0.6736 -0.1058 -0.5240
 1758SOL    HW116736   0.832   3.839   1.420 -1.8927 -0.0893 -0.8751
 1758SOL    HW216737   0.830   3.774   1.556  2.7548  1.5151  0.5811
 1759SOL     OW16738   3.677   3.229   3.788 -0.0019  0.1609  0.1829
 1759SOL    HW116739   3.679   3.134   3.779 -0.3907 -0.0240  2.0341
 1759SOL    HW216740   3.770   3.253   3.795 -0.7760  2.7122  1.8656
 1760SOL     OW16741   4.116   4.656   6.945  0.2388 -0.0208 -0.5263
 1760SOL    HW116742   4.193   4.601   6.929  1.3257  0.8950  1.5107
 1760SOL    HW216743   4.065   4.641   6.866  1.9209 -0.3759 -1.5590
 1761SOL     OW16744   2.324   1.913   6.452  0.0974  0.1593 -0.5459
 1761SOL    HW116745   2.262   1.980   6.477 -1.0889 -1.5822  1.2194
 1761SOL    HW216746   2.339   1.871   6.537 -3.6340 -1.9347 -0.8963
 1762SOL     OW16747   2.819   0.388   4.205  0.7026  0.5560 -0.3691
 1762SOL    HW116748   2.832   0.439   4.285  1.4911  0.4550 -0.4344
 1762SOL    HW216749   2.738   0.425   4.171  0.0829  1.1856  1.8131
 1763SOL     OW16750   1.696   4.098   6.884 -0.4784  0.1985  0.5118
 1763SOL    HW116751   1.610   4.084   6.846 -0.0783 -1.5953  0.2756
 1763SOL    HW216752   1.732   4.014   6.913 -2.0748  0.0487  2.1191
 1764SOL     OW16753   4.114   3.052   5.102 -0.0570  0.6746  0.1615
 1764SOL    HW116754   4.053   3.073   5.173 -0.1151  0.9980  0.0144
 1764SOL    HW216755   4.165   2.996   5.161 -0.9700 -1.0145 -0.6705
 1765SOL     OW16756   0.411   2.352  13.396 -0.1187  0.0758  0.4558
 1765SOL    HW116757   0.391   2.427  13.452  0.9070  0.1962  0.6690
 1765SOL    HW216758   0.467   2.300  13.454 -1.9589 -2.9474 -0.4609
 1766SOL     OW16759   1.470   4.344   4.101 -0.2524  0.1259 -0.5637
 1766SOL    HW116760   1.502   4.337   4.191  0.9692 -1.9361 -1.1796
 1766SOL    HW216761   1.503   4.430   4.076  1.9923  0.9083  5.1083
 1767SOL     OW16762   2.091   1.428   3.235  0.2037 -0.3855 -0.1834
 1767SOL    HW116763   2.157   1.413   3.167 -1.0136 -1.0069 -1.2445
 1767SOL    HW216764   2.079   1.342   3.276 -0.0815 -0.7926 -1.1064
 1768SOL     OW16765   1.626   4.488  16.001  0.5016 -0.2814 -0.2054
 1768SOL    HW116766   1.582   4.544  16.065  0.1863  0.2803 -0.9205
 1768SOL    HW216767   1.661   4.560  15.949  0.8115 -1.4955 -1.6599
 1769SOL     OW16768   3.137   4.604   3.282  0.1227 -0.5420  0.0288
 1769SOL    HW116769   3.086   4.524   3.300 -1.9258  0.6673 -0.3713
 1769SOL    HW216770   3.082   4.673   3.245  0.5420 -0.3752 -0.2770
 1770SOL     OW16771   4.665   0.493   7.888 -0.2709 -0.4901 -0.6120
 1770SOL    HW116772   4.674   0.475   7.794  1.5066  1.1700 -0.7458
 1770SOL    HW216773   4.586   0.546   7.893  0.2130  0.4440 -2.7057
 1771SOL     OW16774   0.109   2.633  13.462 -0.5842 -0.2210  0.1727
 1771SOL    HW116775   0.190   2.679  13.441  0.4745 -2.0464  0.2422
 1771SOL    HW216776   0.136   2.591  13.544  1.1703 -0.0440 -0.3098
 1772SOL     OW16777   2.417   4.109   4.912 -0.1200  0.1214 -0.5178
 1772SOL    HW116778   2.378   4.192   4.886 -0.4810  0.5849  1.5270
 1772SOL    HW216779   2.427   4.116   5.007 -2.7632  1.1442 -0.3274
 1773SOL     OW16780   2.383   1.749   1.980  0.3596  0.6722  0.3779
 1773SOL    HW116781   2.303   1.793   2.010  0.5722  0.5518  1.1229
 1773SOL    HW216782   2.448   1.781   2.042  1.6246 -0.3294 -0.4322
 1774SOL     OW16783   4.606   2.281  15.662 -0.3027  0.9806  0.3780
 1774SOL    HW116784   4.612   2.204  15.719 -0.1279  1.4366  0.9710
 1774SOL    HW216785   4.682   2.334  15.686  1.3399 -0.0327 -2.6008
 1775SOL     OW16786   3.532   3.436   5.241 -0.0168 -0.0678 -0.2030
 1775SOL    HW116787   3.600   3.413   5.177 -0.2991  1.0809 -0.9085
 1775SOL    HW216788   3.589   3.447   5.317  1.2478 -0.4759 -1.0739
 1776SOL     OW16789   3.686   2.832  13.978  0.0826  0.1321  0.2124
 1776SOL    HW116790   3.614   2.770  13.968 -0.8193  1.3207 -0.6526
 1776SOL    HW216791   3.662   2.887  14.053  0.6597  2.8409 -1.5727
 1777SOL     OW16792   1.825   4.260   7.310  0.4369  0.4598  0.6554
 1777SOL    HW116793   1.875   4.210   7.246 -2.6921 -1.7718 -0.0699
 1777SOL    HW216794   1.746   4.207   7.298  1.4060 -1.1964  1.6091
 1778SOL     OW16795   1.703   2.048   6.486  0.1094  0.0176 -0.3226
 1778SOL    HW116796   1.686   1.957   6.512 -0.2317  0.0321 -0.4944
 1778SOL    HW216797   1.614   2.071   6.461  0.2769  0.9000 -0.0897
 1779SOL     OW16798   2.023   0.527   0.775 -0.5808 -0.0426  0.2256
 1779SOL    HW116799   2.110   0.541   0.813 -0.0524 -1.1352 -0.5773
 1779SOL    HW216800   1.960   0.549   0.843  0.4569  1.0527  0.8302
 1780SOL     OW16801   4.679   2.818   8.698 -0.5023  0.2063  0.4108
 1780SOL    HW116802   4.648   2.733   8.668  1.3042 -0.5848  0.7688
 1780SOL    HW216803   4.690   2.795   8.790  0.7398  1.2241  0.5232
 1781SOL     OW16804   0.068   3.703   2.866  0.4990  0.7378 -0.4488
 1781SOL    HW116805   0.128   3.751   2.809  0.7785  2.3408  1.2025
 1781SOL    HW216806   0.094   3.612   2.848 -1.4658  0.3227 -1.1496
 1782SOL     OW16807   4.382   3.002  14.306  0.4070  0.2633  0.5034
 1782SOL    HW116808   4.412   2.947  14.233  0.9038 -0.4716  1.2593
 1782SOL    HW216809   4.289   3.014  14.287 -0.0639 -1.7041  1.4480
 1783SOL     OW16810   0.617   2.054   2.402  0.1499 -0.0020  0.2861
 1783SOL    HW116811   0.658   2.139   2.419  1.7471 -0.4826 -1.1801
 1783SOL    HW216812   0.555   2.076   2.333 -0.6796 -0.8374  0.7524
 1784SOL     OW16813   2.353   3.260   7.001 -0.6898 -0.1566 -0.4915
 1784SOL    HW116814   2.389   3.194   6.942 -2.5107 -0.4785 -1.2514
 1784SOL    HW216815   2.363   3.329   6.936 -0.8675  1.7975  1.5260
 1785SOL     OW16816   3.079   0.922  13.681 -0.3348 -0.1961 -0.4105
 1785SOL    HW116817   3.005   0.972  13.648  0.7439  0.7342 -1.4253
 1785SOL    HW216818   3.139   0.940  13.608 -1.9951  0.6780 -1.5328
 1786SOL     OW16819   0.476   4.344   7.625 -0.0714  0.0107 -0.5711
 1786SOL    HW116820   0.453   4.343   7.717  0.8365  3.1815 -0.3299
 1786SOL    HW216821   0.542   4.275   7.612 -1.5024 -1.4344 -0.2023
 1787SOL     OW16822   3.848   3.493   1.600 -0.3661  0.4711 -0.2952
 1787SOL    HW116823   3.884   3.518   1.515  1.9378  1.7397  1.0635
 1787SOL    HW216824   3.785   3.425   1.578  1.3145 -1.0628 -0.3370
 1788SOL     OW16825   3.202   3.675  10.354 -0.2096  0.3977  0.1210
 1788SOL    HW116826   3.250   3.593  10.368  0.5770  0.5808 -1.5251
 1788SOL    HW216827   3.124   3.645  10.308  0.5921 -1.0277 -0.3210
 1789SOL     OW16828   4.359   1.232   3.641 -0.0650  0.3282  0.0665
 1789SOL    HW116829   4.313   1.309   3.674  1.8117  1.7149 -0.6226
 1789SOL    HW216830   4.289   1.168   3.658 -0.3871  0.5643 -0.3778
 1790SOL     OW16831   3.811   0.131  11.552 -0.3271  0.2519  0.1152
 1790SOL    HW116832   3.850   0.056  11.507  0.3830  0.9372 -0.4034
 1790SOL    HW216833   3.719   0.127  11.526 -0.3625 -1.3809  0.5115
 1791SOL     OW16834   3.104   2.229   7.226  0.2758 -0.5864  0.2583
 1791SOL    HW116835   3.175   2.206   7.166  0.9911  0.4527  0.6977
 1791SOL    HW216836   3.126   2.318   7.253 -0.5117 -0.9915  2.2417
 1792SOL     OW16837   4.229   4.507   3.812 -0.6046  0.2887  0.0712
 1792SOL    HW116838   4.295   4.560   3.768 -0.3271  1.5431  1.9564
 1792SOL    HW216839   4.160   4.499   3.746 -1.8511 -1.6226  1.6134
 1793SOL     OW16840   3.526   1.685  15.435  0.1108  0.1938 -0.1755
 1793SOL    HW116841   3.486   1.630  15.368 -0.7785  0.4404  0.1511
 1793SOL    HW216842   3.593   1.625  15.466  0.5025  1.2152  0.9953
 1794SOL     OW16843   0.328   1.381   2.676  0.0871  0.4367  0.4586
 1794SOL    HW116844   0.308   1.409   2.586 -0.3075 -0.5097  0.2501
 1794SOL    HW216845   0.241   1.358   2.709  0.0724 -1.1839 -0.6896
 1795SOL     OW16846   4.208   0.760  13.953 -0.0087 -0.1249  0.3183
 1795SOL    HW116847   4.218   0.783  13.861  0.5040  1.9049  0.8763
 1795SOL    HW216848   4.295   0.790  13.978  0.0874 -0.6297  0.5873
 1796SOL     OW16849   1.530   3.745  15.896  0.2352 -1.0060 -0.1773
 1796SOL    HW116850   1.518   3.815  15.833  2.8774 -0.3442  0.0217
 1796SOL    HW216851   1.522   3.797  15.976  0.9709 -0.8364 -0.2106
 1797SOL     OW16852   3.466   2.675   6.686 -0.4201  0.2752 -0.4679
 1797SOL    HW116853   3.536   2.609   6.686  1.1798  1.9619  0.6492
 1797SOL    HW216854   3.488   2.732   6.612  1.8407 -1.2836 -0.9902
 1798SOL     OW16855   1.868   0.277  14.120 -0.1167  0.3936  0.0317
 1798SOL    HW116856   1.778   0.297  14.094  0.1851  0.8115 -0.6703
 1798SOL    HW216857   1.852   0.184  14.139 -1.1406  0.4665 -0.4847
 1799SOL     OW16858   4.597   0.874  17.250 -0.3439 -0.1299  0.2410
 1799SOL    HW116859   4.537   0.884  17.176  1.6263 -0.0680 -1.3630
 1799SOL    HW216860   4.678   0.908  17.210 -0.9216 -0.3232 -1.0801
 1800SOL     OW16861   1.128   1.633   7.306  0.0354 -0.7062  0.4401
 1800SOL    HW116862   1.120   1.728   7.318 -1.0503 -0.6235 -0.9536
 1800SOL    HW216863   1.084   1.613   7.224 -0.5981  1.6763  0.1910
 1801SOL     OW16864   0.536   1.581  15.714 -0.1303  0.0711  0.0989
 1801SOL    HW116865   0.609   1.595  15.654  0.1245  0.9818  0.6277
 1801SOL    HW216866   0.467   1.635  15.676  0.0798  0.7893  0.7549
 1802SOL     OW16867   4.337   1.987   3.853 -0.2317  0.8145 -0.3254
 1802SOL    HW116868   4.322   2.032   3.936 -1.0818  1.9238 -1.0680
 1802SOL    HW216869   4.320   2.060   3.794 -0.6693  1.5289  0.6870
 1803SOL     OW16870   0.485   3.738   9.130 -0.4884  0.1342 -0.1792
 1803SOL    HW116871   0.427   3.773   9.063 -1.2007 -1.7070 -0.5226
 1803SOL    HW216872   0.475   3.643   9.121  2.2426 -0.3775  2.1424
 1804SOL     OW16873   1.262   3.597  16.441  0.4287 -0.5355 -0.0745
 1804SOL    HW116874   1.279   3.521  16.386 -1.0368 -2.1340  1.7072
 1804SOL    HW216875   1.166   3.599  16.438  0.4301 -2.8892 -1.7323
 1805SOL     OW16876   3.946   1.756   5.347  0.9887  0.3949  0.3706
 1805SOL    HW116877   4.003   1.826   5.380  1.3441 -0.1509  0.9205
 1805SOL    HW216878   3.860   1.794   5.364  1.3927  1.1763  0.6797
 1806SOL     OW16879   4.610   3.326  17.487 -0.0151  0.0900 -0.1280
 1806SOL    HW116880   4.575   3.297  17.571  1.0546 -1.0964 -0.0993
 1806SOL    HW216881   4.531   3.337  17.433 -1.2330  1.1133  1.8579
 1807SOL     OW16882   3.586   1.627   1.991  0.5375  0.1495  0.2213
 1807SOL    HW116883   3.680   1.627   1.974  0.7643  0.1307  1.4364
 1807SOL    HW216884   3.565   1.551   1.937 -0.4651  0.6523 -0.1056
 1808SOL     OW16885   0.549   0.300   4.355  0.1411 -0.0242  0.0232
 1808SOL    HW116886   0.455   0.307   4.369  0.0243  0.7336 -1.1390
 1808SOL    HW216887   0.591   0.331   4.435  0.3198 -1.0869  0.3395
 1809SOL     OW16888   0.953   4.541   7.944  0.2253  0.1886  0.1237
 1809SOL    HW116889   0.959   4.615   8.003  0.8169 -2.5170  3.4587
 1809SOL    HW216890   1.006   4.481   7.996 -0.0687  1.7433  2.1941
 1810SOL     OW16891   1.346   2.087  13.370 -0.0877 -0.1164  0.6851
 1810SOL    HW116892   1.269   2.126  13.412 -0.1639 -0.5733  0.9799
 1810SOL    HW216893   1.422   2.130  13.410 -1.3221  1.5528  1.2103
 1811SOL     OW16894   4.188   0.740   1.861  0.3822 -0.0481  0.4858
 1811SOL    HW116895   4.275   0.746   1.820  1.3587  1.1015  2.6891
 1811SOL    HW216896   4.142   0.696   1.790  0.6913 -0.9129  0.8223
 1812SOL     OW16897   1.031   2.215   8.493  0.6330  0.2407  0.1319
 1812SOL    HW116898   1.021   2.121   8.508 -2.7366  0.2848 -1.8952
 1812SOL    HW216899   1.093   2.241   8.561 -0.8657  3.0264  0.3994
 1813SOL     OW16900   2.852   2.610   8.123 -0.1569 -0.0199  0.2014
 1813SOL    HW116901   2.847   2.522   8.087 -1.3165  1.2078 -2.6027
 1813SOL    HW216902   2.860   2.585   8.215 -2.7395  1.0781  0.7084
 1814SOL     OW16903   1.505   0.078   4.678  0.6879  0.1385  0.5249
 1814SOL    HW116904   1.463   0.164   4.677  1.4466  0.4678 -1.6236
 1814SOL    HW216905   1.448   0.027   4.620  1.7222 -0.2580 -0.1474
 1815SOL     OW16906   3.912   4.245   1.220 -0.3053 -0.0718 -0.4173
 1815SOL    HW116907   3.950   4.328   1.249  1.3049 -1.1221  0.4697
 1815SOL    HW216908   3.983   4.183   1.239 -2.5683 -2.2927  0.6518
 1816SOL     OW16909   3.555   4.126  11.824  0.2101  0.5643  0.2271
 1816SOL    HW116910   3.570   4.066  11.897  3.0650  0.6292 -0.2792
 1816SOL    HW216911   3.461   4.144  11.824 -0.1791 -1.4168 -2.6000
 1817SOL     OW16912   2.860   3.703   4.700  0.0356  0.1048 -0.1301
 1817SOL    HW116913   2.937   3.653   4.726  1.0647  1.1506 -1.2169
 1817SOL    HW216914   2.897   3.780   4.658 -1.9413  1.4287  0.5483
 1818SOL     OW16915   3.398   3.403   3.034  0.4668 -0.0054  0.0580
 1818SOL    HW116916   3.475   3.452   3.063  1.2434 -1.3688  0.3428
 1818SOL    HW216917   3.396   3.421   2.940  0.8154  2.8563  0.6021
 1819SOL     OW16918   3.257   1.974   8.359 -0.5836 -0.2293 -0.7432
 1819SOL    HW116919   3.279   2.063   8.388  1.1879  0.2994 -3.6197
 1819SOL    HW216920   3.202   1.936   8.428 -0.0908  0.5043  0.0484
 1820SOL     OW16921   1.872   0.588   3.723 -0.1914 -0.4838  0.0472
 1820SOL    HW116922   1.819   0.555   3.650 -0.5501  2.2658 -0.9476
 1820SOL    HW216923   1.906   0.667   3.680 -0.1419 -0.3788  0.2790
 1821SOL     OW16924   3.263   0.594  11.369  0.1190  0.3044 -0.1188
 1821SOL    HW116925   3.228   0.610  11.282  0.5805 -2.2834 -0.7622
 1821SOL    HW216926   3.278   0.687  11.389 -2.2611  0.8748 -1.0715
 1822SOL     OW16927   4.311   3.032  13.882  0.0741  0.2404 -0.0321
 1822SOL    HW116928   4.331   3.017  13.790  2.5500 -2.7671  1.0220
 1822SOL    HW216929   4.397   3.052  13.919 -0.4895  3.0621 -0.2413
 1823SOL     OW16930   4.169   0.322   7.422 -0.0850 -0.4673 -0.0063
 1823SOL    HW116931   4.124   0.270   7.355  1.8193 -0.8954 -0.9746
 1823SOL    HW216932   4.230   0.370   7.365  2.1884 -0.5139  2.3670
 1824SOL     OW16933   3.273   4.219   6.173  0.5509 -0.2662  0.5914
 1824SOL    HW116934   3.215   4.258   6.238  0.5059  0.7090 -0.0342
 1824SOL    HW216935   3.268   4.285   6.104  0.8997  1.1988  1.9602
 1825SOL     OW16936   3.523   1.230   7.732  0.0387 -0.4261 -0.4361
 1825SOL    HW116937   3.576   1.195   7.660 -0.0168 -1.0809 -0.1536
 1825SOL    HW216938   3.451   1.263   7.677  0.5791  0.8982 -0.3578
 1826SOL     OW16939   1.374   0.355   6.922 -0.1317  0.0675 -0.1344
 1826SOL    HW116940   1.452   0.406   6.900 -0.2515  0.6433  0.7720
 1826SOL    HW216941   1.316   0.430   6.937  1.6443  1.2534  0.8224
 1827SOL     OW16942   3.095   1.733   5.219 -0.4490  0.1450 -0.4174
 1827SOL    HW116943   3.171   1.737   5.160 -0.6742 -0.4375 -0.7492
 1827SOL    HW216944   3.031   1.784   5.170 -1.2131 -0.7004 -0.3043
 1828SOL     OW16945   2.164   3.863   0.940  0.5702  0.1466  0.3014
 1828SOL    HW116946   2.125   3.807   1.007  2.8682 -2.4312 -0.5149
 1828SOL    HW216947   2.252   3.830   0.925  0.2871 -0.4577 -0.0083
 1829SOL     OW16948   0.923   1.400  15.325  0.1652 -0.2627 -0.0772
 1829SOL    HW116949   0.836   1.374  15.357 -0.8554 -1.9115 -4.2229
 1829SOL    HW216950   0.903   1.450  15.246  2.0721 -0.9944 -1.0291
 1830SOL     OW16951   0.774   0.338  13.449 -0.0249 -0.1703 -0.6652
 1830SOL    HW116952   0.839   0.333  13.519 -0.2458 -0.3748 -0.4742
 1830SOL    HW216953   0.764   0.246  13.428 -0.9626 -0.4406  0.9397
 1831SOL     OW16954   4.397   3.735   7.072 -0.8108 -0.1085  0.6909
 1831SOL    HW116955   4.387   3.824   7.038 -1.1851 -0.1517  0.6843
 1831SOL    HW216956   4.353   3.686   7.002 -0.7233  0.4850  0.2274
 1832SOL     OW16957   0.712   3.677   3.609 -0.6652  0.1703  0.0372
 1832SOL    HW116958   0.784   3.732   3.576 -0.6039 -0.3491 -0.6831
 1832SOL    HW216959   0.640   3.738   3.592 -2.0245 -2.2498 -2.6024
 1833SOL     OW16960   2.763   3.836  15.536 -0.4395 -0.1852 -0.3115
 1833SOL    HW116961   2.852   3.805  15.552  0.5228  2.9790  0.4704
 1833SOL    HW216962   2.768   3.850  15.441  1.2285  1.9863  0.1016
 1834SOL     OW16963   1.081   0.062   0.520 -0.2770 -0.0110  0.6674
 1834SOL    HW116964   1.008   0.008   0.492 -0.8604  0.5660  1.0595
 1834SOL    HW216965   1.126   0.071   0.436  0.4940 -0.7468  0.9999
 1835SOL     OW16966   3.326   3.473   9.952  0.5017 -0.2530  0.3559
 1835SOL    HW116967   3.251   3.529   9.930  1.5798  1.0131 -0.1330
 1835SOL    HW216968   3.290   3.390   9.921 -0.6694  0.3630  0.0464
 1836SOL     OW16969   3.512   1.349   8.451  0.3734 -0.4003 -0.5380
 1836SOL    HW116970   3.585   1.295   8.481 -0.8015 -2.4911 -1.4859
 1836SOL    HW216971   3.535   1.427   8.503 -1.2538 -0.6955  0.6273
 1837SOL     OW16972   4.627   1.477   1.554 -0.7389 -0.0965  0.2087
 1837SOL    HW116973   4.714   1.489   1.515 -0.6134  1.3100  0.9282
 1837SOL    HW216974   4.638   1.385   1.578 -0.7259 -0.2858 -0.5034
 1838SOL     OW16975   0.107   1.695   3.263 -0.1761 -0.1302 -0.1307
 1838SOL    HW116976   0.118   1.701   3.168 -1.6138 -2.0206 -0.4151
 1838SOL    HW216977   0.117   1.789   3.280 -2.2359  0.3916 -1.8480
 1839SOL     OW16978   0.207   1.021   0.748  0.5573 -0.4970 -0.4724
 1839SOL    HW116979   0.274   1.030   0.816 -0.6869  1.8652  0.4237
 1839SOL    HW216980   0.180   1.112   0.738  1.1446  0.0532  2.7684
 1840SOL     OW16981   3.680   4.672   4.790 -0.3442 -0.7545 -0.5023
 1840SOL    HW116982   3.628   0.013   4.844  3.1062  1.1903  0.6682
 1840SOL    HW216983   3.678   4.594   4.845 -2.1998 -0.1444  0.3283
 1841SOL     OW16984   0.036   2.922   2.505 -0.2327 -0.2373  1.0842
 1841SOL    HW116985   0.103   2.864   2.469 -1.0129 -1.2848  1.3217
 1841SOL    HW216986   0.089   2.993   2.542  0.2355 -1.0255  1.9271
 1842SOL     OW16987   1.301   0.107   7.480  0.3212 -0.8137  0.1116
 1842SOL    HW116988   1.338   0.123   7.393 -1.2789  1.3425 -0.1976
 1842SOL    HW216989   1.209   0.112   7.455  1.2596  1.9089 -2.8652
 1843SOL     OW16990   1.987   1.589   5.751  0.5754  0.3762 -0.1599
 1843SOL    HW116991   2.065   1.561   5.800  1.2135  1.5340 -0.5146
 1843SOL    HW216992   2.020   1.577   5.661  0.9953 -0.2109  0.0690
 1844SOL     OW16993   1.462   1.222  10.394  0.2650  0.4073  0.1395
 1844SOL    HW116994   1.476   1.315  10.410 -0.9134  0.5686  0.2127
 1844SOL    HW216995   1.454   1.220  10.298  0.6703 -1.6368  0.1341
 1845SOL     OW16996   0.590   0.625  12.569 -0.9083  0.4143  0.5024
 1845SOL    HW116997   0.594   0.665  12.656 -1.3494  0.9069  0.2968
 1845SOL    HW216998   0.670   0.657  12.527 -2.9819  0.0667 -3.6696
 1846SOL     OW16999   3.997   2.114  15.524 -0.2903  0.3277  0.4641
 1846SOL    HW117000   4.087   2.083  15.529 -0.0483  0.9807  0.2195
 1846SOL    HW217001   3.944   2.046  15.566  2.0275 -1.3408  0.6269
 1847SOL     OW17002   0.281   3.226   4.920 -0.4433  0.5440  0.2353
 1847SOL    HW117003   0.350   3.161   4.910  2.1236  3.3443 -0.0686
 1847SOL    HW217004   0.210   3.166   4.944 -1.7390  2.3225  0.8320
 1848SOL     OW17005   3.387   1.289   1.606  0.1699  0.2452 -0.0853
 1848SOL    HW117006   3.336   1.272   1.685  0.5884  1.3492  0.4172
 1848SOL    HW217007   3.324   1.270   1.536  0.0130 -0.5507  0.2761
 1849SOL     OW17008   0.755   0.790  17.393 -0.0207 -0.2051 -0.3251
 1849SOL    HW117009   0.809   0.791  17.472 -1.7281  1.0761  0.8440
 1849SOL    HW217010   0.734   0.698  17.376 -1.8273 -0.0500  0.9781
 1850SOL     OW17011   2.119   2.062   6.449 -0.5624 -0.2627 -0.8598
 1850SOL    HW117012   2.094   1.996   6.384  0.4097 -0.2185 -1.2779
 1850SOL    HW217013   2.124   2.142   6.397  1.1983  2.2018  3.0714
 1851SOL     OW17014   3.618   4.689   7.145  0.0342 -0.0196  0.1955
 1851SOL    HW117015   3.527   4.672   7.169  0.0967  0.2284  0.6006
 1851SOL    HW217016   3.601   4.710   7.053 -0.2893 -1.0431  0.0242
 1852SOL     OW17017   2.346   2.007  14.829 -0.2937  0.1096  0.2439
 1852SOL    HW117018   2.351   1.940  14.760 -0.3634 -2.1051  2.3822
 1852SOL    HW217019   2.255   2.037  14.826  0.3167  1.9945  0.8223
 1853SOL     OW17020   1.996   2.797  15.508  0.4255 -0.3192  0.5087
 1853SOL    HW117021   2.047   2.876  15.488 -1.6926  1.0172  0.4638
 1853SOL    HW217022   1.981   2.821  15.599  0.0405 -0.5251  0.5007
 1854SOL     OW17023   2.911   0.825   3.754  0.2036  0.3621 -0.7382
 1854SOL    HW117024   2.844   0.848   3.689 -1.5243 -0.9862  0.5571
 1854SOL    HW217025   2.945   0.749   3.708  0.2030  0.8525 -1.5555
 1855SOL     OW17026   4.690   3.568   0.920 -0.6351  0.2994  0.0677
 1855SOL    HW117027   0.051   3.616   0.901  1.5245 -3.1019  0.6783
 1855SOL    HW217028   0.004   3.480   0.937  0.3403  0.4633 -1.0062
 1856SOL     OW17029   2.309   4.200  13.485 -0.3045  0.2539 -0.4228
 1856SOL    HW117030   2.232   4.187  13.428 -0.8606  1.0840  0.1459
 1856SOL    HW217031   2.272   4.169  13.567 -0.2729  1.2495 -0.0357
 1857SOL     OW17032   2.298   4.360   4.910 -0.1212 -0.1369  0.5724
 1857SOL    HW117033   2.265   4.445   4.936 -1.2181 -0.3971  0.0225
 1857SOL    HW217034   2.232   4.306   4.953 -2.3596 -0.4002 -3.2409
 1858SOL     OW17035   1.435   2.343   5.311  0.3360  0.1701  0.6522
 1858SOL    HW117036   1.499   2.385   5.368  2.0601 -0.2662 -0.9681
 1858SOL    HW217037   1.421   2.420   5.255  0.9514 -1.1366 -1.2912
 1859SOL     OW17038   3.522   1.292   4.026  0.0720 -1.0212 -0.3582
 1859SOL    HW117039   3.565   1.287   4.111 -0.4201 -0.2499 -0.0695
 1859SOL    HW217040   3.549   1.382   4.009  1.7475 -1.3909  0.3161
 1860SOL     OW17041   2.331   1.775   3.737 -0.5238 -0.6971 -0.1352
 1860SOL    HW117042   2.373   1.761   3.652  0.0269 -1.6416  0.2829
 1860SOL    HW217043   2.263   1.708   3.733 -1.2946  0.0321  0.8944
 1861SOL     OW17044   3.846   2.153   6.259 -0.4216  0.0648  0.7416
 1861SOL    HW117045   3.794   2.130   6.335 -0.4083  1.3199  1.1327
 1861SOL    HW217046   3.890   2.235   6.283  0.2489 -0.2919  0.7400
 1862SOL     OW17047   1.249   1.532  15.702 -0.0445 -0.0224 -0.0577
 1862SOL    HW117048   1.305   1.592  15.751 -0.3132 -0.2393  0.5090
 1862SOL    HW217049   1.200   1.488  15.771 -0.7202  2.2017  0.8892
 1863SOL     OW17050   3.326   2.968   3.769 -0.2328  0.6188  0.1174
 1863SOL    HW117051   3.354   2.942   3.681  1.7085  1.4369  0.4896
 1863SOL    HW217052   3.367   2.910   3.832  0.2228  1.5199  0.6550
 1864SOL     OW17053   3.823   3.662   3.128 -0.3375  0.1349 -0.4381
 1864SOL    HW117054   3.891   3.607   3.088  0.6911  0.6211  0.6713
 1864SOL    HW217055   3.868   3.744   3.112  0.6639 -0.1208  1.0447
 1865SOL     OW17056   2.195   3.766   8.135  0.2866  0.3250 -0.1390
 1865SOL    HW117057   2.236   3.728   8.213 -0.0073  1.1371  0.4095
 1865SOL    HW217058   2.107   3.729   8.139  0.4011  0.1179  0.4749
 1866SOL     OW17059   1.014   3.921   6.765 -0.2410 -0.3047  0.2383
 1866SOL    HW117060   0.953   3.985   6.728 -1.8567 -0.7144  2.2380
 1866SOL    HW217061   1.097   3.967   6.775  0.1160 -1.0084  0.4998
 1867SOL     OW17062   4.086   3.426  16.313  0.3054 -0.5289 -0.3387
 1867SOL    HW117063   4.155   3.362  16.329 -0.9509 -2.4489 -2.6444
 1867SOL    HW217064   4.022   3.377  16.262 -2.6690  0.4934  2.3872
 1868SOL     OW17065   3.854   3.515  16.971  0.2809 -0.2171 -0.2177
 1868SOL    HW117066   3.841   3.537  16.879  0.9464  1.2972  0.0359
 1868SOL    HW217067   3.808   3.592  17.005  0.9635 -0.0279  0.2959
 1869SOL     OW17068   4.308   0.035   4.294 -0.4687 -0.0657 -0.2791
 1869SOL    HW117069   4.260   0.062   4.372 -0.2698 -2.3903  0.6641
 1869SOL    HW217070   4.263   0.057   4.213  1.9363 -2.0602 -2.1558
 1870SOL     OW17071   2.861   4.044   1.273  0.2078  0.2959 -0.5877
 1870SOL    HW117072   2.873   4.138   1.265 -0.8048  0.2950 -2.1616
 1870SOL    HW217073   2.881   4.011   1.185  2.3158 -1.7084  0.6577
 1871SOL     OW17074   3.778   3.143   2.360  0.0770 -0.4098  0.0920
 1871SOL    HW117075   3.732   3.213   2.314 -0.3591 -0.4796  0.4282
 1871SOL    HW217076   3.820   3.102   2.284  1.1457 -0.3895  0.6643
 1872SOL     OW17077   2.387   2.022   7.497  0.8424  0.0036  0.1903
 1872SOL    HW117078   2.467   2.059   7.536  2.3942 -0.5203 -2.4508
 1872SOL    HW217079   2.339   1.989   7.573  1.3024 -1.7394 -0.2788
 1873SOL     OW17080   2.533   2.314   7.727 -0.4287 -0.3462  0.3742
 1873SOL    HW117081   2.613   2.349   7.764 -0.3037 -1.7614  1.4647
 1873SOL    HW217082   2.545   2.323   7.633  0.0136  1.5143  0.6184
 1874SOL     OW17083   1.591   1.524  12.716  0.9534 -0.1380  0.7184
 1874SOL    HW117084   1.571   1.598  12.774 -1.9397 -1.3725  1.2778
 1874SOL    HW217085   1.684   1.510  12.737  1.2036 -1.4462 -1.3128
 1875SOL     OW17086   0.130   0.935   3.020 -0.4036  0.1197 -0.1380
 1875SOL    HW117087   0.225   0.929   3.034  0.0116  2.4520 -1.9912
 1875SOL    HW217088   0.116   1.027   3.000  0.6806  0.2269 -0.3835
 1876SOL     OW17089   4.381   3.337   4.366 -0.6172  0.3621  0.2667
 1876SOL    HW117090   4.410   3.273   4.430  0.2092  0.7092  0.2318
 1876SOL    HW217091   4.425   3.306   4.287  2.8680 -0.0214  2.3942
 1877SOL     OW17092   0.605   2.722   8.912 -0.2049 -0.3623  0.2727
 1877SOL    HW117093   0.649   2.798   8.874  0.5815 -0.7429  0.4320
 1877SOL    HW217094   0.526   2.759   8.952  0.3807 -1.2536  2.2699
 1878SOL     OW17095   4.700   3.915   0.850 -0.3622 -0.3141 -0.1211
 1878SOL    HW117096   4.679   4.005   0.875 -0.1298 -0.8999  2.1920
 1878SOL    HW217097   0.049   3.900   0.916  0.1732  1.1258 -0.3459
 1879SOL     OW17098   1.335   4.401   4.456  0.0300  0.2495 -0.1767
 1879SOL    HW117099   1.239   4.397   4.457 -0.0704  2.2586 -1.2149
 1879SOL    HW217100   1.351   4.494   4.470  1.2167 -0.1463  1.1620
 1880SOL     OW17101   0.770   0.767   3.444  0.1099 -0.2099 -0.4287
 1880SOL    HW117102   0.816   0.690   3.411 -0.0047 -1.2984  1.9705
 1880SOL    HW217103   0.711   0.790   3.372 -1.3207  2.4125  1.5762
 1881SOL     OW17104   2.252   1.731   2.776 -0.3840 -0.2591 -0.5322
 1881SOL    HW117105   2.173   1.786   2.777 -0.3985 -0.2836 -0.2990
 1881SOL    HW217106   2.253   1.699   2.866  1.6808 -0.1906 -0.5416
 1882SOL     OW17107   3.806   1.206  15.553 -0.3847  0.2169 -0.1496
 1882SOL    HW117108   3.741   1.231  15.619  2.2621  3.9880  1.0076
 1882SOL    HW217109   3.884   1.230  15.603 -0.0071  0.2291 -0.7470
 1883SOL     OW17110   2.768   3.414  14.308  0.2674 -0.4366 -0.7814
 1883SOL    HW117111   2.787   3.439  14.217 -0.7731 -0.2094 -0.9368
 1883SOL    HW217112   2.691   3.359  14.296  0.6016 -1.4683  1.8426
 1884SOL     OW17113   2.668   0.111   9.873 -0.2083 -0.0057  0.2976
 1884SOL    HW117114   2.664   0.029   9.824  0.2738  0.4421 -0.4874
 1884SOL    HW217115   2.598   0.165   9.836  0.5815 -1.6686 -3.5593
 1885SOL     OW17116   1.453   2.937   9.248  0.1162 -0.0009  0.4471
 1885SOL    HW117117   1.381   2.926   9.310  0.6693  0.4091  1.1803
 1885SOL    HW217118   1.489   3.019   9.283  0.6510 -0.3215  0.6637
 1886SOL     OW17119   1.773   1.049   3.735 -0.0779 -0.0520  0.3142
 1886SOL    HW117120   1.769   1.144   3.733 -1.9203 -0.1769 -2.0633
 1886SOL    HW217121   1.679   1.040   3.719  0.1841  2.4943 -2.6433
 1887SOL     OW17122   0.268   4.572   4.471 -0.5076 -0.4166  0.1830
 1887SOL    HW117123   0.220   4.541   4.393  0.8802  0.6718 -1.1112
 1887SOL    HW217124   0.325   4.628   4.418  1.4497  0.0804  2.8311
 1888SOL     OW17125   0.654   0.738   5.935 -0.1441 -0.2971 -0.1556
 1888SOL    HW117126   0.651   0.833   5.923 -1.2433 -0.1585  1.1746
 1888SOL    HW217127   0.697   0.728   6.020  0.9091 -0.2798 -0.6894
 1889SOL     OW17128   2.881   1.476   2.000  0.5830  0.7476 -0.6103
 1889SOL    HW117129   2.899   1.565   1.970 -0.0786  0.6701 -1.2174
 1889SOL    HW217130   2.938   1.472   2.077 -0.9970 -2.1601  0.3950
 1890SOL     OW17131   1.801   0.802   7.002  0.0367  0.4039 -0.0257
 1890SOL    HW117132   1.880   0.759   7.034 -1.1853  0.4548  3.0528
 1890SOL    HW217133   1.727   0.759   7.044 -0.8504  0.3672 -1.5968
 1891SOL     OW17134   2.822   4.540   0.917  0.3847 -0.4526 -0.0582
 1891SOL    HW117135   2.770   4.497   0.985  0.0142  0.9463  0.5354
 1891SOL    HW217136   2.761   4.534   0.843 -1.6446  0.9836  1.5253
 1892SOL     OW17137   3.151   1.935   1.924 -0.4003  0.0106 -0.5587
 1892SOL    HW117138   3.103   2.018   1.930  0.1765  0.1493  1.9602
 1892SOL    HW217139   3.186   1.933   1.835 -0.0001  2.8255 -0.4530
 1893SOL     OW17140   0.464   1.616  10.271  0.1515 -0.3284  0.5624
 1893SOL    HW117141   0.527   1.653  10.334  1.1885 -1.2100  0.0524
 1893SOL    HW217142   0.522   1.630  10.196 -0.3943 -0.2981  0.1527
 1894SOL     OW17143   0.666   0.904  15.598 -0.2144  1.0554 -0.3319
 1894SOL    HW117144   0.644   0.888  15.507  1.2316  3.8953 -1.1746
 1894SOL    HW217145   0.593   0.961  15.622  0.2048  1.6685 -0.5183
 1895SOL     OW17146   3.033   3.477   0.495  0.2747 -0.5128 -0.0303
 1895SOL    HW117147   3.067   3.418   0.562 -1.6985 -0.4146  1.0504
 1895SOL    HW217148   3.080   3.450   0.416 -0.1466 -2.7803  0.4888
 1896SOL     OW17149   2.512   4.409   6.015 -0.4660 -0.0339  0.1412
 1896SOL    HW117150   2.520   4.315   6.002 -0.4998  0.0423 -0.4168
 1896SOL    HW217151   2.562   4.427   6.095 -0.4387  4.6457 -0.9137
 1897SOL     OW17152   2.697   1.717   6.163 -0.3172 -0.0687  0.6632
 1897SOL    HW117153   2.724   1.772   6.237  2.1311  1.3197 -1.2366
 1897SOL    HW217154   2.658   1.656   6.224  0.1607 -0.3458  0.6922
 1898SOL     OW17155   2.441   1.717   5.842 -0.1771  0.0539 -0.0256
 1898SOL    HW117156   2.384   1.775   5.791 -1.6321  0.5857  2.1835
 1898SOL    HW217157   2.519   1.773   5.844  1.3895 -2.1263  0.1064
 1899SOL     OW17158   3.278   2.801   5.008 -0.3722  0.4141 -0.8497
 1899SOL    HW117159   3.261   2.886   4.968 -0.1280  1.1589  0.6293
 1899SOL    HW217160   3.196   2.755   4.993 -0.3206 -0.0130  0.1804
 1900SOL     OW17161   2.077   0.091   6.174  0.4494 -0.0858 -0.3557
 1900SOL    HW117162   2.010   0.038   6.217  0.9941 -0.6128 -0.1558
 1900SOL    HW217163   2.127   0.023   6.129  4.0148  0.9498  2.0156
 1901SOL     OW17164   0.464   4.520   2.041 -0.5487  0.5638  0.3497
 1901SOL    HW117165   0.426   4.501   2.127  0.2834 -0.4436  0.4915
 1901SOL    HW217166   0.491   4.431   2.022 -0.8824  0.8957 -1.6818
 1902SOL     OW17167   2.653   3.608  12.126 -0.0927 -0.1948 -0.2744
 1902SOL    HW117168   2.715   3.541  12.152  1.4825  2.2315  2.2450
 1902SOL    HW217169   2.598   3.617  12.204  1.3669 -2.0972  0.9712
 1903SOL     OW17170   3.742   3.139  10.953 -0.6019 -0.1028 -0.1647
 1903SOL    HW117171   3.830   3.108  10.931  0.2392 -0.7311  4.0222
 1903SOL    HW217172   3.704   3.184  10.877 -1.4516  0.9462  0.8765
 1904SOL     OW17173   3.440   3.353   8.820 -0.1003 -0.1171 -0.3902
 1904SOL    HW117174   3.447   3.374   8.913 -0.8506  0.0166 -0.3634
 1904SOL    HW217175   3.451   3.258   8.823 -0.3413 -0.1356 -0.1240
 1905SOL     OW17176   1.296   4.639   4.566 -0.5879  0.3822  0.2480
 1905SOL    HW117177   1.252   4.607   4.644 -1.2525 -1.4215 -0.8650
 1905SOL    HW217178   1.227   4.689   4.522 -1.1940  0.8314  1.7270
 1906SOL     OW17179   1.582   1.779   3.117 -0.0955  0.0385  0.3082
 1906SOL    HW117180   1.586   1.732   3.034  1.3830 -2.1864  1.6532
 1906SOL    HW217181   1.672   1.806   3.136  0.5934 -1.8030 -0.3507
 1907SOL     OW17182   2.106   2.581   1.299 -0.0855  0.0259 -0.1328
 1907SOL    HW117183   2.018   2.616   1.287  0.2597  0.9679  0.0788
 1907SOL    HW217184   2.136   2.552   1.213  2.0543 -2.3824  1.4144
 1908SOL     OW17185   2.845   2.027   4.188 -0.2402 -0.1420  0.4679
 1908SOL    HW117186   2.810   1.992   4.106 -0.9736  1.8609 -0.0640
 1908SOL    HW217187   2.821   1.962   4.253  1.4798 -1.4940 -0.2216
 1909SOL     OW17188   2.111   0.918  11.901  0.7436  0.3390  0.3969
 1909SOL    HW117189   2.091   0.921  11.808 -0.1068 -1.9140  0.5057
 1909SOL    HW217190   2.024   0.932  11.938  0.8308 -0.3407  0.8636
 1910SOL     OW17191   3.920   3.721  17.659 -0.2365  0.3501 -0.1752
 1910SOL    HW117192   4.014   3.711  17.646 -0.8294  0.1961 -4.1895
 1910SOL    HW217193   3.879   3.663  17.595 -0.2830 -0.6308  0.7293
 1911SOL     OW17194   0.417   1.898   4.457  0.0799  0.0734 -0.8212
 1911SOL    HW117195   0.508   1.924   4.449 -0.2527  0.4627 -3.4393
 1911SOL    HW217196   0.422   1.804   4.474  1.7890  0.2195 -0.5328
 1912SOL     OW17197   3.097   4.274  11.124 -0.0376  0.7306  0.0852
 1912SOL    HW117198   3.012   4.303  11.157  0.0891 -0.2841  1.3042
 1912SOL    HW217199   3.124   4.349  11.071 -2.6803  1.9580  0.5336
 1913SOL     OW17200   3.186   3.207   2.994  0.3132  0.2772  0.3738
 1913SOL    HW117201   3.160   3.115   3.004  2.9116 -0.4466  0.4113
 1913SOL    HW217202   3.257   3.216   3.058  0.1630 -0.0681  0.5892
 1914SOL     OW17203   3.981   1.847  13.372 -0.3882  0.5733  0.3186
 1914SOL    HW117204   4.027   1.832  13.454 -1.6787 -0.8565  0.7796
 1914SOL    HW217205   4.001   1.935  13.340  0.9875  0.7283  1.6580
 1915SOL     OW17206   3.379   4.438   9.653 -0.1465  0.4860 -0.3001
 1915SOL    HW117207   3.452   4.383   9.682  1.1062  1.8687 -0.8561
 1915SOL    HW217208   3.423   4.518   9.627 -0.4981  1.0621  0.9100
 1916SOL     OW17209   0.530   2.097   8.356  0.7032  0.2117 -0.6872
 1916SOL    HW117210   0.550   2.005   8.337 -1.6282 -0.2804 -0.7090
 1916SOL    HW217211   0.577   2.115   8.437 -0.8499 -0.4650  0.3541
 1917SOL     OW17212   3.839   3.251  17.356  0.2330  0.5487  0.7579
 1917SOL    HW117213   3.798   3.337  17.357  0.7080  0.7643  1.3645
 1917SOL    HW217214   3.869   3.253  17.265 -0.9446  1.0365  0.3865
 1918SOL     OW17215   3.395   1.583   3.328 -0.1543  0.0586 -0.1205
 1918SOL    HW117216   3.327   1.531   3.372  0.3564  0.2548  0.9175
 1918SOL    HW217217   3.416   1.521   3.259  2.2932  1.8566 -0.9704
 1919SOL     OW17218   2.469   1.967   6.248 -0.1246  1.0144  0.3451
 1919SOL    HW117219   2.556   1.958   6.285 -0.3502  1.3856  0.9596
 1919SOL    HW217220   2.406   1.949   6.318 -1.1857  1.2851 -0.5306
 1920SOL     OW17221   4.576   3.004   7.924 -0.4161  0.2084  0.0411
 1920SOL    HW117222   4.551   2.912   7.922  2.7204 -0.7005  2.0971
 1920SOL    HW217223   4.497   3.057   7.937 -1.5584 -1.4137 -0.3854
 1921SOL     OW17224   0.860   2.323  11.089  0.0911 -0.2699 -1.1533
 1921SOL    HW117225   0.781   2.332  11.143  0.4264 -0.5354 -0.6167
 1921SOL    HW217226   0.921   2.385  11.129 -0.9415 -1.3604  2.0783
 1922SOL     OW17227   0.566   0.822   6.637  0.5909 -0.3166  0.2101
 1922SOL    HW117228   0.559   0.904   6.587  2.3288 -1.3208 -1.6743
 1922SOL    HW217229   0.495   0.844   6.697 -1.6110  1.5705 -3.0849
 1923SOL     OW17230   2.242   0.975   9.960  0.1290 -0.1989 -0.0136
 1923SOL    HW117231   2.230   1.042   9.893  0.7724  1.6508  1.7163
 1923SOL    HW217232   2.157   0.973  10.003  0.0014  0.7413 -0.2392
 1924SOL     OW17233   1.783   0.339   2.521 -0.3374  0.1825 -0.5518
 1924SOL    HW117234   1.813   0.429   2.530  1.2453 -0.1088 -2.8610
 1924SOL    HW217235   1.869   0.299   2.527 -0.2201  0.6778  1.0846
 1925SOL     OW17236   4.665   1.179   8.618 -0.5494 -0.2833 -0.2403
 1925SOL    HW117237   0.024   1.185   8.563 -0.3421  2.1076  0.3065
 1925SOL    HW217238   4.593   1.196   8.558 -0.2787 -0.1891 -0.5419
 1926SOL     OW17239   3.492   2.199   2.372  0.6006  0.7660  0.6309
 1926SOL    HW117240   3.494   2.293   2.393  1.1172  0.6349  1.1421
 1926SOL    HW217241   3.433   2.164   2.439 -2.0963  0.3779 -1.9180
 1927SOL     OW17242   1.276   4.409   5.200  0.3942 -0.3191 -0.1749
 1927SOL    HW117243   1.238   4.381   5.283  0.0866  0.5330 -0.0214
 1927SOL    HW217244   1.274   4.504   5.213  2.4280 -0.3355  0.1341
 1928SOL     OW17245   1.617   2.781  10.195 -0.2789  0.5139  0.2869
 1928SOL    HW117246   1.543   2.820  10.242  1.1806  0.5149  2.5965
 1928SOL    HW217247   1.688   2.779  10.259 -0.0890 -1.7002  0.0000
 1929SOL     OW17248   0.297   4.121   1.987 -0.2854  0.0080 -0.2879
 1929SOL    HW117249   0.363   4.183   1.956 -0.6017 -0.7085 -2.3934
 1929SOL    HW217250   0.277   4.074   1.906 -1.7456  1.0981 -0.5685
 1930SOL     OW17251   2.775   1.801   3.004  0.6545  0.0334 -1.0974
 1930SOL    HW117252   2.834   1.872   2.980  0.9688  0.2787  0.4343
 1930SOL    HW217253   2.825   1.767   3.078  0.4205  2.3700  0.1430
 1931SOL     OW17254   4.584   3.192   6.666 -0.3194  0.1327  0.1654
 1931SOL    HW117255   4.490   3.173   6.671 -0.7274  2.3526  0.9996
 1931SOL    HW217256   4.610   3.102   6.649  0.6094  0.5709 -0.6898
 1932SOL     OW17257   1.874   4.586   3.973  0.2227  0.0977  0.5531
 1932SOL    HW117258   1.949   4.573   4.031  0.7558  0.1802 -0.1086
 1932SOL    HW217259   1.834   4.666   4.007  1.6591  1.8923 -1.9699
 1933SOL     OW17260   2.527   3.553   9.167 -0.5746 -0.1368 -0.0585
 1933SOL    HW117261   2.490   3.626   9.216 -0.9075 -0.2558 -0.1299
 1933SOL    HW217262   2.500   3.483   9.226 -2.4030 -0.0490 -0.7737
 1934SOL     OW17263   0.940   2.520   3.118  0.4058 -0.0317 -0.0125
 1934SOL    HW117264   0.967   2.610   3.101 -2.8805  0.7415 -1.1875
 1934SOL    HW217265   0.908   2.503   3.029  0.9570 -0.1487 -0.1856
 1935SOL     OW17266   0.995   4.093   7.500 -0.1881 -0.4943 -0.2858
 1935SOL    HW117267   1.057   4.025   7.527 -0.2729  0.4301  2.1727
 1935SOL    HW217268   1.017   4.096   7.407 -0.8450 -3.0900 -0.5251
 1936SOL     OW17269   3.698   2.801   2.323 -0.0996  0.4286  0.1680
 1936SOL    HW117270   3.727   2.852   2.248  0.6052 -1.0698 -0.5881
 1936SOL    HW217271   3.603   2.793   2.312 -0.2534 -1.4938  2.8270
 1937SOL     OW17272   0.211   0.352   8.564 -1.0486 -0.1158  0.0309
 1937SOL    HW117273   0.228   0.264   8.596 -0.2174  0.9146  2.3940
 1937SOL    HW217274   0.198   0.337   8.470 -0.2524  0.0329 -0.1056
 1938SOL     OW17275   1.383   3.078   4.642 -0.3207 -0.1513  0.2439
 1938SOL    HW117276   1.435   3.008   4.601 -0.9500 -1.8099  2.2199
 1938SOL    HW217277   1.440   3.150   4.615  1.9056 -1.7493  0.6613
 1939SOL     OW17278   2.570   1.207   8.504  0.0152  0.2868  0.1607
 1939SOL    HW117279   2.534   1.142   8.444  1.0831 -0.2591  0.1163
 1939SOL    HW217280   2.628   1.152   8.556 -0.4798 -0.3400  0.0484
 1940SOL     OW17281   1.575   0.624   7.036 -0.3102 -0.2166  0.0553
 1940SOL    HW117282   1.504   0.649   7.095  0.7636 -3.6191  2.7858
 1940SOL    HW217283   1.520   0.616   6.958 -0.2557 -1.4117  0.1522
 1941SOL     OW17284   1.859   2.519  15.391 -0.1482 -0.0674 -0.2892
 1941SOL    HW117285   1.952   2.518  15.412 -0.1463 -1.6185 -0.3695
 1941SOL    HW217286   1.818   2.492  15.474 -0.3885  1.7655  0.1997
 1942SOL     OW17287   4.311   0.646   3.339  0.2381 -0.6780 -0.7004
 1942SOL    HW117288   4.332   0.682   3.425  1.0801 -0.2538 -1.0844
 1942SOL    HW217289   4.271   0.562   3.359 -2.2481  0.6639  0.0084
 1943SOL     OW17290   3.055   4.030  10.828 -0.0660  0.0973 -0.1316
 1943SOL    HW117291   3.014   4.023  10.742 -0.2450  0.2852 -0.0605
 1943SOL    HW217292   3.147   4.018  10.804 -0.0862  2.9081 -1.5929
 1944SOL     OW17293   2.381   2.394   5.676  0.5518  0.4284  0.7033
 1944SOL    HW117294   2.460   2.384   5.729  0.5347 -1.2553  0.3854
 1944SOL    HW217295   2.384   2.488   5.659  1.0007  0.4596  0.9567
 1945SOL     OW17296   2.175   2.850   4.986  0.1893 -0.2793  0.2456
 1945SOL    HW117297   2.127   2.769   4.970  1.9586 -1.0310 -1.2434
 1945SOL    HW217298   2.147   2.868   5.076 -0.3412 -1.4357  0.3128
 1946SOL     OW17299   4.679   4.616   7.299  0.4487  0.4090 -0.0883
 1946SOL    HW117300   0.048   4.650   7.313  0.8026 -0.0275 -1.2664
 1946SOL    HW217301   4.674   4.551   7.369 -0.9128  0.8595  0.2233
 1947SOL     OW17302   2.408   1.536   6.943 -0.2591  0.9973 -0.1867
 1947SOL    HW117303   2.409   1.583   6.859 -1.1846  0.4345 -0.5085
 1947SOL    HW217304   2.318   1.546   6.975  0.2257 -2.4062  2.1597
 1948SOL     OW17305   3.724   3.432  11.088  0.3791  1.0430 -0.0802
 1948SOL    HW117306   3.806   3.427  11.040  0.8079 -1.4577  0.9145
 1948SOL    HW217307   3.680   3.349  11.071 -0.0902  0.9441  1.5594
 1949SOL     OW17308   1.515   3.243   6.948  0.3022 -0.3518 -1.0101
 1949SOL    HW117309   1.490   3.232   7.039  1.7833  0.9672 -0.4375
 1949SOL    HW217310   1.604   3.278   6.954  0.1201 -0.2105  0.7265
 1950SOL     OW17311   0.586   0.017   0.446 -0.6996  0.0078 -0.0437
 1950SOL    HW117312   0.586   0.082   0.516 -1.3931  0.9335 -0.8999
 1950SOL    HW217313   0.576   4.651   0.487 -2.1783  0.8833  1.4320
 1951SOL     OW17314   2.610   4.419  10.249 -0.3347  0.4194  0.3517
 1951SOL    HW117315   2.584   4.483  10.183 -1.9743 -1.4519 -0.8112
 1951SOL    HW217316   2.655   4.475  10.313  0.2579  1.4054 -0.9091
 1952SOL     OW17317   0.981   2.453   9.937 -0.6006  0.2184 -0.4612
 1952SOL    HW117318   0.932   2.372   9.933  1.4452 -1.0997  0.9471
 1952SOL    HW217319   0.981   2.483   9.846  0.9085  0.7980 -0.2809
 1953SOL     OW17320   1.674   0.142   3.309  0.2397 -0.0552  0.0001
 1953SOL    HW117321   1.601   0.080   3.314  0.7906 -0.7868 -1.1884
 1953SOL    HW217322   1.637   0.196   3.240 -0.3273 -0.5613 -0.0905
 1954SOL     OW17323   0.616   2.029   6.670  0.0969  0.3754 -0.1187
 1954SOL    HW117324   0.536   1.992   6.632  0.1136 -0.8108  0.9823
 1954SOL    HW217325   0.594   2.093   6.737  0.0337  0.6765 -0.4312
 1955SOL     OW17326   0.126   2.094   2.023 -0.2753  0.0827 -0.2928
 1955SOL    HW117327   0.160   2.101   2.112  1.1439 -1.0860 -0.7484
 1955SOL    HW217328   0.094   2.004   2.017  1.5110 -0.4708 -1.4919
 1956SOL     OW17329   1.840   4.697   7.461 -0.7609  0.0890  0.1528
 1956SOL    HW117330   1.769   4.671   7.521 -1.3824  1.9562  0.2332
 1956SOL    HW217331   1.821   4.632   7.394  0.1203  0.6275 -0.6101
 1957SOL     OW17332   4.147   0.232  12.037  0.1149  0.1505  0.2238
 1957SOL    HW117333   4.236   0.206  12.059  0.3873 -0.0478 -1.1171
 1957SOL    HW217334   4.130   0.193  11.951 -0.2375  0.1763  0.2781
 1958SOL     OW17335   2.292   2.031   4.241 -0.1051 -0.0579  0.0052
 1958SOL    HW117336   2.215   2.008   4.189 -0.2599 -2.7265  1.4486
 1958SOL    HW217337   2.351   2.049   4.167 -0.0486 -3.1857 -0.7076
 1959SOL     OW17338   3.250   1.560  13.619 -0.0902  0.7178  0.3627
 1959SOL    HW117339   3.256   1.492  13.685  1.3863 -2.7848 -3.3844
 1959SOL    HW217340   3.159   1.585  13.635 -1.1280 -1.2513 -2.4164
 1960SOL     OW17341   2.517   2.684   5.040  0.6096 -0.1261 -0.9140
 1960SOL    HW117342   2.498   2.763   4.989 -0.2152 -0.5372 -1.2244
 1960SOL    HW217343   2.611   2.701   5.054  0.6778 -1.2097 -0.1151
 1961SOL     OW17344   3.799   0.870  11.912  0.0960 -0.2016  0.2930
 1961SOL    HW117345   3.758   0.952  11.939  0.2762  0.6958 -2.2179
 1961SOL    HW217346   3.838   0.894  11.828  0.8348  1.3811  1.0737
 1962SOL     OW17347   4.624   4.640   3.415 -0.1489  0.1121  0.1728
 1962SOL    HW117348   4.690   4.656   3.348 -0.8960  0.0695 -0.5801
 1962SOL    HW217349   4.643   4.712   3.475  1.0546 -1.0205  1.1432
 1963SOL     OW17350   0.649   3.002  15.542  0.4735  0.0961  0.5058
 1963SOL    HW117351   0.600   3.083  15.531  1.3696  0.5055 -0.4231
 1963SOL    HW217352   0.642   2.975  15.633  1.3375 -0.3913  0.4300
 1964SOL     OW17353   0.985   4.052   5.600 -0.0487 -0.0060 -0.0986
 1964SOL    HW117354   0.893   4.046   5.628  1.0054  0.6629  3.5545
 1964SOL    HW217355   1.013   4.135   5.638 -0.8628  0.0539  0.3664
 1965SOL     OW17356   3.471   0.660  16.124 -0.2819  0.1422  0.5532
 1965SOL    HW117357   3.500   0.660  16.033  1.2345  0.4700  1.0332
 1965SOL    HW217358   3.382   0.692  16.111  0.0222 -0.1887 -2.3671
 1966SOL     OW17359   0.908   1.966  15.112  0.2962 -0.3955 -0.1346
 1966SOL    HW117360   0.952   2.020  15.047  3.0062 -1.2026  1.0407
 1966SOL    HW217361   0.832   1.934  15.064  1.2256 -3.3572  0.3364
 1967SOL     OW17362   1.357   3.228  13.595 -0.4599 -0.5482  0.2220
 1967SOL    HW117363   1.422   3.289  13.562  0.3430 -1.9551 -0.7804
 1967SOL    HW217364   1.360   3.250  13.688  0.4068  1.3473 -0.2579
 1968SOL     OW17365   1.266   1.243   3.696  0.6155 -0.1607  0.2296
 1968SOL    HW117366   1.198   1.175   3.695 -1.2468  1.7419 -1.9659
 1968SOL    HW217367   1.293   1.230   3.605  1.5810 -1.3517  0.6798
 1969SOL     OW17368   2.957   3.831   2.327  0.4197  0.1888  0.2289
 1969SOL    HW117369   2.869   3.857   2.299  0.7402  0.0433 -0.8919
 1969SOL    HW217370   2.988   3.904   2.381  0.2406  1.0277 -0.8035
 1970SOL     OW17371   0.044   3.239   3.252  0.5502 -0.0383 -0.1388
 1970SOL    HW117372   0.107   3.167   3.244 -1.7649 -2.1142  0.1617
 1970SOL    HW217373   4.686   3.191   3.223 -0.5916  1.0362  1.1167
 1971SOL     OW17374   4.517   3.629   2.242  0.5432  0.3365  0.2450
 1971SOL    HW117375   4.481   3.652   2.156 -0.3768  1.0129  0.8105
 1971SOL    HW217376   4.612   3.635   2.232  0.9181 -4.5716  0.8585
 1972SOL     OW17377   3.193   3.763   0.975  0.2370 -0.3404  0.4386
 1972SOL    HW117378   3.259   3.705   1.013  0.6914  0.9105  1.5670
 1972SOL    HW217379   3.138   3.694   0.938  1.9843 -1.3424 -0.2946
 1973SOL     OW17380   1.295   3.663   1.807 -0.2599  0.4474  0.4667
 1973SOL    HW117381   1.306   3.735   1.745  1.1624 -1.6232 -1.7534
 1973SOL    HW217382   1.201   3.671   1.820 -0.1448 -2.3150  3.1396
 1974SOL     OW17383   0.099   0.961  13.439 -0.0596  0.3257  0.1401
 1974SOL    HW117384   0.142   1.020  13.502  0.5569 -0.8967  0.8566
 1974SOL    HW217385   0.155   0.970  13.362 -2.7256  0.7420 -1.7732
 1975SOL     OW17386   4.378   3.945   2.142 -0.5316  0.3116 -0.0592
 1975SOL    HW117387   4.431   3.996   2.081 -0.8293  1.2294  0.4559
 1975SOL    HW217388   4.361   3.869   2.086  0.4251  1.2958 -1.6654
 1976SOL     OW17389   1.910   0.564   7.871 -0.3351  0.3249 -0.0753
 1976SOL    HW117390   1.843   0.611   7.821  0.6490  1.4997 -0.2602
 1976SOL    HW217391   1.987   0.559   7.815 -0.5534 -0.7855 -0.2909
 1977SOL     OW17392   3.868   4.152   6.600  0.0631  0.2342 -0.1437
 1977SOL    HW117393   3.780   4.117   6.610  0.3069 -0.2004  0.4923
 1977SOL    HW217394   3.850   4.207   6.524  0.0190 -0.9223 -0.9712
 1978SOL     OW17395   3.246   1.132   2.626 -0.5278 -0.8937 -0.1333
 1978SOL    HW117396   3.255   1.207   2.567 -0.8317 -0.4922  0.3238
 1978SOL    HW217397   3.185   1.073   2.582 -0.1275 -0.3481 -1.4115
 1979SOL     OW17398   2.831   2.337   2.787  0.1181  0.4821 -0.1195
 1979SOL    HW117399   2.881   2.329   2.706  0.3074  1.1410 -0.0625
 1979SOL    HW217400   2.772   2.262   2.776 -1.0103  1.4369 -0.5571
 1980SOL     OW17401   2.584   2.863  13.962 -0.1953  0.2681 -0.0537
 1980SOL    HW117402   2.493   2.834  13.960  0.2285 -0.9568 -0.9014
 1980SOL    HW217403   2.621   2.804  14.028 -0.4100  1.3024  1.0122
 1981SOL     OW17404   3.222   4.456  10.965 -0.0738  0.3491 -0.2146
 1981SOL    HW117405   3.299   4.440  11.021  0.9023 -1.9210 -2.2150
 1981SOL    HW217406   3.206   4.549  10.976  0.7871  0.2330  2.0892
 1982SOL     OW17407   0.525   4.113   8.458 -0.8434  0.4229 -0.5479
 1982SOL    HW117408   0.572   4.177   8.405 -1.6924  2.1856  0.8623
 1982SOL    HW217409   0.436   4.128   8.427 -1.2917  1.7885  1.4397
 1983SOL     OW17410   1.772   1.317   6.097  0.1710 -0.4305  0.2145
 1983SOL    HW117411   1.790   1.304   6.190 -0.4259 -2.6899  0.0191
 1983SOL    HW217412   1.861   1.309   6.063 -0.2128 -1.5693 -0.5648
 1984SOL     OW17413   0.743   3.281   3.289 -0.9183  0.2826 -0.0355
 1984SOL    HW117414   0.759   3.335   3.211  0.2769 -0.5033 -0.3243
 1984SOL    HW217415   0.691   3.338   3.346 -2.3535 -1.1301  0.0602
 1985SOL     OW17416   2.753   4.228   9.011  0.1249  0.1095 -0.2944
 1985SOL    HW117417   2.660   4.206   9.004 -0.1014  0.9566  0.0544
 1985SOL    HW217418   2.751   4.302   8.951  0.1061  1.1408  0.9673
 1986SOL     OW17419   2.780   4.399   6.215  0.1921  0.4134 -0.4059
 1986SOL    HW117420   2.825   4.407   6.299 -1.0091 -0.7549  0.3492
 1986SOL    HW217421   2.809   4.311   6.189  0.6801 -0.0367  1.6831
 1987SOL     OW17422   1.782   3.263   5.644 -0.3099 -0.0986  0.3112
 1987SOL    HW117423   1.711   3.328   5.635  0.1202  0.3203 -0.0773
 1987SOL    HW217424   1.823   3.308   5.717 -1.7928 -2.4335  2.5832
 1988SOL     OW17425   0.093   3.692   4.699 -0.4111  0.2133  0.6207
 1988SOL    HW117426   4.719   3.679   4.682 -0.1609  0.8956 -1.2791
 1988SOL    HW217427   0.115   3.611   4.746 -0.7660  0.7902  1.7909
 1989SOL     OW17428   2.723   3.027   6.495 -0.3213 -0.3612  0.1709
 1989SOL    HW117429   2.792   2.978   6.450  0.2752  0.2415  0.4241
 1989SOL    HW217430   2.706   2.954   6.555 -1.5280 -0.8193 -0.7345
 1990SOL     OW17431   1.445   0.360   1.176  0.2422 -0.3672 -1.0286
 1990SOL    HW117432   1.354   0.359   1.146 -0.1816  0.3976  0.2347
 1990SOL    HW217433   1.440   0.392   1.266 -0.9968 -0.4204 -1.0762
 1991SOL     OW17434   3.939   3.042   6.984 -0.4614  0.1718  0.2289
 1991SOL    HW117435   3.906   2.997   7.061 -0.8675  0.0632 -0.0083
 1991SOL    HW217436   3.967   3.123   7.027  1.6008  0.1646 -1.0843
 1992SOL     OW17437   1.899   1.893   4.464 -0.4714  0.3810  0.4088
 1992SOL    HW117438   1.852   1.977   4.466  2.1893  1.7683  3.3580
 1992SOL    HW217439   1.906   1.889   4.369 -1.2500  0.4211  0.3455
 1993SOL     OW17440   3.295   4.445   5.640 -0.1310  0.4478  0.2606
 1993SOL    HW117441   3.335   4.444   5.553  2.0717 -2.0857  1.2892
 1993SOL    HW217442   3.350   4.383   5.688 -0.3782  1.1820  1.4939
 1994SOL     OW17443   1.280   3.053   3.611  0.0201  0.0828 -0.3537
 1994SOL    HW117444   1.330   3.013   3.682 -1.5220  0.5026  0.9917
 1994SOL    HW217445   1.227   2.985   3.569  2.1097 -2.6216  1.4455
 1995SOL     OW17446   2.725   1.951   6.326 -0.5280  0.2542  0.0472
 1995SOL    HW117447   2.810   1.940   6.282  0.3855  1.7425  1.4348
 1995SOL    HW217448   2.745   1.974   6.416 -1.9693 -1.6842  0.8518
 1996SOL     OW17449   4.532   1.542  10.971 -0.0981  0.6738 -0.0732
 1996SOL    HW117450   4.505   1.633  10.975  3.3045  1.5396  3.1363
 1996SOL    HW217451   4.445   1.504  10.979  0.4916 -0.5314  0.6428
 1997SOL     OW17452   2.069   1.782  16.852 -0.7980  0.3065  0.3127
 1997SOL    HW117453   2.031   1.707  16.897  0.3943 -1.2984 -1.3586
 1997SOL    HW217454   1.986   1.823  16.826  1.4225  2.9903 -2.6054
 1998SOL     OW17455   4.189   2.266   1.054  0.1884 -0.2391  0.3948
 1998SOL    HW117456   4.220   2.354   1.076  1.8694 -0.9296  0.7720
 1998SOL    HW217457   4.139   2.254   1.134  0.7062 -1.0286  0.6072
 1999SOL     OW17458   1.785   0.152  11.691 -0.8757 -0.0172  0.5441
 1999SOL    HW117459   1.762   0.217  11.625 -0.5367  1.3504  1.7762
 1999SOL    HW217460   1.760   0.196  11.772 -1.4590  0.4507  0.1124
 2000SOL     OW17461   3.672   4.174   0.669  0.5338  0.4737 -0.0396
 2000SOL    HW117462   3.617   4.119   0.613 -0.6877  0.6440  0.9742
 2000SOL    HW217463   3.645   4.258   0.632  0.9685  0.2020 -0.9757
 2001SOL     OW17464   2.515   2.421  16.125  0.4558  0.0803  0.3787
 2001SOL    HW117465   2.479   2.487  16.184  0.5031  1.0752 -0.7016
 2001SOL    HW217466   2.605   2.417  16.157 -0.3395 -0.9737  2.4650
 2002SOL     OW17467   3.159   3.005   3.509 -0.3923 -0.3723  0.1561
 2002SOL    HW117468   3.148   3.099   3.501  0.0969 -0.3558 -0.3279
 2002SOL    HW217469   3.077   2.988   3.555 -0.2545  0.4805  0.7181
 2003SOL     OW17470   3.370   1.706  13.448  0.8475  0.1625  0.0816
 2003SOL    HW117471   3.302   1.715  13.381 -0.8016 -1.5528  1.5080
 2003SOL    HW217472   3.330   1.644  13.509  1.2967 -3.4542 -3.2540
 2004SOL     OW17473   2.966   4.639   7.490  0.0107 -0.1927  0.3673
 2004SOL    HW117474   2.925   4.596   7.565  0.9727  1.1017  1.6179
 2004SOL    HW217475   2.948   0.011   7.509 -0.4345  0.0845 -1.3797
 2005SOL     OW17476   3.161   4.587   7.767  0.0439  0.5021  0.1011
 2005SOL    HW117477   3.249   4.572   7.732 -0.7595 -0.1005 -1.6472
 2005SOL    HW217478   3.124   4.512   7.721 -0.9821 -1.0751  3.5044
 2006SOL     OW17479   3.459   0.671   3.521  0.0282 -0.3839 -0.5423
 2006SOL    HW117480   3.548   0.706   3.520  1.4056 -3.8822 -0.5379
 2006SOL    HW217481   3.412   0.733   3.577 -0.7842 -1.5985  0.1226
 2007SOL     OW17482   3.284   0.976   9.194 -0.0951  0.0800  0.1417
 2007SOL    HW117483   3.194   0.942   9.190  0.6372 -2.1598  2.5657
 2007SOL    HW217484   3.303   0.990   9.101 -1.9710  1.1462 -0.0942
 2008SOL     OW17485   1.118   3.309   3.741  0.0888  0.4561 -0.2880
 2008SOL    HW117486   1.157   3.288   3.826  0.0362  1.3368 -0.0440
 2008SOL    HW217487   1.161   3.246   3.683  0.2480  1.3639 -1.1671
 2009SOL     OW17488   1.095   1.030   3.926  0.3736  0.1064  0.5396
 2009SOL    HW117489   1.049   0.964   3.874 -0.4188  1.0592  0.0294
 2009SOL    HW217490   1.057   1.110   3.888 -0.9531 -0.3129  0.9795
 2010SOL     OW17491   1.760   0.489   8.949 -0.2256 -0.3318 -0.4635
 2010SOL    HW117492   1.727   0.408   8.989  2.3832 -0.6516  1.0521
 2010SOL    HW217493   1.740   0.547   9.023 -1.4350  0.7821 -1.6607
 2011SOL     OW17494   0.762   2.035   8.546  0.0351  0.1842  0.3999
 2011SOL    HW117495   0.750   2.095   8.620 -0.6596  0.8726 -0.2663
 2011SOL    HW217496   0.739   1.953   8.589 -1.6295 -0.1268 -1.0983
 2012SOL     OW17497   2.671   4.346   7.284  0.0259  0.1070 -0.1448
 2012SOL    HW117498   2.622   4.323   7.206  2.8169 -1.3995 -1.4700
 2012SOL    HW217499   2.603   4.406   7.314 -0.8631 -1.0714  0.1786
 2013SOL     OW17500   0.415   2.276   0.291 -0.4195  0.3863  0.4225
 2013SOL    HW117501   0.411   2.371   0.278 -1.7219  0.3014  0.2416
 2013SOL    HW217502   0.329   2.248   0.321  0.2664 -1.5159  0.6098
 2014SOL     OW17503   0.424   3.001   4.363 -0.1949 -0.0413  0.1595
 2014SOL    HW117504   0.431   3.089   4.327 -0.4542  0.6778  1.8959
 2014SOL    HW217505   0.408   3.004   4.457  2.9762  1.5601  0.6398
 2015SOL     OW17506   3.970   2.060   4.903  0.0422 -0.5610  0.0684
 2015SOL    HW117507   3.927   2.120   4.964 -1.2419 -1.8833  0.4737
 2015SOL    HW217508   3.896   2.000   4.894  0.1041 -0.5361 -0.6647
 2016SOL     OW17509   4.127   2.021  16.542 -0.7851  0.3562 -0.0349
 2016SOL    HW117510   4.161   2.004  16.454  1.2428  0.7276  0.6779
 2016SOL    HW217511   4.063   1.951  16.540  1.3790 -1.5755 -1.7359
 2017SOL     OW17512   3.433   0.071   5.474 -0.0264 -0.2659 -0.0050
 2017SOL    HW117513   3.344   0.037   5.478 -0.8817  2.1027  0.8878
 2017SOL    HW217514   3.460   0.034   5.558 -1.3821 -0.8126  0.1828
 2018SOL     OW17515   2.059   2.034   8.980  0.1578 -0.0504 -0.0891
 2018SOL    HW117516   1.973   2.075   8.970 -0.8619 -2.2090 -0.1470
 2018SOL    HW217517   2.118   2.109   8.983 -0.6803  0.5326  2.1747
 2019SOL     OW17518   1.339   2.500   2.791  0.9310  0.2381 -0.5189
 2019SOL    HW117519   1.267   2.534   2.737 -0.5871 -0.7644  0.8695
 2019SOL    HW217520   1.350   2.410   2.761 -1.6633 -0.0716 -0.5680
 2020SOL     OW17521   2.726   1.376   9.043 -0.0946 -0.4920 -0.0953
 2020SOL    HW117522   2.708   1.466   9.017  0.1834 -0.2025  0.6990
 2020SOL    HW217523   2.818   1.380   9.069 -0.6697 -1.2565  2.0520
 2021SOL     OW17524   3.779   3.923   1.081  0.0783  0.6663  0.3455
 2021SOL    HW117525   3.704   3.892   1.031  0.7409  1.4634 -1.1235
 2021SOL    HW217526   3.801   4.001   1.030  2.7044  0.8083  1.6606
 2022SOL     OW17527   1.445   1.985   4.261  0.0332 -0.2260 -0.6373
 2022SOL    HW117528   1.358   2.012   4.230  0.2685  1.9925  0.6427
 2022SOL    HW217529   1.431   1.952   4.350  1.1534 -1.7630 -1.0226
 2023SOL     OW17530   3.864   2.455   5.619 -0.5354  0.6799  0.2544
 2023SOL    HW117531   3.858   2.458   5.715  0.4274 -2.0231  0.3835
 2023SOL    HW217532   3.959   2.451   5.611 -0.5804 -2.2844  1.0609
 2024SOL     OW17533   0.349   4.402   8.712  0.3694 -0.0466  0.2046
 2024SOL    HW117534   0.323   4.336   8.776 -2.9630 -2.5531 -3.6597
 2024SOL    HW217535   0.263   4.429   8.678  1.2255  1.2199 -0.9665
 2025SOL     OW17536   3.120   2.334   0.846 -0.4132 -0.0461  1.0265
 2025SOL    HW117537   3.171   2.395   0.792  0.4303 -0.5511  1.2495
 2025SOL    HW217538   3.185   2.276   0.886 -1.5288 -1.1923  1.1761
 2026SOL     OW17539   1.055   2.402   8.282  0.4083  0.5256  0.4235
 2026SOL    HW117540   1.133   2.456   8.295  0.5752  0.5732 -0.7973
 2026SOL    HW217541   1.053   2.349   8.362  2.3484 -0.0071  0.1238
 2027SOL     OW17542   2.978   2.014   3.039 -0.4182 -0.0801  0.3967
 2027SOL    HW117543   3.032   1.975   3.107 -2.0479 -0.4334  1.5060
 2027SOL    HW217544   3.047   2.053   2.985  0.1917 -0.1960  1.1020
 2028SOL     OW17545   3.661   0.056   8.711 -0.5115  0.1309  0.3634
 2028SOL    HW117546   3.704   0.008   8.641 -1.4134 -0.5412  0.2735
 2028SOL    HW217547   3.736   0.090   8.760 -0.2126  2.2657 -1.5507
 2029SOL     OW17548   0.221   2.451  13.783  0.4118 -0.5669  0.0926
 2029SOL    HW117549   0.126   2.458  13.790  0.7609  0.6769  3.4090
 2029SOL    HW217550   0.240   2.461  13.876  2.5220 -0.6236 -0.3264
 2030SOL     OW17551   0.408   2.796  14.987 -0.3883  0.2449 -0.1034
 2030SOL    HW117552   0.352   2.719  14.994  0.9946 -0.6172  1.3689
 2030SOL    HW217553   0.342   2.862  15.006  0.8355  2.0421 -1.9974
 2031SOL     OW17554   1.970   3.697   4.027 -0.2578  0.5235 -0.2824
 2031SOL    HW117555   1.949   3.724   3.938  0.4299 -1.8106 -1.1540
 2031SOL    HW217556   1.883   3.708   4.065 -0.9903 -1.5541 -1.3815
 2032SOL     OW17557   3.178   4.114  15.174  0.5919  0.0606  0.0528
 2032SOL    HW117558   3.102   4.058  15.155  0.5400 -0.0437  0.5661
 2032SOL    HW217559   3.233   4.112  15.095  0.6954  0.2019  0.1228
 2033SOL     OW17560   3.450   2.377   3.108 -0.7517 -0.3605 -0.0127
 2033SOL    HW117561   3.437   2.456   3.160  1.3785  0.1084 -0.2190
 2033SOL    HW217562   3.361   2.342   3.097 -1.6725  1.8331  0.5209
 2034SOL     OW17563   0.202   1.980   3.329 -0.2422 -0.2364  0.4288
 2034SOL    HW117564   0.283   1.930   3.333 -0.3278 -0.4934 -1.0582
 2034SOL    HW217565   0.225   2.073   3.336 -1.1430  0.1142 -1.2373
 2035SOL     OW17566   2.868   0.560  14.734 -0.1256 -0.1184 -0.8416
 2035SOL    HW117567   2.909   0.528  14.814 -2.3425  1.3581  0.8696
 2035SOL    HW217568   2.787   0.510  14.735 -0.0499 -0.1659  1.4306
 2036SOL     OW17569   1.704   2.823   7.401 -0.1555  0.0718 -0.2077
 2036SOL    HW117570   1.725   2.898   7.456  0.1296  0.2129 -0.5091
 2036SOL    HW217571   1.648   2.771   7.458  0.3840  0.3692  0.5808
 2037SOL     OW17572   1.415   2.207  14.208  0.7018 -0.0669  0.2455
 2037SOL    HW117573   1.384   2.291  14.173  0.0355 -0.0106  0.9736
 2037SOL    HW217574   1.509   2.220  14.218  0.7840  0.9623 -1.8160
 2038SOL     OW17575   2.051   0.208  10.822 -0.1278  0.2962 -0.5806
 2038SOL    HW117576   2.139   0.224  10.856 -0.9996  1.3827  1.1436
 2038SOL    HW217577   2.081   0.157  10.747  1.6862  1.1638 -0.4389
 2039SOL     OW17578   2.005   2.946   3.455  0.0111 -0.5942 -0.4171
 2039SOL    HW117579   1.938   2.973   3.518  1.9215  0.7242  1.0533
 2039SOL    HW217580   1.963   2.880   3.400 -0.1758  0.3311 -1.3986
 2040SOL     OW17581   0.544   0.490  13.411  0.0778  0.1221  0.5191
 2040SOL    HW117582   0.502   0.476  13.497 -0.8137 -0.5657 -0.0224
 2040SOL    HW217583   0.606   0.419  13.398 -0.5610 -0.5774  1.2161
 2041SOL     OW17584   1.597   3.746   6.956 -0.1996 -0.1698 -0.0505
 2041SOL    HW117585   1.543   3.783   6.885  0.0535 -2.3992 -1.4190
 2041SOL    HW217586   1.556   3.660   6.961  1.3053 -0.9086 -0.4563
 2042SOL     OW17587   0.917   0.662   7.051 -0.8788  0.0417 -0.1380
 2042SOL    HW117588   0.878   0.748   7.031 -3.0574 -1.0452 -0.5804
 2042SOL    HW217589   0.914   0.661   7.147 -0.6067 -1.0903 -0.1513
 2043SOL     OW17590   3.934   3.103   4.335 -0.3416 -0.9991 -0.2360
 2043SOL    HW117591   3.839   3.091   4.339 -0.6723 -0.1898 -5.2633
 2043SOL    HW217592   3.941   3.119   4.241 -0.8311 -1.1784 -0.3046
 2044SOL     OW17593   0.067   2.469   8.374  0.1020  0.2919 -0.5881
 2044SOL    HW117594   0.000   2.536   8.362 -0.0869  0.1521 -0.3289
 2044SOL    HW217595   0.059   2.433   8.462 -0.4361 -0.4601 -0.9423
 2045SOL     OW17596   2.735   0.006   8.396  0.2087  0.3143  0.6527
 2045SOL    HW117597   2.735   4.685   8.483 -3.3988  1.0140  0.9870
 2045SOL    HW217598   2.748   0.100   8.409 -0.9815  0.7302 -1.1933
 2046SOL     OW17599   0.191   0.722   0.302 -0.4076  0.0864  0.7694
 2046SOL    HW117600   0.246   0.775   0.360  0.2577  1.4834 -1.1572
 2046SOL    HW217601   0.115   0.780   0.299  0.2027  0.8969  0.9459
 2047SOL     OW17602   1.959   1.802   5.921 -0.0916  0.4369 -0.0255
 2047SOL    HW117603   1.953   1.766   6.010 -0.3333 -1.9953 -1.0464
 2047SOL    HW217604   1.957   1.727   5.863  0.7820 -0.4745  1.1161
 2048SOL     OW17605   0.201   0.033   2.084  0.1678 -0.1208  0.5035
 2048SOL    HW117606   0.205   4.687   2.014 -2.7011  0.2851 -0.0629
 2048SOL    HW217607   0.183   4.693   2.157 -2.4217 -1.1904 -0.9741
 2049SOL     OW17608   2.484   0.523   3.606  0.3935 -0.3220  0.0638
 2049SOL    HW117609   2.454   0.513   3.696 -0.2243  0.4653 -0.0496
 2049SOL    HW217610   2.416   0.470   3.565 -0.4915 -0.3996  1.6396
 2050SOL     OW17611   1.713   4.226  11.739  0.6932  0.4944 -0.1038
 2050SOL    HW117612   1.806   4.206  11.743  0.5011 -0.6448 -1.3175
 2050SOL    HW217613   1.675   4.138  11.745 -2.1613  1.7901  0.5727
 2051SOL     OW17614   1.486   2.350   3.178 -0.4051 -0.5838 -0.3269
 2051SOL    HW117615   1.499   2.439   3.147 -0.6816 -0.3882  0.1083
 2051SOL    HW217616   1.397   2.320   3.159 -0.2888 -2.9778  2.6767
 2052SOL     OW17617   4.409   0.245   0.760 -0.8657  0.0531  0.0148
 2052SOL    HW117618   4.468   0.188   0.810  1.6107  1.1288 -1.6672
 2052SOL    HW217619   4.359   0.180   0.710 -0.3428  0.2333 -0.7449
 2053SOL     OW17620   2.459   2.400   1.666 -0.3307  0.4882  0.5176
 2053SOL    HW117621   2.551   2.374   1.670 -0.5755 -0.4549  0.1890
 2053SOL    HW217622   2.421   2.312   1.666  2.2700 -0.6231 -0.6210
 2054SOL     OW17623   2.776   2.770   9.314  0.5342 -0.4180  0.4268
 2054SOL    HW117624   2.680   2.768   9.316  0.5489 -0.4218  0.9259
 2054SOL    HW217625   2.790   2.751   9.221  0.0774 -2.6260  0.8040
 2055SOL     OW17626   4.575   1.893   6.691  0.8744 -0.2146  0.0039
 2055SOL    HW117627   4.561   1.798   6.698  1.5869 -0.1926  1.6723
 2055SOL    HW217628   4.615   1.905   6.777  0.1501 -0.7093  0.4108
 2056SOL     OW17629   2.990   3.970   0.383 -0.2859 -0.3433 -0.2786
 2056SOL    HW117630   3.015   3.881   0.407 -2.5510 -0.6257  1.0756
 2056SOL    HW217631   3.067   3.994   0.332 -1.0922  1.9210 -0.4419
 2057SOL     OW17632   3.502   1.072   9.300 -0.0044  0.2085 -0.4776
 2057SOL    HW117633   3.484   1.028   9.384  1.6821  2.3334  0.9999
 2057SOL    HW217634   3.419   1.048   9.259 -0.3640  0.3453  0.1617
 2058SOL     OW17635   4.363   3.371   3.275  0.3220  0.5218  0.5674
 2058SOL    HW117636   4.425   3.442   3.282 -0.9076  1.5880  0.6377
 2058SOL    HW217637   4.283   3.423   3.280 -0.0352  0.0674 -0.2999
 2059SOL     OW17638   0.818   2.404   4.522 -0.8004  0.4267 -1.0511
 2059SOL    HW117639   0.902   2.444   4.501 -0.7998  1.4443  0.8413
 2059SOL    HW217640   0.802   2.362   4.438 -0.6299 -0.1188 -0.8148
 2060SOL     OW17641   2.433   3.951  15.646  0.2644 -0.4589  0.0623
 2060SOL    HW117642   2.397   3.916  15.564 -0.7679 -0.0364  0.3355
 2060SOL    HW217643   2.454   4.042  15.629  1.4782 -0.7222  0.1458
 2061SOL     OW17644   1.789   4.574   4.299  0.1073  0.0754 -0.7736
 2061SOL    HW117645   1.700   4.551   4.327  0.0503 -0.7155 -1.6218
 2061SOL    HW217646   1.776   4.644   4.235 -2.5224 -0.7500 -1.1458
 2062SOL     OW17647   0.886   1.069   8.882 -0.5971 -0.0558  0.0649
 2062SOL    HW117648   0.840   1.064   8.965 -1.9502  3.5681 -0.5019
 2062SOL    HW217649   0.815   1.091   8.822  0.0438  0.7057 -0.4169
 2063SOL     OW17650   0.155   4.692   6.521 -0.1216 -0.2554  0.0384
 2063SOL    HW117651   0.071   4.646   6.514  0.2260 -1.0120  0.8688
 2063SOL    HW217652   0.218   4.621   6.512 -0.9334 -0.8642 -0.9102
 2064SOL     OW17653   2.370   2.674   7.930 -0.0780 -0.0033  0.5722
 2064SOL    HW117654   2.305   2.616   7.889 -0.6714 -0.4397  2.1079
 2064SOL    HW217655   2.307   2.726   7.980 -0.4851  0.0632 -0.0073
 2065SOL     OW17656   2.837   2.366  13.923  0.1113 -0.4952  0.4225
 2065SOL    HW117657   2.791   2.391  14.003  0.5408  0.2018  0.4543
 2065SOL    HW217658   2.769   2.309  13.886  0.0336 -0.7329  0.9399
 2066SOL     OW17659   0.116   3.749   0.448  0.2110  0.8580  0.3330
 2066SOL    HW117660   0.191   3.788   0.492  1.8141 -1.9140  0.0637
 2066SOL    HW217661   0.045   3.773   0.507  0.8039  0.1983  1.3237
 2067SOL     OW17662   4.653   2.613  11.908 -0.5827  0.1731 -0.0509
 2067SOL    HW117663   0.021   2.615  11.869 -0.5777  2.0094  0.0242
 2067SOL    HW217664   4.679   2.564  11.985 -0.5936  0.2802  0.0202
 2068SOL     OW17665   3.034   0.368   2.153 -0.0040 -0.3474  0.1153
 2068SOL    HW117666   3.123   0.380   2.186  0.9193 -0.1650 -2.4527
 2068SOL    HW217667   3.029   0.282   2.112 -0.9993 -0.5599  0.6730
 2069SOL     OW17668   3.639   2.925   3.807 -0.2001  0.4714  0.3533
 2069SOL    HW117669   3.696   2.889   3.875 -0.0293  1.7768  0.9042
 2069SOL    HW217670   3.589   2.846   3.787 -0.2283  1.2877 -2.7683
 2070SOL     OW17671   3.397   0.809  11.121  0.0882 -0.1740 -0.3724
 2070SOL    HW117672   3.420   0.732  11.174 -2.7638 -0.0183  1.1133
 2070SOL    HW217673   3.412   0.773  11.033  0.7614 -1.4565  0.2704
 2071SOL     OW17674   3.153   0.250   9.229  0.1407 -0.3003 -0.2429
 2071SOL    HW117675   3.140   0.212   9.316 -0.5370 -0.2704 -0.3342
 2071SOL    HW217676   3.243   0.222   9.209  0.5130  0.2926  0.5915
 2072SOL     OW17677   3.095   3.021   7.022  0.7862  0.2925 -0.1944
 2072SOL    HW117678   3.075   2.986   7.109  1.4029 -0.2491 -0.2745
 2072SOL    HW217679   3.033   3.094   7.018 -0.8522 -1.1129 -0.4626
 2073SOL     OW17680   4.328   3.037  10.136 -0.4734 -0.1364  0.1059
 2073SOL    HW117681   4.386   3.076  10.072  0.8980 -0.8606  0.9044
 2073SOL    HW217682   4.291   2.970  10.078  0.7541  0.0401 -0.8587
 2074SOL     OW17683   0.223   4.213   9.793 -0.0686 -0.7515 -0.1751
 2074SOL    HW117684   0.309   4.198   9.753 -0.0528  1.1556 -0.8721
 2074SOL    HW217685   0.246   4.236   9.883 -0.8237  0.2672 -0.2413
 2075SOL     OW17686   2.574   1.118   0.781 -0.1058  1.2921 -0.1549
 2075SOL    HW117687   2.548   1.077   0.699  1.2986 -2.2102  1.1682
 2075SOL    HW217688   2.629   1.195   0.763  1.6472 -0.1243 -0.8500
 2076SOL     OW17689   3.625   4.614   8.344  0.4847 -0.1051 -0.7632
 2076SOL    HW117690   3.695   4.572   8.394  0.3316  2.1643  1.3307
 2076SOL    HW217691   3.622   4.554   8.269 -1.7332  1.6745 -2.0979
 2077SOL     OW17692   2.132   0.398   8.449 -0.0692 -0.5194  0.6383
 2077SOL    HW117693   2.224   0.388   8.423 -0.0518  2.6981 -0.6375
 2077SOL    HW217694   2.100   0.320   8.404  0.6526  0.3106 -1.3485
 2078SOL     OW17695   4.554   2.683   8.955 -0.1678 -0.1547  0.3399
 2078SOL    HW117696   4.488   2.672   9.024  0.3204 -0.2295  0.7957
 2078SOL    HW217697   4.623   2.632   8.998 -1.9027 -1.7814  1.1667
 2079SOL     OW17698   4.325   3.020   2.146 -0.2898  0.0183  0.7074
 2079SOL    HW117699   4.376   2.968   2.208 -1.3965 -3.4582 -1.3352
 2079SOL    HW217700   4.373   3.008   2.064 -0.7213  0.8388  0.3281
 2080SOL     OW17701   3.687   0.915  17.292  0.5777  0.3435 -0.2151
 2080SOL    HW117702   3.637   0.980  17.243 -0.0988  1.0117  1.3375
 2080SOL    HW217703   3.720   0.967  17.366 -1.1501  0.2111  0.6444
 2081SOL     OW17704   3.759   3.709  13.980  0.2513 -0.1603 -0.1222
 2081SOL    HW117705   3.665   3.693  13.989  0.1194  0.3283 -0.6405
 2081SOL    HW217706   3.762   3.801  14.007  0.7634 -0.3377  0.4304
 2082SOL     OW17707   3.356   3.032   0.499 -0.0234  0.0023 -0.2731
 2082SOL    HW117708   3.417   2.961   0.521  0.8398 -0.2630 -3.5580
 2082SOL    HW217709   3.270   2.990   0.505 -0.6074  0.9426 -2.0633
 2083SOL     OW17710   2.039   3.827   4.837  0.3587  0.5725 -0.4093
 2083SOL    HW117711   2.076   3.905   4.794 -0.6985  0.7055 -1.0818
 2083SOL    HW217712   2.109   3.810   4.900  0.0832 -0.1399 -0.2961
 2084SOL     OW17713   4.184   4.035   0.392  0.3026  0.1806 -0.2011
 2084SOL    HW117714   4.094   4.002   0.386 -0.6481  2.6495  0.5937
 2084SOL    HW217715   4.226   3.949   0.397  0.3735  0.2517  0.3572
 2085SOL     OW17716   1.679   0.920   3.233 -0.4044  0.5007 -0.7103
 2085SOL    HW117717   1.651   1.010   3.248 -0.6525  0.1856  0.7357
 2085SOL    HW217718   1.596   0.885   3.199 -0.4329 -1.2755  1.1455
 2086SOL     OW17719   1.753   2.007   2.675 -0.6266 -0.2355  0.3594
 2086SOL    HW117720   1.714   1.944   2.736 -3.0599  0.7044 -0.2110
 2086SOL    HW217721   1.712   1.979   2.594 -0.7666 -0.0701  0.3733
 2087SOL     OW17722   4.474   4.585   8.338 -0.4334  0.0873  0.0377
 2087SOL    HW117723   4.400   4.554   8.390  0.2459  1.1440  1.6474
 2087SOL    HW217724   4.439   4.569   8.251  0.1099  1.5429 -0.4510
 2088SOL     OW17725   0.908   1.869   9.040  0.3958 -0.4221 -0.1374
 2088SOL    HW117726   1.003   1.873   9.034  0.4172  0.4502  0.7365
 2088SOL    HW217727   0.901   1.788   8.990 -0.8148 -0.2205 -0.3021
 2089SOL     OW17728   3.441   2.430   2.206  0.4980 -0.6706  0.3402
 2089SOL    HW117729   3.348   2.439   2.229  0.5968  0.1341  0.4153
 2089SOL    HW217730   3.434   2.382   2.123 -3.0033 -0.5686  0.5454
 2090SOL     OW17731   3.099   1.590   2.776  0.0430  0.5406 -0.4900
 2090SOL    HW117732   3.070   1.529   2.843 -0.8074 -0.7936 -2.0900
 2090SOL    HW217733   3.185   1.618   2.807  0.1862 -1.3851  0.8470
 2091SOL     OW17734   2.234   0.509  13.949  0.0455 -0.0747 -0.4790
 2091SOL    HW117735   2.219   0.440  14.014 -1.4109 -1.4681 -2.3015
 2091SOL    HW217736   2.308   0.548  13.995  0.1642  0.1651 -0.8719
 2092SOL     OW17737   1.648   3.956   5.409  0.2932 -0.2345 -0.0329
 2092SOL    HW117738   1.580   3.912   5.460  0.9266  1.6783  2.4645
 2092SOL    HW217739   1.655   4.043   5.449 -0.2485 -0.0469 -0.3486
 2093SOL     OW17740   2.628   0.307   3.044  0.3189 -0.1333  0.4081
 2093SOL    HW117741   2.720   0.297   3.018  0.0660 -0.6651 -0.3066
 2093SOL    HW217742   2.583   0.309   2.960  0.7502  0.1121  0.1838
 2094SOL     OW17743   0.690   0.454  11.732 -0.2445  0.1212  0.1939
 2094SOL    HW117744   0.751   0.489  11.797 -0.8592 -0.9333  1.3413
 2094SOL    HW217745   0.749   0.431  11.661  0.8139  0.3679  0.9913
 2095SOL     OW17746   2.742   4.246   5.913 -0.3220  0.4000  0.2110
 2095SOL    HW117747   2.707   4.319   5.964 -1.9556 -0.7058  0.6576
 2095SOL    HW217748   2.810   4.219   5.975 -1.3933 -1.5529  0.5468
 2096SOL     OW17749   1.630   0.227   1.524 -0.2486 -0.4891  0.2733
 2096SOL    HW117750   1.615   0.140   1.487  3.3663 -1.1359  0.2799
 2096SOL    HW217751   1.557   0.285   1.504 -0.2105 -0.2308  0.8730
 2097SOL     OW17752   1.802   2.946   9.269 -0.2900  0.3474 -0.0166
 2097SOL    HW117753   1.736   2.972   9.334 -0.2380  2.6487 -0.9113
 2097SOL    HW217754   1.805   2.857   9.305  0.2946  0.4523  0.1954
 2098SOL     OW17755   0.443   3.235   8.042  0.6239  0.4408  0.4893
 2098SOL    HW117756   0.499   3.223   8.118 -1.3400  0.6740  1.9608
 2098SOL    HW217757   0.391   3.309   8.074  0.9848  1.1992 -0.6551
 2099SOL     OW17758   1.996   3.436   7.815  0.1344  0.2043  0.1283
 2099SOL    HW117759   2.021   3.378   7.743 -3.4477  0.1549 -1.0893
 2099SOL    HW217760   2.024   3.394   7.896  0.6510 -0.7313 -0.5382
 2100SOL     OW17761   0.608   0.194   0.680 -0.1767  0.3176  0.2890
 2100SOL    HW117762   0.530   0.215   0.730 -1.0364  1.8601 -1.7255
 2100SOL    HW217763   0.677   0.202   0.745  0.7222  0.2684 -0.6589
 2101SOL     OW17764   2.296   0.901  10.361  0.0536 -0.4072  0.0846
 2101SOL    HW117765   2.375   0.876  10.312  0.9703 -0.1219  1.4013
 2101SOL    HW217766   2.237   0.896  10.286 -3.2232  0.1765  2.6129
 2102SOL     OW17767   2.018   3.666  13.226 -0.2383  0.9417 -0.1490
 2102SOL    HW117768   2.031   3.572  13.238 -0.4683  0.7010 -1.9175
 2102SOL    HW217769   1.924   3.669  13.247 -0.6494 -0.0998 -1.8821
 2103SOL     OW17770   1.637   2.802   5.451  0.2662  0.3102  0.0039
 2103SOL    HW117771   1.666   2.852   5.527  1.8297  0.5651 -0.7602
 2103SOL    HW217772   1.543   2.792   5.464  0.3208  1.4954  1.1943
 2104SOL     OW17773   1.622   4.717   7.656 -0.1890  0.2175  0.5614
 2104SOL    HW117774   1.630   0.043   7.740 -1.3885 -0.6874  1.1523
 2104SOL    HW217775   1.545   4.662   7.672 -0.1679 -0.2166 -0.7678
 2105SOL     OW17776   1.636   1.984  16.630  0.5347  0.4194 -0.4459
 2105SOL    HW117777   1.544   1.975  16.653  0.5700  1.6777  0.1883
 2105SOL    HW217778   1.635   1.933  16.549 -0.2147 -3.6756  2.1512
 2106SOL     OW17779   1.767   1.295  15.869 -0.1525 -0.1756 -0.0102
 2106SOL    HW117780   1.714   1.253  15.802 -1.2548  1.3159 -0.0717
 2106SOL    HW217781   1.847   1.244  15.858  0.3864  0.8183 -0.6116
 2107SOL     OW17782   4.233   0.445   0.831 -0.0845  0.0689 -0.6535
 2107SOL    HW117783   4.162   0.386   0.856  0.2446 -1.0257 -2.3181
 2107SOL    HW217784   4.299   0.377   0.822 -0.7437 -0.6831  0.3146
 2108SOL     OW17785   1.250   2.650   4.167  0.2662 -0.3319 -0.7821
 2108SOL    HW117786   1.296   2.660   4.251 -0.3499  1.3518 -0.6484
 2108SOL    HW217787   1.283   2.731   4.129 -1.6807  1.6886  1.8690
 2109SOL     OW17788   0.901   0.249  11.053  0.2341  0.1682  0.2236
 2109SOL    HW117789   0.897   0.336  11.012 -3.6976 -0.0582  0.1595
 2109SOL    HW217790   0.980   0.223  11.006  0.9888 -1.5589  2.4565
 2110SOL     OW17791   3.930   2.517   4.101 -0.0441  0.1038  0.0552
 2110SOL    HW117792   3.967   2.579   4.038  1.5944 -1.5377 -0.6125
 2110SOL    HW217793   3.998   2.487   4.161  0.2704  1.1623  0.2398
 2111SOL     OW17794   3.998   0.756  16.809  0.1866  0.1998  0.2047
 2111SOL    HW117795   4.066   0.823  16.802 -0.8102  1.2661  0.6825
 2111SOL    HW217796   3.991   0.731  16.717 -0.0293  1.7293 -0.1962
 2112SOL     OW17797   1.347   0.374  13.972  0.2298 -0.0871  0.1114
 2112SOL    HW117798   1.385   0.460  13.991 -3.5426  1.3464  1.2544
 2112SOL    HW217799   1.415   0.314  13.942 -1.2189 -1.8057  0.2779
 2113SOL     OW17800   3.704   2.509   8.343  0.2130 -0.6695  0.0760
 2113SOL    HW117801   3.792   2.511   8.381 -0.2247  0.7751  0.9840
 2113SOL    HW217802   3.652   2.525   8.421 -2.4589  0.5967 -1.9553
 2114SOL     OW17803   4.030   2.573   3.347 -0.1269 -0.0648 -0.2923
 2114SOL    HW117804   3.985   2.644   3.394 -1.6173 -2.0441  1.3019
 2114SOL    HW217805   4.029   2.604   3.257  1.4220  1.3231  0.1834
 2115SOL     OW17806   3.180   1.760   7.610 -0.5036  0.1720  0.6694
 2115SOL    HW117807   3.180   1.665   7.597 -0.4425  0.2663 -0.0315
 2115SOL    HW217808   3.261   1.778   7.562 -0.3805 -0.8475  0.4912
 2116SOL     OW17809   2.822   0.513   1.572 -0.4429  0.2739  0.2484
 2116SOL    HW117810   2.742   0.563   1.590  1.0763  1.6037  3.2706
 2116SOL    HW217811   2.817   0.446   1.640  4.4618 -2.3081 -1.8732
 2117SOL     OW17812   3.474   3.087   8.777  0.0530  0.1181 -0.2366
 2117SOL    HW117813   3.432   3.005   8.751 -3.4598  1.7324  0.3605
 2117SOL    HW217814   3.565   3.067   8.752  0.1154  1.0943 -0.8359
 2118SOL     OW17815   1.654   2.282  11.258  0.2157 -0.2324  0.3177
 2118SOL    HW117816   1.573   2.241  11.229  0.3069  1.3070 -2.0420
 2118SOL    HW217817   1.679   2.328  11.178  0.3363  0.6998  0.8832
 2119SOL     OW17818   3.596   0.926   2.678 -0.4192  0.8159 -0.5295
 2119SOL    HW117819   3.692   0.923   2.682 -0.3081  1.9395 -2.3138
 2119SOL    HW217820   3.579   1.020   2.692 -0.3714  0.5496  1.3253
 2120SOL     OW17821   3.064   1.399   4.298 -0.1531 -0.5303 -0.1494
 2120SOL    HW117822   3.114   1.471   4.337 -0.8924 -0.6956  1.1285
 2120SOL    HW217823   3.112   1.397   4.216  0.3521  0.8102  0.1125
 2121SOL     OW17824   4.197   1.615   8.478  0.2083 -0.0652 -0.6127
 2121SOL    HW117825   4.245   1.694   8.504  0.6565 -0.3507 -0.5804
 2121SOL    HW217826   4.139   1.599   8.552  0.8327 -0.8807 -0.2965
 2122SOL     OW17827   0.748   2.163   0.503 -0.4067  0.4452  0.0414
 2122SOL    HW117828   0.694   2.232   0.540  0.0284  0.6488  0.2917
 2122SOL    HW217829   0.761   2.188   0.412 -0.9609 -0.2279 -0.2213
 2123SOL     OW17830   1.268   0.523   2.961  0.5020  0.0930  0.0844
 2123SOL    HW117831   1.295   0.488   2.876 -0.1944  2.0504 -0.9486
 2123SOL    HW217832   1.305   0.612   2.961  1.4624 -0.2993  3.0289
 2124SOL     OW17833   3.879   3.215   6.356  0.0237 -0.6579 -0.3869
 2124SOL    HW117834   3.857   3.242   6.445 -0.3383  1.8092 -1.2361
 2124SOL    HW217835   3.942   3.285   6.341  0.5198 -0.7256  1.3511
 2125SOL     OW17836   1.168   0.413  14.507  0.2689 -0.1880 -0.4514
 2125SOL    HW117837   1.192   0.481  14.445 -1.2719 -0.2423 -1.1164
 2125SOL    HW217838   1.189   0.463  14.586 -0.1813 -0.3437 -0.2340
 2126SOL     OW17839   2.741   4.362   4.680 -0.3199 -0.2643  0.0563
 2126SOL    HW117840   2.808   4.427   4.700  0.0611 -0.1480 -1.5509
 2126SOL    HW217841   2.680   4.386   4.750 -1.2618 -0.6622 -0.6308
 2127SOL     OW17842   3.036   4.323   5.411 -0.1959  0.1588  0.2380
 2127SOL    HW117843   3.057   4.358   5.324  3.6710 -0.6683  0.8406
 2127SOL    HW217844   2.945   4.298   5.397  0.0956 -1.3803  1.1895
 2128SOL     OW17845   2.975   0.475   4.410  0.2604  0.2139 -0.2981
 2128SOL    HW117846   2.915   0.528   4.463  3.6009  0.6820  2.9807
 2128SOL    HW217847   3.013   0.545   4.357 -0.6754  0.9582  0.0108
 2129SOL     OW17848   2.770   3.172   7.358  0.3137  0.5195 -0.0432
 2129SOL    HW117849   2.696   3.180   7.298  0.7121  3.6904 -0.1133
 2129SOL    HW217850   2.805   3.093   7.319  2.9542  1.4046  0.5649
 2130SOL     OW17851   1.974   3.108   8.842 -0.0872 -0.1097 -0.2813
 2130SOL    HW117852   1.969   3.202   8.857  1.5976  0.0426 -0.6605
 2130SOL    HW217853   1.901   3.074   8.893  0.9641 -1.4757  0.3299
 2131SOL     OW17854   4.595   0.500   6.031  0.2500 -0.0020 -0.0381
 2131SOL    HW117855   4.619   0.550   5.952 -0.7869  2.4704  1.1971
 2131SOL    HW217856   4.647   0.422   6.011  1.4064  0.9578 -0.8211
 2132SOL     OW17857   1.431   3.064   2.071 -0.3310 -0.2623 -0.1197
 2132SOL    HW117858   1.425   3.050   1.977 -2.1157 -2.1175  0.2738
 2132SOL    HW217859   1.504   3.126   2.072  0.8652 -1.6758  1.2821
 2133SOL     OW17860   3.544   1.769   6.942  0.1986 -0.4069 -0.2770
 2133SOL    HW117861   3.532   1.739   7.032 -0.5291  1.6840  0.3338
 2133SOL    HW217862   3.477   1.722   6.892 -0.7107 -0.0834  0.6279
 2134SOL     OW17863   2.716   4.479   5.620  0.3127  0.1081  0.0623
 2134SOL    HW117864   2.623   4.487   5.601  0.5029 -0.7452 -1.2556
 2134SOL    HW217865   2.730   4.384   5.625  0.2585  0.2014  2.0566
 2135SOL     OW17866   4.425   2.811   5.618 -0.4432 -0.0960  0.2456
 2135SOL    HW117867   4.340   2.779   5.588 -0.6043 -0.4331  1.0607
 2135SOL    HW217868   4.396   2.895   5.651 -0.6586 -0.0719 -0.0035
 2136SOL     OW17869   4.170   0.142   6.211 -0.3316 -0.5119  0.5263
 2136SOL    HW117870   4.125   0.212   6.257  0.4267  0.5741 -0.3591
 2136SOL    HW217871   4.262   0.149   6.238  0.7498 -0.7190 -3.0074
 2137SOL     OW17872   4.408   1.844  12.545  0.9730 -0.3027 -0.0645
 2137SOL    HW117873   4.330   1.887  12.580  0.1395  0.3170 -2.6681
 2137SOL    HW217874   4.366   1.760  12.528 -1.6315  1.1569 -0.8156
 2138SOL     OW17875   0.765   2.748   8.065  0.2277 -0.2853  0.5147
 2138SOL    HW117876   0.804   2.668   8.028 -0.0787  0.2389 -0.9601
 2138SOL    HW217877   0.782   2.815   7.998 -0.8100  0.9464  1.4990
 2139SOL     OW17878   4.231   2.511   6.630  0.2510 -0.0768  0.1058
 2139SOL    HW117879   4.250   2.602   6.650 -1.7086  0.4693 -0.5537
 2139SOL    HW217880   4.291   2.496   6.556 -0.2667 -0.1883 -0.2898
 2140SOL     OW17881   3.946   0.645   1.088  0.6661  0.2832  0.1448
 2140SOL    HW117882   3.920   0.726   1.046  1.0715  0.5251  0.3565
 2140SOL    HW217883   3.863   0.622   1.130  0.3668 -0.0033 -0.6051
 2141SOL     OW17884   3.418   2.258   2.693  0.3384  0.4915 -0.0747
 2141SOL    HW117885   3.511   2.241   2.676 -0.1243 -1.3896 -0.6756
 2141SOL    HW217886   3.405   2.336   2.639  0.0293  0.1343 -0.5062
 2142SOL     OW17887   0.214   3.458   6.521 -0.1381  0.5759 -0.8547
 2142SOL    HW117888   0.303   3.450   6.488  0.1147  1.9982 -0.5166
 2142SOL    HW217889   0.224   3.536   6.575  0.5569 -1.5803  2.1462
 2143SOL     OW17890   4.263   1.644   5.873  0.1399 -0.1224  0.4782
 2143SOL    HW117891   4.255   1.730   5.914  0.3773  0.1377 -0.0283
 2143SOL    HW217892   4.258   1.588   5.950  0.7896  0.1216  0.6950
 2144SOL     OW17893   3.093   2.759  16.747  0.0841  0.2806 -0.0030
 2144SOL    HW117894   3.082   2.748  16.653  1.1188  0.5437 -0.1596
 2144SOL    HW217895   3.035   2.831  16.769  2.1642  2.5725 -2.0233
 2145SOL     OW17896   1.705   4.201  16.187 -0.2984  0.2311  0.1341
 2145SOL    HW117897   1.745   4.271  16.135 -1.4670 -0.2108 -1.3392
 2145SOL    HW217898   1.734   4.126  16.134 -0.5816  0.3637 -0.2082
 2146SOL     OW17899   0.368   0.145   2.452  0.6228 -0.2010  0.5660
 2146SOL    HW117900   0.349   0.111   2.539  1.0285  1.5843  1.3498
 2146SOL    HW217901   0.296   0.203   2.429  0.9372 -0.0350 -0.0023
 2147SOL     OW17902   3.337   4.623   8.413  0.3536  0.2286  0.1254
 2147SOL    HW117903   3.321   4.529   8.408 -1.2778  0.5500 -0.4553
 2147SOL    HW217904   3.425   4.626   8.375 -0.3159 -1.0216 -1.5315
 2148SOL     OW17905   2.513   0.253  11.782 -0.2826 -0.2150 -0.1737
 2148SOL    HW117906   2.424   0.237  11.813 -0.7999 -1.5310 -2.3535
 2148SOL    HW217907   2.555   0.168  11.795 -1.5480 -1.0636 -1.7035
 2149SOL     OW17908   1.827   3.690   5.123  0.3718  0.4482 -0.1032
 2149SOL    HW117909   1.766   3.639   5.176 -0.0348  0.3845 -0.6276
 2149SOL    HW217910   1.782   3.774   5.121  0.7704  0.6722  0.5962
 2150SOL     OW17911   0.742   4.594   4.713  0.2814 -0.0156 -0.2016
 2150SOL    HW117912   0.666   4.553   4.672 -0.4797  0.9524  0.2357
 2150SOL    HW217913   0.740   4.570   4.806 -2.7221 -1.0705 -0.5430
 2151SOL     OW17914   1.682   3.322   7.938 -0.1694  0.0764  0.3990
 2151SOL    HW117915   1.730   3.395   7.976  1.0015 -1.0472  1.0625
 2151SOL    HW217916   1.616   3.314   8.007 -0.0674  1.2280  0.6211
 2152SOL     OW17917   0.640   4.572  12.151  0.2595 -0.1469 -0.2754
 2152SOL    HW117918   0.693   4.642  12.111  0.3961 -0.1881 -0.1652
 2152SOL    HW217919   0.677   4.564  12.239 -1.0225  3.4922  0.6116
 2153SOL     OW17920   3.543   4.173  11.476 -0.3747 -0.1631  0.6266
 2153SOL    HW117921   3.600   4.196  11.549  1.1166  3.0444 -1.5409
 2153SOL    HW217922   3.531   4.261  11.440 -1.1722  0.4207  2.3119
 2154SOL     OW17923   0.793   1.332   5.191 -0.0197  0.6085 -0.3982
 2154SOL    HW117924   0.786   1.238   5.173  0.1671  0.5946 -0.3959
 2154SOL    HW217925   0.888   1.342   5.192 -0.1512  1.7605  1.7762
 2155SOL     OW17926   3.510   0.799   3.171  0.2034 -0.0041  0.5348
 2155SOL    HW117927   3.482   0.879   3.125  1.0204 -1.0533 -1.8058
 2155SOL    HW217928   3.494   0.734   3.103 -2.1546  0.5098  0.6112
 2156SOL     OW17929   3.131   3.117   5.395  0.3262  0.4756  0.3130
 2156SOL    HW117930   3.193   3.045   5.403  0.9754  0.9710 -0.2995
 2156SOL    HW217931   3.188   3.192   5.377 -2.0816  1.6418 -2.4686
 2157SOL     OW17932   3.487   2.191   3.331  0.4561 -0.2754 -0.0778
 2157SOL    HW117933   3.482   2.249   3.255  0.5625  1.1097  0.9702
 2157SOL    HW217934   3.444   2.253   3.390 -0.8485  0.0615 -1.3858
 2158SOL     OW17935   4.395   4.223  17.635 -0.2114 -0.1772 -0.0741
 2158SOL    HW117936   4.324   4.224   0.019 -2.5611 -1.2338 -2.6196
 2158SOL    HW217937   4.405   4.318  17.635  0.5484 -0.2560 -1.5530
 2159SOL     OW17938   1.464   2.514   5.083 -0.3411 -0.0723  0.3111
 2159SOL    HW117939   1.381   2.508   5.035 -0.0463  0.4316 -0.2646
 2159SOL    HW217940   1.463   2.609   5.086  1.7939 -0.0601  0.6041
 2160SOL     OW17941   0.775   2.201   8.762  0.5589 -0.0585  0.0066
 2160SOL    HW117942   0.818   2.179   8.845 -0.4649 -1.2517  0.2146
 2160SOL    HW217943   0.722   2.277   8.784 -0.5687 -0.7120 -0.4763
 2161SOL     OW17944   1.646   0.513   9.699 -0.3021 -0.0903  0.4872
 2161SOL    HW117945   1.710   0.443   9.716 -0.1852 -0.3238 -0.8926
 2161SOL    HW217946   1.661   0.525   9.606  2.2020  1.7774  1.1368
 2162SOL     OW17947   3.787   4.440   7.125 -0.4401  0.1783  0.3300
 2162SOL    HW117948   3.699   4.476   7.114 -0.3239 -0.4123 -2.5209
 2162SOL    HW217949   3.801   4.468   7.216  0.2020 -1.0852  0.6182
 2163SOL     OW17950   3.524   0.256  13.812  0.1290  0.1275  0.2079
 2163SOL    HW117951   3.537   0.282  13.903  1.0170 -3.0132  0.9803
 2163SOL    HW217952   3.572   0.329  13.774  1.4550 -0.2023  1.2495
 2164SOL     OW17953   3.249   2.439  12.793 -0.2840 -0.4016 -0.1975
 2164SOL    HW117954   3.259   2.439  12.698  1.7142 -0.2440  0.0099
 2164SOL    HW217955   3.208   2.353  12.808 -1.6371  0.9749  3.8994
 2165SOL     OW17956   3.108   1.028   1.240  0.7997  0.3996 -0.3989
 2165SOL    HW117957   3.079   1.081   1.166 -1.3327 -0.7293 -0.3659
 2165SOL    HW217958   3.051   0.952   1.238  0.3187  0.7632 -0.5156
 2166SOL     OW17959   0.237   4.303   7.892  0.0563 -0.1127  0.3221
 2166SOL    HW117960   0.252   4.209   7.904 -0.0639 -0.3459 -1.3911
 2166SOL    HW217961   0.238   4.328   7.985 -2.4753  0.3912  0.2282
 2167SOL     OW17962   0.940   0.201   7.682 -0.2811  0.0361  0.5266
 2167SOL    HW117963   0.844   0.194   7.674 -0.3719  2.2846 -0.2722
 2167SOL    HW217964   0.951   0.181   7.775  2.4973  0.7491  0.3532
 2168SOL     OW17965   2.285   3.523   9.806 -0.9848 -0.1294  0.5539
 2168SOL    HW117966   2.313   3.613   9.794  0.1624 -0.5662 -0.0900
 2168SOL    HW217967   2.242   3.505   9.723  1.0333  4.1247 -1.4153
 2169SOL     OW17968   4.419   4.710   5.221 -0.0233 -0.2225 -0.3814
 2169SOL    HW117969   4.461   0.072   5.196  1.2117 -0.6107  0.4034
 2169SOL    HW217970   4.368   0.022   5.295  2.5935 -0.3723  1.5052
 2170SOL     OW17971   0.502   1.869  11.005  0.2215  0.1170 -0.5828
 2170SOL    HW117972   0.540   1.909  10.926  0.4636 -0.0226 -0.5385
 2170SOL    HW217973   0.480   1.940  11.065 -0.2276 -0.1505 -0.4351
 2171SOL     OW17974   3.564   1.548   3.957 -1.0574  0.2174  0.0821
 2171SOL    HW117975   3.590   1.582   4.043  1.1685 -1.4850  0.0764
 2171SOL    HW217976   3.600   1.609   3.892  0.8325 -2.6418 -1.5388
 2172SOL     OW17977   2.534   1.462   7.179 -0.6958  0.4364 -0.1798
 2172SOL    HW117978   2.484   1.383   7.199 -1.5909  0.5932 -1.7502
 2172SOL    HW217979   2.500   1.474   7.090 -0.4494 -0.9551 -0.4622
 2173SOL     OW17980   1.165   1.749  13.331  0.4953  0.0956  0.1569
 2173SOL    HW117981   1.189   1.826  13.280 -2.9125  0.8479 -0.2946
 2173SOL    HW217982   1.158   1.690  13.256 -2.5878  0.1055  0.4574
 2174SOL     OW17983   3.971   4.418   5.669 -1.2559  0.1945 -0.1349
 2174SOL    HW117984   4.060   4.417   5.704 -1.6143  0.3666  0.8021
 2174SOL    HW217985   3.929   4.338   5.701 -0.2548  0.3114  1.4335
 2175SOL     OW17986   1.586   2.391  11.750  0.1919 -0.0243  0.4228
 2175SOL    HW117987   1.602   2.423  11.661  1.7575  1.0862  1.1187
 2175SOL    HW217988   1.530   2.314  11.742  0.1051 -0.1677  2.5741
 2176SOL     OW17989   1.667   1.158   8.859  0.0587  0.0996 -0.0217
 2176SOL    HW117990   1.696   1.246   8.881  0.1108 -0.1831  1.0558
 2176SOL    HW217991   1.720   1.111   8.924 -0.4631 -0.6368 -0.1232
 2177SOL     OW17992   0.342   3.823  16.574 -0.0778  0.0985 -0.0398
 2177SOL    HW117993   0.354   3.917  16.588  0.8318 -0.0785  0.3840
 2177SOL    HW217994   0.378   3.820  16.485 -1.3783 -3.8025 -0.4280
 2178SOL     OW17995   4.225   0.787  17.253  0.5511 -0.4209 -0.4513
 2178SOL    HW117996   4.155   0.851  17.244  1.5817  0.8530  0.4476
 2178SOL    HW217997   4.306   0.828  17.222 -0.3364  2.4983  1.0396
 2179SOL     OW17998   3.947   3.547   9.160 -0.0233 -0.0527 -0.0077
 2179SOL    HW117999   3.905   3.568   9.076 -2.1654 -0.7655  0.8856
 2179SOL    HW218000   3.924   3.620   9.218  2.2169  0.7053 -0.0827
 2180SOL     OW18001   0.242   3.980  11.542 -0.2453  0.5992 -0.7185
 2180SOL    HW118002   0.334   3.954  11.553  0.0946  1.8124 -0.5699
 2180SOL    HW218003   0.253   4.075  11.535 -0.0379  0.7377  1.4372
 2181SOL     OW18004   4.501   0.674  14.305 -0.2363 -0.4831  0.3206
 2181SOL    HW118005   4.438   0.731  14.261  0.1297  1.9889  3.0165
 2181SOL    HW218006   4.475   0.589  14.269 -1.4468  0.0683 -0.1155
 2182SOL     OW18007   3.801   4.513   2.982  0.0986  0.1456  0.4944
 2182SOL    HW118008   3.718   4.556   2.961  0.0672  1.0418  2.4803
 2182SOL    HW218009   3.866   4.575   2.951 -0.6823  1.5033  1.5605
 2183SOL     OW18010   0.884   3.500   0.629  0.2521 -0.0697 -0.3751
 2183SOL    HW118011   0.875   3.536   0.717  0.6590  2.6305 -1.4431
 2183SOL    HW218012   0.945   3.562   0.588  0.1419  0.2673 -0.0260
 2184SOL     OW18013   0.047   0.057   2.719 -0.2950 -0.5494 -0.2174
 2184SOL    HW118014   0.102   4.716   2.769  0.7316  1.5267  1.1471
 2184SOL    HW218015   0.116   0.113   2.684  1.3559 -2.1693  0.4639
 2185SOL     OW18016   4.093   1.405  10.253  0.1110  1.0263 -0.4594
 2185SOL    HW118017   4.057   1.400  10.341 -1.9167  0.1804 -1.3168
 2185SOL    HW218018   4.011   1.388  10.206  0.4737  1.4575 -1.2480
 2186SOL     OW18019   0.272   3.956   6.702  0.2760  0.3816 -0.4551
 2186SOL    HW118020   0.189   3.914   6.725 -1.2514  3.2751 -0.6012
 2186SOL    HW218021   0.332   3.886   6.675  1.7633  1.8446 -0.9648
 2187SOL     OW18022   2.802   4.226   7.473  0.1198 -0.4290 -0.4683
 2187SOL    HW118023   2.742   4.232   7.399  0.1183 -1.1021 -0.5216
 2187SOL    HW218024   2.755   4.275   7.541  0.2894 -1.8979  0.6939
 2188SOL     OW18025   3.839   2.715   6.451 -0.1948 -0.7918  0.9225
 2188SOL    HW118026   3.927   2.733   6.481  0.4152 -0.7175 -0.9137
 2188SOL    HW218027   3.838   2.780   6.380 -2.0531 -2.2149 -0.3668
 2189SOL     OW18028   0.232   1.039   2.082  0.2093 -0.1267 -0.7059
 2189SOL    HW118029   0.164   0.973   2.070 -1.4610  1.1266  1.7936
 2189SOL    HW218030   0.312   0.987   2.079 -0.3133 -0.9576 -0.0981
 2190SOL     OW18031   3.095   4.069   0.634  0.0504  0.0723  0.0310
 2190SOL    HW118032   3.076   4.108   0.548 -2.8723  1.8965  1.5132
 2190SOL    HW218033   3.031   4.106   0.695  1.3533 -0.1149  1.4974
 2191SOL     OW18034   0.681   3.017   6.939  0.3018  0.0083  0.4006
 2191SOL    HW118035   0.696   2.958   7.013 -0.3531  0.4898  0.9168
 2191SOL    HW218036   0.650   3.090   6.992 -0.1020 -0.1135  0.3292
 2192SOL     OW18037   0.685   1.293   6.551 -0.0578 -0.0767 -0.1040
 2192SOL    HW118038   0.708   1.258   6.637 -1.9716 -1.6504 -0.2458
 2192SOL    HW218039   0.686   1.386   6.576 -2.4363 -0.4613  1.3235
 2193SOL     OW18040   3.616   3.013   7.281 -0.0479  0.1002 -0.0989
 2193SOL    HW118041   3.540   2.983   7.331  0.3279 -1.1733 -0.2988
 2193SOL    HW218042   3.619   2.940   7.219  0.6781 -0.3448  0.4630
 2194SOL     OW18043   2.195   4.466   0.096 -0.5299  0.0759 -0.2320
 2194SOL    HW118044   2.266   4.402   0.103 -0.9960 -0.6551 -2.0922
 2194SOL    HW218045   2.162   4.440   0.183  2.9702  0.6168  1.2445
 2195SOL     OW18046   4.008   4.441   6.465 -0.1434 -0.8805 -0.0764
 2195SOL    HW118047   4.043   4.377   6.403 -1.1969 -2.0070  0.4809
 2195SOL    HW218048   3.955   4.501   6.412  1.3101  0.2907 -0.2139
 2196SOL     OW18049   0.710   3.548   8.232 -0.1320  0.0726 -0.3720
 2196SOL    HW118050   0.626   3.577   8.269 -1.0591 -0.9309 -1.6949
 2196SOL    HW218051   0.759   3.630   8.242 -1.4221  0.3202  4.0507
 2197SOL     OW18052   3.065   0.852  12.528 -0.0688  0.2062  0.1876
 2197SOL    HW118053   3.142   0.876  12.476 -1.1044  0.5448 -1.1958
 2197SOL    HW218054   3.095   0.766  12.559 -1.4956 -0.0472  0.8687
 2198SOL     OW18055   3.450   3.845  11.018  0.4821  0.7918  0.4458
 2198SOL    HW118056   3.539   3.823  10.990  0.4665  0.7462  0.4314
 2198SOL    HW218057   3.410   3.890  10.944  0.3006  0.6302  0.4454
 2199SOL     OW18058   1.166   4.645  14.508  0.3498 -0.3241  0.2090
 2199SOL    HW118059   1.120   4.695  14.441 -0.2162 -2.7530 -1.1964
 2199SOL    HW218060   1.103   4.651  14.580  1.7278  1.2613  1.3070
 2200SOL     OW18061   1.692   3.363   6.039 -0.1548  0.9178 -0.0547
 2200SOL    HW118062   1.784   3.352   6.064 -0.6505 -2.9586  0.0998
 2200SOL    HW218063   1.651   3.360   6.126 -0.4083  0.8628 -0.1776
 2201SOL     OW18064   2.482   0.071   5.794  0.4405 -0.1180  0.0632
 2201SOL    HW118065   2.398   0.094   5.834 -0.0899 -0.9406 -0.5554
 2201SOL    HW218066   2.539   0.101   5.864  2.1607  0.8371 -1.7464
 2202SOL     OW18067   2.069   3.514   6.645 -0.5078  0.6660 -0.0316
 2202SOL    HW118068   2.132   3.467   6.700  0.1712  1.7786  0.1471
 2202SOL    HW218069   1.989   3.462   6.660 -0.9965  1.2639 -0.5547
 2203SOL     OW18070   0.285   4.188   8.875  0.5175  0.2393  0.2845
 2203SOL    HW118071   0.332   4.106   8.862  0.3810  0.4049 -1.2805
 2203SOL    HW218072   0.212   4.157   8.929  1.0238 -2.5363 -0.6356
 2204SOL     OW18073   0.500   4.697   7.244  0.0288  0.1819 -0.0906
 2204SOL    HW118074   0.495   0.051   7.304 -3.5634 -0.0261 -0.1553
 2204SOL    HW218075   0.529   4.620   7.294 -1.8875 -0.1952  0.4219
 2205SOL     OW18076   3.149   3.796  17.521  0.0205 -0.2510  0.3767
 2205SOL    HW118077   3.243   3.813  17.528 -0.0431  0.7078 -1.0295
 2205SOL    HW218078   3.115   3.840  17.599  0.0460 -3.3100  2.1005
 2206SOL     OW18079   1.967   0.240   2.072  0.2785  0.1151 -0.3094
 2206SOL    HW118080   1.969   0.170   2.138 -1.1748  1.3818  1.0468
 2206SOL    HW218081   1.878   0.235   2.039 -0.8035  2.7921  2.2691
 2207SOL     OW18082   3.008   2.137   3.847 -0.3856  0.2975  0.2158
 2207SOL    HW118083   2.985   2.059   3.797  1.9912  0.0408 -0.4972
 2207SOL    HW218084   2.941   2.133   3.915 -0.7392  0.2007 -0.1384
 2208SOL     OW18085   0.710   1.081   3.246  0.0212  0.2235 -0.4097
 2208SOL    HW118086   0.632   1.027   3.252  0.7161 -1.0381 -2.6230
 2208SOL    HW218087   0.661   1.158   3.275 -0.0590 -0.7881  2.1919
 2209SOL     OW18088   1.665   4.585   8.345 -0.3356  0.1518 -0.7046
 2209SOL    HW118089   1.599   4.545   8.288  0.9012 -2.2675 -0.4508
 2209SOL    HW218090   1.707   4.507   8.382  1.3869  0.2727 -2.3865
 2210SOL     OW18091   0.395   3.333   4.468 -0.1847 -0.1464  0.0956
 2210SOL    HW118092   0.478   3.317   4.423 -0.3253  1.4663 -0.7318
 2210SOL    HW218093   0.392   3.428   4.472  0.3072 -0.1771  1.1854
 2211SOL     OW18094   2.366   1.752   0.340 -0.5113  0.0945 -0.5088
 2211SOL    HW118095   2.362   1.843   0.369  1.8984 -0.1367  0.5278
 2211SOL    HW218096   2.456   1.739   0.312 -0.2777 -0.3483  0.4433
 2212SOL     OW18097   4.520   3.472   5.407  0.5817  0.3332 -0.5347
 2212SOL    HW118098   4.522   3.477   5.503 -1.7481 -1.7215 -0.3688
 2212SOL    HW218099   4.598   3.422   5.383  1.8614  1.5571  1.1090
 2213SOL     OW18100   2.363   1.097  10.967 -0.2800 -0.0711  0.2000
 2213SOL    HW118101   2.347   1.076  11.059 -1.3031  1.7314  0.4256
 2213SOL    HW218102   2.398   1.186  10.975  0.1805 -0.0712 -1.9714
 2214SOL     OW18103   2.664   3.058   5.514 -0.2083  0.7868  0.2029
 2214SOL    HW118104   2.746   3.106   5.501  1.0127 -1.2292  0.5270
 2214SOL    HW218105   2.606   3.124   5.553 -1.2267  0.3152 -0.5441
 2215SOL     OW18106   0.365   4.269   5.938 -0.2899  0.4819 -0.1864
 2215SOL    HW118107   0.318   4.187   5.924  0.7138 -0.4066  1.5197
 2215SOL    HW218108   0.423   4.245   6.011  0.2941 -1.3199 -1.2328
 2216SOL     OW18109   1.364   1.343  12.958 -0.2329 -0.4247  0.3186
 2216SOL    HW118110   1.408   1.428  12.951  2.5115 -1.7019  2.0831
 2216SOL    HW218111   1.352   1.313  12.868 -1.4582  0.4370  0.1941
 2217SOL     OW18112   2.791   4.222   5.645  0.0014 -0.3040  0.1282
 2217SOL    HW118113   2.857   4.154   5.657  1.0729  0.8384  0.7470
 2217SOL    HW218114   2.766   4.238   5.736 -0.5798  1.0912 -0.2763
 2218SOL     OW18115   3.219   3.444   2.438  0.0876  0.4063 -0.5397
 2218SOL    HW118116   3.184   3.401   2.516 -0.3910 -0.5228 -1.2569
 2218SOL    HW218117   3.155   3.399   2.382  1.5948 -1.4017 -0.7815
 2219SOL     OW18118   1.634   4.237  13.821 -0.4559 -0.2746 -0.0802
 2219SOL    HW118119   1.572   4.279  13.880 -0.5052 -1.5914  0.7983
 2219SOL    HW218120   1.600   4.279  13.742 -1.4339  0.4060  0.7062
 2220SOL     OW18121   2.610   2.001   3.223 -0.2168  0.2076 -0.1544
 2220SOL    HW118122   2.545   2.067   3.246  1.3191  0.9860  2.0024
 2220SOL    HW218123   2.561   1.957   3.153  1.2593 -0.5325 -0.7210
 2221SOL     OW18124   2.755   0.818   7.833 -0.0370 -0.0932 -0.3249
 2221SOL    HW118125   2.832   0.807   7.777  0.2850  0.9094 -0.0836
 2221SOL    HW218126   2.755   0.726   7.860  2.0971  0.7446  2.5299
 2222SOL     OW18127   2.167   0.388  10.313 -0.6185 -0.5361 -0.4642
 2222SOL    HW118128   2.071   0.396  10.309 -0.3890  2.5468 -0.0352
 2222SOL    HW218129   2.169   0.294  10.296  2.4610 -0.7576  1.1692
 2223SOL     OW18130   1.164   0.772   1.603 -0.1156  0.2093  0.3906
 2223SOL    HW118131   1.092   0.710   1.615 -1.2299  1.1469 -1.5134
 2223SOL    HW218132   1.150   0.823   1.524  1.1491  1.8499  1.2420
 2224SOL     OW18133   2.626   0.072   6.030  0.4976  0.1487 -0.0525
 2224SOL    HW118134   2.704   0.019   6.047  1.2375  0.6007 -2.1336
 2224SOL    HW218135   2.638   0.142   6.094  1.2420  0.3835 -0.4637
 2225SOL     OW18136   0.326   3.846   0.628 -0.1049 -0.0615  0.4991
 2225SOL    HW118137   0.342   3.755   0.603  1.5672  0.2748  0.3252
 2225SOL    HW218138   0.300   3.820   0.717  0.3132 -2.3963 -0.0590
 2226SOL     OW18139   1.128   1.325  15.507  0.2737  0.3795 -0.7156
 2226SOL    HW118140   1.043   1.361  15.480 -0.9880 -1.9017  0.1458
 2226SOL    HW218141   1.162   1.314  15.418  1.8806  0.0531 -0.0451
 2227SOL     OW18142   3.394   4.142   7.674 -0.1770 -1.0906  0.4107
 2227SOL    HW118143   3.346   4.152   7.757  0.0058  0.0852  0.3856
 2227SOL    HW218144   3.322   4.140   7.611  0.3131  2.1474 -0.2896
 2228SOL     OW18145   3.219   4.028   5.194 -0.9985 -0.1971  0.2015
 2228SOL    HW118146   3.302   4.070   5.169 -1.5897  0.2618 -0.9790
 2228SOL    HW218147   3.193   3.972   5.120 -0.6852  1.4003 -1.1258
 2229SOL     OW18148   3.810   4.312   5.099 -0.6836 -0.4581 -0.1726
 2229SOL    HW118149   3.888   4.258   5.086 -1.4928 -1.2628 -1.7309
 2229SOL    HW218150   3.793   4.297   5.192  1.8933 -0.1843  0.3396
 2230SOL     OW18151   3.129   1.976   5.665 -0.6831 -0.1054  0.0676
 2230SOL    HW118152   3.077   2.032   5.607 -0.9158 -2.1785 -1.6952
 2230SOL    HW218153   3.185   1.938   5.598 -0.8031  0.7382 -0.5141
 2231SOL     OW18154   0.023   4.105   2.871 -0.1603 -0.0172 -0.2559
 2231SOL    HW118155   0.033   4.110   2.966  1.0177 -2.4621 -0.2602
 2231SOL    HW218156   4.699   4.188   2.850  1.2460  0.6241 -0.6262
 2232SOL     OW18157   3.021   2.040  16.173 -0.3876 -0.2837  0.2920
 2232SOL    HW118158   3.009   1.951  16.205  3.8414 -0.7375  0.5965
 2232SOL    HW218159   2.936   2.082  16.186 -0.4641  0.3267 -2.2929
 2233SOL     OW18160   3.541   3.673   4.104 -0.0267  0.5443 -0.1793
 2233SOL    HW118161   3.612   3.665   4.167  0.0040 -0.5305 -0.3503
 2233SOL    HW218162   3.506   3.585   4.118  1.7388 -0.4039 -1.7037
 2234SOL     OW18163   0.789   0.735  12.413 -0.1977  0.6138  0.2402
 2234SOL    HW118164   0.811   0.660  12.358 -3.2472 -0.4948  0.5823
 2234SOL    HW218165   0.725   0.778  12.356 -2.5587 -1.5416  1.2754
 2235SOL     OW18166   0.853   1.441   2.178 -0.5013  0.2300 -0.7794
 2235SOL    HW118167   0.759   1.423   2.182 -0.0510 -2.1057 -0.6613
 2235SOL    HW218168   0.880   1.363   2.131 -0.5602  1.0093 -2.1163
 2236SOL     OW18169   4.264   2.895   5.278  0.0867 -0.3003 -0.1425
 2236SOL    HW118170   4.256   2.875   5.372 -0.1749  1.3873  0.2022
 2236SOL    HW218171   4.338   2.846   5.242 -0.8661 -0.9336 -1.2317
 2237SOL     OW18172   1.811   1.385   5.675 -0.2192 -0.1651 -0.7024
 2237SOL    HW118173   1.855   1.311   5.717 -0.2740 -0.8756 -1.8971
 2237SOL    HW218174   1.881   1.446   5.699  1.2761 -1.8371 -0.8725
 2238SOL     OW18175   2.953   3.634   2.136 -0.2933  0.0431  0.0637
 2238SOL    HW118176   3.026   3.602   2.190 -0.0505 -1.6732 -1.2639
 2238SOL    HW218177   2.924   3.709   2.187  0.7146 -0.0675  0.7968
 2239SOL     OW18178   3.746   2.081   8.370  0.3829 -0.8492  0.4470
 2239SOL    HW118179   3.746   2.002   8.424  0.7210 -0.9651  0.2812
 2239SOL    HW218180   3.690   2.059   8.295 -0.7240  1.4382  0.6193
 2240SOL     OW18181   3.701   1.493   3.461 -0.6730  0.0741  0.1683
 2240SOL    HW118182   3.610   1.468   3.473 -0.0832 -0.4440  3.4192
 2240SOL    HW218183   3.748   1.490   3.544 -0.0912 -2.8375 -0.2610
 2241SOL     OW18184   3.932   1.341   5.649 -0.4589  0.1239 -0.1956
 2241SOL    HW118185   3.878   1.415   5.621 -1.0837  0.6319  2.3779
 2241SOL    HW218186   3.957   1.306   5.563 -1.7993  1.7775 -1.2664
 2242SOL     OW18187   3.107   1.994   7.768 -0.3685 -0.1271  0.3350
 2242SOL    HW118188   3.149   1.912   7.743 -0.1063 -0.0525  0.5215
 2242SOL    HW218189   3.087   2.028   7.681  0.5631  1.7894  0.8746
 2243SOL     OW18190   3.748   1.089   4.203 -0.4021 -0.3240  0.1692
 2243SOL    HW118191   3.675   1.145   4.231  0.9613  2.3048 -1.5008
 2243SOL    HW218192   3.707   1.003   4.212 -0.7779  0.0317  1.9036
 2244SOL     OW18193   0.081   1.578   2.760  0.0488  0.3038 -0.2223
 2244SOL    HW118194   0.072   1.484   2.772 -1.0202  0.1816 -2.0557
 2244SOL    HW218195   0.007   1.583   2.699 -1.4082 -0.4481  1.4968
 2245SOL     OW18196   4.367   2.758   6.980 -0.4553  0.6429 -0.5981
 2245SOL    HW118197   4.460   2.738   6.987 -0.4907  0.6861  0.0167
 2245SOL    HW218198   4.325   2.672   6.979  4.2169 -1.6749  2.1197
 2246SOL     OW18199   2.197   2.520   1.051 -0.0135  0.0454  0.1641
 2246SOL    HW118200   2.290   2.542   1.047 -0.1001  0.1102 -1.6102
 2246SOL    HW218201   2.177   2.558   0.965 -0.3868  1.7827  1.0113
 2247SOL     OW18202   1.628   4.385  14.241  0.4969 -0.1063  0.4525
 2247SOL    HW118203   1.702   4.352  14.191 -0.6315 -1.4845 -0.3147
 2247SOL    HW218204   1.665   4.408  14.326  0.6693 -0.3512  0.4410
 2248SOL     OW18205   1.734   4.690   5.333  0.2271  0.4448 -0.5050
 2248SOL    HW118206   1.710   0.046   5.279  4.1479  3.7417  2.3473
 2248SOL    HW218207   1.736   4.622   5.266  0.3673  1.7482 -1.8246
 2249SOL     OW18208   3.804   0.876   6.700  0.0088  0.3701  0.3969
 2249SOL    HW118209   3.709   0.872   6.687  0.1643 -0.1049 -0.5706
 2249SOL    HW218210   3.846   0.826   6.630 -0.1233 -1.4521  1.6207
 2250SOL     OW18211   4.425   3.983  16.957  0.6890  0.1841 -0.1829
 2250SOL    HW118212   4.437   4.068  16.915  0.0956 -0.1494 -1.0030
 2250SOL    HW218213   4.518   3.975  16.979  1.1463  2.1965 -1.3874
 2251SOL     OW18214   2.096   3.698   4.326 -0.2060 -0.4772  0.0978
 2251SOL    HW118215   2.166   3.760   4.304  2.1330 -2.5055  1.8462
 2251SOL    HW218216   2.060   3.685   4.238 -1.9660 -2.2401  1.0688
 2252SOL     OW18217   2.367   2.625   9.758 -0.1226  0.6671  0.0229
 2252SOL    HW118218   2.389   2.708   9.802  0.1670  0.5602  0.0797
 2252SOL    HW218219   2.299   2.655   9.698 -0.1228  0.6484  0.0137
 2253SOL     OW18220   4.670   1.922   2.825  0.4282 -0.4167 -0.2816
 2253SOL    HW118221   4.600   1.947   2.764  0.5566 -1.4538 -0.8482
 2253SOL    HW218222   4.611   1.873   2.883 -0.9397  1.5294 -0.0083
 2254SOL     OW18223   1.428   2.086   2.372  0.3909 -0.1937 -0.2746
 2254SOL    HW118224   1.425   2.178   2.346 -0.0700 -0.4456 -1.1315
 2254SOL    HW218225   1.500   2.065   2.313 -1.1010 -1.9160 -1.4923
 2255SOL     OW18226   1.343   1.404   6.504 -0.2570 -0.0392 -0.0939
 2255SOL    HW118227   1.400   1.467   6.460  1.6140 -0.8390  1.1864
 2255SOL    HW218228   1.319   1.452   6.584 -1.1323 -1.0695  0.2699
 2256SOL     OW18229   4.587   0.710   4.122 -0.0690 -0.4728 -0.3366
 2256SOL    HW118230   4.545   0.635   4.163  0.4406 -1.1281 -1.0273
 2256SOL    HW218231   4.513   0.770   4.108  1.0068  0.9966  0.2594
 2257SOL     OW18232   3.532   1.501   5.747  0.2208  0.6761  0.0664
 2257SOL    HW118233   3.580   1.518   5.829 -1.4667 -1.3080  1.4575
 2257SOL    HW218234   3.458   1.557   5.772 -2.6477 -2.9799 -0.2012
 2258SOL     OW18235   2.922   0.962   5.067  0.5801 -0.3083 -0.4027
 2258SOL    HW118236   2.853   0.992   5.126 -1.0694 -1.5422 -1.6948
 2258SOL    HW218237   2.994   1.011   5.105  0.5532 -0.1484 -0.5607
 2259SOL     OW18238   1.063   1.987   7.663 -0.0996 -0.0326  0.0079
 2259SOL    HW118239   1.014   2.024   7.736 -0.0703  1.6725 -0.8269
 2259SOL    HW218240   1.143   1.958   7.706 -0.8946 -2.1056  0.0650
 2260SOL     OW18241   2.451   3.411  13.135  0.2245 -0.3152 -0.0624
 2260SOL    HW118242   2.544   3.398  13.117  0.2130 -0.5544  0.0541
 2260SOL    HW218243   2.435   3.473  13.064 -1.4156 -0.3522  0.2847
 2261SOL     OW18244   3.820   3.488   8.077  0.6194  0.1600 -0.2251
 2261SOL    HW118245   3.801   3.537   7.997  2.2929  0.2591 -0.5660
 2261SOL    HW218246   3.738   3.440   8.085  0.2648  1.0778  1.6309
 2262SOL     OW18247   0.494   2.979  13.233  0.1651 -0.4306 -0.4151
 2262SOL    HW118248   0.534   2.910  13.181  1.3909 -0.2191  0.2437
 2262SOL    HW218249   0.568   3.031  13.264 -0.9901 -0.3197  2.1561
 2263SOL     OW18250   2.060   4.198   8.564 -0.3088 -0.2552 -0.0111
 2263SOL    HW118251   1.976   4.193   8.610 -0.4107 -1.3415 -0.3204
 2263SOL    HW218252   2.105   4.254   8.627  0.6590 -2.6274  1.4015
 2264SOL     OW18253   0.835   0.327   0.564 -0.1222 -0.6900 -0.3066
 2264SOL    HW118254   0.752   0.282   0.581 -0.6158 -0.0569 -1.0255
 2264SOL    HW218255   0.813   0.372   0.482  0.7542 -0.5751 -0.4766
 2265SOL     OW18256   4.602   0.580  14.062 -0.5440 -0.6188  0.2288
 2265SOL    HW118257   4.616   0.497  14.108 -0.6177  1.2442  3.6129
 2265SOL    HW218258   4.646   0.566  13.978  1.7679  0.3161  1.2863
 2266SOL     OW18259   0.312   1.667  16.480  0.0644 -0.1937  0.1827
 2266SOL    HW118260   0.304   1.752  16.437  0.4107  0.5928  1.6725
 2266SOL    HW218261   0.309   1.610  16.402 -1.1590 -0.0155  0.1048
 2267SOL     OW18262   2.014   1.022   5.841  0.1477 -0.0508  0.5537
 2267SOL    HW118263   1.998   1.115   5.859  0.0900 -0.0714  0.6056
 2267SOL    HW218264   2.098   1.020   5.795 -0.1146 -1.6655  0.1348
 2268SOL     OW18265   1.451   3.845  11.471 -0.0391  0.2697  0.1190
 2268SOL    HW118266   1.498   3.763  11.486 -1.2647 -0.6126 -0.8229
 2268SOL    HW218267   1.385   3.843  11.540 -0.9214  1.9416 -0.6547
 2269SOL     OW18268   3.055   1.492   2.210  0.1163 -0.1271  0.4432
 2269SOL    HW118269   3.065   1.574   2.259 -0.9607  0.1615  0.1773
 2269SOL    HW218270   3.126   1.500   2.145 -0.2640  0.0110  0.0381
 2270SOL     OW18271   2.412   0.234  10.431 -0.0159 -0.2450  0.2729
 2270SOL    HW118272   2.382   0.181  10.505 -0.5586  1.6954  1.4502
 2270SOL    HW218273   2.356   0.200  10.362  0.9780  2.1554 -1.7126
 2271SOL     OW18274   4.184   3.199   8.620 -0.6804 -0.0958 -0.5884
 2271SOL    HW118275   4.233   3.136   8.672 -1.8272 -0.6266 -0.1362
 2271SOL    HW218276   4.125   3.243   8.681 -1.5544 -1.7057 -0.2528
 2272SOL     OW18277   0.152   3.127   2.682  0.6479  0.8169  0.0994
 2272SOL    HW118278   0.106   3.211   2.677 -0.7425 -0.1244 -2.5808
 2272SOL    HW218279   0.109   3.087   2.757  0.4788  0.6382 -0.0948
 2273SOL     OW18280   1.620   4.263   5.096  0.0712  0.1221  0.0010
 2273SOL    HW118281   1.620   4.184   5.150  0.7831  0.3654  0.3598
 2273SOL    HW218282   1.538   4.247   5.050 -0.2956 -1.1475  1.0840
 2274SOL     OW18283   0.409   1.453   6.219 -0.1271 -0.0584 -0.2894
 2274SOL    HW118284   0.483   1.427   6.164 -0.9189 -0.9462 -0.9494
 2274SOL    HW218285   0.375   1.526   6.168  2.5489  1.4170  0.0695
 2275SOL     OW18286   2.454   3.062   2.085  0.2403  0.0781 -0.2891
 2275SOL    HW118287   2.385   3.083   2.021 -0.8811  0.6088  1.0992
 2275SOL    HW218288   2.532   3.062   2.029  0.2885  2.9075 -0.2033
 2276SOL     OW18289   2.047   3.139   6.877  0.4704  0.1572  0.2353
 2276SOL    HW118290   2.110   3.174   6.814  0.3047  0.5934  0.3070
 2276SOL    HW218291   1.993   3.079   6.826  0.6937  1.6834 -1.7733
 2277SOL     OW18292   2.109   4.604   9.835  0.6520  0.2295 -0.6760
 2277SOL    HW118293   2.107   4.524   9.887  1.6097  1.0153  0.5780
 2277SOL    HW218294   2.080   4.582   9.747 -0.2152  0.6903 -0.5081
 2278SOL     OW18295   2.888   3.903   1.035  0.3915  0.3199  0.3305
 2278SOL    HW118296   2.846   3.954   0.966 -1.6152 -0.8553  0.6864
 2278SOL    HW218297   2.981   3.926   1.037  0.5053 -0.1423  0.3418
 2279SOL     OW18298   1.956   3.283  12.004  0.0313 -0.8035  0.1176
 2279SOL    HW118299   1.895   3.349  11.971  0.0832 -1.3593 -1.0927
 2279SOL    HW218300   1.893   3.224  12.046 -1.1846  0.4731  0.0971
 2280SOL     OW18301   1.131   1.420   4.634 -0.7937  0.5793 -0.5944
 2280SOL    HW118302   1.125   1.505   4.590  0.2830  1.0198  0.1330
 2280SOL    HW218303   1.065   1.367   4.588 -0.8363 -0.6718  0.9209
 2281SOL     OW18304   2.379   3.790   2.646 -0.0771 -0.0926  0.3848
 2281SOL    HW118305   2.348   3.880   2.649  0.2806  0.0172  0.8195
 2281SOL    HW218306   2.321   3.747   2.583 -0.6408  2.2793 -0.7309
 2282SOL     OW18307   2.755   0.884   6.411  0.4308  0.8856  0.1877
 2282SOL    HW118308   2.746   0.979   6.418 -0.3411  0.8999 -1.0404
 2282SOL    HW218309   2.840   0.865   6.451 -0.4254  0.0965  1.6111
 2283SOL     OW18310   1.327   3.711  16.167 -0.5098 -0.1662 -0.4011
 2283SOL    HW118311   1.267   3.698  16.240 -0.4437  1.5272 -0.0346
 2283SOL    HW218312   1.352   3.620  16.151 -0.3740 -0.0968 -0.5808
 2284SOL     OW18313   1.099   4.484   7.052  0.2885  0.1699 -0.5230
 2284SOL    HW118314   1.103   4.389   7.040  0.9742  0.1384 -0.0052
 2284SOL    HW218315   1.007   4.502   7.075 -0.4021 -2.5589 -1.2390
 2285SOL     OW18316   1.824   4.462   4.975 -0.5992 -0.3100 -0.3411
 2285SOL    HW118317   1.761   4.531   4.955 -1.6624 -1.2930 -0.3878
 2285SOL    HW218318   1.788   4.373   4.973  0.2203 -0.6383 -0.3246
 2286SOL     OW18319   3.177   2.869  14.889  0.5547  0.8300 -0.1002
 2286SOL    HW118320   3.203   2.846  14.800  0.6056  0.3523  0.0373
 2286SOL    HW218321   3.083   2.853  14.886  0.5127  1.0031  0.2290
 2287SOL     OW18322   3.036   2.846   9.210 -0.6727 -0.3866  0.4619
 2287SOL    HW118323   3.013   2.865   9.120  0.2726 -0.9569  0.0914
 2287SOL    HW218324   2.950   2.822   9.244 -1.1394 -2.4209 -2.1553
 2288SOL     OW18325   0.177   3.067  15.893  0.0736 -0.5591  0.1000
 2288SOL    HW118326   0.191   3.144  15.838  0.5908 -0.1681  0.7789
 2288SOL    HW218327   0.253   3.082  15.949  0.3749 -1.0409 -0.1812
 2289SOL     OW18328   4.071   2.215  11.848 -0.2524 -0.5177  0.0796
 2289SOL    HW118329   3.981   2.190  11.866 -0.7311 -0.4828 -2.2626
 2289SOL    HW218330   4.106   2.131  11.819 -1.0003 -0.7348 -0.1965
 2290SOL     OW18331   0.226   2.745   2.455 -0.5525 -0.2813 -0.2905
 2290SOL    HW118332   0.203   2.706   2.539  0.0199 -0.3258 -0.1552
 2290SOL    HW218333   0.233   2.669   2.397  0.8982 -0.0071 -0.4841
 2291SOL     OW18334   0.749   4.560   9.016  0.3875 -0.2837 -0.7291
 2291SOL    HW118335   0.675   4.529   9.068 -0.2722 -1.2857 -2.2377
 2291SOL    HW218336   0.792   4.614   9.081  1.5636 -1.6277 -0.4005
 2292SOL     OW18337   2.991   0.591  16.400  0.1967  0.0111 -0.0659
 2292SOL    HW118338   2.967   0.594  16.308 -2.6958  4.3956  0.8433
 2292SOL    HW218339   2.916   0.636  16.439  1.1007  1.5945 -0.1629
 2293SOL     OW18340   2.828   0.317  14.167  0.0505 -0.1670  0.1322
 2293SOL    HW118341   2.842   0.339  14.259  0.1845 -1.2630  0.3819
 2293SOL    HW218342   2.860   0.226  14.166  0.4649  0.0010 -1.5447
 2294SOL     OW18343   4.077   3.431   9.890 -0.2918  0.2802 -0.0508
 2294SOL    HW118344   4.125   3.500   9.936 -2.6624  3.5906 -2.4826
 2294SOL    HW218345   4.042   3.492   9.824 -3.7194 -2.9972 -1.2330
 2295SOL     OW18346   0.313   2.783  15.640 -0.5176  0.3102 -0.0641
 2295SOL    HW118347   0.330   2.696  15.605 -0.9533  0.9237 -1.7821
 2295SOL    HW218348   0.362   2.845  15.586  0.0572 -0.7222 -0.7069
 2296SOL     OW18349   0.155   0.714   5.899 -0.0310 -0.1993 -0.3272
 2296SOL    HW118350   0.223   0.774   5.867 -0.2539 -0.4356 -1.2620
 2296SOL    HW218351   0.144   0.744   5.989  0.9821  0.0033 -0.2709
 2297SOL     OW18352   4.168   2.606   7.929  0.2414 -0.0668  0.4983
 2297SOL    HW118353   4.228   2.543   7.970 -1.1689 -0.9121  1.2329
 2297SOL    HW218354   4.094   2.607   7.989  0.3050  1.0572  0.5527
 2298SOL     OW18355   0.660   3.456   6.967  0.8233  0.2050 -0.3447
 2298SOL    HW118356   0.708   3.539   6.963  2.7702 -0.9503 -0.9572
 2298SOL    HW218357   0.737   3.399   6.971 -0.4681 -1.6163 -1.2119
 2299SOL     OW18358   4.701   3.428   3.919 -0.4912 -0.1869  0.3775
 2299SOL    HW118359   0.068   3.411   3.881 -0.8775  1.1922 -1.1213
 2299SOL    HW218360   4.692   3.522   3.905 -0.4319 -0.5101 -1.8456
 2300SOL     OW18361   0.786   0.272   6.052  0.1020 -0.0167  0.3906
 2300SOL    HW118362   0.843   0.280   6.129 -1.7970  0.9638  1.6828
 2300SOL    HW218363   0.712   0.326   6.079 -1.0007 -0.7108 -1.2292
 2301SOL     OW18364   3.000   1.716  11.292 -0.3025 -0.0567 -0.3177
 2301SOL    HW118365   3.074   1.679  11.243  0.7443  0.4461  0.8692
 2301SOL    HW218366   2.994   1.801  11.247  2.1250  0.7397  0.8255
 2302SOL     OW18367   2.718   4.240   7.779  0.0690 -0.5210 -0.1417
 2302SOL    HW118368   2.722   4.153   7.740 -1.0368 -0.2797 -0.7923
 2302SOL    HW218369   2.706   4.219   7.872 -0.3036  0.9998  0.1495
 2303SOL     OW18370   3.742   3.597   6.897 -0.2058 -0.0932  0.0530
 2303SOL    HW118371   3.811   3.610   6.832  0.3612  0.4848  0.7680
 2303SOL    HW218372   3.723   3.503   6.902 -1.7932  0.2219 -0.0653
 2304SOL     OW18373   2.632   2.687  11.210  0.4207 -0.4097 -0.6301
 2304SOL    HW118374   2.609   2.598  11.238  0.8552 -0.4917 -0.5449
 2304SOL    HW218375   2.724   2.680  11.235  0.2348 -1.0031 -0.1135
 2305SOL     OW18376   2.584   0.138   6.782 -0.0769  0.4225 -0.7777
 2305SOL    HW118377   2.625   0.141   6.695  1.2851 -1.7651 -0.2044
 2305SOL    HW218378   2.506   0.085   6.765 -1.3067  1.8456  0.4167
 2306SOL     OW18379   1.723   3.531   6.733  0.5438 -0.7311  0.1258
 2306SOL    HW118380   1.743   3.618   6.699  2.0332 -1.5164 -0.9868
 2306SOL    HW218381   1.629   3.535   6.713  0.8658  1.4157 -1.0116
 2307SOL     OW18382   2.977   0.867  11.868 -0.2678  0.0152  0.0778
 2307SOL    HW118383   2.897   0.843  11.822 -0.1191  1.6353 -1.0452
 2307SOL    HW218384   2.993   0.957  11.838  1.9395 -0.3698  0.0857
 2308SOL     OW18385   0.095   2.461   4.340  0.8334 -0.5378  0.3400
 2308SOL    HW118386   0.096   2.533   4.277  0.6834 -0.1946  0.7299
 2308SOL    HW218387   0.182   2.472   4.379  1.1505 -2.1364  0.0524
 2309SOL     OW18388   3.925   0.075   3.036  0.1086  0.0856  0.3687
 2309SOL    HW118389   3.905   0.154   3.086 -1.8947 -0.7178  0.8053
 2309SOL    HW218390   3.835   0.050   3.015  0.2514  1.0154 -1.3566
 2310SOL     OW18391   0.763   0.527   4.792 -0.5048  0.4459 -0.4821
 2310SOL    HW118392   0.800   0.562   4.711  0.7828 -0.9460 -0.4991
 2310SOL    HW218393   0.675   0.563   4.803 -0.3082  1.3310 -1.8006
 2311SOL     OW18394   1.565   3.381   7.648  0.2454  0.0634  0.1097
 2311SOL    HW118395   1.600   3.354   7.733  0.3739  0.0390  0.0504
 2311SOL    HW218396   1.500   3.441   7.682 -1.6373 -0.2424 -2.9381
 2312SOL     OW18397   0.983   0.227  16.402 -0.5195 -0.3313  0.1073
 2312SOL    HW118398   0.997   0.277  16.321 -0.3813 -1.2055 -0.4127
 2312SOL    HW218399   0.891   0.201  16.390 -0.4839  0.4189 -1.8700
 2313SOL     OW18400   0.339   3.029   7.690 -0.7039 -0.1336 -0.0856
 2313SOL    HW118401   0.246   3.012   7.681  0.0035 -3.2659 -1.6175
 2313SOL    HW218402   0.338   3.095   7.758  1.3608 -1.8042  1.5700
 2314SOL     OW18403   1.853   1.240   6.328 -0.5188 -0.5470 -0.5823
 2314SOL    HW118404   1.938   1.233   6.372 -1.0366  1.2779  0.6635
 2314SOL    HW218405   1.824   1.151   6.351  1.0922 -0.6164  1.1391
 2315SOL     OW18406   0.502   1.796   5.944  0.2423 -0.6867  0.1767
 2315SOL    HW118407   0.561   1.851   5.995  2.5698 -1.1581 -1.9923
 2315SOL    HW218408   0.568   1.728   5.927  0.6585 -0.3377  0.4008
 2316SOL     OW18409   2.594   3.948   2.619  0.5635  0.1879  0.2551
 2316SOL    HW118410   2.542   3.869   2.638 -0.7992  0.5702 -1.8327
 2316SOL    HW218411   2.683   3.919   2.637  0.1074 -0.4840  1.4781
 2317SOL     OW18412   2.343   1.499   6.261 -0.0480  0.4400 -0.6702
 2317SOL    HW118413   2.390   1.417   6.273  0.2792  0.5824 -1.0090
 2317SOL    HW218414   2.348   1.535   6.350 -0.7736 -1.7542  0.2763
 2318SOL     OW18415   2.289   1.572  10.271  0.4223  0.0163 -0.7329
 2318SOL    HW118416   2.245   1.535  10.348  0.7771  1.5019  0.1842
 2318SOL    HW218417   2.350   1.498  10.260  3.5521  2.4638  0.2287
 2319SOL     OW18418   0.149   0.168  12.418  0.3384  0.2299 -0.2083
 2319SOL    HW118419   0.209   0.229  12.462  0.0694  0.6397 -0.4174
 2319SOL    HW218420   0.081   0.150  12.482  3.2032 -0.6735  2.5698
 2320SOL     OW18421   2.663   1.366   5.068  0.1025  0.6365  0.0875
 2320SOL    HW118422   2.721   1.374   4.992  0.8671 -3.9737  0.1383
 2320SOL    HW218423   2.645   1.272   5.063 -0.0253  0.5480  2.0165
 2321SOL     OW18424   1.427   1.000  10.510 -0.1570  0.1094 -0.0149
 2321SOL    HW118425   1.332   1.008  10.518  0.1533  1.7922  1.9760
 2321SOL    HW218426   1.450   1.082  10.465 -0.7107  1.1545  1.6280
 2322SOL     OW18427   0.865   2.495   6.579  0.2074  0.3096 -0.2756
 2322SOL    HW118428   0.819   2.418   6.548 -2.1657  1.7896 -0.4604
 2322SOL    HW218429   0.801   2.565   6.564  1.1439  1.1706 -0.2393
 2323SOL     OW18430   3.778   0.590   5.246 -0.5512 -0.1458 -0.4178
 2323SOL    HW118431   3.701   0.572   5.300 -0.9207  1.9240 -0.2293
 2323SOL    HW218432   3.842   0.576   5.316  0.1233  1.6469 -0.6635
 2324SOL     OW18433   1.041   4.208   7.885 -0.1054 -0.8352  0.0280
 2324SOL    HW118434   1.027   4.241   7.974 -0.3986 -0.1595 -0.2759
 2324SOL    HW218435   1.072   4.119   7.902  2.1921 -0.6970 -3.3341
 2325SOL     OW18436   3.585   2.835   0.823 -0.4002  0.3581  0.0324
 2325SOL    HW118437   3.665   2.888   0.825 -0.4877  0.3759  2.9574
 2325SOL    HW218438   3.566   2.848   0.730  1.4966  2.2315 -0.0955
 2326SOL     OW18439   4.707   2.206   6.319  0.2729  0.3840 -0.0448
 2326SOL    HW118440   0.051   2.250   6.376 -1.6253  1.1927  1.4694
 2326SOL    HW218441   0.021   2.116   6.317 -2.8433 -0.7837  1.1129
 2327SOL     OW18442   2.898   0.505   9.290 -0.2464 -0.0029 -1.0081
 2327SOL    HW118443   2.806   0.526   9.306 -0.1831 -0.1738 -0.4168
 2327SOL    HW218444   2.935   0.580   9.335 -1.3564 -0.2162  0.2582
 2328SOL     OW18445   1.453   3.147   4.308  0.8185 -0.1378 -0.3688
 2328SOL    HW118446   1.492   3.060   4.316  2.6522  0.5279 -2.1600
 2328SOL    HW218447   1.452   3.178   4.399  0.6464  1.4637 -0.9180
 2329SOL     OW18448   0.747   1.511   9.841 -0.3571  0.5391 -0.0000
 2329SOL    HW118449   0.694   1.556   9.907  0.0789 -0.3686  0.9707
 2329SOL    HW218450   0.823   1.488   9.893 -0.4019  3.0847  1.1999
 2330SOL     OW18451   0.109   3.094   2.167  0.0902 -0.1876 -0.2409
 2330SOL    HW118452   0.143   3.161   2.226 -1.4770  1.0136 -0.6768
 2330SOL    HW218453   0.185   3.054   2.124  1.0789  0.0238  1.3204
 2331SOL     OW18454   3.481   4.177   2.135 -0.0539  0.2107  0.1663
 2331SOL    HW118455   3.576   4.169   2.140 -0.2200 -2.3957 -1.0084
 2331SOL    HW218456   3.466   4.212   2.048  2.4034  0.2722 -0.2322
 2332SOL     OW18457   0.907   0.804   2.640 -0.7008  0.3083 -0.2182
 2332SOL    HW118458   0.825   0.853   2.648 -0.5939  0.2757  1.1009
 2332SOL    HW218459   0.944   0.846   2.562  0.1032  0.1505  0.0748
 2333SOL     OW18460   1.260   2.108   4.679 -0.2899 -0.3173 -0.3687
 2333SOL    HW118461   1.339   2.128   4.729 -1.8006 -0.8015  2.2215
 2333SOL    HW218462   1.198   2.074   4.744 -0.1954 -0.9754 -0.6279
 2334SOL     OW18463   0.978   2.622  15.962 -0.3908 -0.2830  0.0856
 2334SOL    HW118464   0.937   2.613  16.048 -2.1664 -0.2489 -0.7785
 2334SOL    HW218465   1.048   2.557  15.969 -0.2030  0.0251  1.1268
 2335SOL     OW18466   3.511   1.898   6.301 -0.0618  0.1681 -0.3010
 2335SOL    HW118467   3.419   1.883   6.325 -0.2412  0.9318 -0.5133
 2335SOL    HW218468   3.544   1.954   6.370  1.1154  0.0485 -0.7759
 2336SOL     OW18469   1.429   2.479  13.783  0.8365  0.0753  0.1132
 2336SOL    HW118470   1.338   2.490  13.758  0.7253  1.0993  0.9906
 2336SOL    HW218471   1.476   2.533  13.720  2.5249 -0.6476  0.7478
 2337SOL     OW18472   1.925   4.692   5.521  0.1530  0.1610  0.6279
 2337SOL    HW118473   1.945   4.598   5.522 -0.1557  0.0680 -2.8979
 2337SOL    HW218474   1.860   4.699   5.451 -0.7087  1.0283  1.5161
 2338SOL     OW18475   2.712   4.471   8.864  0.0362  0.2969 -0.0389
 2338SOL    HW118476   2.737   4.453   8.773 -0.8943  1.8310 -0.6071
 2338SOL    HW218477   2.784   4.529   8.888 -1.1446  2.2219 -1.1194
 2339SOL     OW18478   0.173   0.336   2.353 -0.0504 -0.0753 -0.1210
 2339SOL    HW118479   0.176   0.292   2.268  2.9138 -1.2196  0.5937
 2339SOL    HW218480   0.086   0.313   2.385 -0.5128 -1.0443 -2.0879
 2340SOL     OW18481   0.114   4.463   8.959 -0.3014 -0.1430  0.5812
 2340SOL    HW118482   0.023   4.448   8.984 -0.1929 -1.3136  0.2782
 2340SOL    HW218483   0.108   4.450   8.865  0.6791  0.1697  0.4721
 2341SOL     OW18484   3.054   3.231   6.171  0.1409 -0.0263 -0.2872
 2341SOL    HW118485   3.005   3.158   6.134 -0.5216  0.0580  0.4368
 2341SOL    HW218486   3.000   3.302   6.137 -0.6053 -0.2028  0.5197
 2342SOL     OW18487   3.760   0.143   6.165  0.2874 -0.2399 -0.3428
 2342SOL    HW118488   3.778   0.157   6.072 -2.2856 -0.6468 -0.8912
 2342SOL    HW218489   3.702   0.213   6.194 -1.2760 -1.8807  0.4789
 2343SOL     OW18490   2.913   3.016   9.012  0.1629 -0.0884  0.1410
 2343SOL    HW118491   2.840   3.035   9.071  0.7529  1.5740  0.3501
 2343SOL    HW218492   2.866   3.005   8.930 -0.1031  0.6762  0.1897
 2344SOL     OW18493   3.387   2.215   1.481 -0.0759 -0.1362  0.2614
 2344SOL    HW118494   3.340   2.295   1.458  1.1424  0.6234  0.4101
 2344SOL    HW218495   3.462   2.253   1.528 -0.9036  1.0439  0.6406
 2345SOL     OW18496   2.644   3.125   7.128  0.8334 -0.1317 -0.4350
 2345SOL    HW118497   2.654   3.030   7.128  0.0090 -0.2228 -2.4047
 2345SOL    HW218498   2.554   3.155   7.142  1.0595  0.5029 -0.3517
 2346SOL     OW18499   2.390   2.446   7.335  0.3724  0.6586  0.0891
 2346SOL    HW118500   2.478   2.423   7.364 -0.1604 -2.3514 -0.7138
 2346SOL    HW218501   2.326   2.388   7.376 -1.2373  3.1606  1.1801
 2347SOL     OW18502   2.906   0.673   2.558 -0.1630  0.0729 -0.0291
 2347SOL    HW118503   2.975   0.609   2.540 -1.0673 -0.5890 -1.1766
 2347SOL    HW218504   2.882   0.701   2.470 -0.5099  1.4152  0.4992
 2348SOL     OW18505   2.704   0.416   1.296  0.6998 -1.1361 -0.6062
 2348SOL    HW118506   2.742   0.448   1.378 -0.9127  0.8352 -0.6061
 2348SOL    HW218507   2.692   0.324   1.318 -2.2733 -1.3724 -3.3382
 2349SOL     OW18508   1.483   1.465   4.514  0.2736  0.2175  0.4629
 2349SOL    HW118509   1.503   1.464   4.421 -0.3527 -0.6507  0.3354
 2349SOL    HW218510   1.390   1.446   4.525 -0.0035  0.2524 -1.7853
 2350SOL     OW18511   1.187   3.617  12.909  0.1520 -0.3741  0.2349
 2350SOL    HW118512   1.104   3.576  12.932  1.5112 -1.7945  2.5088
 2350SOL    HW218513   1.211   3.643  12.998  0.9446 -1.3862  0.3102
 2351SOL     OW18514   3.007   2.288   8.517  0.1342  0.5534 -0.1811
 2351SOL    HW118515   3.020   2.316   8.608  1.1234 -0.3037 -0.0587
 2351SOL    HW218516   3.094   2.264   8.487  0.5369  2.7618 -0.7100
 2352SOL     OW18517   2.770   1.852   7.443 -0.1120 -0.6336 -1.0375
 2352SOL    HW118518   2.835   1.894   7.387  0.3423 -0.2356 -0.2030
 2352SOL    HW218519   2.724   1.805   7.373 -0.8128 -1.3667 -0.0883
 2353SOL     OW18520   1.516   3.510  13.974 -0.3601 -0.2772 -0.0236
 2353SOL    HW118521   1.531   3.603  13.957 -1.1409 -0.2810 -0.7597
 2353SOL    HW218522   1.596   3.487  14.021  0.7350  0.3945 -1.5457
 2354SOL     OW18523   4.056   0.351  16.067 -0.0183  0.1165  0.1310
 2354SOL    HW118524   4.135   0.326  16.115  0.1660 -3.1520 -1.8607
 2354SOL    HW218525   4.072   0.445  16.063 -0.4563  0.0847 -2.5179
 2355SOL     OW18526   0.655   0.010   3.482 -0.2904  0.2323 -0.0406
 2355SOL    HW118527   0.737   4.698   3.522 -0.7009  0.2032  0.7900
 2355SOL    HW218528   0.619   0.042   3.565  0.3346 -0.8140  0.6451
 2356SOL     OW18529   3.649   3.970   9.947 -0.0588  0.5498  0.1855
 2356SOL    HW118530   3.579   3.906   9.935  1.4225 -0.7260 -1.4931
 2356SOL    HW218531   3.690   3.937  10.027  1.7226  2.1522 -0.0661
 2357SOL     OW18532   3.645   3.333   1.555 -0.1338 -0.2304  0.0199
 2357SOL    HW118533   3.561   3.353   1.513 -0.0833  1.5044  0.7375
 2357SOL    HW218534   3.644   3.240   1.577 -0.7163 -0.2852 -0.2327
 2358SOL     OW18535   3.403   3.207   3.850 -0.0688 -0.3202  0.0608
 2358SOL    HW118536   3.392   3.115   3.827  0.5118  0.1549 -2.0622
 2358SOL    HW218537   3.497   3.223   3.849 -0.1498 -0.0778 -2.7985
 2359SOL     OW18538   3.359   2.682  12.042 -0.0681 -0.5473 -0.5351
 2359SOL    HW118539   3.431   2.646  12.094 -1.0696 -0.0638  1.1896
 2359SOL    HW218540   3.385   2.774  12.035 -1.4524 -0.0576  0.8451
 2360SOL     OW18541   3.303   1.837   5.005 -0.0046 -0.1467  0.5657
 2360SOL    HW118542   3.343   1.804   4.924  1.0315  1.2719  0.5144
 2360SOL    HW218543   3.228   1.886   4.972 -0.5196 -0.6131  1.0506
 2361SOL     OW18544   1.826   2.211   7.647  0.1038  0.3008 -0.1510
 2361SOL    HW118545   1.876   2.149   7.698  0.1700  1.6447  1.4247
 2361SOL    HW218546   1.794   2.156   7.576  0.1626 -0.1002  0.1362
 2362SOL     OW18547   1.817   0.983   6.078  0.1624 -0.1227  0.4538
 2362SOL    HW118548   1.860   0.992   6.163 -0.9420  0.8384  0.9052
 2362SOL    HW218549   1.899   0.978   6.029 -1.1166  1.7508 -1.8383
 2363SOL     OW18550   3.852   1.247   7.778  0.1322 -0.1727  0.6872
 2363SOL    HW118551   3.923   1.228   7.839  2.7141  2.6285 -1.4486
 2363SOL    HW218552   3.786   1.180   7.797 -1.2482  1.0484  0.1751
 2364SOL     OW18553   2.642   2.700   3.214  0.0203 -0.4771  0.2081
 2364SOL    HW118554   2.658   2.613   3.251 -1.6342 -1.2871 -0.9754
 2364SOL    HW218555   2.733   2.722   3.193 -0.2097  1.3797  1.1600
 2365SOL     OW18556   0.182   1.970  13.474  0.2973 -0.0544 -0.1124
 2365SOL    HW118557   0.136   2.012  13.402 -2.1125  1.0743  2.1090
 2365SOL    HW218558   0.204   2.049  13.522  1.0384 -1.0216  1.1611
 2366SOL     OW18559   1.686   3.553   5.855 -0.3963  0.0969 -0.1084
 2366SOL    HW118560   1.753   3.600   5.906 -0.5272  0.3641 -0.1846
 2366SOL    HW218561   1.671   3.474   5.907 -0.0086 -1.3180 -2.1674
 2367SOL     OW18562   4.071   0.136  12.329 -0.3350  0.3477 -0.4398
 2367SOL    HW118563   4.134   0.077  12.288 -0.2973  1.0696 -1.4350
 2367SOL    HW218564   4.119   0.163  12.407 -1.2652 -0.7055  0.5098
 2368SOL     OW18565   4.161   1.495   5.477  0.0012  0.3084  0.3295
 2368SOL    HW118566   4.117   1.541   5.405  2.5203  1.1890 -0.6617
 2368SOL    HW218567   4.134   1.408   5.448  1.1790 -0.2641  1.0019
 2369SOL     OW18568   4.149   1.555  16.445  0.2635  0.1012  0.4638
 2369SOL    HW118569   4.092   1.541  16.520  0.8110  0.3804  0.9322
 2369SOL    HW218570   4.096   1.599  16.379 -0.2954  1.3304  1.7426
 2370SOL     OW18571   3.758   0.273   2.194 -0.0232 -0.4387  0.2332
 2370SOL    HW118572   3.709   0.213   2.139 -1.0256  1.2905 -0.7300
 2370SOL    HW218573   3.839   0.276   2.143 -0.0156 -0.4069  0.2470
 2371SOL     OW18574   3.655   3.387  10.575  0.0610  0.1146  0.0569
 2371SOL    HW118575   3.646   3.425  10.488 -0.0294 -3.1014 -1.3668
 2371SOL    HW218576   3.667   3.460  10.635  1.8860  0.1960 -0.4108
 2372SOL     OW18577   2.017   4.659   2.056 -0.6264 -0.6399 -0.1484
 2372SOL    HW118578   2.035   4.574   2.095 -0.6957  0.4052  2.1644
 2372SOL    HW218579   1.980   4.717   2.123 -0.9958 -0.4544 -0.5097
 2373SOL     OW18580   4.704   1.964   5.134 -0.4408 -0.3452 -0.4248
 2373SOL    HW118581   0.051   1.924   5.078  0.1715 -1.0300  0.7933
 2373SOL    HW218582   4.658   1.890   5.174  1.3381 -1.2377 -0.0428
 2374SOL     OW18583   2.161   0.935   3.712 -0.6374 -0.6307 -0.1016
 2374SOL    HW118584   2.224   0.922   3.642  0.6963 -1.9281  1.3535
 2374SOL    HW218585   2.082   0.900   3.670 -1.2464 -1.3384  1.5978
 2375SOL     OW18586   3.160   1.163   5.398  0.7871  0.4081  0.0877
 2375SOL    HW118587   3.211   1.227   5.349  1.6810  0.5871  1.2498
 2375SOL    HW218588   3.221   1.119   5.457  2.2025  1.5109 -0.5795
 2376SOL     OW18589   1.132   0.335   4.266  0.8230  0.1352  0.5212
 2376SOL    HW118590   1.169   0.317   4.180  1.8462  0.9640  0.7955
 2376SOL    HW218591   1.061   0.276   4.241  0.6139  0.8748 -0.6319
 2377SOL     OW18592   1.580   2.279   0.971 -0.1104  0.6434  0.1276
 2377SOL    HW118593   1.616   2.368   0.963  0.3830  0.5502  1.3527
 2377SOL    HW218594   1.651   2.216   0.956  0.2675  0.3672  3.0595
 2378SOL     OW18595   3.142   4.315   0.110 -0.4878  0.2310 -0.1635
 2378SOL    HW118596   3.102   4.326   0.197 -0.8551 -2.0532 -0.0530
 2378SOL    HW218597   3.057   4.317   0.068  0.2335  0.3516 -1.6081
 2379SOL     OW18598   3.318   0.438   3.087 -0.2626 -0.1977 -0.0013
 2379SOL    HW118599   3.238   0.470   3.127 -1.1231 -0.6468 -1.3454
 2379SOL    HW218600   3.290   0.350   3.060  1.3967 -0.3558 -1.2497
 2380SOL     OW18601   0.306   2.830   0.484  0.3080 -0.4501 -0.2402
 2380SOL    HW118602   0.266   2.785   0.410 -0.6291 -0.5370  0.3101
 2380SOL    HW218603   0.359   2.756   0.513  0.4768 -0.5782 -0.8904
 2381SOL     OW18604   1.009   4.105  16.136 -0.0231 -0.0024 -0.0968
 2381SOL    HW118605   1.011   4.169  16.065  2.0561 -0.1028 -0.1429
 2381SOL    HW218606   1.063   4.142  16.206  2.4888 -2.6323 -0.6488
 2382SOL     OW18607   4.168   1.355   5.095 -0.0502  0.9363 -0.4404
 2382SOL    HW118608   4.147   1.447   5.111 -3.5774  0.0840 -0.1797
 2382SOL    HW218609   4.227   1.327   5.165  0.7023  1.2169 -0.9607
 2383SOL     OW18610   3.392   4.696   4.283  0.4437  0.1780 -0.1393
 2383SOL    HW118611   3.383   4.602   4.300  1.8436 -0.5993 -3.7320
 2383SOL    HW218612   3.304   0.011   4.300  0.3807  1.6738 -3.4265
 2384SOL     OW18613   1.023   0.503   2.469 -0.0982 -0.0897  0.0398
 2384SOL    HW118614   1.020   0.434   2.403  4.4118 -0.7052  0.4780
 2384SOL    HW218615   0.930   0.503   2.489 -0.0144  0.2754  0.4334
 2385SOL     OW18616   4.529   3.172  12.752 -0.3262 -0.2652 -0.0795
 2385SOL    HW118617   4.449   3.154  12.702 -1.4379  0.5300  1.3971
 2385SOL    HW218618   4.487   3.240  12.805 -0.1704  0.8531 -1.3821
 2386SOL     OW18619   4.390   4.088   0.710 -0.8417  0.0626 -0.6323
 2386SOL    HW118620   4.304   4.068   0.748 -1.1138  3.4315  0.5123
 2386SOL    HW218621   4.446   4.092   0.788 -0.2118 -3.3829 -0.9255
 2387SOL     OW18622   3.880   0.772  17.147  0.0757  0.0591  0.3488
 2387SOL    HW118623   3.803   0.821  17.177 -1.4926 -1.9629 -0.3845
 2387SOL    HW218624   3.876   0.701  17.212  1.2225 -0.5665 -0.2633
 2388SOL     OW18625   4.211   4.179   4.825 -0.3520  0.5910  0.1415
 2388SOL    HW118626   4.216   4.266   4.864 -1.9945  1.5674 -1.8251
 2388SOL    HW218627   4.285   4.135   4.868  1.9624  2.6679 -1.6894
 2389SOL     OW18628   3.848   1.655  12.183 -0.0868  0.4480  0.2145
 2389SOL    HW118629   3.896   1.677  12.104  0.0497 -0.6253 -0.0070
 2389SOL    HW218630   3.916   1.669  12.249 -0.8909 -1.4891  1.4817
 2390SOL     OW18631   3.739   2.524   2.081 -0.3987 -0.3031 -0.8077
 2390SOL    HW118632   3.690   2.565   2.153  1.2830 -0.4353  0.4087
 2390SOL    HW218633   3.699   2.573   2.009 -1.6115  1.1438  0.8489
 2391SOL     OW18634   1.207   0.012   5.879 -0.4667 -0.1026 -0.1130
 2391SOL    HW118635   1.233   4.661   5.820 -1.0936  1.2697 -2.0027
 2391SOL    HW218636   1.130   4.696   5.924 -1.7879  2.0824 -0.6346
 2392SOL     OW18637   0.664   2.379   5.597  0.1872  0.5670  0.3225
 2392SOL    HW118638   0.664   2.310   5.662  1.7554 -0.5983 -0.9231
 2392SOL    HW218639   0.569   2.385   5.587  0.1176  0.4203  0.8813
 2393SOL     OW18640   0.386   0.333   7.610  0.0509  0.6877  0.0377
 2393SOL    HW118641   0.297   0.366   7.620  0.3300  1.3651  0.2281
 2393SOL    HW218642   0.423   0.403   7.556 -0.4198  2.4375  1.9932
 2394SOL     OW18643   1.639   0.634   5.065  0.2380  0.3968 -0.1196
 2394SOL    HW118644   1.620   0.656   4.974  4.7675  0.5635 -1.0291
 2394SOL    HW218645   1.551   0.602   5.084  1.4094 -1.3811  2.4187
 2395SOL     OW18646   1.083   2.520   4.511  0.5236 -0.0787 -0.1967
 2395SOL    HW118647   1.058   2.609   4.536 -2.7427 -0.4579 -2.1594
 2395SOL    HW218648   1.157   2.517   4.572  0.2275 -0.8278  0.1265
 2396SOL     OW18649   0.214   2.740   6.610 -0.6766 -0.3916 -0.5896
 2396SOL    HW118650   0.279   2.799   6.648  1.1716 -2.7268 -0.1590
 2396SOL    HW218651   0.239   2.736   6.517  0.9576 -1.8190 -0.0920
 2397SOL     OW18652   2.747   0.609   4.872  0.3047  0.1249  0.2988
 2397SOL    HW118653   2.822   0.665   4.891  0.9164  0.0625 -1.9039
 2397SOL    HW218654   2.669   0.644   4.916  0.3125 -1.1131  1.2848
 2398SOL     OW18655   4.184   1.539   7.747 -0.4781  0.2405 -0.1102
 2398SOL    HW118656   4.274   1.569   7.734 -1.0979  1.0884 -2.2886
 2398SOL    HW218657   4.151   1.527   7.658  0.5934  0.8899 -0.5987
 2399SOL     OW18658   3.140   3.785   8.157 -0.1521 -0.1147  0.3172
 2399SOL    HW118659   3.122   3.812   8.067 -1.6890  0.9317  0.9471
 2399SOL    HW218660   3.131   3.870   8.202 -1.5140 -0.2856  0.3611
 2400SOL     OW18661   1.819   2.946   2.172 -0.1475 -0.1648  0.8005
 2400SOL    HW118662   1.789   2.873   2.227 -0.6133  0.5049  1.4440
 2400SOL    HW218663   1.788   2.908   2.090  2.1972 -0.0220 -0.1378
 2401SOL     OW18664   0.622   4.639   0.188 -0.1678 -0.4518  0.3342
 2401SOL    HW118665   0.575   4.560   0.216  0.0240 -0.1678  1.4783
 2401SOL    HW218666   0.620   4.695   0.266  0.1734  2.4023 -1.7513
 2402SOL     OW18667   2.309   2.094   2.178  0.3472 -0.9049  0.3836
 2402SOL    HW118668   2.279   2.162   2.238 -0.3299 -0.5282 -0.3797
 2402SOL    HW218669   2.363   2.129   2.108 -1.0731  1.5029  0.4800
 2403SOL     OW18670   2.399   3.921  17.238  0.3358  0.3843 -0.2803
 2403SOL    HW118671   2.435   3.841  17.277  0.4744  0.2533 -0.6757
 2403SOL    HW218672   2.478   3.975  17.236  0.8666 -0.3965 -0.5270
 2404SOL     OW18673   1.367   3.504   5.276  0.4057 -0.6942  0.5171
 2404SOL    HW118674   1.296   3.561   5.243  0.9812 -0.0861  0.3198
 2404SOL    HW218675   1.314   3.425   5.286 -0.9971  0.0181 -1.1663
 2405SOL     OW18676   3.465   1.445   5.056  0.5059 -0.6721  0.5572
 2405SOL    HW118677   3.385   1.400   5.081  0.8411 -0.7130  1.5692
 2405SOL    HW218678   3.471   1.429   4.962 -2.4486  0.2779  0.2145
 2406SOL     OW18679   2.850   2.647   7.253 -0.5456  0.3272 -0.1976
 2406SOL    HW118680   2.780   2.605   7.303  0.2186 -0.8472 -0.1028
 2406SOL    HW218681   2.834   2.615   7.165  0.3615  1.6259 -0.8296
 2407SOL     OW18682   2.379   3.519   2.760  0.6049  0.4869 -0.3249
 2407SOL    HW118683   2.445   3.466   2.717 -0.2271 -0.8242  0.0199
 2407SOL    HW218684   2.410   3.608   2.743 -1.2510  1.0550 -0.8140
 2408SOL     OW18685   3.216   0.154   8.916  0.1111 -0.3834  0.3928
 2408SOL    HW118686   3.256   0.139   9.002 -0.8170 -1.6394  0.6180
 2408SOL    HW218687   3.216   0.068   8.873  0.4541  0.0301 -0.4339
 2409SOL     OW18688   0.438   1.951  11.388  0.0411 -0.6775 -0.2482
 2409SOL    HW118689   0.414   2.038  11.422  0.2899 -0.1295 -1.4805
 2409SOL    HW218690   0.371   1.932  11.323 -0.5373  1.1955 -0.2044
 2410SOL     OW18691   2.596   1.716   2.353  0.0327 -1.0002  0.7191
 2410SOL    HW118692   2.585   1.811   2.354 -0.3921 -1.0767  2.7915
 2410SOL    HW218693   2.508   1.689   2.326  0.2099 -0.3293 -0.5527
 2411SOL     OW18694   2.731   0.490   0.315  0.2525  0.0380 -0.0892
 2411SOL    HW118695   2.777   0.504   0.231  1.2054  1.9743  0.7573
 2411SOL    HW218696   2.744   0.399   0.339  1.0583  0.2874  0.4304
 2412SOL     OW18697   2.355   4.544  13.650 -0.1067  0.1264  0.0516
 2412SOL    HW118698   2.447   4.571  13.648 -0.5562  1.6051 -0.7540
 2412SOL    HW218699   2.338   4.538  13.556  4.6244  0.8384 -0.8406
 2413SOL     OW18700   0.809   0.107   1.141 -0.2962 -0.0776 -0.4037
 2413SOL    HW118701   0.861   0.052   1.200  0.2448 -0.7130 -1.4743
 2413SOL    HW218702   0.812   0.189   1.190 -0.8918  1.0666 -2.2790
 2414SOL     OW18703   4.331   2.960   2.693 -0.0235  0.0798 -0.2236
 2414SOL    HW118704   4.260   2.938   2.632  1.7056  0.6526 -2.4363
 2414SOL    HW218705   4.359   3.043   2.654 -0.7530  0.6808  0.5537
 2415SOL     OW18706   3.008   2.684   1.678 -0.2147 -0.3341 -0.2309
 2415SOL    HW118707   2.994   2.617   1.611 -1.7691  0.5538 -0.7985
 2415SOL    HW218708   3.009   2.636   1.760  2.5074 -0.7480 -0.5122
 2416SOL     OW18709   1.939   3.595   7.042  0.3444 -0.2270  1.1776
 2416SOL    HW118710   1.990   3.646   6.980 -0.3514  1.7580  2.2104
 2416SOL    HW218711   1.952   3.645   7.123  2.8412  2.4127 -0.8883
 2417SOL     OW18712   3.365   0.925   1.338 -0.4593  0.0731  0.4870
 2417SOL    HW118713   3.309   0.862   1.383 -1.5854  1.2979  0.8250
 2417SOL    HW218714   3.299   0.949   1.273  2.3879  1.4221 -1.9385
 2418SOL     OW18715   2.579   0.253  14.785  0.2795  1.2806 -0.0430
 2418SOL    HW118716   2.593   0.254  14.880 -0.4676  1.0731  0.0731
 2418SOL    HW218717   2.595   0.347  14.775  0.0512  1.3705  0.4550
 2419SOL     OW18718   3.779   1.326   0.063  0.1958  0.1247 -0.8586
 2419SOL    HW118719   3.853   1.266   0.059  0.0163 -0.2811  1.5121
 2419SOL    HW218720   3.767   1.352  17.653  4.6460  0.8451 -1.2059
 2420SOL     OW18721   3.694   1.446   8.110 -0.2024  0.1924  0.6055
 2420SOL    HW118722   3.708   1.500   8.188 -0.2024  1.3399 -0.1869
 2420SOL    HW218723   3.645   1.508   8.055 -0.5556 -0.6028  0.0319
 2421SOL     OW18724   3.815   0.982   8.160 -0.0403  0.3989  0.2918
 2421SOL    HW118725   3.866   0.997   8.240 -0.2795  0.3233  0.4591
 2421SOL    HW218726   3.768   1.066   8.153 -0.5401  0.0247 -0.8470
 2422SOL     OW18727   4.224   0.918  13.705  0.6622  0.0858 -0.0525
 2422SOL    HW118728   4.240   0.885  13.617 -1.4082  0.2406 -0.4730
 2422SOL    HW218729   4.130   0.929  13.692  0.3012  0.1384  2.5630
 2423SOL     OW18730   3.199   0.310   3.514  0.3451  0.6982 -0.6472
 2423SOL    HW118731   3.218   0.299   3.608 -1.3274  1.9947 -0.1584
 2423SOL    HW218732   3.287   0.310   3.475  1.4159  0.5758  1.7196
 2424SOL     OW18733   0.678   1.846  11.407 -0.2677  0.2453 -0.3983
 2424SOL    HW118734   0.585   1.869  11.409 -0.1373  0.5966  1.4902
 2424SOL    HW218735   0.672   1.765  11.357  2.9337 -0.7244  0.7940
 2425SOL     OW18736   0.382   0.555   5.044  0.1191  0.1738 -0.5636
 2425SOL    HW118737   0.467   0.553   5.088 -0.9389  2.8669  1.6121
 2425SOL    HW218738   0.396   0.469   5.005  2.4966  0.8786 -1.2933
 2426SOL     OW18739   0.507   1.089  13.533 -0.1145 -0.0160 -0.0145
 2426SOL    HW118740   0.548   1.158  13.585 -2.0138  0.7449  0.4857
 2426SOL    HW218741   0.430   1.066  13.586 -1.5238  0.9785 -1.6251
 2427SOL     OW18742   3.875   0.925  15.581  0.1321 -0.4877  0.0513
 2427SOL    HW118743   3.908   0.929  15.671 -0.8606 -0.1281  0.4041
 2427SOL    HW218744   3.782   0.944  15.595  0.0608 -0.3279 -0.6403
 2428SOL     OW18745   3.171   1.636  10.839 -0.6088  0.0188 -0.3697
 2428SOL    HW118746   3.156   1.542  10.834 -2.5659  0.2529  0.9787
 2428SOL    HW218747   3.267   1.633  10.842 -0.5819  1.3219  0.1971
 2429SOL     OW18748   4.059   3.497   1.779 -0.2793 -0.2192 -0.1256
 2429SOL    HW118749   4.020   3.580   1.805  1.4389  0.0749  1.5286
 2429SOL    HW218750   3.987   3.471   1.722  0.2983 -1.0371 -0.4673
 2430SOL     OW18751   4.505   3.998  16.644  0.5265  0.5562 -0.0968
 2430SOL    HW118752   4.515   4.089  16.675 -0.0928 -0.3822  2.9066
 2430SOL    HW218753   4.595   3.965  16.647  0.0428 -0.8649 -1.5352
 2431SOL     OW18754   4.163   4.573   7.663  0.7390 -0.1399  0.1196
 2431SOL    HW118755   4.164   4.577   7.567 -0.0429  2.7645  0.2357
 2431SOL    HW218756   4.150   4.665   7.687 -2.4246 -0.1946 -1.3919
 2432SOL     OW18757   2.783   2.269  15.976  0.1183 -0.0161  0.5193
 2432SOL    HW118758   2.797   2.255  16.069  1.1701  0.2595  0.3969
 2432SOL    HW218759   2.846   2.337  15.954  0.4895 -0.6505 -0.4110
 2433SOL     OW18760   2.962   2.323   5.557 -0.5851 -0.1527 -0.5595
 2433SOL    HW118761   2.960   2.231   5.531 -1.8038 -0.1444 -0.4980
 2433SOL    HW218762   2.935   2.315   5.649  0.6514  0.0239 -0.1805
 2434SOL     OW18763   2.652   2.998   0.329 -0.2318 -0.4164  0.0398
 2434SOL    HW118764   2.647   3.005   0.234  2.5585  0.8664 -0.0292
 2434SOL    HW218765   2.698   2.915   0.338 -0.3585 -0.6843 -1.9992
 2435SOL     OW18766   4.085   4.250  15.259 -0.2175  0.3538  0.3547
 2435SOL    HW118767   4.175   4.268  15.287 -0.0989 -1.0439  0.9050
 2435SOL    HW218768   4.085   4.155  15.271 -1.2226  0.0502 -2.1312
 2436SOL     OW18769   3.184   0.589   5.063  0.1106  0.2799  0.5682
 2436SOL    HW118770   3.106   0.630   5.101 -0.2752 -0.7214  0.8723
 2436SOL    HW218771   3.190   0.508   5.115 -1.3230  0.2500  0.6841
 2437SOL     OW18772   0.485   4.482   7.941 -0.1594 -0.1807 -0.0428
 2437SOL    HW118773   0.447   4.420   8.004 -0.3538  0.0477  0.0660
 2437SOL    HW218774   0.575   4.452   7.929  0.1724 -0.0247  2.0522
 2438SOL     OW18775   1.736   2.422  13.832 -0.1232  0.5303 -0.0993
 2438SOL    HW118776   1.764   2.345  13.882 -3.0265  0.5860  1.5920
 2438SOL    HW218777   1.648   2.438  13.866 -0.2346 -1.9549  0.7773
 2439SOL     OW18778   2.280   4.058  13.759  0.5064  0.1202  0.1995
 2439SOL    HW118779   2.371   4.090  13.757  1.2330 -1.9707  0.3404
 2439SOL    HW218780   2.281   4.027  13.849  0.5677 -3.6094 -1.1148
 2440SOL     OW18781   4.604   4.673  11.343  0.0822 -0.8316 -0.0656
 2440SOL    HW118782   4.516   4.647  11.371  0.2476 -0.0271  1.2064
 2440SOL    HW218783   4.655   4.599  11.375 -0.8032 -1.9110 -1.1654
 2441SOL     OW18784   3.509   1.626   7.166 -0.1961  0.5477  0.3172
 2441SOL    HW118785   3.423   1.609   7.205 -0.9522 -1.3045 -2.2087
 2441SOL    HW218786   3.573   1.589   7.226  0.7238 -1.0435 -1.6652
 2442SOL     OW18787   4.010   2.189   4.507  0.1202 -0.0076  0.2428
 2442SOL    HW118788   4.001   2.237   4.425 -0.3910 -1.4537 -0.5339
 2442SOL    HW218789   3.982   2.100   4.486  1.2842  0.1385 -1.9109
 2443SOL     OW18790   1.676   4.640  11.925  0.5778  0.0195 -0.6087
 2443SOL    HW118791   1.714   4.580  11.990 -0.1416 -0.8721 -1.0063
 2443SOL    HW218792   1.735   4.714  11.937 -0.4564  0.8365 -0.6520
 2444SOL     OW18793   0.500   2.670   2.324 -0.1397 -0.2307 -0.0618
 2444SOL    HW118794   0.428   2.697   2.267  0.4034 -1.5509 -1.3781
 2444SOL    HW218795   0.561   2.612   2.277  0.6867 -1.8710  3.0802
 2445SOL     OW18796   1.239   0.833  15.056 -0.0453 -0.0867 -0.2153
 2445SOL    HW118797   1.148   0.818  15.033  0.1966 -1.1890 -0.4176
 2445SOL    HW218798   1.283   0.756  15.021 -2.2674 -0.4620 -2.1473
 2446SOL     OW18799   0.654   3.825  12.137  0.3200 -0.0920 -0.2642
 2446SOL    HW118800   0.619   3.842  12.050 -0.4140  2.4169  0.5040
 2446SOL    HW218801   0.648   3.730  12.142 -0.1012 -0.0730 -0.4596
 2447SOL     OW18802   1.409   2.293   6.912 -0.1348 -0.4182 -0.3355
 2447SOL    HW118803   1.465   2.219   6.936  1.5462  0.6114 -1.0122
 2447SOL    HW218804   1.343   2.256   6.854  1.6730  0.3771 -2.9546
 2448SOL     OW18805   1.998   3.383   3.920 -0.1402 -0.0673  0.3063
 2448SOL    HW118806   1.954   3.453   3.872  0.2526 -0.1623 -0.2045
 2448SOL    HW218807   1.976   3.421   4.005 -2.6504  2.0828 -1.2905
 2449SOL     OW18808   4.205   2.842   8.753 -0.5751 -0.2323  0.1304
 2449SOL    HW118809   4.214   2.789   8.832  0.1338  2.3405  1.7886
 2449SOL    HW218810   4.277   2.809   8.698 -0.6266  0.8991 -0.6183
 2450SOL     OW18811   1.414   0.291   7.676  0.6071 -0.3096 -0.0989
 2450SOL    HW118812   1.406   0.234   7.600  0.8225 -1.5266  0.7906
 2450SOL    HW218813   1.505   0.318   7.689  0.8394 -1.1557  0.0178
 2451SOL     OW18814   2.198   2.824  11.160  0.1387  0.1659 -0.0127
 2451SOL    HW118815   2.209   2.766  11.235 -0.9627  1.3489  1.0531
 2451SOL    HW218816   2.125   2.780  11.117  1.2876 -0.5684 -1.2528
 2452SOL     OW18817   2.977   0.074   7.034  0.1813 -0.0699 -0.5597
 2452SOL    HW118818   2.920   4.717   7.031  0.8238 -0.6516  2.6179
 2452SOL    HW218819   3.058   0.027   7.056 -0.6924 -2.0106 -1.5640
 2453SOL     OW18820   4.191   0.324  12.535  0.5362 -0.0406 -0.6654
 2453SOL    HW118821   4.168   0.347  12.625  1.5043 -0.9108 -0.1891
 2453SOL    HW218822   4.250   0.249  12.548 -0.4472 -0.3860  1.7587
 2454SOL     OW18823   3.150   3.588   8.587 -0.3338  0.0026  0.0956
 2454SOL    HW118824   3.241   3.577   8.613 -0.4612  0.7030  0.8566
 2454SOL    HW218825   3.105   3.519   8.636 -1.2274 -1.4824 -2.7815
 2455SOL     OW18826   1.378   4.594   1.317 -0.1030  0.4184  0.1805
 2455SOL    HW118827   1.317   4.667   1.316 -1.5104 -0.7663 -1.7420
 2455SOL    HW218828   1.381   4.570   1.224  2.4027  0.8334  0.1583
 2456SOL     OW18829   4.563   2.395  15.305 -0.2834  0.1527  0.4159
 2456SOL    HW118830   4.581   2.488  15.286  1.2197 -0.1357  0.3718
 2456SOL    HW218831   4.614   2.395  15.387  3.4077 -1.2372 -1.8522
 2457SOL     OW18832   4.256   2.737  15.807  0.2173 -0.2880 -0.0812
 2457SOL    HW118833   4.295   2.692  15.881  0.6423 -1.0956 -0.7913
 2457SOL    HW218834   4.321   2.733  15.736  2.3935 -3.0783  2.0814
 2458SOL     OW18835   4.367   3.810   1.547 -0.5783 -0.3236 -0.1175
 2458SOL    HW118836   4.380   3.868   1.622  1.6041 -0.7994 -0.1241
 2458SOL    HW218837   4.301   3.751   1.585  0.5210 -2.3269 -1.3219
 2459SOL     OW18838   0.188   2.361   2.016  0.0999  0.3459  0.0127
 2459SOL    HW118839   0.103   2.397   1.992  0.4494  0.8162 -0.5034
 2459SOL    HW218840   0.168   2.267   2.009  2.4964 -0.2698  1.2240
 2460SOL     OW18841   3.244   4.422   4.324  0.1599 -0.2840 -0.1570
 2460SOL    HW118842   3.299   4.382   4.257 -0.0135 -0.2332 -0.3318
 2460SOL    HW218843   3.180   4.354   4.343 -0.4627  0.3040 -0.1355
 2461SOL     OW18844   3.686   0.295  15.098 -0.2682  0.3287 -0.0036
 2461SOL    HW118845   3.674   0.201  15.089 -0.5526  0.6399 -2.8721
 2461SOL    HW218846   3.629   0.317  15.173 -0.6851  0.7646 -0.4502
 2462SOL     OW18847   2.116   3.355   3.076  0.1810  0.3224  0.3021
 2462SOL    HW118848   2.165   3.332   3.155  1.0556 -0.0664 -0.3542
 2462SOL    HW218849   2.025   3.364   3.104 -0.9058  0.0847 -3.2524
 2463SOL     OW18850   3.376   4.676   7.304 -0.0155 -0.3640  0.4870
 2463SOL    HW118851   3.400   0.026   7.366 -0.8242 -0.1850  0.5943
 2463SOL    HW218852   3.361   4.608   7.370  0.4073  0.0103  0.9714
 2464SOL     OW18853   1.706   0.412   4.534  0.0596 -0.7278  0.1696
 2464SOL    HW118854   1.637   0.449   4.590  0.6073  0.3697  0.1291
 2464SOL    HW218855   1.661   0.338   4.494  0.2704 -1.0329  0.5013
 2465SOL     OW18856   3.595   2.112  13.318 -0.4309 -0.1978 -0.2953
 2465SOL    HW118857   3.587   2.204  13.292  0.8033 -0.3329 -1.1292
 2465SOL    HW218858   3.552   2.083  13.237  1.2579  1.0206 -1.6219
 2466SOL     OW18859   2.742   3.596   6.749 -0.1842  0.7200  0.0542
 2466SOL    HW118860   2.737   3.660   6.678 -0.5616 -0.2740 -0.8156
 2466SOL    HW218861   2.675   3.538   6.715 -0.5083  1.7136 -1.0100
 2467SOL     OW18862   1.042   2.605  12.019  0.4681  0.7002 -0.0338
 2467SOL    HW118863   1.092   2.659  11.958  0.1917  2.3335  1.1752
 2467SOL    HW218864   1.069   2.651  12.099 -0.8053 -0.4182  1.0352
 2468SOL     OW18865   3.964   0.940   2.097 -0.8279 -0.4970  0.3980
 2468SOL    HW118866   3.894   0.875   2.102 -0.2786 -1.1867 -0.6018
 2468SOL    HW218867   3.951   0.996   2.021  1.1944  0.8375  1.0239
 2469SOL     OW18868   2.481   1.555  17.621 -0.2677 -0.1446  0.9457
 2469SOL    HW118869   2.552   1.619  17.630 -0.6914  0.5147 -0.3159
 2469SOL    HW218870   2.511   1.493  17.555 -0.1818  0.7927  0.0993
 2470SOL     OW18871   0.232   1.913  11.216 -0.4352  0.1812 -0.2274
 2470SOL    HW118872   0.249   1.965  11.137  2.1037 -0.2350  0.0268
 2470SOL    HW218873   0.138   1.928  11.222 -0.5343 -0.6078  0.1675
 2471SOL     OW18874   0.896   2.547   2.847 -0.0936  0.0183  0.1676
 2471SOL    HW118875   0.924   2.515   2.762  1.5179 -0.5823  0.9344
 2471SOL    HW218876   0.847   2.626   2.824  0.5810 -0.0710 -1.5809
 2472SOL     OW18877   1.611   1.700  11.587  0.4933 -0.0826  0.1516
 2472SOL    HW118878   1.545   1.740  11.643  0.2422  1.4434 -1.2229
 2472SOL    HW218879   1.558   1.670  11.513 -0.7050  0.5460  0.7596
 2473SOL     OW18880   1.305   2.389  11.474  0.3185  0.1177  0.2896
 2473SOL    HW118881   1.217   2.362  11.501 -0.1158 -1.3552 -2.6161
 2473SOL    HW218882   1.294   2.422  11.385  0.8016 -0.0411  0.1715
 2474SOL     OW18883   0.038   0.915   0.192  0.1526 -0.2059  0.0545
 2474SOL    HW118884   0.040   0.990   0.251  0.2375  0.4585 -0.7952
 2474SOL    HW218885   0.116   0.929   0.139 -1.7792 -0.2083 -2.7725
 2475SOL     OW18886   4.375   3.970   1.746  0.9181 -0.6105 -0.2916
 2475SOL    HW118887   4.310   3.930   1.803  0.7811 -1.0705 -0.7616
 2475SOL    HW218888   4.435   4.016   1.804 -1.1238  0.8317  0.6800
 2476SOL     OW18889   3.359   1.517   4.613  0.3916  0.4739  0.1411
 2476SOL    HW118890   3.303   1.522   4.536  0.9261  0.0712 -0.2775
 2476SOL    HW218891   3.421   1.589   4.598  0.5124  0.0776 -1.2092
 2477SOL     OW18892   3.278   0.048  13.981 -0.4134 -0.5015 -0.0642
 2477SOL    HW118893   3.325   0.123  14.017 -2.6209  0.0522  1.6942
 2477SOL    HW218894   3.356   4.718  13.957 -0.3728 -0.8626  0.7946
 2478SOL     OW18895   0.440   4.167   1.222  0.0905  0.6058 -0.1488
 2478SOL    HW118896   0.397   4.130   1.145  0.7754  0.3314 -0.4064
 2478SOL    HW218897   0.488   4.242   1.186 -1.6401  2.3491  1.2196
 2479SOL     OW18898   4.507   2.879   2.883  0.1619  0.0423 -0.2639
 2479SOL    HW118899   4.442   2.920   2.826 -1.4108 -1.9950  0.0620
 2479SOL    HW218900   4.535   2.816   2.816  2.4831  0.1852  0.5726
 2480SOL     OW18901   2.361   3.153  13.566  0.5035  0.1910 -0.3051
 2480SOL    HW118902   2.333   3.089  13.631  0.5948 -0.5461 -0.9908
 2480SOL    HW218903   2.436   3.112  13.523 -2.2620 -2.0278 -3.0627
 2481SOL     OW18904   3.544   1.972  12.111 -0.0763 -0.1800  0.5045
 2481SOL    HW118905   3.455   1.969  12.077  0.1203  1.8153 -0.2061
 2481SOL    HW218906   3.548   2.067  12.127 -0.2973  0.1859 -1.5678
 2482SOL     OW18907   0.651   4.001   0.320 -0.0417  0.1169 -0.0020
 2482SOL    HW118908   0.679   3.910   0.331  2.4529  1.1682  2.5735
 2482SOL    HW218909   0.734   4.048   0.313  0.3710 -0.5934  0.1255
 2483SOL     OW18910   3.916   0.495   4.346 -0.1325 -0.2565  0.4310
 2483SOL    HW118911   3.957   0.417   4.309  2.6054  2.4092 -2.2042
 2483SOL    HW218912   3.875   0.448   4.419 -1.5598 -0.2390 -0.3608
 2484SOL     OW18913   2.384   0.624   2.174 -0.1475  0.2171  0.2305
 2484SOL    HW118914   2.340   0.708   2.158  0.6053  0.0168 -2.7749
 2484SOL    HW218915   2.420   0.634   2.262 -1.8219 -2.6316  1.2436
 2485SOL     OW18916   4.136   4.106   1.967  0.5010  0.1650 -1.1701
 2485SOL    HW118917   4.110   4.192   1.935  1.9270  0.7866 -0.6571
 2485SOL    HW218918   4.231   4.114   1.968  0.6259 -1.7011  1.0896
 2486SOL     OW18919   1.308   4.612  15.810 -0.0907 -0.5320  0.8020
 2486SOL    HW118920   1.369   4.675  15.772 -1.1680  0.2233  0.3353
 2486SOL    HW218921   1.252   4.583  15.739  0.5511 -0.4605  0.2711
 2487SOL     OW18922   2.597   4.390   6.740 -0.5381  0.1885  0.3385
 2487SOL    HW118923   2.603   4.452   6.813  0.3613  1.7726 -1.0966
 2487SOL    HW218924   2.502   4.383   6.729 -0.2352 -4.3416  0.4472
 2488SOL     OW18925   1.262   1.055   5.824  0.0188  0.0796 -0.0222
 2488SOL    HW118926   1.269   1.026   5.733  0.6085  0.7132 -0.1728
 2488SOL    HW218927   1.278   1.149   5.819 -0.7299  0.2878  1.5535
 2489SOL     OW18928   1.786   3.137  12.260 -0.4329 -0.7980 -0.0408
 2489SOL    HW118929   1.851   3.095  12.315 -1.1444  0.8182  2.0362
 2489SOL    HW218930   1.707   3.100  12.299 -1.3889  1.6050  0.3220
 2490SOL     OW18931   0.063   1.744   1.549 -0.2801  0.2296  0.0937
 2490SOL    HW118932   0.057   1.815   1.613  2.7427  1.3920 -0.8772
 2490SOL    HW218933   4.700   1.745   1.501 -0.6277  0.4421  0.6942
 2491SOL     OW18934   1.637   0.491   3.549  0.1994  0.1920 -0.2131
 2491SOL    HW118935   1.637   0.526   3.460  0.2872 -1.5398 -0.8902
 2491SOL    HW218936   1.561   0.537   3.586  0.7325  0.4645  0.5632
 2492SOL     OW18937   0.020   2.203   4.833  0.4595  0.1054  0.0890
 2492SOL    HW118938   0.080   2.225   4.904  1.9029  1.5255 -1.5819
 2492SOL    HW218939   4.702   2.126   4.876  1.3609  0.5788  1.7468
 2493SOL     OW18940   1.687   1.477  16.192 -0.6582 -0.3812  0.0966
 2493SOL    HW118941   1.745   1.469  16.117  0.4163 -3.6648  1.2703
 2493SOL    HW218942   1.741   1.447  16.265  0.7463  2.6728  0.2775
 2494SOL     OW18943   3.484   3.944   2.647 -0.1303  0.4708  0.2053
 2494SOL    HW118944   3.577   3.962   2.664  0.6328 -2.0598 -1.2338
 2494SOL    HW218945   3.463   4.018   2.590  0.1064  0.2961 -0.1158
 2495SOL     OW18946   2.341   0.559   9.591  0.5206 -0.2263 -0.5604
 2495SOL    HW118947   2.380   0.620   9.653 -2.3572 -0.0707  1.0805
 2495SOL    HW218948   2.359   0.601   9.507  0.9293  0.8270  0.0537
 2496SOL     OW18949   3.013   1.168  14.994 -0.2087 -0.0666 -0.4012
 2496SOL    HW118950   3.038   1.204  15.079 -1.6167  1.0349 -0.4567
 2496SOL    HW218951   3.048   1.078  14.993 -0.8131 -0.2841 -3.0972
 2497SOL     OW18952   1.718   0.982   1.740 -0.5190  0.3421 -0.4522
 2497SOL    HW118953   1.635   0.938   1.720  0.4831 -2.2635  0.9912
 2497SOL    HW218954   1.729   0.930   1.820 -0.0870  2.4493  0.8569
 2498SOL     OW18955   2.999   3.476   6.911 -0.4336 -0.1078  0.0824
 2498SOL    HW118956   2.923   3.476   6.852 -0.0400 -0.9980 -0.4220
 2498SOL    HW218957   3.048   3.403   6.873  0.4083  0.6358 -0.2628
 2499SOL     OW18958   3.002   2.543   4.623 -0.3376  0.8053  0.1340
 2499SOL    HW118959   2.907   2.534   4.615 -0.1188 -2.0664  0.8686
 2499SOL    HW218960   3.015   2.626   4.670 -0.2337 -0.8968  3.1091
 2500SOL     OW18961   2.147   2.936   1.502  0.1143  0.4693 -0.2833
 2500SOL    HW118962   2.202   2.866   1.538 -1.5676  0.1585  1.6328
 2500SOL    HW218963   2.162   3.012   1.558  2.8260  0.4309 -0.9183
 2501SOL     OW18964   4.329   0.215   6.667 -0.1208  0.8708  0.6038
 2501SOL    HW118965   4.366   0.152   6.729  2.3297 -1.7801 -3.4702
 2501SOL    HW218966   4.375   0.191   6.586 -0.2851 -1.9712  1.3550
 2502SOL     OW18967   1.998   1.321   1.131 -0.1018 -0.6987  0.0048
 2502SOL    HW118968   2.017   1.408   1.095  1.1180  0.6191  3.8526
 2502SOL    HW218969   1.905   1.338   1.146  0.3950  0.3924  1.9039
 2503SOL     OW18970   2.695   1.421   9.995 -0.1381  0.1397  0.6482
 2503SOL    HW118971   2.676   1.512  10.015  2.2149  1.2670 -2.3015
 2503SOL    HW218972   2.695   1.369  10.076  1.1509  0.2847  0.7395
 2504SOL     OW18973   2.031   1.576  14.878  0.3194 -0.5709  0.5689
 2504SOL    HW118974   1.974   1.549  14.951  0.9935 -1.3105  0.8229
 2504SOL    HW218975   1.970   1.639  14.840 -2.1600 -2.3617  1.6096
 2505SOL     OW18976   4.363   4.426   4.030  0.3354  0.0326 -0.1495
 2505SOL    HW118977   4.310   4.430   4.110 -2.1079  0.6205 -1.8240
 2505SOL    HW218978   4.302   4.460   3.965  2.6029  0.8335 -1.8660
 2506SOL     OW18979   3.562   4.667   5.696 -0.3032 -0.6354  0.1792
 2506SOL    HW118980   3.579   4.574   5.682  1.9777 -0.1096 -0.5154
 2506SOL    HW218981   3.543   4.674   5.789 -0.6992 -0.4156  0.0842
 2507SOL     OW18982   0.649   3.322   9.736 -0.3242 -0.0703 -0.5316
 2507SOL    HW118983   0.709   3.247   9.736  0.4394  0.5416 -0.8238
 2507SOL    HW218984   0.597   3.309   9.816 -0.4422  1.6232 -0.3195
 2508SOL     OW18985   3.606   1.630  11.303  0.6100 -0.3411  0.0827
 2508SOL    HW118986   3.591   1.540  11.274 -1.7488 -0.1551  0.7050
 2508SOL    HW218987   3.589   1.670  11.217  3.3999  1.3155  0.3098
 2509SOL     OW18988   0.925   0.921  14.617 -0.6385 -0.2777  0.4971
 2509SOL    HW118989   0.892   0.854  14.677 -0.7870  0.0958  0.8338
 2509SOL    HW218990   0.854   0.985  14.621 -1.7650 -1.6698  2.8886
 2510SOL     OW18991   1.689   0.722   6.004  0.3467 -0.1718 -0.3596
 2510SOL    HW118992   1.739   0.797   6.035  0.8200  0.6603 -3.1240
 2510SOL    HW218993   1.751   0.703   5.934 -0.1778 -3.5572  0.1032
 2511SOL     OW18994   2.131   0.788   8.534 -0.0211 -0.0958 -0.5417
 2511SOL    HW118995   2.148   0.759   8.445  2.7197 -1.0882  0.2955
 2511SOL    HW218996   2.036   0.776   8.529  0.0694 -0.5132 -1.2052
 2512SOL     OW18997   2.544   4.459  11.366  0.3246 -0.2887 -0.1833
 2512SOL    HW118998   2.596   4.385  11.334 -0.3753 -0.2915 -1.3096
 2512SOL    HW218999   2.458   4.438  11.329  0.8174 -2.3230 -0.1795
 2513SOL     OW19000   4.601   0.759   3.081  0.0655 -0.0449  0.6258
 2513SOL    HW119001   4.681   0.810   3.067 -0.4663  0.2476 -1.3190
 2513SOL    HW219002   4.549   0.829   3.120 -0.8626 -0.9831  1.0780
 2514SOL     OW19003   2.746   3.440   2.843 -0.2433 -0.0367  0.0395
 2514SOL    HW119004   2.740   3.371   2.910  1.4825  0.9827  1.2476
 2514SOL    HW219005   2.838   3.465   2.853 -0.6584  1.6228 -0.4132
 2515SOL     OW19006   0.041   0.780   7.267  0.1996 -0.0293  0.2116
 2515SOL    HW119007   0.070   0.713   7.329  1.4591 -0.5298 -0.9050
 2515SOL    HW219008   0.072   0.860   7.310  0.6475 -0.5905  0.9421
 2516SOL     OW19009   2.033   1.582  10.595 -0.0128  0.1277  0.0238
 2516SOL    HW119010   2.103   1.522  10.570  1.7251  1.0783  2.5540
 2516SOL    HW219011   2.058   1.610  10.683  2.6069 -1.4272 -0.2377
 2517SOL     OW19012   1.805   2.102   4.911  0.4635 -0.9970  0.3071
 2517SOL    HW119013   1.825   2.177   4.967 -0.8391 -1.0253  0.8054
 2517SOL    HW219014   1.893   2.064   4.908  1.3661  1.0054  1.3994
 2518SOL     OW19015   1.369   2.604  16.914  0.5430 -0.4087  0.1843
 2518SOL    HW119016   1.276   2.626  16.901  0.2262  0.2450  3.5740
 2518SOL    HW219017   1.402   2.690  16.888 -3.0490  0.2078 -2.5075
 2519SOL     OW19018   3.658   0.666   1.626  0.4509 -0.2130  0.6702
 2519SOL    HW119019   3.659   0.573   1.601 -0.4587  0.2023 -0.8943
 2519SOL    HW219020   3.651   0.705   1.539  1.3102 -0.4788  0.4789
 2520SOL     OW19021   1.610   1.915   1.975 -0.3289  0.1086 -0.4766
 2520SOL    HW119022   1.695   1.885   1.942  0.9480  4.5579 -1.1718
 2520SOL    HW219023   1.567   1.933   1.891  0.2506 -3.4376 -1.5504
 2521SOL     OW19024   0.646   0.337   5.714  0.0999 -0.3977 -0.5059
 2521SOL    HW119025   0.723   0.381   5.750  0.5504 -0.7381 -1.0611
 2521SOL    HW219026   0.578   0.400   5.737 -0.6881 -1.1121 -0.8853
 2522SOL     OW19027   2.401   2.120   2.933  0.2671  0.1774  0.3213
 2522SOL    HW119028   2.446   2.115   2.849  1.1490  0.6743  0.7528
 2522SOL    HW219029   2.430   2.038   2.974  1.3040  0.9567  1.1593
 2523SOL     OW19030   0.371   4.611   1.519 -0.2504  0.0800 -0.1237
 2523SOL    HW119031   0.275   4.610   1.516 -0.1758  0.7950 -2.6879
 2523SOL    HW219032   0.393   4.600   1.611  1.2684 -1.7513 -0.6944
 2524SOL     OW19033   0.688   3.745   2.672  0.4723 -0.4599  0.1234
 2524SOL    HW119034   0.620   3.719   2.610 -0.4052 -1.7251  1.6137
 2524SOL    HW219035   0.677   3.691   2.751 -0.4987 -0.1663  0.1834
 2525SOL     OW19036   2.602   0.294   1.641  0.4971  0.4196 -0.0863
 2525SOL    HW119037   2.573   0.384   1.629 -0.8964  0.2373  1.9904
 2525SOL    HW219038   2.628   0.265   1.553 -0.6581 -2.5390  0.5374
 2526SOL     OW19039   0.151   2.257   3.341  0.0263  0.2865 -0.3449
 2526SOL    HW119040   0.239   2.292   3.356  0.6741 -1.4953 -0.0136
 2526SOL    HW219041   0.100   2.335   3.318 -1.7858  0.2045  3.3586
 2527SOL     OW19042   1.927   1.604   2.897  0.3197  0.5202  0.3286
 2527SOL    HW119043   1.912   1.698   2.898 -1.8150  0.2000 -0.7776
 2527SOL    HW219044   1.863   1.568   2.960  0.9760  2.0641  1.8750
 2528SOL     OW19045   1.634   4.181   3.333  0.0381  0.2357 -0.6634
 2528SOL    HW119046   1.584   4.262   3.328  2.1330  1.6095  0.2369
 2528SOL    HW219047   1.567   4.137   3.385 -1.9002 -0.3063 -3.6189
 2529SOL     OW19048   1.216   3.769   4.688 -0.0795 -0.3921 -0.2916
 2529SOL    HW119049   1.127   3.790   4.660  0.3935 -0.6225 -1.9700
 2529SOL    HW219050   1.215   3.716   4.768 -0.5778  1.3552  0.8406
 2530SOL     OW19051   3.754   1.626   5.989  0.1464  0.8056  0.2821
 2530SOL    HW119052   3.742   1.531   5.981  1.8174  0.4868  1.6529
 2530SOL    HW219053   3.846   1.631   6.013  0.7656 -0.8792 -1.7207
 2531SOL     OW19054   1.026   3.024   5.476  0.0630 -0.0755 -0.0933
 2531SOL    HW119055   1.021   3.110   5.518  1.1845  0.4198 -0.9962
 2531SOL    HW219056   1.081   2.978   5.539  0.2310 -0.9233 -0.8563
 2532SOL     OW19057   3.984   0.035   8.306  0.1618  0.1042  0.0491
 2532SOL    HW119058   3.966   4.705   8.386  0.0930 -0.1210 -0.1080
 2532SOL    HW219059   4.071   0.076   8.314 -0.6247  1.3100  2.4725
 2533SOL     OW19060   3.931   2.401   6.304 -0.1955  0.1834 -0.0533
 2533SOL    HW119061   4.014   2.447   6.304  0.2639 -0.6510  1.8102
 2533SOL    HW219062   3.898   2.439   6.223  2.3896  1.5423 -0.4695
 2534SOL     OW19063   1.818   4.308   8.966  0.2894 -0.2070  0.1715
 2534SOL    HW119064   1.797   4.260   9.046  0.0376 -0.4918 -0.0640
 2534SOL    HW219065   1.742   4.367   8.957 -0.1390 -0.1361  4.5815
 2535SOL     OW19066   2.463   2.201   5.311 -0.0343 -0.3032  0.3246
 2535SOL    HW119067   2.393   2.217   5.248 -0.9728 -1.8218  0.9869
 2535SOL    HW219068   2.495   2.289   5.330 -0.4681 -0.3591  1.3023
 2536SOL     OW19069   4.262   0.062   9.342 -0.3254 -0.2567  0.1342
 2536SOL    HW119070   4.209   0.004   9.287  0.8289 -0.2655 -0.9549
 2536SOL    HW219071   4.201   0.135   9.341  1.9536  1.6382 -1.6642
 2537SOL     OW19072   1.373   3.439   5.911  0.2923 -0.2850 -0.4996
 2537SOL    HW119073   1.313   3.373   5.945 -1.0809  1.8076  1.1584
 2537SOL    HW219074   1.388   3.485   5.993 -2.5345 -1.3303  0.5983
 2538SOL     OW19075   3.364   4.409  17.628  0.1203 -0.4731 -0.4944
 2538SOL    HW119076   3.363   4.497  17.666  0.6020 -0.8941  0.5123
 2538SOL    HW219077   3.283   4.379  17.668  0.1551 -1.7427 -1.3822
 2539SOL     OW19078   0.706   2.865   7.174 -0.0438  0.4674 -0.3574
 2539SOL    HW119079   0.762   2.900   7.243  0.2219  0.1847 -0.4336
 2539SOL    HW219080   0.691   2.777   7.208  1.5171  0.0114 -0.8755
 2540SOL     OW19081   1.134   2.804   9.131  0.2721 -0.4204 -0.1222
 2540SOL    HW119082   1.158   2.886   9.174 -1.8527  0.2100 -0.1481
 2540SOL    HW219083   1.206   2.777   9.074 -0.0136  0.2805 -0.8192
 2541SOL     OW19084   4.037   3.348  17.671 -0.4794 -0.0075  0.3665
 2541SOL    HW119085   4.032   3.330   0.084  1.6151 -1.4109  0.1969
 2541SOL    HW219086   3.959   3.303  17.637 -1.5537  0.9450  1.5496
 2542SOL     OW19087   0.298   2.082   1.751 -0.2073  0.1511  0.1564
 2542SOL    HW119088   0.363   2.092   1.681  1.9492 -2.4308  1.8137
 2542SOL    HW219089   0.361   2.059   1.819  0.4094 -0.5624 -0.6617
 2543SOL     OW19090   2.022   0.411   2.735  0.0379  1.2140  0.3197
 2543SOL    HW119091   2.003   0.320   2.712  0.0637  0.9260  1.4313
 2543SOL    HW219092   2.084   0.401   2.808  1.4735 -1.0680 -1.1817
 2544SOL     OW19093   2.132   4.081   6.235  0.6987 -0.9266  0.0776
 2544SOL    HW119094   2.221   4.048   6.233  1.4259  1.1698 -2.0648
 2544SOL    HW219095   2.124   4.080   6.139 -2.5357  0.1616  0.3320
 2545SOL     OW19096   0.992   2.595   4.267 -0.0143  0.2859 -0.3213
 2545SOL    HW119097   1.006   2.541   4.345 -1.0170  1.0886  0.4130
 2545SOL    HW219098   1.073   2.580   4.218  0.2415  0.6952 -0.0336
 2546SOL     OW19099   2.816   1.355   5.344  0.2685  0.7647 -0.2322
 2546SOL    HW119100   2.768   1.346   5.261 -3.8844 -0.3213  2.2867
 2546SOL    HW219101   2.836   1.448   5.349 -1.4819  1.2253 -1.6459
 2547SOL     OW19102   2.116   3.812   3.251  0.6652 -0.3204 -0.4107
 2547SOL    HW119103   2.143   3.806   3.159  0.8745 -0.5103 -0.3378
 2547SOL    HW219104   2.176   3.752   3.296  0.5270  1.6976  2.4517
 2548SOL     OW19105   3.366   3.729   3.026 -0.6057  0.3318 -0.6128
 2548SOL    HW119106   3.422   3.742   3.103  2.3784 -2.4572 -2.3041
 2548SOL    HW219107   3.427   3.740   2.953 -1.1260  0.3474 -1.0388
 2549SOL     OW19108   1.294   4.505   5.718 -0.0143 -0.0114  0.3431
 2549SOL    HW119109   1.241   4.426   5.715  1.5749 -1.0275 -0.7757
 2549SOL    HW219110   1.384   4.477   5.703 -0.6774 -1.0959 -1.6808
 2550SOL     OW19111   1.051   0.495   7.907 -0.1374  0.2344 -0.0881
 2550SOL    HW119112   1.118   0.427   7.909 -0.2661  0.0727 -1.4950
 2550SOL    HW219113   0.978   0.441   7.878  1.2019 -0.9634 -1.2361
 2551SOL     OW19114   1.375   3.175  12.722 -0.2958 -0.0873 -0.0348
 2551SOL    HW119115   1.324   3.255  12.706 -0.6366 -0.7817 -2.3892
 2551SOL    HW219116   1.433   3.192  12.796 -0.4738  0.9602 -0.1308
 2552SOL     OW19117   3.334   1.783  12.553 -0.3482 -0.2714  0.5544
 2552SOL    HW119118   3.405   1.797  12.491  0.2261 -0.4866  1.1603
 2552SOL    HW219119   3.311   1.693  12.529  1.6715 -0.3173 -1.1605
 2553SOL     OW19120   3.300   2.623   1.741 -0.5026  0.5552  0.1356
 2553SOL    HW119121   3.363   2.634   1.670  1.6941 -1.9082  1.6753
 2553SOL    HW219122   3.298   2.527   1.740 -0.6936  0.5809 -1.1167
 2554SOL     OW19123   4.332   0.558   5.781  0.4272 -0.6200 -0.0908
 2554SOL    HW119124   4.298   0.630   5.727 -0.5545  0.4436  1.9078
 2554SOL    HW219125   4.407   0.595   5.827 -1.0991  0.9258  1.2032
 2555SOL     OW19126   1.120   0.765  14.786  0.5658 -1.0858 -0.1865
 2555SOL    HW119127   1.054   0.771  14.855 -0.2277 -0.3040 -0.9882
 2555SOL    HW219128   1.079   0.824  14.722 -0.0670 -2.4793 -1.0806
 2556SOL     OW19129   2.100   2.616  11.355  0.4249 -0.2472  0.2087
 2556SOL    HW119130   2.081   2.625  11.448 -0.6452 -1.9581  0.1506
 2556SOL    HW219131   2.012   2.605  11.317  1.0065  1.1296 -1.5457
 2557SOL     OW19132   0.757   4.218   4.924  0.1382  0.5642  0.7899
 2557SOL    HW119133   0.829   4.246   4.980 -0.7884  2.1915  1.1644
 2557SOL    HW219134   0.812   4.165   4.866 -0.9994 -0.6117  0.7833
 2558SOL     OW19135   1.873   0.443   6.691  0.2235  0.5659 -0.0130
 2558SOL    HW119136   1.859   0.537   6.676 -0.1661  0.6026  0.5951
 2558SOL    HW219137   1.941   0.451   6.759 -0.3122 -1.2973  0.7343
 2559SOL     OW19138   0.983   1.340   3.179 -0.9393 -0.8912  0.8456
 2559SOL    HW119139   0.897   1.324   3.141 -1.0332 -0.5634  0.9275
 2559SOL    HW219140   1.023   1.252   3.179  0.0418 -0.4354 -0.2540
 2560SOL     OW19141   3.671   4.018   8.978  0.8435  0.1630  0.0272
 2560SOL    HW119142   3.610   4.052   8.912  0.5082 -0.1927  0.1522
 2560SOL    HW219143   3.689   4.098   9.027 -2.0129  1.3936 -0.9243
 2561SOL     OW19144   1.871   4.465  10.625 -0.3654  0.0562  0.2802
 2561SOL    HW119145   1.947   4.464  10.684 -0.2572  3.2268  0.1852
 2561SOL    HW219146   1.864   4.371  10.610  1.9915 -0.3364  1.6469
 2562SOL     OW19147   2.949   0.971   8.811  0.3565 -0.2647  0.6784
 2562SOL    HW119148   3.023   0.929   8.767  0.1469 -0.4444  0.4959
 2562SOL    HW219149   2.998   1.041   8.853 -3.0951  1.8229  1.2112
 2563SOL     OW19150   4.037   2.115  14.811 -0.0030  0.5946  0.4325
 2563SOL    HW119151   3.984   2.062  14.870 -0.3591  0.2320 -0.2098
 2563SOL    HW219152   4.002   2.087  14.726 -0.1681 -2.3846  1.4759
 2564SOL     OW19153   3.485   3.874   4.408  0.6449 -0.7835  0.1782
 2564SOL    HW119154   3.531   3.890   4.326 -0.5512 -1.6028 -0.6492
 2564SOL    HW219155   3.413   3.816   4.384  0.2099 -0.8884  1.7260
 2565SOL     OW19156   2.357   1.134  12.278 -0.1939 -0.2626 -0.0289
 2565SOL    HW119157   2.366   1.200  12.209  0.7654  1.2132  1.5001
 2565SOL    HW219158   2.338   1.053  12.232 -0.1788  1.2034 -2.5845
 2566SOL     OW19159   0.361   2.756   9.066 -0.1117  0.1169 -0.3349
 2566SOL    HW119160   0.395   2.673   9.100 -2.5045 -1.4112 -1.6466
 2566SOL    HW219161   0.404   2.825   9.117  0.0712 -0.8858  0.8602
 2567SOL     OW19162   2.122   1.999   5.829 -0.0915  0.1724  0.2990
 2567SOL    HW119163   2.180   2.016   5.904  1.5555  1.3206 -1.2303
 2567SOL    HW219164   2.089   1.919   5.869 -0.2275 -0.4329 -1.0446
 2568SOL     OW19165   4.291   2.377  11.868  0.5877  0.5678  0.5730
 2568SOL    HW119166   4.260   2.467  11.873 -0.5768  0.2654 -1.2195
 2568SOL    HW219167   4.213   2.323  11.856  0.0061  1.5635 -0.0324
 2569SOL     OW19168   3.529   3.085   2.983  0.3020 -0.0509 -0.6880
 2569SOL    HW119169   3.575   3.014   2.939  1.3871  0.6996 -0.7826
 2569SOL    HW219170   3.505   3.143   2.911 -2.2879  0.8462  0.8987
 2570SOL     OW19171   4.069   1.795  17.053  0.1723  0.5311 -0.2809
 2570SOL    HW119172   4.128   1.827  17.121  0.7800 -2.0364  0.3768
 2570SOL    HW219173   4.096   1.704  17.042 -0.3904  0.1588  1.5350
 2571SOL     OW19174   1.618   4.299   5.750  0.0220 -0.1226  0.1970
 2571SOL    HW119175   1.618   4.365   5.820 -0.9661  0.8509 -0.7175
 2571SOL    HW219176   1.623   4.219   5.802 -1.1757  0.8651  1.8706
 2572SOL     OW19177   2.725   0.212  12.116  0.3879  0.1067  0.0021
 2572SOL    HW119178   2.777   0.134  12.136  1.7545  0.5171 -1.8873
 2572SOL    HW219179   2.771   0.226  12.033  0.1986 -1.4466 -0.3737
 2573SOL     OW19180   2.643   0.905   5.214 -0.5781  0.4231 -0.3316
 2573SOL    HW119181   2.709   0.948   5.269  0.2339 -1.8752  0.4662
 2573SOL    HW219182   2.660   0.813   5.233  0.1907  0.6212 -0.0741
 2574SOL     OW19183   2.538   1.531   1.518 -0.2166  0.3860 -0.6814
 2574SOL    HW119184   2.532   1.588   1.594  1.7765  0.2355 -0.4110
 2574SOL    HW219185   2.491   1.584   1.454 -0.8291 -0.1234 -0.6585
 2575SOL     OW19186   2.453   2.363   1.201 -0.4053 -0.9868  0.6516
 2575SOL    HW119187   2.470   2.397   1.114  1.5800  0.3518  1.5481
 2575SOL    HW219188   2.360   2.344   1.188 -0.7671 -0.8117  2.9753
 2576SOL     OW19189   4.105   2.974   3.123  0.1911 -0.0088 -0.0770
 2576SOL    HW119190   4.194   2.945   3.103  0.2083  0.3201 -0.4594
 2576SOL    HW219191   4.128   3.057   3.165  2.6545  0.4957 -2.4705
 2577SOL     OW19192   3.642   1.863  11.895 -0.3818  0.7514  0.0203
 2577SOL    HW119193   3.635   1.880  11.989  0.7504 -0.2079  0.2759
 2577SOL    HW219194   3.552   1.875  11.866 -0.3294  0.6931 -0.1671
 2578SOL     OW19195   1.022   1.216   2.111 -0.2451  0.2677 -0.2970
 2578SOL    HW119196   1.068   1.239   2.192 -1.0626 -1.4044  0.6561
 2578SOL    HW219197   1.093   1.236   2.050 -0.5927 -0.4094 -0.9204
 2579SOL     OW19198   4.206   0.929   3.121  0.1050  0.6845 -0.0241
 2579SOL    HW119199   4.158   0.900   3.199 -1.7048  0.5203 -1.1837
 2579SOL    HW219200   4.214   0.844   3.078 -0.3475  0.1666  0.9116
 2580SOL     OW19201   4.276   3.323   5.718  0.4280 -0.1254 -0.5292
 2580SOL    HW119202   4.326   3.382   5.774 -2.1886  0.1354  1.4892
 2580SOL    HW219203   4.336   3.248   5.718  0.5520 -0.0218  0.6333
 2581SOL     OW19204   2.336   0.267   6.333 -0.1617  0.1997 -0.4727
 2581SOL    HW119205   2.309   0.349   6.293  1.6509  3.0432  4.1611
 2581SOL    HW219206   2.253   0.219   6.341  1.3642 -2.3640 -0.0439
 2582SOL     OW19207   4.238   0.643   8.687  0.2385  0.1709 -0.2299
 2582SOL    HW119208   4.329   0.622   8.667  0.5496  0.7854  0.5413
 2582SOL    HW219209   4.184   0.567   8.666  2.2220 -1.3085 -0.0107
 2583SOL     OW19210   3.842   0.007   4.121 -0.7317  0.3269  0.1517
 2583SOL    HW119211   3.821   4.691   4.034  0.6746 -0.3589  0.0912
 2583SOL    HW219212   3.761   0.053   4.146  0.3374  1.9617  0.6281
 2584SOL     OW19213   4.010   2.111   2.236  0.0191  0.0777 -0.0770
 2584SOL    HW119214   3.935   2.095   2.293  0.3795  1.3611  0.7643
 2584SOL    HW219215   3.985   2.195   2.200  1.4945  0.1886 -0.8633
 2585SOL     OW19216   2.526   0.380  12.376 -0.1749 -0.2302 -0.2029
 2585SOL    HW119217   2.592   0.379  12.445  0.6214  0.0221 -0.9660
 2585SOL    HW219218   2.441   0.371  12.420  0.3717 -2.8524  0.3490
 2586SOL     OW19219   0.653   3.838   2.379 -0.2572  0.8553  0.1393
 2586SOL    HW119220   0.616   3.924   2.396 -0.0560  0.4505  2.5854
 2586SOL    HW219221   0.604   3.825   2.298  1.0741 -0.8059 -0.3983
 2587SOL     OW19222   0.298   4.598   3.360 -0.1436 -0.4025  0.2207
 2587SOL    HW119223   0.347   4.576   3.281 -1.9229 -2.3098 -0.3407
 2587SOL    HW219224   0.247   4.519   3.376  0.8229 -1.1047 -0.2113
 2588SOL     OW19225   0.398   1.314  17.161  0.2213  0.9852 -0.1676
 2588SOL    HW119226   0.483   1.273  17.173 -0.3826  0.5996  2.7065
 2588SOL    HW219227   0.338   1.241  17.179  0.2047  0.4746 -2.3175
 2589SOL     OW19228   1.143   0.539   6.936 -0.1547  0.0771 -0.3535
 2589SOL    HW119229   1.074   0.575   6.991  1.0868  0.0390  1.2201
 2589SOL    HW219230   1.143   0.615   6.877  2.6094 -0.0943 -0.5709
 2590SOL     OW19231   0.458   1.821   3.325  0.1086  0.1031  0.3187
 2590SOL    HW119232   0.479   1.788   3.412  2.1086 -0.0184 -0.2175
 2590SOL    HW219233   0.515   1.771   3.266 -0.8871 -2.3673  1.4698
 2591SOL     OW19234   2.742   0.032  10.956  0.7258 -0.1147 -0.1734
 2591SOL    HW119235   2.707   0.108  10.908  0.7615 -1.0484 -1.6768
 2591SOL    HW219236   2.710   0.051  11.044 -0.6061  1.7952 -1.0597
 2592SOL     OW19237   1.739   1.003   2.348  0.2803 -0.2358  0.3278
 2592SOL    HW119238   1.702   1.078   2.301 -0.7655  0.6395  2.5177
 2592SOL    HW219239   1.667   0.993   2.411 -1.6584  1.0474 -1.6549
 2593SOL     OW19240   3.583   3.754   3.171  0.2034 -0.2244 -0.0081
 2593SOL    HW119241   3.597   3.833   3.222  2.0286 -0.3600 -0.2902
 2593SOL    HW219242   3.671   3.723   3.150 -0.4576 -1.5097 -0.9574
 2594SOL     OW19243   0.678   0.473   3.939 -0.0830  0.0546 -0.0564
 2594SOL    HW119244   0.704   0.411   3.871  0.1525 -3.1411  2.9498
 2594SOL    HW219245   0.761   0.497   3.981 -1.2112  1.6712  1.2743
 2595SOL     OW19246   1.728   3.379   2.085  0.8382 -0.0669  0.5721
 2595SOL    HW119247   1.702   3.314   2.150 -1.1673  0.2067  0.0436
 2595SOL    HW219248   1.711   3.463   2.129 -2.1688  0.4066 -1.5110
 2596SOL     OW19249   4.383   0.362   1.224 -0.1111  0.6219  0.2817
 2596SOL    HW119250   4.313   0.401   1.173  0.5245  1.3065 -0.0681
 2596SOL    HW219251   4.439   0.438   1.211  0.9478  0.1272  1.9769
 2597SOL     OW19252   3.966   0.870   4.138  0.0808  0.4432 -0.2531
 2597SOL    HW119253   3.900   0.832   4.197 -0.4540  0.1104 -1.0589
 2597SOL    HW219254   3.961   0.964   4.155 -0.3384  0.7504 -2.0814
 2598SOL     OW19255   4.581   0.507  12.554 -0.4427  0.3533 -0.2317
 2598SOL    HW119256   4.503   0.536  12.507 -0.5720 -1.9661 -1.4608
 2598SOL    HW219257   4.548   0.426  12.592  2.0231  0.3319  1.8753
 2599SOL     OW19258   2.440   3.819  15.389  0.0269  0.3748  0.0227
 2599SOL    HW119259   2.501   3.753  15.353  0.1679  0.1182  0.7422
 2599SOL    HW219260   2.363   3.764  15.397 -0.8711  1.5551 -0.5044
 2600SOL     OW19261   2.244   2.058   1.351 -0.2541  0.1179 -0.2460
 2600SOL    HW119262   2.206   2.129   1.300 -0.2699  0.2769 -0.0134
 2600SOL    HW219263   2.169   1.999   1.348  0.5360 -0.8827 -0.1507
 2601SOL     OW19264   2.523   1.932  17.244 -0.2202  0.3055  0.2422
 2601SOL    HW119265   2.492   1.892  17.163  0.4758  1.8960 -0.8186
 2601SOL    HW219266   2.557   1.853  17.286 -1.0674 -0.0902  0.1990
 2602SOL     OW19267   3.342   2.389   3.478 -0.0413 -0.2951  0.2529
 2602SOL    HW119268   3.334   2.385   3.573  2.5988  4.6540  0.6286
 2602SOL    HW219269   3.313   2.475   3.448 -0.2273 -1.5213 -3.1602
 2603SOL     OW19270   1.587   1.116   6.076  0.1228 -0.4165 -0.3496
 2603SOL    HW119271   1.632   1.200   6.086 -2.0273  0.6918 -0.0160
 2603SOL    HW219272   1.663   1.060   6.057  0.0408 -0.5971 -0.1569
 2604SOL     OW19273   1.618   0.541   7.541  0.7405 -0.2509 -0.2328
 2604SOL    HW119274   1.545   0.504   7.492  1.2116 -0.7085 -0.5859
 2604SOL    HW219275   1.686   0.480   7.515  0.8444 -0.2256 -0.0250
 2605SOL     OW19276   3.371   1.329   7.433 -0.0294 -0.1178  0.2093
 2605SOL    HW119277   3.319   1.292   7.504 -0.7773 -0.5978 -0.5851
 2605SOL    HW219278   3.410   1.249   7.397  0.3712  0.7367 -1.2498
 2606SOL     OW19279   3.235   4.289   2.066  0.0664 -0.4897 -0.2296
 2606SOL    HW119280   3.153   4.272   2.020 -1.8382  0.3298  2.8252
 2606SOL    HW219281   3.249   4.200   2.098  0.9750 -1.0164 -2.0800
 2607SOL     OW19282   1.049   0.177  14.665  0.0026 -0.0858  0.1715
 2607SOL    HW119283   1.090   0.248  14.616 -1.6835  0.3571 -0.6063
 2607SOL    HW219284   0.989   0.164  14.592  0.1927 -2.2661  0.3911
 2608SOL     OW19285   0.198   4.400   5.639  0.0468  0.7304 -0.2960
 2608SOL    HW119286   0.205   4.359   5.553  1.1771  0.3024  0.0094
 2608SOL    HW219287   0.129   4.465   5.623 -0.6472  0.1244  0.2164
 2609SOL     OW19288   4.492   0.056   8.557  0.2644  0.1784  0.6479
 2609SOL    HW119289   4.549   0.005   8.614  0.1840 -0.9727 -0.3013
 2609SOL    HW219290   4.481   4.717   8.482 -0.4365 -0.1949  1.0410
 2610SOL     OW19291   1.886   0.339  16.064 -0.2000 -0.3289 -0.3352
 2610SOL    HW119292   1.972   0.336  16.022  0.2719  0.6418  0.5661
 2610SOL    HW219293   1.878   0.244  16.073 -1.6144 -0.0547  1.4179
 2611SOL     OW19294   4.070   0.166   2.033  0.4976 -0.8362  0.4694
 2611SOL    HW119295   4.044   0.227   1.964  1.5736 -1.5853 -0.6019
 2611SOL    HW219296   4.164   0.183   2.044  0.5270 -1.1557  0.7200
 2612SOL     OW19297   4.112   4.577   3.506 -0.1974 -0.2083 -0.5021
 2612SOL    HW119298   4.024   4.583   3.470 -0.8282 -2.9514  0.6057
 2612SOL    HW219299   4.136   4.669   3.514 -0.1404 -0.2891  0.3534
 2613SOL     OW19300   2.104   2.379  15.213  0.0697  0.1838  1.1895
 2613SOL    HW119301   2.192   2.407  15.186 -1.1583  0.5507 -2.4066
 2613SOL    HW219302   2.101   2.426  15.296  3.2528 -0.7005  1.8303
 2614SOL     OW19303   2.673   2.031   5.189 -0.1386 -0.2146  0.3773
 2614SOL    HW119304   2.730   2.106   5.171 -1.1891  0.7783  1.1793
 2614SOL    HW219305   2.595   2.077   5.220 -0.3716  0.5560 -1.3396
 2615SOL     OW19306   4.669   3.957   5.467 -0.4191  0.1106  0.2500
 2615SOL    HW119307   0.042   3.958   5.441 -0.8931  1.2684 -1.4161
 2615SOL    HW219308   4.623   3.908   5.399 -0.2149  0.2215  0.0311
 2616SOL     OW19309   1.922   3.694   8.052 -0.6181  0.1137 -0.3270
 2616SOL    HW119310   1.842   3.668   8.006 -1.8717  0.2637  1.7751
 2616SOL    HW219311   1.928   3.635   8.128  1.4210  0.6717 -0.0521
 2617SOL     OW19312   4.008   1.403  10.516  0.1659  0.6172 -0.3264
 2617SOL    HW119313   4.078   1.413  10.580  1.6963 -0.4381 -1.8313
 2617SOL    HW219314   3.938   1.457  10.553 -0.5788 -0.9705  0.5505
 2618SOL     OW19315   4.422   0.894   9.279 -0.4765 -0.0402 -0.0387
 2618SOL    HW119316   4.441   0.917   9.188 -0.8647  3.2035  0.7132
 2618SOL    HW219317   4.385   0.806   9.271 -1.9770  0.5864 -0.0790
 2619SOL     OW19318   2.756   4.084   7.050 -0.0734  0.8417 -0.0090
 2619SOL    HW119319   2.769   4.055   6.960 -0.6517 -1.1917  0.5662
 2619SOL    HW219320   2.661   4.076   7.058  0.0985  0.7517  2.0383
 2620SOL     OW19321   1.189   4.370   6.641 -0.3467 -0.3998 -0.1267
 2620SOL    HW119322   1.113   4.312   6.642 -0.5373 -0.1520 -0.1453
 2620SOL    HW219323   1.148   4.456   6.643 -1.7178 -1.0696  0.4323
 2621SOL     OW19324   2.323   3.600  13.322  0.3215 -0.2865  0.1949
 2621SOL    HW119325   2.336   3.518  13.273 -0.7499  0.2312 -0.9652
 2621SOL    HW219326   2.249   3.640  13.276  1.2489  1.0389 -0.1283
 2622SOL     OW19327   3.191   2.951   5.965  0.7726  0.1591 -0.7043
 2622SOL    HW119328   3.246   3.026   5.986 -1.7681  1.5646  0.9056
 2622SOL    HW219329   3.186   2.949   5.869  1.3783 -3.5978 -0.6505
 2623SOL     OW19330   0.380   1.363   4.497  0.8640  0.1956 -0.6848
 2623SOL    HW119331   0.285   1.358   4.502  1.0201 -1.4284  0.6620
 2623SOL    HW219332   0.402   1.324   4.413 -1.9500  0.4633 -1.5216
 2624SOL     OW19333   2.749   1.840  15.413  0.1656  0.9509 -0.3533
 2624SOL    HW119334   2.767   1.930  15.439 -3.5552  0.9400  2.3455
 2624SOL    HW219335   2.690   1.811  15.483  0.9537  1.2456  0.4442
 2625SOL     OW19336   0.460   2.994   4.633  0.7321 -0.4286  0.2763
 2625SOL    HW119337   0.527   2.926   4.627  1.0105 -0.3461  2.4577
 2625SOL    HW219338   0.505   3.077   4.643  0.0934 -0.1715  1.0082
 2626SOL     OW19339   2.503   2.838   4.468  0.5175 -0.3222  0.0366
 2626SOL    HW119340   2.471   2.752   4.494  0.2910 -0.2657 -0.0564
 2626SOL    HW219341   2.424   2.890   4.458 -0.7650 -2.0347  1.4207
 2627SOL     OW19342   1.705   4.684  15.837 -0.5206  0.2289 -0.0435
 2627SOL    HW119343   1.620   0.007  15.830 -0.5165  0.3762  0.7822
 2627SOL    HW219344   1.735   4.700  15.748 -1.3527  1.4624 -0.1036
 2628SOL     OW19345   3.531   2.364   1.661 -0.4135  0.2948 -0.1870
 2628SOL    HW119346   3.611   2.349   1.711 -0.4072 -0.4348 -0.4087
 2628SOL    HW219347   3.532   2.458   1.649  4.0084  0.1430 -1.0495
 2629SOL     OW19348   3.264   3.193   4.092 -0.2932  0.2992 -0.0573
 2629SOL    HW119349   3.331   3.222   4.029 -1.6330 -0.8036 -2.0146
 2629SOL    HW219350   3.298   3.112   4.128 -1.9078 -0.7879 -0.9789
 2630SOL     OW19351   4.165   2.995   7.195  0.3770  0.8277  0.6275
 2630SOL    HW119352   4.226   2.969   7.264 -0.7903 -0.7873  1.0525
 2630SOL    HW219353   4.106   2.920   7.187 -0.5086  1.4441  1.3259
 2631SOL     OW19354   2.555   4.434  15.355  0.4139 -0.9747 -0.0341
 2631SOL    HW119355   2.568   4.390  15.271 -1.5767  0.6456 -1.1992
 2631SOL    HW219356   2.631   4.402  15.404 -1.4902 -1.6356  2.4610
 2632SOL     OW19357   3.716   1.729   3.817  0.3765 -0.0690 -0.4192
 2632SOL    HW119358   3.669   1.804   3.854  0.6492 -1.2283  2.2518
 2632SOL    HW219359   3.803   1.768   3.806 -0.0190  0.9022 -0.1172
 2633SOL     OW19360   2.999   0.590   5.769 -0.3718 -0.0116 -0.1504
 2633SOL    HW119361   3.079   0.642   5.762 -0.7556  0.5529 -0.3434
 2633SOL    HW219362   3.021   0.520   5.829 -1.1553  0.7924  1.0865
 2634SOL     OW19363   3.451   4.251   3.050 -0.2471 -0.1578  0.0502
 2634SOL    HW119364   3.503   4.325   3.081 -0.3524  0.1737 -0.5630
 2634SOL    HW219365   3.400   4.242   3.131 -2.1566  0.4941 -1.0688
 2635SOL     OW19366   1.592   3.034   2.635 -0.4305 -0.3798  0.1188
 2635SOL    HW119367   1.555   2.991   2.557 -0.4970 -1.1737  0.5831
 2635SOL    HW219368   1.686   3.027   2.621 -0.2048  0.2653  1.3421
 2636SOL     OW19369   0.463   1.265   5.847 -0.1331 -0.4758  0.2840
 2636SOL    HW119370   0.467   1.277   5.752 -0.3067  0.5596  0.4087
 2636SOL    HW219371   0.369   1.287   5.853  0.5261  2.7129 -0.9322
 2637SOL     OW19372   0.318   3.183   6.880 -0.0180 -0.3927  0.6590
 2637SOL    HW119373   0.293   3.128   6.806  1.6909  0.2355 -0.3887
 2637SOL    HW219374   0.379   3.240   6.833 -0.3539 -0.7297 -0.1725
 2638SOL     OW19375   2.561   3.693  14.652  0.4233 -0.8408  0.4504
 2638SOL    HW119376   2.583   3.737  14.570  0.8176 -0.4604  0.7618
 2638SOL    HW219377   2.477   3.734  14.671  1.6528  0.5109  2.9358
 2639SOL     OW19378   1.507   1.787   7.355 -0.2260  0.4365 -0.4093
 2639SOL    HW119379   1.472   1.711   7.309  0.4957 -0.0677 -0.1203
 2639SOL    HW219380   1.475   1.854   7.295  2.4299  0.5136 -1.6957
 2640SOL     OW19381   2.365   0.738   9.394  0.4528  0.1269 -0.3712
 2640SOL    HW119382   2.400   0.797   9.328  2.2284 -0.9999 -0.4323
 2640SOL    HW219383   2.277   0.770   9.415 -0.3496 -1.5623 -1.1546
 2641SOL     OW19384   3.533   2.816   0.547 -0.1312 -0.2577  0.1510
 2641SOL    HW119385   3.606   2.813   0.485  0.3403  2.9011  0.5554
 2641SOL    HW219386   3.495   2.730   0.528  1.8968 -1.0525 -0.3039
 2642SOL     OW19387   3.450   2.375   6.472  0.0227  0.0580  0.0803
 2642SOL    HW119388   3.544   2.384   6.488 -0.2437  0.8944  1.1174
 2642SOL    HW219389   3.423   2.462   6.443  1.0576  0.7900  1.3062
 2643SOL     OW19390   4.436   1.611  10.165  1.1282  0.1231 -0.0384
 2643SOL    HW119391   4.391   1.551  10.225 -1.0839  1.5864 -0.2543
 2643SOL    HW219392   4.508   1.632  10.224  1.0158  1.4625 -0.3949
 2644SOL     OW19393   2.430   4.175   3.996 -0.2958 -0.1662 -0.3661
 2644SOL    HW119394   2.498   4.108   3.996 -0.8571 -0.7425 -0.8109
 2644SOL    HW219395   2.474   4.241   3.942 -0.8731  1.5202  1.2339
 2645SOL     OW19396   0.322   4.303  10.005 -0.1258  0.3078 -0.4134
 2645SOL    HW119397   0.402   4.313  10.057 -0.3637 -2.7198  0.5908
 2645SOL    HW219398   0.258   4.326  10.073  1.2872 -0.6652  1.2498
 2646SOL     OW19399   3.124   4.579  16.989  0.0880 -0.4110  0.5019
 2646SOL    HW119400   3.083   4.529  16.918 -2.0595  1.1675  0.6280
 2646SOL    HW219401   3.147   4.507  17.048  1.3650 -0.7329 -0.3882
 2647SOL     OW19402   0.820   2.743   8.389 -0.0208 -0.4268  0.1194
 2647SOL    HW119403   0.788   2.705   8.307 -1.1179  2.4108 -0.7628
 2647SOL    HW219404   0.788   2.833   8.391  0.2293 -0.3416  0.4547
 2648SOL     OW19405   0.155   4.310   4.944 -0.0000 -0.2879 -0.6986
 2648SOL    HW119406   0.078   4.359   4.918 -0.4191  1.2038  3.3302
 2648SOL    HW219407   0.122   4.222   4.928 -1.2150 -0.0862  0.6906
 2649SOL     OW19408   0.559   2.858   1.325 -0.2125 -0.1584  0.0406
 2649SOL    HW119409   0.497   2.929   1.311 -0.5172  0.0694  2.5272
 2649SOL    HW219410   0.623   2.887   1.259  1.6086 -1.3986  1.2620
 2650SOL     OW19411   2.500   1.103   5.842  0.2661  0.1206 -0.0320
 2650SOL    HW119412   2.578   1.144   5.805 -0.6931  1.7264 -0.2627
 2650SOL    HW219413   2.539   1.057   5.916 -2.0846 -0.4528  0.8725
 2651SOL     OW19414   1.430   1.312   5.282  0.3456 -0.1572  0.1873
 2651SOL    HW119415   1.513   1.280   5.319  0.6502  0.0030 -0.3649
 2651SOL    HW219416   1.452   1.332   5.191  0.8007 -0.6635  0.1850
 2652SOL     OW19417   4.579   0.853  10.198 -0.2225  0.0035 -0.3011
 2652SOL    HW119418   4.574   0.894  10.284  1.3007 -0.7928  0.1851
 2652SOL    HW219419   4.594   0.759  10.212  2.3030  0.5404  0.6901
 2653SOL     OW19420   0.266   1.492   7.015 -0.0337 -0.3878  0.1868
 2653SOL    HW119421   0.239   1.540   7.093 -0.2778  0.8275 -0.6440
 2653SOL    HW219422   0.212   1.413   7.015 -3.5582  2.0104 -2.3985
 2654SOL     OW19423   3.554   2.656   4.472 -0.5893  0.4995  0.4430
 2654SOL    HW119424   3.604   2.609   4.540  0.7360 -0.7588 -1.3991
 2654SOL    HW219425   3.608   2.732   4.452  0.4808 -0.5258 -0.5816
 2655SOL     OW19426   1.312   4.645   2.239  0.1696  0.3001 -0.9671
 2655SOL    HW119427   1.346   0.003   2.283  2.4670 -1.5665  0.5553
 2655SOL    HW219428   1.244   4.624   2.302 -2.4390  1.8777 -3.2570
 2656SOL     OW19429   4.718   2.400  13.392  0.6133 -0.0003  1.0709
 2656SOL    HW119430   0.043   2.484  13.394 -0.8468  0.7872  0.8608
 2656SOL    HW219431   4.662   2.409  13.315  0.4274  0.7020  1.2861
 2657SOL     OW19432   1.187   0.831   7.237 -0.1794  0.7560  0.2976
 2657SOL    HW119433   1.192   0.860   7.146 -1.4115  0.1221  0.0381
 2657SOL    HW219434   1.185   0.917   7.279 -0.2801  0.0555  1.7398
 2658SOL     OW19435   3.012   2.851   2.460  0.0094 -0.3443  0.4305
 2658SOL    HW119436   2.949   2.896   2.403  3.6242  3.1231 -0.8657
 2658SOL    HW219437   2.972   2.881   2.542 -1.6871 -1.0921 -0.1139
 2659SOL     OW19438   2.608   3.072   8.342  0.0097 -0.2134 -1.3126
 2659SOL    HW119439   2.676   3.076   8.275  0.2377 -1.6419 -1.1691
 2659SOL    HW219440   2.652   3.131   8.403 -0.3775 -1.5992  0.3162
 2660SOL     OW19441   1.127   2.863   6.675 -0.6361  0.4334  0.2633
 2660SOL    HW119442   1.162   2.934   6.729  3.4979 -1.5562  0.1851
 2660SOL    HW219443   1.155   2.786   6.724 -2.1524  0.1053  0.6351
 2661SOL     OW19444   0.289   1.036   4.412  0.6235 -0.5268 -0.1684
 2661SOL    HW119445   0.356   1.090   4.371 -1.3910  2.1818  0.1635
 2661SOL    HW219446   0.300   1.064   4.503 -2.3312 -1.4739  0.5058
 2662SOL     OW19447   1.778   4.688   6.557 -0.4259 -0.0310  0.1720
 2662SOL    HW119448   1.736   4.665   6.474  2.0829 -2.9055 -0.3102
 2662SOL    HW219449   1.740   0.056   6.567 -1.2410 -0.4589  0.7919
 2663SOL     OW19450   1.333   0.156  16.706  0.0188 -0.7421  1.0730
 2663SOL    HW119451   1.335   0.245  16.672  1.2079 -1.6560 -1.2625
 2663SOL    HW219452   1.250   0.150  16.754  0.7397  3.1632  2.7812
 2664SOL     OW19453   2.007   4.700   3.527  0.3031  0.2783 -0.1073
 2664SOL    HW119454   2.029   4.648   3.604 -0.5266  1.1943  0.7413
 2664SOL    HW219455   1.924   4.658   3.507  0.6930 -0.8925  0.7398
 2665SOL     OW19456   4.297   3.824  11.637 -0.5826 -0.1654 -0.1593
 2665SOL    HW119457   4.260   3.759  11.696  0.8556  1.8118  2.9424
 2665SOL    HW219458   4.378   3.818  11.689 -2.4765 -1.2075  2.6508
 2666SOL     OW19459   3.951   4.061   4.702 -0.3983  0.2415 -0.6880
 2666SOL    HW119460   4.003   4.121   4.755  1.2904  0.1829 -2.2532
 2666SOL    HW219461   3.937   4.116   4.625 -1.8221  1.2422  0.2985
 2667SOL     OW19462   4.051   2.287  16.522  0.2801  0.2868  0.1455
 2667SOL    HW119463   4.138   2.327  16.515  0.0456  0.3988 -1.9630
 2667SOL    HW219464   4.080   2.196  16.530  1.4335  0.5257 -1.5138
 2668SOL     OW19465   0.287   4.504   8.383  0.1558 -0.3045  0.3208
 2668SOL    HW119466   0.254   4.588   8.352 -0.1959 -0.0474  1.4111
 2668SOL    HW219467   0.212   4.448   8.363 -0.7349  1.7519 -2.1422
 2669SOL     OW19468   1.892   2.078  11.973  0.1121  0.1443  0.3845
 2669SOL    HW119469   1.935   2.158  11.943  1.1991 -1.1818 -1.5847
 2669SOL    HW219470   1.947   2.014  11.928  1.7312  0.5376  1.8099
 2670SOL     OW19471   4.404   4.453   2.067 -0.1262 -0.2294 -0.5302
 2670SOL    HW119472   4.488   4.484   2.034 -0.0979 -1.7345 -1.8422
 2670SOL    HW219473   4.414   4.451   2.162  1.3222  0.8396 -0.6704
 2671SOL     OW19474   0.114   1.142   3.590 -0.4215 -0.0392  0.0427
 2671SOL    HW119475   0.070   1.130   3.674  2.0314  1.2200  1.4850
 2671SOL    HW219476   0.068   1.074   3.540 -1.9952  0.5871  0.6358
 2672SOL     OW19477   4.340   4.241   3.598  0.0931 -0.3732 -0.2440
 2672SOL    HW119478   4.397   4.212   3.669 -0.7413  0.4830  0.8021
 2672SOL    HW219479   4.395   4.265   3.524  1.0295 -2.4167 -0.1963
 2673SOL     OW19480   0.825   3.905   0.776 -0.0685 -0.3071 -0.5328
 2673SOL    HW119481   0.850   3.896   0.684  1.4975 -0.4926 -0.0910
 2673SOL    HW219482   0.831   3.817   0.812 -3.0311  0.1223  1.0203
 2674SOL     OW19483   4.267   1.258   3.225 -0.0900  0.0638  0.4910
 2674SOL    HW119484   4.293   1.171   3.255  0.8510  0.6427  1.3877
 2674SOL    HW219485   4.237   1.302   3.305  0.4316  3.8028 -1.3762
 2675SOL     OW19486   4.582   0.837  14.513 -0.5016  0.3652 -0.0261
 2675SOL    HW119487   4.558   0.790  14.592  0.4220  2.3610  1.4636
 2675SOL    HW219488   4.558   0.779  14.441  2.8138 -0.0284 -0.8240
 2676SOL     OW19489   0.683   2.083  16.134  0.7266  0.1622 -0.0955
 2676SOL    HW119490   0.655   2.116  16.219  0.1921  0.3092 -0.3297
 2676SOL    HW219491   0.665   2.165  16.088 -1.2454 -0.8861 -1.1792
 2677SOL     OW19492   1.785   3.639  12.565  0.3080 -0.3749  0.2480
 2677SOL    HW119493   1.790   3.715  12.624  0.1816 -0.2668  0.1193
 2677SOL    HW219494   1.850   3.576  12.595  3.5322  2.7596 -0.0627
 2678SOL     OW19495   3.027   0.002   4.307  0.1163 -0.1047  0.0754
 2678SOL    HW119496   2.962   0.068   4.331  1.2913  0.5386  1.4577
 2678SOL    HW219497   2.981   4.643   4.336  1.6988 -1.2563 -0.5094
 2679SOL     OW19498   4.173   1.278   2.971  0.2722 -0.1016 -0.0716
 2679SOL    HW119499   4.251   1.321   2.936 -0.8111  0.2854 -2.0197
 2679SOL    HW219500   4.204   1.251   3.058  2.3965 -1.0403 -1.1223
 2680SOL     OW19501   1.371   0.652   7.198  0.3960  0.2072 -0.2324
 2680SOL    HW119502   1.292   0.706   7.204  0.1870 -0.3013  1.6304
 2680SOL    HW219503   1.355   0.595   7.274  0.7377  1.5973  0.8806
 2681SOL     OW19504   1.544   3.149   2.874  0.2886 -0.0764  0.0168
 2681SOL    HW119505   1.557   3.100   2.793  1.1052  0.0263  0.0891
 2681SOL    HW219506   1.603   3.224   2.880 -0.5587  0.6435 -0.6435
 2682SOL     OW19507   3.032   3.310   9.582 -0.3661  0.0353  0.0927
 2682SOL    HW119508   2.976   3.287   9.656  2.1130  1.0160  2.2693
 2682SOL    HW219509   3.078   3.226   9.577  0.2169  0.3135  0.7426
 2683SOL     OW19510   0.834   2.776   6.697  0.3679 -0.1019  0.8001
 2683SOL    HW119511   0.831   2.871   6.686  0.1660 -0.2453 -0.3378
 2683SOL    HW219512   0.919   2.755   6.659 -0.9241 -0.8638 -1.6438
 2684SOL     OW19513   2.159   3.648   6.359 -0.0066 -0.1807  0.1199
 2684SOL    HW119514   2.099   3.588   6.404  0.9395 -0.9432  0.3668
 2684SOL    HW219515   2.198   3.590   6.294  0.5544 -0.4400  0.6850
 2685SOL     OW19516   3.136   4.420   9.515 -0.8083 -1.0236  0.1467
 2685SOL    HW119517   3.219   4.421   9.561 -0.4389 -2.1681 -0.4945
 2685SOL    HW219518   3.080   4.423   9.593 -0.9658  2.4147 -0.0672
 2686SOL     OW19519   0.492   4.390   9.608  0.8353  0.9662 -0.2755
 2686SOL    HW119520   0.405   4.358   9.585 -0.2778  1.7261  2.8244
 2686SOL    HW219521   0.484   4.427   9.696 -0.5966  1.5242 -0.6445
 2687SOL     OW19522   1.000   0.887   1.114 -0.6615  0.0118  0.0764
 2687SOL    HW119523   0.958   0.971   1.098 -1.0955 -0.1538  0.3261
 2687SOL    HW219524   0.942   0.830   1.063  3.1341 -3.2564 -0.5815
 2688SOL     OW19525   1.119   3.652   5.799 -0.2679  0.1499 -0.3260
 2688SOL    HW119526   1.132   3.558   5.791 -0.7107  0.0335  0.3325
 2688SOL    HW219527   1.163   3.673   5.716  1.5458 -1.8095  0.1487
 2689SOL     OW19528   2.065   0.751   5.936 -0.6157 -0.3781 -0.2481
 2689SOL    HW119529   2.079   0.680   5.874 -2.0116 -0.3363 -0.6244
 2689SOL    HW219530   2.057   0.825   5.877 -2.4213 -0.1629  0.2446
 2690SOL     OW19531   3.088   3.756   1.386  0.0783  0.0838 -0.6251
 2690SOL    HW119532   3.040   3.825   1.341  0.4846  1.3047  0.7845
 2690SOL    HW219533   3.019   3.708   1.431  0.6531 -0.5004 -0.3678
 2691SOL     OW19534   0.707   4.119   5.576  0.3092  0.5473  0.1314
 2691SOL    HW119535   0.729   4.209   5.554 -1.6249  1.0062  0.1259
 2691SOL    HW219536   0.668   4.100   5.490  1.7778 -1.6427 -0.0484
 2692SOL     OW19537   0.941   0.149   4.192 -0.5910 -0.1817  0.4061
 2692SOL    HW119538   0.849   0.173   4.180 -0.3174  1.3952  1.4140
 2692SOL    HW219539   0.960   0.139   4.099  1.0861  1.6126  0.5437
 2693SOL     OW19540   0.196   3.369   9.842 -0.7504  0.3363 -0.2975
 2693SOL    HW119541   0.161   3.330   9.922  0.2776  0.0638  0.0258
 2693SOL    HW219542   0.188   3.292   9.785 -0.1642 -0.1899  0.3287
 2694SOL     OW19543   0.301   0.692   7.842 -0.4764 -0.3469 -0.0299
 2694SOL    HW119544   0.334   0.615   7.890  0.6662 -1.2004 -2.2066
 2694SOL    HW219545   0.377   0.707   7.785 -0.3104  2.6143  0.9947
 2695SOL     OW19546   3.196   0.978  10.429  0.1883 -0.0426  0.2835
 2695SOL    HW119547   3.290   0.995  10.439 -0.0017  1.8311 -1.1288
 2695SOL    HW219548   3.201   0.885  10.451  1.1008 -0.0606  0.0016
 2696SOL     OW19549   0.390   1.952   5.070  0.2575  0.4731 -0.0122
 2696SOL    HW119550   0.381   2.022   5.135  3.3439  1.0946 -0.2440
 2696SOL    HW219551   0.447   1.895   5.122  0.2209  1.0051  0.6084
 2697SOL     OW19552   0.135   2.587   2.688  0.1300 -0.2329 -0.4419
 2697SOL    HW119553   0.119   2.498   2.660  0.4572 -0.4752  0.1262
 2697SOL    HW219554   0.227   2.584   2.715 -0.4882 -0.3531  1.6433
 2698SOL     OW19555   2.203   3.335   8.343 -0.2097  0.2554  0.6830
 2698SOL    HW119556   2.181   3.334   8.436 -1.5483 -2.2426  0.3488
 2698SOL    HW219557   2.237   3.246   8.328  2.5544  1.4561 -0.2854
 2699SOL     OW19558   2.344   4.035  13.031  0.2282  0.6339  0.0001
 2699SOL    HW119559   2.328   4.033  13.125  2.1499 -2.9008  0.2499
 2699SOL    HW219560   2.440   4.041  13.031  0.2063  1.0188 -0.8611
 2700SOL     OW19561   4.159   2.182   2.727  0.3335  0.2244  0.1575
 2700SOL    HW119562   4.195   2.098   2.699 -0.4192  0.6701 -2.2149
 2700SOL    HW219563   4.200   2.238   2.661 -1.4373 -0.0005 -1.1524
 2701SOL     OW19564   3.355   2.549   5.147 -0.3455  1.0197 -0.2700
 2701SOL    HW119565   3.354   2.634   5.103  2.3600  0.3963 -1.5415
 2701SOL    HW219566   3.414   2.499   5.091 -4.0270 -1.4219 -1.9466
 2702SOL     OW19567   0.930   1.135   3.428 -0.2952  0.0515 -0.0891
 2702SOL    HW119568   0.878   1.096   3.358 -1.1965 -0.1966  0.7275
 2702SOL    HW219569   0.895   1.224   3.433 -0.1377  0.1043  0.1061
 2703SOL     OW19570   1.164   0.248   6.025  0.1816  0.4427  0.6863
 2703SOL    HW119571   1.207   0.202   6.097  1.7606  0.4063 -0.2669
 2703SOL    HW219572   1.195   0.193   5.952 -2.6092 -0.8275  0.4872
 2704SOL     OW19573   2.169   3.291   4.948 -0.0324  0.2074  0.5883
 2704SOL    HW119574   2.163   3.254   4.860  0.5703  1.0183  0.2018
 2704SOL    HW219575   2.090   3.252   4.986  1.1455 -1.7345  1.0355
 2705SOL     OW19576   2.816   4.017   8.397  0.0382  0.2715 -0.2105
 2705SOL    HW119577   2.763   3.953   8.444  2.7055  0.0933  2.5225
 2705SOL    HW219578   2.820   3.983   8.308  1.6905 -0.3107  0.0864
 2706SOL     OW19579   3.763   1.158  17.408 -0.2626 -0.2775 -0.4225
 2706SOL    HW119580   3.733   1.163  17.317 -0.7123 -2.7210 -0.3882
 2706SOL    HW219581   3.756   1.251  17.429  0.9202  0.2174 -2.1961
 2707SOL     OW19582   1.328   2.536   8.070  0.2739  0.4612 -0.8915
 2707SOL    HW119583   1.371   2.510   8.151 -1.2940  0.0077 -0.2070
 2707SOL    HW219584   1.345   2.630   8.073 -0.0442  0.4257  1.9323
 2708SOL     OW19585   0.964   2.439  16.402 -0.3821  0.1629 -0.6014
 2708SOL    HW119586   0.926   2.515  16.358 -0.8018 -0.4043 -1.2216
 2708SOL    HW219587   1.004   2.485  16.476  0.0100 -1.1440  0.0026
 2709SOL     OW19588   3.111   3.689   4.962  0.0872 -0.0772  0.0025
 2709SOL    HW119589   3.076   3.648   4.883  0.5019  0.4501 -0.4624
 2709SOL    HW219590   3.171   3.619   4.990 -2.3789 -1.5986  1.4834
 2710SOL     OW19591   1.263   0.554  14.723 -0.1708  0.3521  0.3159
 2710SOL    HW119592   1.321   0.584  14.793 -1.4651 -1.2729  2.0897
 2710SOL    HW219593   1.192   0.618  14.725  1.5868  2.2339  2.0981
 2711SOL     OW19594   4.380   1.690  17.365 -0.0480 -0.3313  0.0749
 2711SOL    HW119595   4.462   1.689  17.316  0.0368 -0.7879  0.2245
 2711SOL    HW219596   4.331   1.759  17.320 -3.0568 -2.2833  0.3145
 2712SOL     OW19597   0.012   1.924  15.968 -0.1563  0.0939 -0.0431
 2712SOL    HW119598   0.102   1.954  15.955 -0.7630  1.9234  0.0198
 2712SOL    HW219599   0.015   1.904  16.062 -0.0663 -0.1572 -0.0982
 2713SOL     OW19600   2.163   2.744   3.895 -0.2697  0.4589  0.5314
 2713SOL    HW119601   2.156   2.756   3.800  2.9583 -2.1944 -0.0702
 2713SOL    HW219602   2.217   2.821   3.913  1.2836 -0.4341 -0.2676
 2714SOL     OW19603   2.663   1.187   1.870 -0.4540  0.5239 -0.6016
 2714SOL    HW119604   2.582   1.189   1.920 -0.8812 -2.1399 -1.2177
 2714SOL    HW219605   2.680   1.093   1.877  0.3910  0.6803 -0.5204
 2715SOL     OW19606   1.485   2.484  10.625 -0.3644 -0.7037  0.9973
 2715SOL    HW119607   1.480   2.432  10.545  0.9051  2.3537 -1.0784
 2715SOL    HW219608   1.417   2.551  10.614  0.8397  0.3713  0.0484
 2716SOL     OW19609   3.007   1.423   7.796  0.0795  0.2987 -0.3501
 2716SOL    HW119610   2.936   1.379   7.842 -0.1707  2.1636  1.0245
 2716SOL    HW219611   3.005   1.506   7.844 -2.3973 -0.7040  1.2862
 2717SOL     OW19612   3.127   1.824   8.983 -0.1221  0.1397 -0.1314
 2717SOL    HW119613   3.149   1.899   8.927 -0.9853  0.2820 -0.2780
 2717SOL    HW219614   3.067   1.861   9.047  0.9792 -2.0456  2.1543
 2718SOL     OW19615   1.255   2.587  14.292 -0.0854 -0.0576  0.4720
 2718SOL    HW119616   1.294   2.538  14.219 -0.1897 -0.0714  0.4257
 2718SOL    HW219617   1.201   2.520  14.334  2.5660 -1.6711  1.3338
 2719SOL     OW19618   3.694   0.754   2.339  0.0781 -0.0910 -0.4298
 2719SOL    HW119619   3.758   0.764   2.268 -2.3230  1.0931 -2.3953
 2719SOL    HW219620   3.608   0.761   2.299 -0.9549 -0.3796  1.7613
 2720SOL     OW19621   0.612   0.674   7.108  0.7183 -0.2058 -0.2281
 2720SOL    HW119622   0.561   0.631   7.177  2.1464  2.1977  2.3325
 2720SOL    HW219623   0.673   0.603   7.091  0.0020 -0.5539 -1.3145
 2721SOL     OW19624   0.047   2.506   6.268  0.0415  0.1948 -0.1979
 2721SOL    HW119625   4.696   2.457   6.312 -0.4039  1.0130 -0.0002
 2721SOL    HW219626   4.715   2.577   6.230 -1.7753 -1.5501 -1.0556
 2722SOL     OW19627   0.866   3.955   3.127  0.5069 -0.2776  0.3547
 2722SOL    HW119628   0.961   3.961   3.136  0.4191  1.1427  0.2604
 2722SOL    HW219629   0.862   3.914   3.041 -2.7082 -0.8036  0.7397
 2723SOL     OW19630   2.713   2.679   1.797  0.3720  0.9883 -0.9044
 2723SOL    HW119631   2.758   2.706   1.877 -1.0243  0.8720 -0.0721
 2723SOL    HW219632   2.695   2.585   1.808  1.8725  0.8976  0.8289
 2724SOL     OW19633   2.383   1.619   3.093 -0.0616 -0.4377 -0.0307
 2724SOL    HW119634   2.364   1.527   3.111 -1.4497 -0.1409  0.0915
 2724SOL    HW219635   2.318   1.661   3.150 -0.8077 -0.7123 -0.6813
 2725SOL     OW19636   1.528   3.638   3.103  0.1035  0.6149  0.4332
 2725SOL    HW119637   1.434   3.655   3.112  0.1455  0.2365  1.6868
 2725SOL    HW219638   1.556   3.697   3.033  1.1046  0.9239  1.0998
 2726SOL     OW19639   0.796   3.899   7.389  0.5082 -0.0322  0.7930
 2726SOL    HW119640   0.722   3.877   7.445 -0.9813  1.8547 -0.4314
 2726SOL    HW219641   0.839   3.944   7.462 -0.3434 -3.9797  3.6775
 2727SOL     OW19642   1.726   2.088  13.821  0.2917 -0.1978 -0.4226
 2727SOL    HW119643   1.636   2.115  13.804 -0.4830 -0.7244  2.8677
 2727SOL    HW219644   1.715   2.047  13.907 -0.2841 -0.3936 -0.5917
 2728SOL     OW19645   3.615   1.683   4.536  0.1941  0.2132 -0.1505
 2728SOL    HW119646   3.702   1.718   4.556 -1.1071  2.9820  0.6777
 2728SOL    HW219647   3.564   1.751   4.581  1.4106  1.5883 -0.8543
 2729SOL     OW19648   0.133   2.280   4.082 -0.5290  0.7430  0.5056
 2729SOL    HW119649   0.214   2.331   4.081 -0.4866  0.6645  0.1075
 2729SOL    HW219650   0.165   2.193   4.108  1.6784  1.2707 -0.4066
 2730SOL     OW19651   1.355   2.897   0.399  0.1958  1.0055  0.0478
 2730SOL    HW119652   1.284   2.911   0.336 -0.1408  2.9582  0.8469
 2730SOL    HW219653   1.319   2.838   0.465  1.7566  0.7986  0.7066
 2731SOL     OW19654   1.176   4.481   3.752  0.0534 -0.0724 -0.1218
 2731SOL    HW119655   1.172   4.541   3.826 -0.3549  1.8333 -1.6994
 2731SOL    HW219656   1.231   4.411   3.789 -0.8518 -0.5810  0.2617
 2732SOL     OW19657   3.565   1.598  16.241  0.0407  0.1232 -0.2317
 2732SOL    HW119658   3.505   1.606  16.167 -0.2753 -3.0025 -0.3200
 2732SOL    HW219659   3.511   1.605  16.320 -0.2582  1.9131 -0.5984
 2733SOL     OW19660   4.402   0.281   8.184 -0.3563 -0.2354  0.2508
 2733SOL    HW119661   4.456   0.298   8.106 -1.9697 -2.9377 -1.4355
 2733SOL    HW219662   4.358   0.366   8.186 -0.1016 -0.0848 -0.5152
 2734SOL     OW19663   4.054   4.323   2.241  0.3317  0.1142  0.6573
 2734SOL    HW119664   4.071   4.349   2.150 -0.2870 -2.3845 -0.1799
 2734SOL    HW219665   4.100   4.239   2.244  2.9414  1.5150  0.2468
 2735SOL     OW19666   2.328   1.830  13.326 -0.2633 -0.2493 -0.0901
 2735SOL    HW119667   2.365   1.893  13.388  1.2413 -2.3177  1.0846
 2735SOL    HW219668   2.259   1.793  13.381 -1.7879  1.5592 -0.7953
 2736SOL     OW19669   2.166   3.195   4.148  0.2509  0.2167  0.2512
 2736SOL    HW119670   2.192   3.284   4.123  2.3147 -0.9351 -1.6573
 2736SOL    HW219671   2.184   3.198   4.242 -0.2569  0.3038  0.3474
 2737SOL     OW19672   0.553   4.260   1.973  0.5067  1.2267 -0.2002
 2737SOL    HW119673   0.623   4.226   2.028 -1.1443 -1.2191  0.3689
 2737SOL    HW219674   0.552   4.201   1.898  2.1735 -1.5955  1.9904
 2738SOL     OW19675   2.310   0.182   4.624  0.0340  0.3500 -0.5172
 2738SOL    HW119676   2.269   0.101   4.595  3.4751 -2.0438  1.3833
 2738SOL    HW219677   2.312   0.224   4.538  0.7748  1.0574 -0.1527
 2739SOL     OW19678   3.841   2.550   7.114 -0.1252  0.3867 -0.2214
 2739SOL    HW119679   3.767   2.500   7.148  0.4547  1.2263  2.3024
 2739SOL    HW219680   3.873   2.485   7.051 -0.6811 -0.0358 -0.0687
 2740SOL     OW19681   3.087   1.304   5.839  0.1879  0.0158  0.2265
 2740SOL    HW119682   3.018   1.262   5.890 -0.9033  1.1443 -0.3145
 2740SOL    HW219683   3.038   1.304   5.756  0.3916  0.7664  0.1058
 2741SOL     OW19684   0.657   0.790  12.805  0.1857 -0.3935  0.0109
 2741SOL    HW119685   0.682   0.786  12.898  1.3193 -0.8854 -0.3178
 2741SOL    HW219686   0.608   0.873  12.810  0.5024 -0.2602  1.0282
 2742SOL     OW19687   1.486   3.993  15.712 -0.1364  0.2434 -0.8498
 2742SOL    HW119688   1.506   4.077  15.754 -0.6874  0.3404 -0.7885
 2742SOL    HW219689   1.412   4.015  15.656 -0.0189  2.7456 -0.0008
 2743SOL     OW19690   0.407   0.636   6.071 -0.0435 -0.2212 -0.2658
 2743SOL    HW119691   0.481   0.657   6.013  0.2031  2.1639  0.9153
 2743SOL    HW219692   0.353   0.715   6.078 -0.5130 -0.4133 -1.6525
 2744SOL     OW19693   3.972   1.847   3.807  0.1359  0.2216  0.1747
 2744SOL    HW119694   4.023   1.862   3.727 -0.8424 -0.8254 -0.6674
 2744SOL    HW219695   4.026   1.788   3.860 -0.4669 -1.4307 -1.0129
 2745SOL     OW19696   2.524   2.196  17.253 -0.2454  0.2292  0.0979
 2745SOL    HW119697   2.564   2.200  17.340  0.7119 -1.2604 -0.2698
 2745SOL    HW219698   2.527   2.101  17.242  1.2472  0.2057  0.6631
 2746SOL     OW19699   1.902   2.924  13.339 -0.5203 -0.0481  0.2918
 2746SOL    HW119700   1.982   2.958  13.378 -0.3824  0.5490 -0.4980
 2746SOL    HW219701   1.874   2.861  13.405 -2.1850 -0.9679 -1.2581
 2747SOL     OW19702   2.650   2.511   0.700 -0.3002 -0.3254  0.3310
 2747SOL    HW119703   2.664   2.428   0.745 -0.5986 -2.8070 -4.1733
 2747SOL    HW219704   2.574   2.490   0.645  3.1010 -3.6693 -3.1423
 2748SOL     OW19705   0.690   0.831   1.099 -0.2559 -0.5766  0.1530
 2748SOL    HW119706   0.753   0.791   1.040  0.0161  0.1805 -0.0743
 2748SOL    HW219707   0.612   0.781   1.077 -1.9671 -0.4120  5.7744
 2749SOL     OW19708   3.007   1.891   2.303  0.2430  0.0926  0.3427
 2749SOL    HW119709   3.069   1.960   2.283  0.4340 -0.0010  0.6175
 2749SOL    HW219710   2.930   1.944   2.283  0.0003  0.1151  1.3327
 2750SOL     OW19711   2.955   3.987   6.871 -0.0293  0.1646 -0.1113
 2750SOL    HW119712   2.945   3.896   6.900 -2.2974  0.4068 -0.0754
 2750SOL    HW219713   3.049   4.003   6.871 -0.0587  0.3464 -0.7910
 2751SOL     OW19714   2.408   0.806  12.204 -0.3814 -0.6031  0.2263
 2751SOL    HW119715   2.442   0.884  12.160  2.1025 -1.6490  0.3176
 2751SOL    HW219716   2.479   0.783  12.264 -2.4287 -3.1318  1.6881
 2752SOL     OW19717   0.670   0.799   4.943 -0.5469  0.7073  0.1700
 2752SOL    HW119718   0.641   0.789   5.033 -1.8079  0.3039 -0.2846
 2752SOL    HW219719   0.765   0.798   4.955 -0.2931 -0.2500 -1.8573
 2753SOL     OW19720   2.004   0.275   0.689  0.2624 -0.0100 -0.2998
 2753SOL    HW119721   1.958   0.243   0.767 -0.7331 -0.8842 -1.2436
 2753SOL    HW219722   1.990   0.369   0.700  1.3018  0.0661  0.4013
 2754SOL     OW19723   2.024   1.929   1.429  0.2316  0.0623  0.1045
 2754SOL    HW119724   1.998   1.852   1.478 -0.7241  0.1924 -0.2026
 2754SOL    HW219725   1.943   1.957   1.387 -1.1342 -2.7998  0.8630
 2755SOL     OW19726   4.245   2.574   4.962 -0.5154  0.3550 -0.0896
 2755SOL    HW119727   4.228   2.480   4.956 -0.3312  0.1094  3.0540
 2755SOL    HW219728   4.276   2.602   4.876  1.2540  1.2559  0.8449
 2756SOL     OW19729   4.699   2.503   4.833 -0.2757 -0.2862 -0.0102
 2756SOL    HW119730   0.018   2.530   4.915 -1.5244  1.3597  0.0318
 2756SOL    HW219731   0.001   2.410   4.831 -0.6072 -0.3708  0.6445
 2757SOL     OW19732   0.976   1.570  15.649  0.1184 -0.5367 -0.3784
 2757SOL    HW119733   1.071   1.561  15.644  0.3545  0.3311  2.4010
 2757SOL    HW219734   0.951   1.516  15.725 -0.9427  1.5342  0.7572
 2758SOL     OW19735   2.087   0.646   3.245  0.0894 -0.3413 -0.0144
 2758SOL    HW119736   2.000   0.663   3.209  0.4829  1.0333 -0.2965
 2758SOL    HW219737   2.066   0.595   3.324 -0.7020  2.0065  1.2860
 2759SOL     OW19738   0.274   0.900  14.102 -0.4786  0.0650  0.2091
 2759SOL    HW119739   0.252   0.815  14.065 -1.9748  0.9165 -0.8949
 2759SOL    HW219740   0.367   0.892  14.120 -0.1606  1.7679 -0.6370
 2760SOL     OW19741   4.042   0.120   6.644 -0.3228 -0.6277  0.4191
 2760SOL    HW119742   4.034   0.026   6.656  1.9957 -0.9140 -0.3012
 2760SOL    HW219743   4.129   0.139   6.679 -0.8811  0.4189  1.2679
 2761SOL     OW19744   3.951   2.832   5.619 -0.0405 -0.3430  0.3557
 2761SOL    HW119745   3.859   2.808   5.607  0.5400 -1.8394 -1.1458
 2761SOL    HW219746   3.949   2.926   5.634 -1.1226 -0.0239 -1.7223
 2762SOL     OW19747   4.351   4.192   5.558  0.2761 -0.5339 -0.1584
 2762SOL    HW119748   4.387   4.278   5.581  1.6494 -0.6790 -1.7332
 2762SOL    HW219749   4.316   4.214   5.472  2.0620 -0.5714 -0.8897
 2763SOL     OW19750   3.907   2.232   3.758 -0.4182 -0.4528 -0.3635
 2763SOL    HW119751   3.815   2.248   3.735 -0.8397 -1.2611  0.7638
 2763SOL    HW219752   3.930   2.199   3.671  0.2181 -1.0620  0.0305
 2764SOL     OW19753   4.310   0.262   7.131 -0.1150 -0.3727 -0.4565
 2764SOL    HW119754   4.228   0.213   7.142  0.3993 -1.2817 -0.7051
 2764SOL    HW219755   4.365   0.183   7.131 -1.0105 -0.9972 -1.0593
 2765SOL     OW19756   1.537   0.902  16.653 -0.1927  0.2438  0.0063
 2765SOL    HW119757   1.578   0.816  16.664  1.8336  1.4856  2.1876
 2765SOL    HW219758   1.467   0.878  16.593 -0.8635  0.1363  0.8402
 2766SOL     OW19759   2.667   0.932   5.975  0.1883  0.2561  0.3357
 2766SOL    HW119760   2.677   0.911   5.883 -2.2759  3.0112 -0.5528
 2766SOL    HW219761   2.750   0.913   6.019  0.7738  0.2106 -0.8072
 2767SOL     OW19762   3.493   2.893   1.605  0.6062 -0.1894 -0.4419
 2767SOL    HW119763   3.450   2.951   1.667  1.1241  1.3059 -1.4728
 2767SOL    HW219764   3.452   2.902   1.519  0.7752 -1.4894 -0.6536
 2768SOL     OW19765   3.703   0.061   4.429  0.0543  0.4997 -0.2599
 2768SOL    HW119766   3.646   0.074   4.353  0.5610 -1.5445 -0.9838
 2768SOL    HW219767   3.665   4.702   4.467  2.7393 -1.1972 -1.1192
 2769SOL     OW19768   4.428   0.378   3.264 -0.3000 -0.2268  0.3920
 2769SOL    HW119769   4.388   0.446   3.211 -0.0837 -0.7996 -0.5149
 2769SOL    HW219770   4.507   0.432   3.269 -1.2588  1.3770 -2.1170
 2770SOL     OW19771   0.640   3.847   3.946 -0.4466 -0.3857 -0.0715
 2770SOL    HW119772   0.648   3.931   3.992  1.2325  0.2592 -1.5479
 2770SOL    HW219773   0.611   3.787   4.015 -1.7390 -1.5911 -1.6664
 2771SOL     OW19774   1.864   4.048  16.422 -0.1426  0.6243 -0.6454
 2771SOL    HW119775   1.784   4.068  16.372  1.7225  0.4912 -3.7200
 2771SOL    HW219776   1.931   4.056  16.354 -0.5929 -1.9109 -1.4124
 2772SOL     OW19777   3.293   4.225  10.490 -0.2474  0.4226 -0.3923
 2772SOL    HW119778   3.301   4.308  10.443  2.0368  0.5349  0.2220
 2772SOL    HW219779   3.258   4.251  10.575  2.5798 -1.5553  1.3603
 2773SOL     OW19780   1.125   4.091   0.836  0.3096 -0.1681 -0.3858
 2773SOL    HW119781   1.081   4.052   0.761 -0.0370  0.9937 -0.7785
 2773SOL    HW219782   1.094   4.182   0.836 -2.8987 -1.2441 -0.5869
 2774SOL     OW19783   3.058   1.817  11.790  0.9841  0.1249 -0.1857
 2774SOL    HW119784   3.084   1.787  11.877 -0.8205  1.7172  0.9233
 2774SOL    HW219785   2.988   1.882  11.803 -0.1010 -1.7036  3.0612
 2775SOL     OW19786   0.019   0.625   9.365 -0.1347  0.1252  0.3721
 2775SOL    HW119787   4.712   0.706   9.409 -2.6945 -0.3113 -0.4033
 2775SOL    HW219788   0.071   0.672   9.299  0.2314  0.5534  0.9618
 2776SOL     OW19789   4.687   2.188  14.669 -0.3937 -0.5558 -0.1191
 2776SOL    HW119790   0.040   2.251  14.673 -0.0754 -1.0307  1.3738
 2776SOL    HW219791   0.024   2.112  14.652 -0.8281 -0.4845 -1.8785
 2777SOL     OW19792   4.409   1.678   9.136 -0.2108  0.4701 -0.4249
 2777SOL    HW119793   4.464   1.668   9.213  0.7335 -2.3238 -1.4509
 2777SOL    HW219794   4.324   1.708   9.167 -1.2386 -0.5850 -2.1527
 2778SOL     OW19795   2.354   2.547   3.577 -0.5087 -0.0292 -0.1465
 2778SOL    HW119796   2.324   2.562   3.487  0.5503  1.0843 -0.3193
 2778SOL    HW219797   2.275   2.514   3.619  0.8022 -3.4736 -0.4385
 2779SOL     OW19798   3.725   0.976  17.629 -1.0748 -0.3305  0.0871
 2779SOL    HW119799   3.641   1.017  17.649 -0.7811  0.2324  0.1528
 2779SOL    HW219800   3.791   1.034  17.591 -0.6309 -0.8667  0.0335
 2780SOL     OW19801   2.185   4.378   5.682  0.1084 -0.2267  0.3234
 2780SOL    HW119802   2.251   4.423   5.734 -1.1969 -0.0814  1.8574
 2780SOL    HW219803   2.166   4.455   5.628  0.2068  0.0603  0.6935
 2781SOL     OW19804   0.674   0.824   2.121 -0.0649  0.3847  0.0030
 2781SOL    HW119805   0.693   0.820   2.215  1.2399 -1.5415 -0.3344
 2781SOL    HW219806   0.745   0.879   2.087  0.9344  0.7129  2.6004
 2782SOL     OW19807   1.868   4.183  10.545 -1.2499 -0.1447  0.0429
 2782SOL    HW119808   1.849   4.098  10.585 -1.2786 -0.1107  0.1012
 2782SOL    HW219809   1.821   4.181  10.462 -1.2937  1.7842  0.0313
 2783SOL     OW19810   4.650   1.404   3.637 -0.0686  0.7701  0.0573
 2783SOL    HW119811   4.612   1.319   3.614  1.8293  0.3382 -1.4478
 2783SOL    HW219812   4.710   1.418   3.564  0.5663 -1.3781  0.1939
 2784SOL     OW19813   4.158   1.490   7.465 -0.0387 -0.2894 -0.0568
 2784SOL    HW119814   4.149   1.412   7.410 -0.9717  0.5924 -1.1554
 2784SOL    HW219815   4.095   1.551   7.428 -1.3304 -1.3231  0.4389
 2785SOL     OW19816   1.394   4.076   6.148 -0.8826 -0.2631  0.0203
 2785SOL    HW119817   1.319   4.021   6.170 -1.7385  0.4426 -1.1567
 2785SOL    HW219818   1.366   4.151   6.201  0.5669  0.0573  0.3288
 2786SOL     OW19819   4.284   3.425   5.294 -0.0712  0.0000  0.3881
 2786SOL    HW119820   4.222   3.411   5.365 -0.2344  1.0313  0.4395
 2786SOL    HW219821   4.358   3.466   5.339 -0.3632 -0.8686  1.6626
 2787SOL     OW19822   3.930   1.097   8.381 -0.6147 -0.0931  0.1341
 2787SOL    HW119823   3.989   1.054   8.443  1.3133  2.6135  0.1912
 2787SOL    HW219824   3.887   1.163   8.434 -1.0568 -1.7417  1.8272
 2788SOL     OW19825   3.939   1.589   4.918 -0.3295  0.0323  0.1471
 2788SOL    HW119826   3.905   1.664   4.968 -1.1049 -0.2950  0.1082
 2788SOL    HW219827   3.989   1.548   4.989 -1.7300  0.2103  1.2576
 2789SOL     OW19828   2.868   3.221   5.403  0.2953 -1.0428  0.1729
 2789SOL    HW119829   2.876   3.309   5.367  2.2697 -1.2864  0.0060
 2789SOL    HW219830   2.958   3.192   5.387  0.0899 -1.3002 -0.5310
 2790SOL     OW19831   1.287   0.373   3.678 -0.0082  0.3436 -0.1961
 2790SOL    HW119832   1.281   0.283   3.708  1.5297  0.7291  1.2647
 2790SOL    HW219833   1.333   0.350   3.597  3.0333  0.1805  1.5748
 2791SOL     OW19834   0.746   2.043  10.806  0.2790 -0.4454  0.2700
 2791SOL    HW119835   0.715   2.134  10.812 -1.7478 -1.0018 -1.7925
 2791SOL    HW219836   0.660   2.009  10.781  2.6479 -3.8074 -3.1041
 2792SOL     OW19837   1.226   1.997   5.644  0.5221 -0.7058  0.1710
 2792SOL    HW119838   1.255   1.952   5.564 -0.7703 -1.8476  0.3526
 2792SOL    HW219839   1.253   1.929   5.706 -0.3200  0.1978  1.5106
 2793SOL     OW19840   3.123   0.900  14.914  0.0049 -0.1677  0.2042
 2793SOL    HW119841   3.205   0.860  14.943 -0.4442 -0.5904  0.9040
 2793SOL    HW219842   3.117   0.862  14.827  0.4904 -2.1824  1.0670
 2794SOL     OW19843   3.622   0.235   5.927 -0.0213 -0.2551 -0.0977
 2794SOL    HW119844   3.536   0.267   5.898  0.6289  0.5160 -1.1804
 2794SOL    HW219845   3.683   0.249   5.855  2.1145  0.8555  1.9432
 2795SOL     OW19846   2.560   0.481   7.892  0.2732 -0.0605 -1.0468
 2795SOL    HW119847   2.644   0.517   7.865  1.1388 -0.4034  1.1577
 2795SOL    HW219848   2.509   0.555   7.859  2.6696  2.7621  1.5952
 2796SOL     OW19849   0.177   0.246   5.655  1.0854  0.0162 -0.4284
 2796SOL    HW119850   0.096   0.263   5.703  1.5874  1.0110  0.0580
 2796SOL    HW219851   0.155   0.160   5.619  2.0467  0.0003 -0.9895
 2797SOL     OW19852   3.739   2.604  10.274  0.2665  0.5878  0.7081
 2797SOL    HW119853   3.693   2.683  10.301 -1.9543 -0.8399  1.0851
 2797SOL    HW219854   3.763   2.550  10.350 -1.4026 -0.8991  0.1894
 2798SOL     OW19855   2.489   2.217   4.362 -0.3809 -0.4852  0.6346
 2798SOL    HW119856   2.462   2.125   4.367 -0.1323 -0.6427 -0.7201
 2798SOL    HW219857   2.417   2.255   4.312 -1.3759 -0.8678  1.7985
 2799SOL     OW19858   3.368   2.178   8.928 -0.0380  0.2917 -0.5962
 2799SOL    HW119859   3.408   2.201   8.844 -0.7661 -0.1935 -1.0763
 2799SOL    HW219860   3.360   2.083   8.916 -0.6544  0.3327 -0.4982
 2800SOL     OW19861   2.681   2.083  11.139 -0.4372  0.2869 -0.4142
 2800SOL    HW119862   2.700   2.098  11.046 -0.6642  1.9967 -0.1995
 2800SOL    HW219863   2.597   2.130  11.139 -0.2165  0.7150 -2.1675
 2801SOL     OW19864   3.979   4.312   7.677 -0.0345 -0.3019  0.1053
 2801SOL    HW119865   3.944   4.401   7.684  1.4573  0.3433 -0.8098
 2801SOL    HW219866   3.925   4.285   7.603  2.2294 -0.9967 -1.2742
 2802SOL     OW19867   0.583   3.236   0.932 -0.4917  0.3177  0.4617
 2802SOL    HW119868   0.660   3.287   0.956  0.7937 -1.7078  0.6323
 2802SOL    HW219869   0.622   3.172   0.873 -3.8692 -0.1519 -1.2638
 2803SOL     OW19870   0.796   0.284   7.419  0.3835  0.0973 -0.0217
 2803SOL    HW119871   0.798   0.375   7.450 -2.1126  0.5703 -1.2762
 2803SOL    HW219872   0.741   0.249   7.488  1.0772 -2.1277 -0.5868
 2804SOL     OW19873   0.404   0.879  10.232  0.3626  0.6093  0.2843
 2804SOL    HW119874   0.356   0.881  10.149 -0.9158 -0.7568  1.0017
 2804SOL    HW219875   0.481   0.933  10.216 -0.4526  1.1369 -1.9317
 2805SOL     OW19876   3.912   0.969  14.259 -0.6749 -0.1199  0.3960
 2805SOL    HW119877   3.961   0.887  14.256  0.5300  0.5388  2.7874
 2805SOL    HW219878   3.824   0.934  14.277 -0.3128 -1.0611  0.3624
 2806SOL     OW19879   3.470   0.588   1.166 -0.4033 -0.1258  0.1223
 2806SOL    HW119880   3.468   0.605   1.072 -0.8179 -1.7140 -0.1542
 2806SOL    HW219881   3.378   0.600   1.186 -0.4475 -0.1107 -0.0855
 2807SOL     OW19882   4.703   0.279   3.128  0.5312  0.8601  0.4657
 2807SOL    HW119883   4.675   0.363   3.091  2.4991  1.3864  0.1463
 2807SOL    HW219884   4.628   0.230   3.094  0.9759  1.2346 -1.0789
 2808SOL     OW19885   3.093   3.388   6.665 -0.8666  0.2950 -0.3602
 2808SOL    HW119886   3.117   3.356   6.578 -0.5250 -0.3417 -0.0357
 2808SOL    HW219887   3.183   3.410   6.690 -0.9689 -1.2628  1.3965
 2809SOL     OW19888   4.541   4.096   5.898 -0.0032 -0.4823  0.0255
 2809SOL    HW119889   4.537   4.037   5.823  0.3147 -1.4877  0.7952
 2809SOL    HW219890   4.589   4.168   5.855 -2.0392  0.3510 -0.8363
 2810SOL     OW19891   4.296   1.913   0.252 -0.1346  0.4096 -0.4363
 2810SOL    HW119892   4.361   1.894   0.320  0.7108  1.8483 -0.8324
 2810SOL    HW219893   4.327   2.003   0.240 -0.8748  0.6882 -0.2181
 2811SOL     OW19894   4.193   4.543  15.333  0.2249  0.6165 -0.3282
 2811SOL    HW119895   4.268   4.489  15.358  0.4252  0.0375 -2.1635
 2811SOL    HW219896   4.130   4.475  15.357  1.1824 -0.3227 -0.5129
 2812SOL     OW19897   3.859   2.893   0.672 -0.3678 -0.3421 -0.1446
 2812SOL    HW119898   3.865   2.812   0.621  2.0821  0.8150 -1.6876
 2812SOL    HW219899   3.920   2.866   0.741 -1.6081  2.8745  2.1727
 2813SOL     OW19900   0.641   2.323   5.108 -0.0545 -0.0281 -0.0514
 2813SOL    HW119901   0.611   2.343   5.197  2.1179  3.7153 -0.1827
 2813SOL    HW219902   0.681   2.237   5.118  2.8518  1.3682  0.3274
 2814SOL     OW19903   3.987   1.434   2.160  0.3599 -0.0257 -0.6304
 2814SOL    HW119904   3.950   1.417   2.073  0.7174 -0.5271 -0.6897
 2814SOL    HW219905   4.071   1.455   2.118  0.5100 -1.8926 -1.2645
 2815SOL     OW19906   0.298   2.227   6.514  0.3414  0.3159  0.3366
 2815SOL    HW119907   0.213   2.259   6.546  1.2334  0.6587  2.3683
 2815SOL    HW219908   0.339   2.312   6.532  1.4572 -0.4179  1.2539
 2816SOL     OW19909   0.997   3.158   4.304 -0.2691 -0.5538 -0.3761
 2816SOL    HW119910   1.066   3.136   4.241  0.8487 -3.2349  1.7884
 2816SOL    HW219911   0.965   3.240   4.266  0.5757  0.3184  0.7779
 2817SOL     OW19912   4.015   0.691  11.973  0.0757  0.7731  0.4470
 2817SOL    HW119913   3.982   0.636  12.043 -1.2477  1.3668  0.2964
 2817SOL    HW219914   3.946   0.754  11.951 -0.9254 -0.7901 -0.8692
 2818SOL     OW19915   3.385   3.343   1.822 -0.0508 -0.1063  0.4005
 2818SOL    HW119916   3.371   3.365   1.914  0.4854  1.0216  0.2141
 2818SOL    HW219917   3.346   3.414   1.772 -0.0507  0.5117  1.2687
 2819SOL     OW19918   0.408   4.274   3.142 -0.6362 -0.4324  0.2763
 2819SOL    HW119919   0.430   4.183   3.121 -1.5664 -0.8587  1.1271
 2819SOL    HW219920   0.439   4.287   3.232 -2.2515  4.0355  0.1686
 2820SOL     OW19921   4.685   0.176   6.302  0.2354  0.1199  0.0027
 2820SOL    HW119922   0.044   0.149   6.254 -2.3326 -1.6598 -3.2482
 2820SOL    HW219923   0.003   0.261   6.324  1.0273 -0.2206 -0.0365
 2821SOL     OW19924   2.915   1.794  13.163 -0.0196  0.1892  0.1894
 2821SOL    HW119925   2.879   1.754  13.084  3.3159  0.1038 -1.2662
 2821SOL    HW219926   2.896   1.885  13.141 -1.7602 -0.1232  0.3824
 2822SOL     OW19927   1.289   1.042   5.376 -0.2626 -0.4951  0.0262
 2822SOL    HW119928   1.314   1.032   5.285  4.3489  1.7401  1.0586
 2822SOL    HW219929   1.257   1.132   5.380 -1.4181 -0.8525 -0.9478
 2823SOL     OW19930   0.145   3.885   1.052 -0.2748 -0.0157  0.2980
 2823SOL    HW119931   0.121   3.889   1.145  0.2799 -2.2226  0.5534
 2823SOL    HW219932   0.205   3.959   1.044  1.0870 -1.3596 -1.7039
 2824SOL     OW19933   0.296   1.618   6.788  0.7200  0.4067  0.2291
 2824SOL    HW119934   0.288   1.585   6.877 -3.4401 -2.7753 -1.3105
 2824SOL    HW219935   0.350   1.554   6.742  1.0127  1.7903 -1.3660
 2825SOL     OW19936   0.819   3.754   9.145  0.3301 -0.7654  0.0777
 2825SOL    HW119937   0.886   3.751   9.076 -0.2171  1.1998 -0.5295
 2825SOL    HW219938   0.735   3.732   9.105  1.3740  1.4491 -3.2920
 2826SOL     OW19939   4.163   2.345  17.500 -0.2648  0.3341 -0.2425
 2826SOL    HW119940   4.184   2.381  17.414  0.3856 -1.3330 -0.7876
 2826SOL    HW219941   4.100   2.275  17.486  1.4325 -1.3086  0.3937
 2827SOL     OW19942   0.829   2.064   8.271  0.3058  0.3464 -0.0143
 2827SOL    HW119943   0.797   2.078   8.360 -1.7921  0.5034 -0.7943
 2827SOL    HW219944   0.799   2.141   8.222 -1.1107 -0.3519 -0.2502
 2828SOL     OW19945   1.167   2.670   9.849  0.2091 -0.5986  0.5014
 2828SOL    HW119946   1.247   2.619   9.861  1.3947  1.2696  0.6020
 2828SOL    HW219947   1.129   2.661   9.936 -1.1118 -0.7918 -0.1021
 2829SOL     OW19948   3.865   1.816   4.235 -0.3032  0.3657 -0.6511
 2829SOL    HW119949   3.888   1.879   4.166  0.0453  0.6464 -0.2814
 2829SOL    HW219950   3.781   1.783   4.202  0.2548 -0.1902 -1.4993
 2830SOL     OW19951   2.417   0.427   4.973 -0.2217 -0.2509  0.0870
 2830SOL    HW119952   2.354   0.380   5.029 -1.2694 -0.3709 -1.1849
 2830SOL    HW219953   2.466   0.348   4.950 -1.2153 -0.4257 -1.3731
 2831SOL     OW19954   1.569   1.888  14.262 -0.1855 -0.2439  0.5555
 2831SOL    HW119955   1.487   1.839  14.270 -1.2198  1.3428 -0.1259
 2831SOL    HW219956   1.579   1.920  14.352 -1.3117  1.0029  0.2497
 2832SOL     OW19957   1.297   3.007   7.361  0.0975  0.0724 -0.1622
 2832SOL    HW119958   1.258   2.951   7.428  3.3288 -0.8715  0.9547
 2832SOL    HW219959   1.365   3.050   7.414 -1.3853  0.8748  1.0920
 2833SOL     OW19960   1.366   2.556   3.381  0.2406  0.3068 -0.2014
 2833SOL    HW119961   1.380   2.647   3.355 -1.1821  0.5634 -0.1049
 2833SOL    HW219962   1.293   2.524   3.328 -0.5363 -0.3543  1.2644
 2834SOL     OW19963   2.996   0.364  11.308 -0.1283 -0.2863 -0.4169
 2834SOL    HW119964   2.923   0.303  11.309 -0.2576 -0.0532  3.2450
 2834SOL    HW219965   2.965   0.438  11.360  2.1849  0.6560 -0.3965
 2835SOL     OW19966   0.753   2.869  13.085  0.4737  0.0238 -0.3489
 2835SOL    HW119967   0.702   2.828  13.015  1.4492  0.7309 -1.4895
 2835SOL    HW219968   0.754   2.963  13.065 -0.4990 -0.1954 -1.4327
 2836SOL     OW19969   0.585   0.280  17.401  0.2622 -0.9837 -0.4209
 2836SOL    HW119970   0.544   0.291  17.315 -0.6069  2.1488  0.3979
 2836SOL    HW219971   0.506   0.257  17.450 -0.6505  0.3154 -1.2466
 2837SOL     OW19972   4.677   1.808   6.126  0.6762  0.0203  0.3472
 2837SOL    HW119973   4.626   1.888   6.131 -1.0685 -1.0853  0.0242
 2837SOL    HW219974   0.038   1.853   6.098  0.6426 -0.3294 -0.3228
 2838SOL     OW19975   4.273   1.729   2.812 -0.0352 -0.5992 -0.5230
 2838SOL    HW119976   4.225   1.797   2.764 -0.5820  0.8188  2.0536
 2838SOL    HW219977   4.202   1.666   2.819 -0.7011  0.0748 -1.2350
 2839SOL     OW19978   2.761   3.878   1.736 -0.1101 -0.3228  0.1669
 2839SOL    HW119979   2.685   3.930   1.710 -0.1826 -0.8842 -0.7435
 2839SOL    HW219980   2.732   3.789   1.754  0.2258 -1.1797 -3.5924
 2840SOL     OW19981   0.243   4.648   2.863  0.4939 -0.1543 -0.1779
 2840SOL    HW119982   0.227   4.594   2.941  0.2496 -0.9835 -0.8085
 2840SOL    HW219983   0.331   4.680   2.882  0.1362 -0.5089  2.0770
 2841SOL     OW19984   2.784   4.531   1.509 -0.8432 -0.5660  0.5521
 2841SOL    HW119985   2.694   4.557   1.527 -0.4565  0.8354  0.4683
 2841SOL    HW219986   2.778   4.539   1.413 -1.7637 -0.2399  0.6352
 2842SOL     OW19987   2.740   0.027   1.937 -0.7030  0.7430 -0.5827
 2842SOL    HW119988   2.683   4.679   1.974  0.5226 -0.1255 -0.2588
 2842SOL    HW219989   2.673   0.093   1.922 -0.1963  1.4419  0.2167
 2843SOL     OW19990   0.480   2.819   6.682 -0.4807 -0.1103 -0.1518
 2843SOL    HW119991   0.516   2.902   6.712 -2.4024  0.1617  1.3923
 2843SOL    HW219992   0.549   2.760   6.714  0.8761  2.6365  1.9228
 2844SOL     OW19993   0.279   3.359  16.822 -0.1396  0.3063  0.3926
 2844SOL    HW119994   0.201   3.305  16.822  1.6412 -2.2912 -1.4841
 2844SOL    HW219995   0.246   3.443  16.791 -0.0028 -0.3084 -1.4503
 2845SOL     OW19996   3.025   2.738   3.315 -0.0530  0.2373 -0.2825
 2845SOL    HW119997   3.036   2.654   3.270  2.1902  0.8210 -0.7957
 2845SOL    HW219998   3.077   2.714   3.392  0.3118 -0.7514 -0.8389
 2846SOL     OW19999   4.328   0.234   8.677 -0.2802  0.5170  0.1154
 2846SOL    HW120000   4.357   0.154   8.633 -0.1305  1.2263 -1.0730
 2846SOL    HW220001   4.403   0.284   8.644 -0.2373  1.4742  1.6651
 2847SOL     OW20002   0.225   4.458   7.640 -0.4001  0.0265  0.2014
 2847SOL    HW120003   0.244   4.435   7.730  0.8055 -1.9160 -0.5561
 2847SOL    HW220004   0.296   4.411   7.597  0.1374 -0.3202  1.4823
 2848SOL     OW20005   4.343   2.978  16.770  0.3637  0.0816 -0.0274
 2848SOL    HW120006   4.367   2.920  16.697 -0.2743  0.2957 -0.4021
 2848SOL    HW220007   4.253   2.951  16.787  0.4323  0.6507  1.2645
 2849SOL     OW20008   0.590   2.796   2.533 -0.2866 -0.3424 -0.2852
 2849SOL    HW120009   0.546   2.880   2.520  0.5045 -0.0522 -1.0685
 2849SOL    HW220010   0.543   2.740   2.471 -0.3641 -0.5961  0.0005
 2850SOL     OW20011   1.506   2.948  17.029 -0.2579  0.2346 -0.5478
 2850SOL    HW120012   1.575   2.919  17.088 -1.6837  1.4294  1.7070
 2850SOL    HW220013   1.484   3.020  17.088 -1.4967 -0.0251 -0.6953
 2851SOL     OW20014   1.738   1.850   8.534  0.8988 -0.1541 -0.3787
 2851SOL    HW120015   1.754   1.767   8.580 -0.3717 -2.3630 -3.9523
 2851SOL    HW220016   1.789   1.914   8.584  1.8061 -0.4355 -0.9487
 2852SOL     OW20017   4.637   2.837   2.148 -0.0366 -0.0241 -0.2888
 2852SOL    HW120018   4.559   2.874   2.189  1.5273  1.8715  0.9360
 2852SOL    HW220019   4.707   2.885   2.191 -0.1054 -2.4620  2.5488
 2853SOL     OW20020   0.914   0.212   8.558 -0.1493  0.1078  0.1944
 2853SOL    HW120021   0.886   0.196   8.648 -1.9424 -0.6719 -0.5058
 2853SOL    HW220022   0.847   0.197   8.491 -0.9710  1.2083  0.7611
 2854SOL     OW20023   2.583   0.650   6.084 -0.1214  0.1207  0.3469
 2854SOL    HW120024   2.547   0.606   6.160 -1.4830  2.2415  0.9326
 2854SOL    HW220025   2.642   0.718   6.117 -0.6807  1.4948 -1.4767
 2855SOL     OW20026   3.817   1.740   7.197 -0.4613 -0.5101  1.0057
 2855SOL    HW120027   3.765   1.660   7.187 -0.6933 -0.2376  0.0267
 2855SOL    HW220028   3.871   1.712   7.271 -0.7270 -1.2070  0.9377
 2856SOL     OW20029   4.109   2.287   7.669 -0.5456  0.3754  0.5487
 2856SOL    HW120030   4.057   2.366   7.682  0.2714  0.8854  0.6483
 2856SOL    HW220031   4.052   2.213   7.692 -0.2245 -0.3059 -0.8642
 2857SOL     OW20032   0.220   3.916  10.115 -0.1323  0.4825 -0.4317
 2857SOL    HW120033   0.213   3.822  10.104  0.1412  0.2886  0.9937
 2857SOL    HW220034   0.233   3.934  10.022 -1.4142 -0.3974 -0.7859
 2858SOL     OW20035   3.402   3.428   8.330  0.4264  0.0192 -0.2752
 2858SOL    HW120036   3.438   3.374   8.400  1.9183 -2.1885 -2.7596
 2858SOL    HW220037   3.416   3.513   8.371 -1.1360 -0.2747  0.9015
 2859SOL     OW20038   1.506   4.370   4.718  0.7664  0.4141  0.1440
 2859SOL    HW120039   1.447   4.359   4.644 -0.7148  2.8999  0.9409
 2859SOL    HW220040   1.551   4.286   4.710  2.0541  1.2209 -0.9888
 2860SOL     OW20041   1.580   0.573   5.680 -0.2297 -0.0735 -0.3244
 2860SOL    HW120042   1.540   0.582   5.594 -0.4911  1.9178  0.0006
 2860SOL    HW220043   1.534   0.502   5.724 -1.4249  0.6717 -0.3781
 2861SOL     OW20044   4.626   3.992  13.347 -0.2014  0.1460 -0.0374
 2861SOL    HW120045   4.715   3.982  13.312  0.0399  1.2732  0.2411
 2861SOL    HW220046   4.644   3.935  13.422  1.2309  1.3724  0.5489
 2862SOL     OW20047   1.820   1.215   8.175  0.0117 -0.3599 -0.8173
 2862SOL    HW120048   1.800   1.125   8.149 -2.3393 -0.7590  2.2642
 2862SOL    HW220049   1.732   1.235   8.208 -0.4425 -1.6794 -1.2120
 2863SOL     OW20050   3.052   2.888   8.725  0.3910 -0.6488  0.4660
 2863SOL    HW120051   2.961   2.915   8.736  0.9206  1.7760 -1.0025
 2863SOL    HW220052   3.082   2.974   8.695 -0.1685 -0.2480  1.0555
 2864SOL     OW20053   4.077   3.613   0.228  0.0413 -0.5355  0.2256
 2864SOL    HW120054   4.047   3.569   0.148  0.9473  1.0443 -0.9747
 2864SOL    HW220055   4.052   3.555   0.300 -1.1185  0.7190  0.8384
 2865SOL     OW20056   0.915   0.750  12.778 -0.1584  0.2667  0.4629
 2865SOL    HW120057   0.822   0.772  12.787 -0.3280 -0.7587  1.2584
 2865SOL    HW220058   0.945   0.754  12.869  1.1887 -2.8152  0.1556
 2866SOL     OW20059   1.984   1.903   2.884  0.0385 -0.0707  0.0606
 2866SOL    HW120060   2.030   1.986   2.897  0.5692 -0.1447 -1.3255
 2866SOL    HW220061   1.910   1.933   2.830 -0.0252  0.7199  0.5786
 2867SOL     OW20062   4.127   1.287  14.347 -0.0193 -0.2363 -0.8190
 2867SOL    HW120063   4.183   1.354  14.309 -2.5894  1.9564 -0.7886
 2867SOL    HW220064   4.198   1.224  14.340  1.4563  0.8710  3.9859
 2868SOL     OW20065   4.078   4.349  13.264  0.2436  0.1580 -0.4220
 2868SOL    HW120066   3.989   4.381  13.280  0.1746  0.0943 -0.6754
 2868SOL    HW220067   4.108   4.422  13.210  0.8695  0.6278  0.5806
 2869SOL     OW20068   4.366   2.427   3.805 -0.0516 -0.5822  0.0057
 2869SOL    HW120069   4.322   2.490   3.747  1.8012  2.7102  2.1561
 2869SOL    HW220070   4.409   2.375   3.737  0.4793  1.8541 -1.5297
 2870SOL     OW20071   2.261   0.432   6.651 -0.1196 -0.2239 -0.0247
 2870SOL    HW120072   2.319   0.507   6.659 -0.9999  0.3056  1.2940
 2870SOL    HW220073   2.212   0.447   6.569  1.5409 -0.2053 -1.0175
 2871SOL     OW20074   1.091   3.940  10.438  0.0721  0.0838 -0.3516
 2871SOL    HW120075   1.157   3.977  10.379 -0.9154 -0.5144 -1.8367
 2871SOL    HW220076   1.082   3.853  10.397  0.5146  0.1983 -0.6967
 2872SOL     OW20077   3.116   1.149   8.953  0.1720  0.1540 -0.0198
 2872SOL    HW120078   3.188   1.090   8.930  0.5220  0.0337  1.4357
 2872SOL    HW220079   3.139   1.236   8.922 -2.4430 -0.0434 -2.5655
 2873SOL     OW20080   2.109   2.627   4.327 -0.0833 -0.3702 -0.1944
 2873SOL    HW120081   2.077   2.619   4.238  1.0707 -1.9124 -0.4815
 2873SOL    HW220082   2.171   2.698   4.314 -0.6746  0.1959  0.1156
 2874SOL     OW20083   2.372   0.140   9.769  0.0835 -0.1755 -0.4212
 2874SOL    HW120084   2.421   0.222   9.758 -0.8963  0.7764  2.1182
 2874SOL    HW220085   2.359   0.143   9.864 -2.3139 -1.7031 -0.7159
 2875SOL     OW20086   0.227   0.956   4.127 -0.1877  0.7408  0.3471
 2875SOL    HW120087   0.204   1.032   4.181  1.4340  1.2092  0.3899
 2875SOL    HW220088   0.265   0.900   4.195  2.6707 -1.0423 -2.7487
 2876SOL     OW20089   3.267   1.418   2.546 -0.4586  0.4266  0.6907
 2876SOL    HW120090   3.348   1.426   2.596 -0.0705  0.6354  0.0318
 2876SOL    HW220091   3.297   1.449   2.460  0.6392  0.5661  1.1175
 2877SOL     OW20092   0.599   1.920   3.888  0.2510  0.4662  0.2758
 2877SOL    HW120093   0.670   1.909   3.951  1.5347  1.5346 -1.0132
 2877SOL    HW220094   0.562   1.834   3.907 -0.0483  0.5893  0.2512
 2878SOL     OW20095   0.322   4.387   5.144  0.4821 -0.1850 -0.0348
 2878SOL    HW120096   0.404   4.357   5.106 -0.5883 -1.2753 -1.4466
 2878SOL    HW220097   0.260   4.367   5.074  1.0472 -1.1881 -0.2470
 2879SOL     OW20098   1.090   1.155   2.392  0.5447 -0.3761 -0.4637
 2879SOL    HW120099   1.167   1.103   2.370  0.8699 -0.1054  0.0430
 2879SOL    HW220100   1.036   1.075   2.394  1.5921 -1.0955 -1.3647
 2880SOL     OW20101   3.467   3.993   8.442 -0.2669  0.0418 -0.3040
 2880SOL    HW120102   3.410   3.955   8.509 -1.7295  0.5589 -1.2608
 2880SOL    HW220103   3.462   3.924   8.376  2.7906 -1.4908  1.0447
 2881SOL     OW20104   3.203   4.685   7.102 -0.3259 -0.2082 -0.2686
 2881SOL    HW120105   3.201   4.593   7.074  0.6073  0.0598 -1.2307
 2881SOL    HW220106   3.281   4.672   7.156 -0.7093  1.9457  0.7743
 2882SOL     OW20107   3.482   1.885   4.635 -0.0087 -0.3236  0.2812
 2882SOL    HW120108   3.408   1.907   4.579 -1.0210  1.6642  2.4021
 2882SOL    HW220109   3.528   1.966   4.655  0.5370 -1.2455  2.7554
 2883SOL     OW20110   4.580   0.887   0.787 -0.3777  0.3433 -0.2399
 2883SOL    HW120111   4.493   0.876   0.825 -0.5500  0.2635 -0.6586
 2883SOL    HW220112   4.585   0.982   0.797 -2.4729  0.6959 -2.6783
 2884SOL     OW20113   4.359   2.124   6.949  0.6068 -0.1310 -0.0432
 2884SOL    HW120114   4.301   2.184   6.996  1.1064  2.0978 -2.2796
 2884SOL    HW220115   4.393   2.061   7.013  0.0283  0.6338  1.0126
 2885SOL     OW20116   3.778   4.515   7.410  0.7417 -0.2403  0.0391
 2885SOL    HW120117   3.806   4.533   7.500 -2.6433 -2.2466  1.4695
 2885SOL    HW220118   3.774   4.420   7.417  0.9247 -0.2382  0.1583
 2886SOL     OW20119   3.394   0.568  12.019 -0.5839 -0.4477 -0.1290
 2886SOL    HW120120   3.376   0.548  12.111 -0.4360 -1.5724 -0.3380
 2886SOL    HW220121   3.464   0.503  12.006 -0.1419  0.2609 -1.3018
 2887SOL     OW20122   2.877   0.085   1.708  0.6971 -0.0886  0.2230
 2887SOL    HW120123   2.826   0.077   1.788  3.3074  0.1577  1.8934
 2887SOL    HW220124   2.945   0.023   1.734 -0.1137 -0.3790  1.6334
 2888SOL     OW20125   1.763   1.078  11.939  0.1536  0.3023 -0.0560
 2888SOL    HW120126   1.762   1.146  12.007 -2.2374  1.9069 -1.6754
 2888SOL    HW220127   1.840   1.107  11.890  0.2847  1.1024  0.6177
 2889SOL     OW20128   0.628   3.859   7.589  0.3992  1.0085  0.3172
 2889SOL    HW120129   0.689   3.827   7.655 -0.4007  2.3442  1.7085
 2889SOL    HW220130   0.590   3.935   7.634 -0.8620  0.7474 -0.3092
 2890SOL     OW20131   3.063   3.503  11.525  0.4496 -0.2417  0.8465
 2890SOL    HW120132   2.971   3.509  11.499  1.0439 -1.5090 -1.5179
 2890SOL    HW220133   3.062   3.409  11.538 -0.0254 -0.5480 -1.4179
 2891SOL     OW20134   4.177   4.340   8.971  0.0796 -0.1007 -0.6044
 2891SOL    HW120135   4.192   4.330   9.065 -0.6496  2.0854 -0.2617
 2891SOL    HW220136   4.094   4.292   8.969 -0.0674  0.1281  0.1789
 2892SOL     OW20137   4.346   1.821   3.431 -0.2046  0.6509  0.7796
 2892SOL    HW120138   4.430   1.799   3.391  0.3981  0.3912  2.2154
 2892SOL    HW220139   4.292   1.746   3.405  1.6688 -1.4442  2.9236
 2893SOL     OW20140   2.098   2.946   5.231  0.7368  0.4742  0.6607
 2893SOL    HW120141   2.180   2.931   5.279  0.1516  1.7354  2.0637
 2893SOL    HW220142   2.033   2.933   5.300 -0.6012  0.4013 -0.6084
 2894SOL     OW20143   3.379   2.966   7.961 -0.6873  0.0364 -0.4243
 2894SOL    HW120144   3.324   2.940   7.886 -0.9032 -1.8539  0.3860
 2894SOL    HW220145   3.466   2.970   7.920 -1.0218  0.0721 -1.1415
 2895SOL     OW20146   0.156   0.018   8.293  1.0780  0.7395  0.2273
 2895SOL    HW120147   0.079   0.037   8.240  2.3793  0.0855 -1.9139
 2895SOL    HW220148   0.190   0.104   8.316  0.9571  0.6935  0.5880
 2896SOL     OW20149   2.620   3.733   6.214  0.1117 -0.1524  0.0789
 2896SOL    HW120150   2.647   3.744   6.305 -0.9198 -3.8715  0.8338
 2896SOL    HW220151   2.650   3.646   6.187 -2.1597 -0.0149 -2.8987
 2897SOL     OW20152   0.565   1.810   7.765  0.2979  0.5349  0.0761
 2897SOL    HW120153   0.519   1.893   7.772 -1.5978 -0.7343  2.5261
 2897SOL    HW220154   0.590   1.806   7.857  0.7189  1.5144  0.0072
 2898SOL     OW20155   3.477   0.322   5.178  0.1239  0.4848  0.3447
 2898SOL    HW120156   3.524   0.320   5.262  1.1030  2.7256 -0.1482
 2898SOL    HW220157   3.387   0.342   5.205  0.4558  1.2535  0.8786
 2899SOL     OW20158   1.440   2.145   3.729 -0.0350  1.0346  0.1180
 2899SOL    HW120159   1.438   2.238   3.706 -2.9376  1.1611  0.8623
 2899SOL    HW220160   1.490   2.147   3.810 -1.2612 -2.7168  0.9868
 2900SOL     OW20161   4.412   2.684   3.316  0.0473 -0.0975  0.1169
 2900SOL    HW120162   4.381   2.742   3.246 -2.0906 -0.6878  0.5611
 2900SOL    HW220163   4.391   2.595   3.287 -3.5601  0.5521  0.6564
 2901SOL     OW20164   2.619   2.500   2.486 -0.4988  0.0856 -0.7477
 2901SOL    HW120165   2.618   2.556   2.563 -0.4603 -1.1476  0.1616
 2901SOL    HW220166   2.600   2.566   2.420  2.0679  0.0707 -1.5333
 2902SOL     OW20167   3.832   0.972   1.283 -0.6069  0.0916 -0.3365
 2902SOL    HW120168   3.815   0.958   1.190 -0.3042  0.7808 -0.4911
 2902SOL    HW220169   3.862   1.063   1.287  0.3624 -0.1543 -2.3804
 2903SOL     OW20170   2.123   1.203   3.771  0.0033 -0.2478 -0.1591
 2903SOL    HW120171   2.133   1.109   3.761  1.0317 -0.5472  3.4269
 2903SOL    HW220172   2.206   1.228   3.731  0.7943  0.5475  1.9386
 2904SOL     OW20173   1.128   1.186   6.130  0.3075 -0.0039  0.4371
 2904SOL    HW120174   1.079   1.232   6.198  0.7514 -0.7339  1.2456
 2904SOL    HW220175   1.214   1.224   6.144 -0.0603  0.0274  2.7075
 2905SOL     OW20176   3.284   1.291   3.037  0.1724 -0.0313  0.2857
 2905SOL    HW120177   3.214   1.283   3.103  1.1560 -0.1964  1.3097
 2905SOL    HW220178   3.346   1.350   3.080  0.5771 -0.2873  0.0447
 2906SOL     OW20179   1.936   4.471   6.446 -0.3388  0.2208 -0.0848
 2906SOL    HW120180   1.913   4.427   6.364 -1.4925 -1.5567  1.2010
 2906SOL    HW220181   1.930   4.567   6.436 -2.6887  0.1548  0.7422
 2907SOL     OW20182   1.334   0.287  14.731  0.0420 -0.1303  0.3747
 2907SOL    HW120183   1.424   0.279  14.700 -0.2139  0.5464 -0.5603
 2907SOL    HW220184   1.319   0.381  14.729  3.2983  0.4155  1.7978
 2908SOL     OW20185   2.457   3.827   7.038 -0.1848  0.3232 -0.0040
 2908SOL    HW120186   2.387   3.767   7.062  0.6932 -2.0062 -3.2388
 2908SOL    HW220187   2.530   3.767   7.055  0.4036  0.5496 -1.6720
 2909SOL     OW20188   3.131   0.679   7.210 -0.4558  0.2395  0.9471
 2909SOL    HW120189   3.160   0.655   7.298  1.8899  0.4333  0.2222
 2909SOL    HW220190   3.093   0.597   7.179  0.7651  0.1141 -0.1920
 2910SOL     OW20191   0.685   0.445   1.138 -0.3853  0.3213  0.3767
 2910SOL    HW120192   0.591   0.459   1.152 -0.0469  0.0093  2.8325
 2910SOL    HW220193   0.709   0.416   1.226  1.1084 -0.0612 -0.1724
 2911SOL     OW20194   4.497   0.424   4.115 -0.1198 -0.0451 -0.2991
 2911SOL    HW120195   4.587   0.433   4.146  0.2169 -0.4582 -1.1623
 2911SOL    HW220196   4.489   0.342   4.165  1.1448 -1.7988 -2.9510
 2912SOL     OW20197   1.817   1.769  17.595 -0.1678  0.2944  0.2600
 2912SOL    HW120198   1.819   1.822  17.515  1.5434  0.4029  0.3867
 2912SOL    HW220199   1.725   1.785  17.618 -0.5341 -0.3743 -0.7162
 2913SOL     OW20200   1.748   2.809   7.144 -0.2152  0.3871 -0.1824
 2913SOL    HW120201   1.733   2.832   7.236  0.2724  1.0398 -0.2652
 2913SOL    HW220202   1.672   2.841   7.095 -1.2352  1.1563  1.8784
 2914SOL     OW20203   0.141   4.363   4.640 -0.2409 -0.3557 -0.2169
 2914SOL    HW120204   0.068   4.322   4.594  1.0913 -1.1046 -1.6883
 2914SOL    HW220205   0.185   4.408   4.567 -0.7304  1.0341  0.3534
 2915SOL     OW20206   0.604   0.225  11.882 -0.4962  0.0755 -0.0085
 2915SOL    HW120207   0.691   0.183  11.876 -0.3010  0.7624 -1.9493
 2915SOL    HW220208   0.621   0.297  11.822 -3.5362 -0.5566 -1.6169
 2916SOL     OW20209   3.303   4.668   2.598 -0.2104  0.1610  0.2036
 2916SOL    HW120210   3.226   4.665   2.654  0.1304  0.8023  0.7043
 2916SOL    HW220211   3.297   0.040   2.570 -1.0473  0.2069  0.5466
 2917SOL     OW20212   0.971   1.001   4.171 -0.6695 -0.4141 -0.2920
 2917SOL    HW120213   1.020   1.066   4.223  0.2193 -0.7175 -0.7597
 2917SOL    HW220214   1.007   1.021   4.085  1.2932 -0.8805  0.4226
 2918SOL     OW20215   0.425   3.593   5.655  0.0308  0.1834 -0.0773
 2918SOL    HW120216   0.367   3.624   5.725  1.6520  0.3766  1.1933
 2918SOL    HW220217   0.409   3.499   5.648  0.4937 -0.0241  1.5412
 2919SOL     OW20218   0.764   2.402   1.389  0.4705 -0.0895 -0.5119
 2919SOL    HW120219   0.718   2.484   1.377 -0.4136 -0.6554 -0.9922
 2919SOL    HW220220   0.708   2.336   1.349  0.8669 -0.3295 -0.6734
 2920SOL     OW20221   1.650   1.672   4.537 -0.1393 -0.1122  0.1612
 2920SOL    HW120222   1.614   1.744   4.590  1.4790  1.3670 -0.7812
 2920SOL    HW220223   1.578   1.609   4.547 -1.0373  1.3300  3.1058
 2921SOL     OW20224   0.238   3.478   0.261  0.2214 -0.6199 -0.6633
 2921SOL    HW120225   0.167   3.515   0.208  1.2443  0.2653 -1.4137
 2921SOL    HW220226   0.224   3.384   0.251 -0.1077 -0.6046 -0.3843
 2922SOL     OW20227   0.021   1.359   5.266 -0.0563 -0.3712  0.4375
 2922SOL    HW120228   4.705   1.271   5.278 -2.2367  0.4983  0.5322
 2922SOL    HW220229   4.696   1.405   5.195 -0.5036  1.1310  1.6786
 2923SOL     OW20230   3.304   3.340   5.380  0.0212  0.6669  0.1085
 2923SOL    HW120231   3.244   3.414   5.387 -2.8293 -1.7523  1.4579
 2923SOL    HW220232   3.350   3.375   5.304 -0.9358  1.0241 -0.3066
 2924SOL     OW20233   2.346   2.488  14.279 -0.4562  1.4368 -0.0293
 2924SOL    HW120234   2.315   2.563  14.229 -0.8516  0.8078 -0.7352
 2924SOL    HW220235   2.266   2.466  14.325  0.6022  0.2381  1.2315
 2925SOL     OW20236   1.916   4.097   4.461 -0.1257 -0.3985 -0.2561
 2925SOL    HW120237   1.895   4.006   4.440 -0.3580  0.0066 -1.8228
 2925SOL    HW220238   1.886   4.138   4.379  0.5896  0.8759  0.1175
 2926SOL     OW20239   3.701   3.271  14.569  0.2388  0.0915 -0.6636
 2926SOL    HW120240   3.680   3.300  14.480  0.7005  0.8574 -0.5233
 2926SOL    HW220241   3.671   3.180  14.565  2.5785 -0.7022 -0.4245
 2927SOL     OW20242   4.093   3.964  17.290 -0.1539  0.3705  0.4488
 2927SOL    HW120243   4.146   4.027  17.241 -0.9628  0.9029  0.2745
 2927SOL    HW220244   4.079   3.892  17.229  1.0844 -0.2428  0.8824
 2928SOL     OW20245   0.135   1.212   3.024 -0.2928  0.2370 -0.1251
 2928SOL    HW120246   0.221   1.227   3.065 -0.2749  2.1614 -0.8602
 2928SOL    HW220247   0.078   1.236   3.097 -1.5702  0.0102 -1.0625
 2929SOL     OW20248   3.176   0.151   7.347 -0.3411 -0.9314 -0.0578
 2929SOL    HW120249   3.204   0.065   7.316  1.0932 -0.9376  1.2514
 2929SOL    HW220250   3.235   0.213   7.304 -1.4468 -1.0625 -1.7646
 2930SOL     OW20251   1.128   2.474   7.915 -0.1608 -0.3394  0.0735
 2930SOL    HW120252   1.203   2.499   7.968  1.7863 -1.5758 -2.0793
 2930SOL    HW220253   1.159   2.394   7.872  1.1833  0.0226  0.3695
 2931SOL     OW20254   0.816   3.709   7.707  0.4031  0.0332  0.4098
 2931SOL    HW120255   0.762   3.649   7.757 -1.2797  0.3732 -1.0198
 2931SOL    HW220256   0.888   3.712   7.770  0.1289  0.6695  0.6909
 2932SOL     OW20257   3.071   3.243  10.733 -0.4009 -0.7414  0.1151
 2932SOL    HW120258   3.040   3.312  10.790 -0.6159 -0.8099  0.0796
 2932SOL    HW220259   3.018   3.260  10.655 -0.0289  0.9229  0.2367
 2933SOL     OW20260   1.366   3.842  11.216 -0.0058  0.1365 -0.7834
 2933SOL    HW120261   1.329   3.930  11.218 -0.1476  0.0445  0.6640
 2933SOL    HW220262   1.405   3.843  11.303  3.2122  0.7680 -2.2330
 2934SOL     OW20263   3.256   0.240   7.992 -0.3040  0.2796 -0.0682
 2934SOL    HW120264   3.237   0.325   8.032  0.4682  0.2175  0.4368
 2934SOL    HW220265   3.247   0.168   8.054 -0.6750 -1.8800 -2.6362
 2935SOL     OW20266   0.896   4.419   3.849  0.1978 -0.3735  0.2293
 2935SOL    HW120267   0.981   4.398   3.810  0.6103 -0.8469  1.3826
 2935SOL    HW220268   0.905   4.490   3.913 -0.4364  0.2133 -0.3402
 2936SOL     OW20269   3.863   4.617   3.309 -0.0946  0.3266 -0.1275
 2936SOL    HW120270   3.921   4.596   3.236 -0.6149  0.2555 -0.5270
 2936SOL    HW220271   3.819   4.532   3.303  0.9073 -0.1258 -1.1430
 2937SOL     OW20272   4.384   1.825   5.624 -0.2928 -0.1407  0.0097
 2937SOL    HW120273   4.455   1.837   5.687 -1.9205  1.6542  1.4764
 2937SOL    HW220274   4.315   1.867   5.675 -1.9242 -2.0225 -0.6645
 2938SOL     OW20275   0.263   1.849   8.761  0.1090 -0.0328 -0.3078
 2938SOL    HW120276   0.282   1.914   8.829 -1.0914  0.7367 -0.6893
 2938SOL    HW220277   0.311   1.874   8.682 -0.3081 -0.3423 -0.6588
 2939SOL     OW20278   1.502   2.791   6.946  0.0277 -1.1080 -0.6650
 2939SOL    HW120279   1.460   2.766   7.028 -0.2387 -1.0698 -0.7882
 2939SOL    HW220280   1.499   2.709   6.897  0.2479 -1.5091 -0.0095
 2940SOL     OW20281   4.191   3.161   4.690  0.2509 -0.8677  0.2578
 2940SOL    HW120282   4.183   3.090   4.627 -1.5638 -0.3221 -0.1389
 2940SOL    HW220283   4.101   3.180   4.715 -0.4357 -1.5438 -1.6929
 2941SOL     OW20284   0.353   3.468  11.502  0.3480 -0.1582  0.1064
 2941SOL    HW120285   0.336   3.514  11.584 -0.1506  0.7724 -0.5084
 2941SOL    HW220286   0.405   3.390  11.521  0.6859 -0.0212 -0.2588
 2942SOL     OW20287   1.606   3.834   5.943  0.5443  0.2498 -0.3378
 2942SOL    HW120288   1.549   3.780   5.889 -0.7263 -1.6524  2.8714
 2942SOL    HW220289   1.577   3.925   5.938 -1.3570 -0.2233  1.6668
 2943SOL     OW20290   2.307   2.505  17.597  0.5460 -1.2261  1.1694
 2943SOL    HW120291   2.245   2.480  17.665  0.7030  0.2876  1.8424
 2943SOL    HW220292   2.382   2.448  17.612  0.0673 -1.9308  0.8919
 2944SOL     OW20293   3.554   0.013  16.874  0.2259 -0.6980 -0.0245
 2944SOL    HW120294   3.581   0.013  16.966 -0.5943  0.9908  0.2042
 2944SOL    HW220295   3.635   0.049  16.837 -0.3761  1.4564  0.7988
 2945SOL     OW20296   4.628   2.934  17.289  0.2659  0.2172 -0.4403
 2945SOL    HW120297   4.542   2.893  17.293  0.4321 -0.0042  0.9212
 2945SOL    HW220298   4.655   2.876  17.219  1.4673 -0.8993  0.9513
 2946SOL     OW20299   4.305   1.439   2.252 -0.2611  0.6214  0.0498
 2946SOL    HW120300   4.263   1.360   2.219  0.6597 -0.4701  1.4539
 2946SOL    HW220301   4.298   1.492   2.173  0.3965 -0.7007 -0.8946
 2947SOL     OW20302   2.113   0.938  15.608 -0.1402 -0.0011 -0.3402
 2947SOL    HW120303   2.142   0.928  15.517  0.0090 -0.0765 -0.2835
 2947SOL    HW220304   2.048   1.007  15.595 -0.2191  0.2401  1.3812
 2948SOL     OW20305   1.585   1.804   9.348 -0.2431  0.1388 -0.3109
 2948SOL    HW120306   1.647   1.854   9.401  0.6187 -0.0562 -1.1068
 2948SOL    HW220307   1.649   1.759   9.292 -1.8446  0.0201 -2.0329
 2949SOL     OW20308   4.457   0.049   2.668 -0.2965 -0.0130 -0.5461
 2949SOL    HW120309   4.434   4.678   2.650 -0.4632  0.1017 -0.9097
 2949SOL    HW220310   4.552   0.035   2.662  0.0387  1.8103  0.5622
 2950SOL     OW20311   3.197   2.739   0.252  0.2934  0.9086 -0.0039
 2950SOL    HW120312   3.183   2.767   0.342 -0.0457  2.0599 -0.4165
 2950SOL    HW220313   3.284   2.774   0.231  0.6338  0.5931  0.8808
 2951SOL     OW20314   2.122   1.007   9.198  0.6982  0.0441 -0.2764
 2951SOL    HW120315   2.128   1.079   9.135  0.5937 -0.6679 -1.1004
 2951SOL    HW220316   2.034   1.013   9.235  1.0551  3.5273  0.0194
 2952SOL     OW20317   4.228   1.542   2.006 -0.2132 -0.2860  0.3323
 2952SOL    HW120318   4.209   1.634   1.987 -0.2991 -0.5652 -0.9601
 2952SOL    HW220319   4.221   1.498   1.921  2.1744  0.7021 -0.3776
 2953SOL     OW20320   1.155   3.160   7.754 -0.1854  0.3535 -0.5615
 2953SOL    HW120321   1.194   3.074   7.771  0.3667  0.8017  0.4278
 2953SOL    HW220322   1.067   3.132   7.730 -0.0228 -1.3763  0.9000
 2954SOL     OW20323   4.184   3.833  14.643  0.1791  0.2443 -0.0983
 2954SOL    HW120324   4.153   3.924  14.631  3.4747  1.3237 -0.2511
 2954SOL    HW220325   4.279   3.841  14.647  0.4579 -2.5538 -1.2456
 2955SOL     OW20326   2.719   3.199   6.787  0.0676  0.5974 -0.4254
 2955SOL    HW120327   2.677   3.277   6.823 -0.9321  0.2254 -0.7900
 2955SOL    HW220328   2.677   3.199   6.701  0.3935  0.7006 -0.5840
 2956SOL     OW20329   4.152   0.461   3.484  0.9021 -0.2801  0.1725
 2956SOL    HW120330   4.108   0.390   3.436 -0.9398  0.9950 -0.0522
 2956SOL    HW220331   4.209   0.412   3.543  0.0466 -3.4213 -1.5838
 2957SOL     OW20332   2.247   1.391  10.487  0.0334 -0.0243 -0.1336
 2957SOL    HW120333   2.324   1.386  10.543 -0.6026  1.8008  0.9027
 2957SOL    HW220334   2.233   1.296  10.488  2.2079 -0.3505 -0.9938
 2958SOL     OW20335   2.239   0.328   7.607 -0.0650  0.1476 -0.4520
 2958SOL    HW120336   2.160   0.288   7.568 -0.6285 -0.9067  1.7564
 2958SOL    HW220337   2.287   0.332   7.524 -1.8077 -1.9185 -1.5804
 2959SOL     OW20338   1.612   1.311  16.612 -0.0970  0.4041 -0.1810
 2959SOL    HW120339   1.601   1.265  16.695  0.4691 -2.0154 -1.4434
 2959SOL    HW220340   1.706   1.328  16.620  0.0093 -0.5359  0.5823
 2960SOL     OW20341   0.603   3.060  14.300 -0.2208 -0.2210  0.1784
 2960SOL    HW120342   0.631   3.087  14.387 -0.1714  1.5423 -0.3949
 2960SOL    HW220343   0.522   3.112  14.303  0.0190  0.1226  0.6215
 2961SOL     OW20344   4.033   1.353  15.232 -0.5976  0.1817  0.3256
 2961SOL    HW120345   3.985   1.270  15.231  0.0568 -0.2037  1.1226
 2961SOL    HW220346   3.962   1.417  15.241 -1.4980 -0.8029  0.1177
 2962SOL     OW20347   2.857   1.920  17.627 -0.7125 -0.2713  0.0776
 2962SOL    HW120348   2.935   1.868  17.645  0.9734  1.5487 -1.9679
 2962SOL    HW220349   2.884   1.977  17.555 -1.8887  2.2442  1.6512
 2963SOL     OW20350   0.542   3.956   0.911  0.3907  0.2173  0.1919
 2963SOL    HW120351   0.563   3.882   0.968  1.5771 -1.3542 -2.2555
 2963SOL    HW220352   0.525   3.915   0.826 -0.0278  1.7237 -0.4601
 2964SOL     OW20353   4.197   1.011   8.545  0.3183  0.2173  0.5260
 2964SOL    HW120354   4.264   1.063   8.590 -0.0940 -2.1172  3.7896
 2964SOL    HW220355   4.254   0.938   8.521  0.7804  0.1475  1.8199
 2965SOL     OW20356   4.315   1.041   4.100  0.6960 -0.3606 -0.5546
 2965SOL    HW120357   4.247   1.066   4.162  0.1758  2.0914 -2.0982
 2965SOL    HW220358   4.396   1.062   4.147 -0.8517  0.1774  1.8202
 2966SOL     OW20359   1.679   3.942   5.140  0.0882  0.1038  0.5135
 2966SOL    HW120360   1.597   3.947   5.091  0.9220 -3.0442 -1.1599
 2966SOL    HW220361   1.648   3.943   5.231 -0.4542 -1.6315  0.3541
 2967SOL     OW20362   0.500   0.425   7.245  0.0664  0.0490  0.0426
 2967SOL    HW120363   0.457   0.473   7.315 -0.5623  0.6979 -0.7921
 2967SOL    HW220364   0.423   0.395   7.196  0.9638 -0.0608 -1.2964
 2968SOL     OW20365   2.470   3.118   6.508  0.1470  0.2857 -0.5349
 2968SOL    HW120366   2.456   3.086   6.598 -0.8289 -0.2935 -0.8830
 2968SOL    HW220367   2.554   3.079   6.484  1.1084  2.9747 -1.4578
 2969SOL     OW20368   0.861   4.633   0.429  0.5904  0.1135  0.4606
 2969SOL    HW120369   0.862   4.581   0.348 -1.2293  2.5723 -1.1161
 2969SOL    HW220370   0.800   4.586   0.486  0.3669  0.2078  0.2951
 2970SOL     OW20371   0.010   4.442   9.394 -0.5464  0.3977 -0.1766
 2970SOL    HW120372   4.646   4.424   9.436 -1.3035  2.1140 -0.9474
 2970SOL    HW220373   4.708   4.508   9.328 -1.1662  1.9759  1.6024
 2971SOL     OW20374   1.881   4.520  10.365  0.5084  0.1832 -0.5670
 2971SOL    HW120375   1.880   4.518  10.461  1.7972 -0.6484 -0.5535
 2971SOL    HW220376   1.904   4.611  10.346 -0.8197  1.3817  3.6489
 2972SOL     OW20377   2.465   1.304   9.876  0.7859  0.1660  0.1169
 2972SOL    HW120378   2.539   1.262   9.832  1.2670  0.5927  0.5129
 2972SOL    HW220379   2.508   1.375   9.925 -0.3337 -0.6531  2.2792
 2973SOL     OW20380   3.987   0.112   9.236 -0.1584 -0.9229 -0.0974
 2973SOL    HW120381   3.916   0.109   9.299 -1.0760 -1.2412 -1.1423
 2973SOL    HW220382   4.018   0.023   9.254  1.7311 -0.4740 -1.1404
 2974SOL     OW20383   1.896   0.825  12.067 -0.7249  0.1659  0.2393
 2974SOL    HW120384   1.832   0.839  12.137  1.8297  0.8053  2.4587
 2974SOL    HW220385   1.977   0.815  12.117 -0.1159 -0.0407 -0.7849
 2975SOL     OW20386   3.524   0.742  17.428 -0.0351 -0.2444 -0.4046
 2975SOL    HW120387   3.574   0.665  17.454 -0.2921 -0.8829 -1.8017
 2975SOL    HW220388   3.581   0.778  17.360 -1.1550  1.1931 -0.5904
 2976SOL     OW20389   2.714   1.678   9.122  0.2760 -1.0610  0.5423
 2976SOL    HW120390   2.699   1.717   9.036 -0.0334 -1.9677  0.1956
 2976SOL    HW220391   2.645   1.723   9.171 -0.4766 -1.5451 -0.0881
 2977SOL     OW20392   3.516   1.694  11.027 -0.0018 -0.3354  0.4735
 2977SOL    HW120393   3.486   1.638  10.956  0.3621 -0.5601  0.5002
 2977SOL    HW220394   3.591   1.732  10.981  0.3074 -1.7400 -0.1852
 2978SOL     OW20395   1.321   2.581   6.416 -0.0362 -0.1072  0.1302
 2978SOL    HW120396   1.244   2.526   6.427  1.1692 -1.6591  0.8589
 2978SOL    HW220397   1.398   2.531   6.442  0.2438 -0.4550 -1.3481
 2979SOL     OW20398   1.268   3.810   6.131 -0.5612 -0.8702 -0.4177
 2979SOL    HW120399   1.328   3.735   6.136  0.3425  0.0851  2.7073
 2979SOL    HW220400   1.201   3.780   6.192 -0.5094 -1.0002 -0.4247
 2980SOL     OW20401   3.587   3.811   0.917  0.0513  0.2248 -0.4484
 2980SOL    HW120402   3.562   3.719   0.928 -1.9215  1.0596  1.9671
 2980SOL    HW220403   3.658   3.808   0.853  0.3561 -1.0501 -0.0531
 2981SOL     OW20404   2.104   3.794   6.898  0.0796  0.0854 -0.0602
 2981SOL    HW120405   2.061   3.851   6.834  0.8650 -1.2162 -1.7320
 2981SOL    HW220406   2.178   3.770   6.841  0.1593 -0.1860  0.1596
 2982SOL     OW20407   1.244   0.772   0.228 -0.2510  0.5390  0.5274
 2982SOL    HW120408   1.328   0.804   0.194  0.0085  0.3005  0.9405
 2982SOL    HW220409   1.187   0.772   0.151 -0.8705  0.1285  0.9941
 2983SOL     OW20410   2.970   3.598   7.461 -0.6100 -0.1005  0.2014
 2983SOL    HW120411   2.979   3.652   7.383 -0.6142  2.0124  1.6773
 2983SOL    HW220412   2.903   3.648   7.509 -0.0954  1.2618 -0.5174
 2984SOL     OW20413   1.724   3.071  10.347  0.9357  0.6083 -0.0503
 2984SOL    HW120414   1.630   3.078  10.364  0.5968 -0.5910 -1.4680
 2984SOL    HW220415   1.751   2.987  10.384  1.0489  0.1541 -1.1615
 2985SOL     OW20416   0.999   4.697   8.757  0.2330  0.2834 -0.3183
 2985SOL    HW120417   0.990   0.055   8.813 -0.3439  1.0479 -1.4674
 2985SOL    HW220418   0.905   4.675   8.754 -0.1538  1.5854  1.5523
 2986SOL     OW20419   2.108   4.322   9.926 -0.2601  0.4104  0.7783
 2986SOL    HW120420   2.079   4.361  10.008 -1.2564  0.0659  0.5917
 2986SOL    HW220421   2.027   4.301   9.881  1.4537 -1.2073 -1.5807
 2987SOL     OW20422   2.923   2.457   1.499  0.8832  0.5270  0.2346
 2987SOL    HW120423   2.833   2.471   1.469  0.6278 -1.1410  0.2276
 2987SOL    HW220424   2.918   2.363   1.516 -0.9613  0.7437  0.9028
 2988SOL     OW20425   0.354   4.336   8.156 -0.6435 -0.1673 -0.0774
 2988SOL    HW120426   0.350   4.409   8.218  1.5431 -1.3889  1.5181
 2988SOL    HW220427   0.320   4.264   8.209 -1.0720 -0.0659 -0.2125
 2989SOL     OW20428   1.733   1.938   5.826 -0.7726  0.3948  0.2853
 2989SOL    HW120429   1.744   1.900   5.739 -2.7932  0.4327  0.0155
 2989SOL    HW220430   1.809   1.897   5.866 -0.8328  1.3344  1.3687
 2990SOL     OW20431   4.306   2.409   8.393  0.4093 -1.1445 -0.0987
 2990SOL    HW120432   4.272   2.428   8.305 -0.1379 -0.4245  0.2715
 2990SOL    HW220433   4.273   2.322   8.410  0.4062 -1.2133 -0.4434
 2991SOL     OW20434   2.223   0.633  10.610 -1.0180 -0.2089 -0.0168
 2991SOL    HW120435   2.236   0.717  10.566  0.6219 -0.3096  0.2642
 2991SOL    HW220436   2.130   0.618  10.594 -0.7983  0.7727 -2.0531
 2992SOL     OW20437   4.184   0.976  15.141 -0.3525 -0.2216  0.2816
 2992SOL    HW120438   4.100   0.993  15.183 -1.1896 -0.8544 -1.1573
 2992SOL    HW220439   4.247   1.038  15.178 -0.6205 -2.0808  3.9071
 2993SOL     OW20440   2.321   0.427  16.658 -0.3008  0.8136  0.1370
 2993SOL    HW120441   2.325   0.430  16.563 -0.9098  2.7529  0.1701
 2993SOL    HW220442   2.312   0.519  16.684 -1.6852 -0.2334  3.3948
 2994SOL     OW20443   3.179   3.896   0.198 -0.2283  0.0519 -0.6431
 2994SOL    HW120444   3.236   3.967   0.170  2.9383 -1.2663  2.4387
 2994SOL    HW220445   3.243   3.825   0.209 -0.4986 -0.2142 -0.7880
 2995SOL     OW20446   2.509   1.847   2.963 -0.2260 -0.6679 -0.4345
 2995SOL    HW120447   2.469   1.767   2.996  1.0819 -1.2849 -0.3373
 2995SOL    HW220448   2.600   1.819   2.957  0.8075  2.5350 -0.1415
 2996SOL     OW20449   0.083   1.575   5.838 -0.0722 -0.2325  0.0581
 2996SOL    HW120450   0.137   1.506   5.875  1.0325  0.5513 -0.0847
 2996SOL    HW220451   4.716   1.550   5.870 -0.2312 -1.1159 -1.0459
 2997SOL     OW20452   3.479   1.073  11.294  0.2890  0.2872  0.4146
 2997SOL    HW120453   3.388   1.097  11.279  0.4515  1.2455  0.9332
 2997SOL    HW220454   3.510   1.048  11.207  0.2379  2.3177 -0.2002
 2998SOL     OW20455   1.624   0.102  10.538  0.1084 -0.5588 -0.2768
 2998SOL    HW120456   1.690   0.157  10.495  0.2210 -1.8283 -1.7641
 2998SOL    HW220457   1.540   0.144  10.522 -0.8473 -1.7844  1.5737
 2999SOL     OW20458   4.227   1.250   4.837 -0.3291  0.0330 -0.4235
 2999SOL    HW120459   4.236   1.343   4.816 -0.3807  0.1639  0.1444
 2999SOL    HW220460   4.199   1.255   4.928  0.7339  0.1911 -0.1150
 3000SOL     OW20461   4.328   1.362   4.299 -0.0307 -0.2425 -0.1012
 3000SOL    HW120462   4.326   1.373   4.204  1.8195 -0.0321 -0.1217
 3000SOL    HW220463   4.323   1.454   4.327 -0.2082 -1.0413  2.4937
 3001SOL     OW20464   2.200   0.522   8.707 -0.6608 -0.2182  0.1834
 3001SOL    HW120465   2.139   0.580   8.752 -0.6614  0.3371 -0.5374
 3001SOL    HW220466   2.154   0.504   8.625  0.9751 -3.5214  0.0032
 3002SOL     OW20467   2.869   3.592   1.486  0.1505  0.2582 -0.3315
 3002SOL    HW120468   2.865   3.499   1.465 -1.8717  0.1828  0.3779
 3002SOL    HW220469   2.776   3.617   1.482  0.2388  0.2436 -2.5180
 3003SOL     OW20470   1.722   2.972   5.686  0.6111 -0.4327  0.0252
 3003SOL    HW120471   1.759   3.055   5.657 -1.1830  0.5232  0.4588
 3003SOL    HW220472   1.669   2.996   5.763 -2.2457  0.1164 -2.1003
 3004SOL     OW20473   1.584   4.427   0.714 -0.1073 -0.1015 -0.1469
 3004SOL    HW120474   1.594   4.403   0.806  0.5816  0.4299 -0.0800
 3004SOL    HW220475   1.539   4.354   0.672 -1.6477  1.0200 -0.4674
 3005SOL     OW20476   1.787   4.597   0.641 -0.3375  0.5781 -0.1066
 3005SOL    HW120477   1.721   4.640   0.695 -0.5269 -0.5419  0.5531
 3005SOL    HW220478   1.737   4.521   0.611  1.6585 -1.1228  0.9070
 3006SOL     OW20479   3.922   4.609   4.474 -0.2807  0.3234  0.2275
 3006SOL    HW120480   3.963   4.691   4.499 -2.3842  1.4372 -0.0278
 3006SOL    HW220481   3.831   4.637   4.471  0.4700  2.5921 -1.0210
 3007SOL     OW20482   4.081   2.768   6.047 -0.0430  0.5202 -0.0244
 3007SOL    HW120483   3.995   2.809   6.061 -0.4173  0.1599 -1.3312
 3007SOL    HW220484   4.115   2.821   5.976  1.1501 -2.3423 -1.5946
 3008SOL     OW20485   2.804   1.334   7.171 -0.0836  1.1565 -0.5259
 3008SOL    HW120486   2.710   1.335   7.189 -0.0253 -0.2540 -0.1737
 3008SOL    HW220487   2.817   1.240   7.158  1.8664  1.2161  1.0773
 3009SOL     OW20488   3.541   0.261   6.324 -0.3119 -0.4426 -0.5294
 3009SOL    HW120489   3.468   0.292   6.378 -0.0913 -0.6756 -0.0964
 3009SOL    HW220490   3.601   0.234   6.394  0.5546 -0.8777 -1.4393
 3010SOL     OW20491   1.828   1.585   0.695  0.5569  0.0187  0.1998
 3010SOL    HW120492   1.781   1.518   0.645  1.6984 -0.7071  0.0782
 3010SOL    HW220493   1.803   1.558   0.784 -0.8863  0.6981 -0.0040
 3011SOL     OW20494   1.860   1.025   3.993  0.3094 -0.0984  0.2426
 3011SOL    HW120495   1.802   0.950   4.005  0.5024 -0.3359 -0.2565
 3011SOL    HW220496   1.858   1.034   3.897 -0.1963 -0.6277  0.2082
 3012SOL     OW20497   4.383   2.793   8.022  0.2127 -0.1373 -0.2743
 3012SOL    HW120498   4.322   2.786   7.949 -0.0746  0.5420 -0.0961
 3012SOL    HW220499   4.325   2.828   8.090 -0.6525 -1.5427 -0.2922
 3013SOL     OW20500   0.229   3.176   4.628 -0.3393 -0.2145  0.0428
 3013SOL    HW120501   0.270   3.251   4.583 -1.7030  0.4393 -0.0971
 3013SOL    HW220502   0.283   3.098   4.619 -0.4115 -0.3556  0.8142
 3014SOL     OW20503   1.155   3.204   4.544 -0.2867 -0.2660 -0.0540
 3014SOL    HW120504   1.105   3.171   4.469  1.0040  0.1869 -1.1094
 3014SOL    HW220505   1.211   3.129   4.565 -1.4546 -0.2902  2.8695
 3015SOL     OW20506   0.259   1.933  17.345 -0.2433  0.6472 -0.1647
 3015SOL    HW120507   0.342   1.946  17.299  0.9402 -0.7623  1.5709
 3015SOL    HW220508   0.284   1.853  17.391  3.2694  3.5920  3.0470
 3016SOL     OW20509   2.406   2.109   3.986 -0.2451  0.3529  0.5385
 3016SOL    HW120510   2.336   2.083   3.925 -0.1290 -2.4595  1.6299
 3016SOL    HW220511   2.398   2.204   3.975 -3.2643  0.3031  2.1781
 3017SOL     OW20512   2.372   3.367  12.402  0.0888 -0.1015  0.0945
 3017SOL    HW120513   2.432   3.436  12.375 -1.4276  1.1317 -0.1704
 3017SOL    HW220514   2.432   3.310  12.449 -0.5198  0.1077  1.1213
 3018SOL     OW20515   4.717   1.841   7.280  0.1993  0.3657 -0.4740
 3018SOL    HW120516   0.003   1.933   7.305 -0.6080 -0.2552  2.0212
 3018SOL    HW220517   0.084   1.820   7.246  0.7791 -0.5653  1.5623
 3019SOL     OW20518   1.484   0.418   6.584  0.2725 -0.2158 -0.0029
 3019SOL    HW120519   1.475   0.495   6.527  1.2784 -1.4249 -1.8120
 3019SOL    HW220520   1.398   0.419   6.626  0.5470 -3.1265  0.6042
 3020SOL     OW20521   3.487   3.007   5.717  0.0904 -0.0582 -0.4770
 3020SOL    HW120522   3.481   3.097   5.684  0.0500  0.1116  0.0060
 3020SOL    HW220523   3.516   3.024   5.807 -0.1159  0.1134 -0.4430
 3021SOL     OW20524   0.169   3.834  17.344  0.0010  0.1705 -0.4185
 3021SOL    HW120525   0.141   3.789  17.424 -0.0804  1.2671  0.1646
 3021SOL    HW220526   0.205   3.763  17.290  0.7928  0.1003  0.1949
 3022SOL     OW20527   2.582   4.037   6.214 -0.0809 -0.2557 -0.5568
 3022SOL    HW120528   2.516   4.064   6.150 -0.6264 -0.1496  0.0423
 3022SOL    HW220529   2.576   3.941   6.214 -1.1499 -0.1943  0.6886
 3023SOL     OW20530   1.671   4.113   4.634  0.0953  0.4670 -0.2464
 3023SOL    HW120531   1.750   4.099   4.584  0.5939 -1.2563  1.0102
 3023SOL    HW220532   1.659   4.028   4.678 -1.1492  0.6692 -0.1974
 3024SOL     OW20533   0.023   3.738   8.207  0.3619  0.0991  0.4845
 3024SOL    HW120534   0.066   3.712   8.125  0.4686  1.5975  0.0696
 3024SOL    HW220535   4.657   3.695   8.195  0.0672  1.5605 -2.6675
 3025SOL     OW20536   4.498   0.223   4.292 -0.0395 -0.2099  0.1157
 3025SOL    HW120537   4.569   0.168   4.325 -0.7231 -1.5682 -0.6767
 3025SOL    HW220538   4.424   0.162   4.288 -0.5651  0.4534 -0.2585
 3026SOL     OW20539   4.682   3.904  11.483  0.4156 -0.6279 -0.6015
 3026SOL    HW120540   0.057   3.916  11.474  0.2116 -1.2129 -3.5062
 3026SOL    HW220541   4.666   3.909  11.389  0.8719  0.0199 -0.6442
 3027SOL     OW20542   1.646   2.536   3.082  0.0353 -0.3855  0.4008
 3027SOL    HW120543   1.715   2.544   3.016 -1.5968  0.6476 -1.1814
 3027SOL    HW220544   1.653   2.618   3.130  1.0789  0.7170 -1.6876
 3028SOL     OW20545   0.298   1.255   3.927 -0.1759 -0.2549 -0.4475
 3028SOL    HW120546   0.298   1.160   3.919  0.3957 -0.2924 -0.0215
 3028SOL    HW220547   0.389   1.283   3.940  0.4656 -1.2691 -2.7628
 3029SOL     OW20548   0.427   0.286   0.980 -0.2649  0.3160 -0.1857
 3029SOL    HW120549   0.407   0.371   0.939 -2.4425 -0.3839 -0.5843
 3029SOL    HW220550   0.401   0.228   0.909  1.3973 -0.8883  0.2009
 3030SOL     OW20551   3.038   0.081   3.131  0.0226  0.1261 -0.3656
 3030SOL    HW120552   2.960   0.029   3.110 -1.0224  1.5171  0.0521
 3030SOL    HW220553   3.018   0.129   3.211 -0.0061  0.7329 -0.7309
 3031SOL     OW20554   0.344   3.082   2.941 -0.3067  0.5733  0.2471
 3031SOL    HW120555   0.435   3.098   2.966 -0.2868 -2.9274  2.4436
 3031SOL    HW220556   0.320   3.173   2.923  0.2019  0.5251 -0.6465
 3032SOL     OW20557   0.558   4.429   0.408 -0.4685 -0.1695  0.1416
 3032SOL    HW120558   0.553   4.444   0.503 -0.8628 -2.0494  0.4107
 3032SOL    HW220559   0.479   4.473   0.376 -0.3251  1.4370  1.9407
 3033SOL     OW20560   3.068   4.554   1.054  0.3011 -0.5060 -0.1970
 3033SOL    HW120561   3.004   4.613   1.094 -0.4240  1.2219 -3.9755
 3033SOL    HW220562   3.030   4.516   0.976 -0.9523  1.5758 -0.6033
 3034SOL     OW20563   0.380   2.527   8.149  0.2590 -0.3243 -0.0686
 3034SOL    HW120564   0.300   2.574   8.126  0.1824 -0.1158  0.6172
 3034SOL    HW220565   0.365   2.530   8.244  0.0024 -0.2977 -0.1085
 3035SOL     OW20566   2.523   2.667   2.980  0.2251 -0.2040  0.3045
 3035SOL    HW120567   2.581   2.649   3.054  0.8925 -0.9101 -0.3979
 3035SOL    HW220568   2.484   2.743   3.024 -1.1928  0.5155 -2.2098
 3036SOL     OW20569   2.938   2.993   4.906 -0.4052  0.1707  0.3504
 3036SOL    HW120570   2.846   2.968   4.909 -0.0930 -1.2167 -1.5946
 3036SOL    HW220571   2.951   3.004   5.001 -1.8902  0.1716  0.5588
 3037SOL     OW20572   2.222   4.086   6.933  0.6024  0.3071 -0.3281
 3037SOL    HW120573   2.200   3.999   6.968  2.7416 -0.2018 -0.2318
 3037SOL    HW220574   2.171   4.150   6.982 -1.0500  0.2616 -1.9780
 3038SOL     OW20575   2.170   3.289   7.200 -0.5769 -0.1707 -0.2754
 3038SOL    HW120576   2.213   3.292   7.115 -1.7917 -0.3168 -0.9052
 3038SOL    HW220577   2.076   3.281   7.180 -0.3029 -1.4681 -0.9978
 3039SOL     OW20578   0.957   2.353  10.731  0.3831  0.4572  0.6907
 3039SOL    HW120579   0.881   2.368  10.674 -0.5216 -2.4999  1.1356
 3039SOL    HW220580   0.930   2.279  10.785 -3.3712  0.4839 -1.1177
 3040SOL     OW20581   1.646   4.205   5.491 -0.0107 -0.1353  0.0958
 3040SOL    HW120582   1.663   4.228   5.583 -0.0400  4.1613 -0.9543
 3040SOL    HW220583   1.632   4.296   5.465 -0.2378  0.3442  1.9030
 3041SOL     OW20584   2.378   0.840   0.751 -0.1869  1.0731 -0.3267
 3041SOL    HW120585   2.414   0.839   0.662 -0.8915  2.9137 -0.6249
 3041SOL    HW220586   2.314   0.910   0.745 -1.0330  0.1737 -1.7953
 3042SOL     OW20587   1.677   1.543  16.858 -0.6222  0.5447  1.1642
 3042SOL    HW120588   1.619   1.617  16.875 -2.5000 -0.5417 -0.5841
 3042SOL    HW220589   1.760   1.590  16.870 -1.3650  1.6733  1.8735
 3043SOL     OW20590   3.159   3.580   2.920 -0.1359  0.0100  0.1391
 3043SOL    HW120591   3.213   3.502   2.905  0.3554  0.3146  0.3482
 3043SOL    HW220592   3.228   3.637   2.954  0.2959 -0.1414 -0.4687
 3044SOL     OW20593   2.228   1.566   2.485 -0.0808  0.7226  0.0185
 3044SOL    HW120594   2.154   1.507   2.473  1.3707 -0.8860 -1.1339
 3044SOL    HW220595   2.194   1.620   2.556  1.0138  1.8616 -0.3254
 3045SOL     OW20596   1.595   1.152  16.406 -0.3372  0.5962  0.1900
 3045SOL    HW120597   1.550   1.075  16.440  0.8819 -0.0949  0.2455
 3045SOL    HW220598   1.595   1.211  16.481  0.1367 -0.8348  1.3086
 3046SOL     OW20599   4.705   4.066   9.870 -0.5294  0.3493  0.0333
 3046SOL    HW120600   0.005   3.997   9.807 -0.0281  0.9314 -0.4603
 3046SOL    HW220601   0.048   4.134   9.843 -1.2270  1.1541  0.4616
 3047SOL     OW20602   2.160   3.129   9.434 -0.2211 -0.4055  0.2660
 3047SOL    HW120603   2.137   3.148   9.343 -0.0182  3.2302  0.9882
 3047SOL    HW220604   2.240   3.077   9.426 -1.7484 -2.9450  1.4064
 3048SOL     OW20605   0.342   2.008   0.994 -0.5445  0.2475 -0.5749
 3048SOL    HW120606   0.335   2.101   1.015 -1.5054  0.4648 -1.8763
 3048SOL    HW220607   0.409   1.979   1.055  0.2898 -0.0308 -1.6418
 3049SOL     OW20608   1.201   0.295   4.024  0.6696 -0.4352  0.0189
 3049SOL    HW120609   1.161   0.318   3.940 -2.8693 -1.6033  1.4055
 3049SOL    HW220610   1.251   0.376   4.022 -0.9512  0.5288 -1.5901
 3050SOL     OW20611   3.675   2.737   9.515  0.2323 -0.5499  0.8003
 3050SOL    HW120612   3.627   2.817   9.496 -0.5165 -1.1764  0.0316
 3050SOL    HW220613   3.601   2.679   9.534  2.1533 -2.5361  2.2565
 3051SOL     OW20614   0.653   3.634  17.239 -0.0427  0.0709 -0.4968
 3051SOL    HW120615   0.737   3.605  17.204 -0.9192 -2.5317 -0.4045
 3051SOL    HW220616   0.663   3.617  17.333  1.2911 -1.5541 -0.9228
 3052SOL     OW20617   1.496   1.883   9.743 -0.0538 -0.8534 -0.0572
 3052SOL    HW120618   1.580   1.895   9.787 -0.2397 -1.2290  0.4088
 3052SOL    HW220619   1.499   1.789   9.722  3.0502 -0.6152 -0.7240
 3053SOL     OW20620   3.831   2.827   8.312  0.6495 -0.4200  0.3543
 3053SOL    HW120621   3.781   2.908   8.309  0.8174 -0.3203  0.2382
 3053SOL    HW220622   3.834   2.805   8.405  1.6714  0.2775  0.4827
 3054SOL     OW20623   2.697   1.321   1.433 -0.5877  0.0357 -0.0759
 3054SOL    HW120624   2.639   1.301   1.359 -2.0114 -2.3581  1.6966
 3054SOL    HW220625   2.652   1.401   1.462  0.6414  1.1861 -1.3580
 3055SOL     OW20626   1.518   3.511   7.320 -0.0222 -0.2899  0.2093
 3055SOL    HW120627   1.543   3.551   7.237  1.5303  1.4629  1.5229
 3055SOL    HW220628   1.555   3.578   7.378  0.1148 -0.9323  0.8616
 3056SOL     OW20629   0.819   2.633   7.324 -0.0859  0.1273  0.0561
 3056SOL    HW120630   0.788   2.555   7.370  1.1624  0.5826  1.6494
 3056SOL    HW220631   0.913   2.635   7.343  0.3537  1.0495 -2.2229
 3057SOL     OW20632   2.975   2.379  14.198  0.0107 -0.4338  0.0564
 3057SOL    HW120633   2.900   2.349  14.250 -0.5375  0.6705 -0.0890
 3057SOL    HW220634   2.991   2.317  14.127  0.4296 -2.0317  1.5264
 3058SOL     OW20635   3.948   3.764   4.306  0.2717 -1.0753  0.1145
 3058SOL    HW120636   4.000   3.773   4.385  0.0656  1.9848 -0.0828
 3058SOL    HW220637   3.976   3.675   4.284  0.4649 -1.2351  1.0118
 3059SOL     OW20638   2.429   2.359   0.549 -0.7628  1.0350 -0.5203
 3059SOL    HW120639   2.348   2.327   0.589  0.1844 -0.5672  0.1067
 3059SOL    HW220640   2.474   2.274   0.543 -0.9773  0.6260  4.0389
 3060SOL     OW20641   0.038   3.028  13.101  0.0842  0.8018 -0.3364
 3060SOL    HW120642   0.027   3.121  13.083  0.6982  0.5751 -1.8573
 3060SOL    HW220643   0.133   3.015  13.109 -0.1700 -0.7330  0.0329
 3061SOL     OW20644   2.222   0.695   4.910  0.2318 -0.8511 -0.7115
 3061SOL    HW120645   2.284   0.624   4.893  0.5861 -0.5353 -0.7440
 3061SOL    HW220646   2.139   0.650   4.917  0.1040 -0.8224 -2.0504
 3062SOL     OW20647   2.370   4.147   1.079 -0.2357 -0.1393  0.4267
 3062SOL    HW120648   2.405   4.085   1.015  2.3888  1.6126  0.1710
 3062SOL    HW220649   2.335   4.219   1.027  0.4197  0.4973  0.8852
 3063SOL     OW20650   0.752   0.662   5.653  0.0374  0.0197 -0.0803
 3063SOL    HW120651   0.749   0.702   5.740  0.3855 -1.9503  0.8474
 3063SOL    HW220652   0.668   0.693   5.619 -0.4219  0.1778  1.1886
 3064SOL     OW20653   2.349   2.111   1.631 -0.0699  0.7939 -0.1112
 3064SOL    HW120654   2.301   2.055   1.571  3.4615 -2.4280  0.0842
 3064SOL    HW220655   2.436   2.071   1.636 -0.8174 -0.6672  1.1214
 3065SOL     OW20656   0.532   0.748   4.444  0.2290 -0.7597  0.3122
 3065SOL    HW120657   0.545   0.715   4.355 -2.7394 -0.6637 -0.1449
 3065SOL    HW220658   0.533   0.668   4.496  0.6706 -0.8302  0.1961
 3066SOL     OW20659   3.104   3.452   3.469  0.3560  0.3447 -0.2988
 3066SOL    HW120660   3.194   3.463   3.436 -0.1897  0.0015 -1.9087
 3066SOL    HW220661   3.071   3.385   3.409 -0.9264 -0.9254  1.8348
 3067SOL     OW20662   4.445   1.813   2.126  0.1147  0.2109 -0.1201
 3067SOL    HW120663   4.397   1.736   2.156  0.1916  0.3837  0.4340
 3067SOL    HW220664   4.409   1.838   2.041 -1.0848 -3.5796 -0.7337
 3068SOL     OW20665   0.326   1.954  16.431  0.2233  0.2000  0.4614
 3068SOL    HW120666   0.260   2.005  16.478 -0.4911 -0.8045  0.5545
 3068SOL    HW220667   0.296   1.979  16.343  1.1392 -2.4674 -0.6222
 3069SOL     OW20668   0.917   4.570   5.608  0.3929  0.0417 -0.4757
 3069SOL    HW120669   0.927   4.555   5.514  0.6074 -1.4387 -0.2170
 3069SOL    HW220670   0.909   4.666   5.610  1.3609  0.1034  1.3661
 3070SOL     OW20671   4.231   1.569  16.999 -0.3193  0.3984  1.0755
 3070SOL    HW120672   4.238   1.501  16.932 -0.8781  0.9273  0.4775
 3070SOL    HW220673   4.324   1.592  17.009 -0.1129 -0.3042  0.7015
 3071SOL     OW20674   3.256   1.573   2.056  0.2663  0.8385 -0.0457
 3071SOL    HW120675   3.262   1.582   1.961  0.1457 -0.0303 -0.1341
 3071SOL    HW220676   3.285   1.661   2.081 -1.5403  0.8889  1.9125
 3072SOL     OW20677   0.209   4.304   2.270  0.5726 -0.1780 -0.6724
 3072SOL    HW120678   0.144   4.272   2.207  3.3883 -1.6266 -2.8390
 3072SOL    HW220679   0.263   4.226   2.280  0.3045 -0.2251  0.3313
 3073SOL     OW20680   4.400   3.715   1.975  0.1262  0.0780  0.0820
 3073SOL    HW120681   4.308   3.689   1.980 -0.4566  2.3031  1.0353
 3073SOL    HW220682   4.421   3.700   1.883  1.0327  2.6058 -0.1168
 3074SOL     OW20683   2.487   2.918   8.527 -0.2385 -0.5226  0.1867
 3074SOL    HW120684   2.477   2.842   8.469 -0.8399 -0.2931 -0.0109
 3074SOL    HW220685   2.555   2.966   8.480  0.2671 -0.3194  1.1246
 3075SOL     OW20686   3.223   1.611   4.385 -0.1588  0.1828  0.4492
 3075SOL    HW120687   3.257   1.693   4.348  2.4286 -2.3287 -2.7059
 3075SOL    HW220688   3.131   1.627   4.404 -0.7644 -2.7011 -0.1634
 3076SOL     OW20689   0.043   2.864   5.273 -0.1162 -0.1451  0.0142
 3076SOL    HW120690   4.677   2.878   5.230 -0.0546 -2.2416 -0.7790
 3076SOL    HW220691   0.022   2.791   5.331  0.5608 -0.3184  0.0413
 3077SOL     OW20692   3.765   0.646   2.926  0.1585  0.4826 -0.2480
 3077SOL    HW120693   3.710   0.670   2.852 -0.2822 -0.1720 -0.1267
 3077SOL    HW220694   3.731   0.557   2.930 -0.4441  0.6911 -0.8040
 3078SOL     OW20695   1.821   4.211   9.426  0.0251 -0.1265  0.0926
 3078SOL    HW120696   1.767   4.220   9.348  0.9232  1.3288 -0.3872
 3078SOL    HW220697   1.840   4.118   9.439 -0.9086 -0.5754 -1.9631
 3079SOL     OW20698   4.401   1.184  17.267 -0.3234 -0.2836 -0.3034
 3079SOL    HW120699   4.393   1.278  17.254  2.0769  0.0610  0.7160
 3079SOL    HW220700   4.489   1.195  17.304 -0.6768 -2.2121  1.1162
 3080SOL     OW20701   3.184   3.396   1.559  0.5613  0.1436 -0.2916
 3080SOL    HW120702   3.199   3.301   1.560  1.4359  0.2779 -0.3203
 3080SOL    HW220703   3.192   3.415   1.466  0.1818  0.0439 -0.3456
 3081SOL     OW20704   3.433   1.213  12.631 -0.3165 -0.6138  0.2622
 3081SOL    HW120705   3.348   1.244  12.598  0.1212 -0.2009 -0.4652
 3081SOL    HW220706   3.409   1.127  12.664 -1.6358 -0.6588 -0.8052
 3082SOL     OW20707   4.578   3.593   7.775  1.0635 -0.0059 -0.1972
 3082SOL    HW120708   4.554   3.575   7.866  1.4586  0.0596 -0.0795
 3082SOL    HW220709   4.613   3.510   7.743 -1.2547 -1.1069  0.1207
 3083SOL     OW20710   2.645   1.803   9.697  0.2548 -0.1273  0.2309
 3083SOL    HW120711   2.695   1.779   9.619  0.2257  0.5356  0.0074
 3083SOL    HW220712   2.557   1.780   9.667  1.4769 -3.2777 -1.0064
 3084SOL     OW20713   1.463   0.985   4.823 -0.3963 -0.6049  0.0809
 3084SOL    HW120714   1.492   1.075   4.809 -0.7741 -0.3077  1.2132
 3084SOL    HW220715   1.539   0.931   4.804 -1.8294 -1.8217 -2.2625
 3085SOL     OW20716   0.782   3.441   5.200 -1.0480 -0.3536  0.0337
 3085SOL    HW120717   0.781   3.518   5.143  0.2297 -0.2865  0.1173
 3085SOL    HW220718   0.864   3.395   5.182 -0.0093  1.6203 -0.1878
 3086SOL     OW20719   1.196   1.750   0.192 -0.4169 -0.5374  0.4705
 3086SOL    HW120720   1.111   1.774   0.155  0.0217 -0.9007 -0.7494
 3086SOL    HW220721   1.204   1.655   0.182  2.5184 -0.3774  1.3792
 3087SOL     OW20722   3.474   0.442   1.428  0.1818 -0.3531 -0.0264
 3087SOL    HW120723   3.462   0.482   1.341 -1.5022  0.8368  0.7575
 3087SOL    HW220724   3.384   0.419   1.453  0.0392 -0.3057 -0.4811
 3088SOL     OW20725   3.320   4.101   0.087 -0.0988 -0.4022  0.3517
 3088SOL    HW120726   3.350   4.107  17.677 -0.2566  2.6410  0.5179
 3088SOL    HW220727   3.256   4.172   0.082 -0.0372 -0.2621  1.6636
 3089SOL     OW20728   2.083   2.179   0.226 -0.0451  0.0520 -0.2734
 3089SOL    HW120729   2.082   2.185   0.321 -1.6357  0.7308 -0.3274
 3089SOL    HW220730   2.045   2.092   0.210 -0.8277  0.4665 -0.6909
 3090SOL     OW20731   4.637   4.306   8.144  0.0585 -0.0123 -0.2796
 3090SOL    HW120732   4.617   4.236   8.205  0.3849  2.0159  2.1579
 3090SOL    HW220733   4.612   4.260   8.064  1.6421 -1.3723  0.0163
 3091SOL     OW20734   2.406   4.397  10.593 -0.2593 -0.4138  0.2009
 3091SOL    HW120735   2.442   4.317  10.554  1.0540  0.3281 -0.1248
 3091SOL    HW220736   2.335   4.354  10.641  0.2855 -1.0593  0.4320
 3092SOL     OW20737   4.405   1.489   2.508 -0.1316  0.1288  0.5050
 3092SOL    HW120738   4.405   1.393   2.507  0.6289  0.1271  0.9045
 3092SOL    HW220739   4.348   1.491   2.431  0.1304 -1.4705  0.2601
 3093SOL     OW20740   0.308   3.443   6.069 -0.8702 -0.4603 -0.0968
 3093SOL    HW120741   0.365   3.381   6.116  1.0721  1.1719 -0.2917
 3093SOL    HW220742   0.255   3.381   6.020  1.0624 -2.3886  0.2590
 3094SOL     OW20743   3.818   1.487   5.268 -0.0879  0.6411  0.7605
 3094SOL    HW120744   3.857   1.565   5.308 -0.8425  0.7138  1.3477
 3094SOL    HW220745   3.892   1.437   5.234 -0.1839  1.3119 -0.4287
 3095SOL     OW20746   4.671   0.666   5.102 -0.4456 -0.2642  0.4850
 3095SOL    HW120747   4.695   0.759   5.094 -2.0412  0.2268  1.3576
 3095SOL    HW220748   0.039   0.633   5.125 -0.6036 -2.0293 -1.4119
 3096SOL     OW20749   3.720   1.640   8.310  0.5191  0.0875 -0.3862
 3096SOL    HW120750   3.744   1.576   8.377  0.6472  1.6780  1.0770
 3096SOL    HW220751   3.814   1.652   8.296  0.5781 -0.8953 -0.8454
 3097SOL     OW20752   3.544   1.618   2.912 -0.1865 -0.3022 -0.3264
 3097SOL    HW120753   3.603   1.689   2.885  1.7677 -1.7364  0.1633
 3097SOL    HW220754   3.469   1.669   2.942 -1.3234 -1.8384 -0.5958
 3098SOL     OW20755   3.724   1.124  10.311 -0.5803  0.0287 -0.4564
 3098SOL    HW120756   3.699   1.193  10.372  0.8345  0.8178 -0.7719
 3098SOL    HW220757   3.814   1.142  10.284 -0.3917 -0.5818 -0.2364
 3099SOL     OW20758   3.156   0.279   5.485  0.0570  0.1795  0.1072
 3099SOL    HW120759   3.169   0.190   5.453 -0.0734 -0.5285  2.0432
 3099SOL    HW220760   3.064   0.279   5.514 -0.1785  2.6263 -0.6553
 3100SOL     OW20761   3.960   1.186   5.158 -0.2952 -0.5631 -0.4012
 3100SOL    HW120762   4.027   1.245   5.122  0.8028 -1.7170 -0.2460
 3100SOL    HW220763   3.919   1.151   5.078 -0.4090 -0.9255 -0.1852
 3101SOL     OW20764   2.686   2.705  14.145 -0.2726  0.3610 -0.3497
 3101SOL    HW120765   2.680   2.690  14.240  0.7096  1.0819 -0.1743
 3101SOL    HW220766   2.636   2.629  14.114  0.2298 -0.5469  1.0229
 3102SOL     OW20767   1.796   1.553  12.982  0.2900  0.1066  0.0542
 3102SOL    HW120768   1.842   1.637  12.991 -1.8265  1.3432 -0.5100
 3102SOL    HW220769   1.831   1.520  12.899  0.0048 -2.1787  0.8702
 3103SOL     OW20770   1.745   3.051   7.559  0.2976 -0.2254 -0.5104
 3103SOL    HW120771   1.746   3.036   7.654 -3.5782 -3.0810 -0.8788
 3103SOL    HW220772   1.832   3.085   7.541  0.4331 -2.3072 -3.7775
 3104SOL     OW20773   1.013   1.148  13.467  0.1456  0.3806 -0.3899
 3104SOL    HW120774   0.985   1.156  13.376 -2.2326  0.9222  0.3801
 3104SOL    HW220775   0.932   1.165  13.516 -0.5226 -0.9114 -1.0428
 3105SOL     OW20776   2.651   1.350  15.478 -0.2509 -0.2969 -0.0958
 3105SOL    HW120777   2.577   1.361  15.419 -0.3640  0.5084  0.2044
 3105SOL    HW220778   2.733   1.356  15.429  0.4657  0.1265  1.1490
 3106SOL     OW20779   2.545   4.346   3.363 -0.1827  0.6064 -0.1669
 3106SOL    HW120780   2.460   4.366   3.402 -0.2936  0.4583 -0.3374
 3106SOL    HW220781   2.523   4.323   3.273 -0.1976 -0.0855  0.0133
 3107SOL     OW20782   2.310   3.498  14.739 -0.1378  0.1563  1.1175
 3107SOL    HW120783   2.307   3.414  14.785  0.3093 -0.3391  0.2503
 3107SOL    HW220784   2.400   3.523  14.757  0.0963 -0.0905  0.2798
 3108SOL     OW20785   2.899   1.233   7.526  0.0813 -0.5836 -0.2883
 3108SOL    HW120786   2.920   1.164   7.588 -1.3166  1.5030  2.5001
 3108SOL    HW220787   2.876   1.308   7.581  3.5522 -0.8986  1.5862
 3109SOL     OW20788   3.672   3.134  10.624  0.3218  0.0104  0.0050
 3109SOL    HW120789   3.669   3.230  10.618  2.2415  0.0189 -0.9687
 3109SOL    HW220790   3.763   3.122  10.597 -0.6542 -2.5416 -2.1927
 3110SOL     OW20791   1.736   2.961   8.196 -0.0241  0.4489  0.1641
 3110SOL    HW120792   1.824   2.999   8.194 -0.5101  1.5470 -0.5904
 3110SOL    HW220793   1.689   3.015   8.260  0.2963  1.4053 -0.4010
 3111SOL     OW20794   3.992   3.607   2.795  0.0495 -0.4778 -0.3114
 3111SOL    HW120795   3.955   3.578   2.712  0.9517 -0.1800 -0.8122
 3111SOL    HW220796   4.074   3.647   2.765  1.7540 -3.0577  0.9114
 3112SOL     OW20797   2.681   2.381  12.629 -0.2759 -0.1801 -0.1302
 3112SOL    HW120798   2.769   2.417  12.629 -0.3139 -0.1362  2.4996
 3112SOL    HW220799   2.636   2.450  12.679  1.7971  2.8035 -2.3741
 3113SOL     OW20800   0.244   4.170   3.653  0.2739  0.1101 -0.5678
 3113SOL    HW120801   0.234   4.075   3.648  1.8213 -0.0428 -1.0993
 3113SOL    HW220802   0.327   4.188   3.608  2.2519 -2.5190  2.0700
 3114SOL     OW20803   0.028   3.071   6.913 -0.0017  0.5354 -0.4818
 3114SOL    HW120804   0.006   3.007   6.845 -0.6532 -0.1426  0.3571
 3114SOL    HW220805   4.688   3.145   6.902 -1.1386  0.4682  5.0200
 3115SOL     OW20806   4.391   0.402   4.777  0.4352  0.2025  0.1912
 3115SOL    HW120807   4.320   0.465   4.762  0.8332  0.1852 -1.7014
 3115SOL    HW220808   4.437   0.403   4.693 -2.2645 -1.9947 -1.3247
 3116SOL     OW20809   0.475   0.001  14.514  0.3226 -0.1700 -0.0071
 3116SOL    HW120810   0.493   4.646  14.572  0.5333  0.7779  1.1421
 3116SOL    HW220811   0.407   4.675  14.464  0.1665  0.1279 -0.0633
 3117SOL     OW20812   1.343   3.082   6.452 -0.1296 -0.3880  0.2280
 3117SOL    HW120813   1.344   3.129   6.535 -0.9481 -0.1652  0.1119
 3117SOL    HW220814   1.384   2.996   6.464  0.2761  0.1794  2.7621
 3118SOL     OW20815   0.064   4.014   8.180 -0.2735  0.5447  0.5653
 3118SOL    HW120816   4.692   4.019   8.209  0.0526  1.0641  1.5188
 3118SOL    HW220817   0.086   3.922   8.198  0.8341  0.3994 -1.6063
 3119SOL     OW20818   0.132   3.802   2.611 -0.1396  0.3390 -0.2101
 3119SOL    HW120819   0.167   3.743   2.544 -2.3346 -0.5619 -0.5751
 3119SOL    HW220820   0.043   3.815   2.577 -0.2761  0.1574  0.0746
 3120SOL     OW20821   1.225   2.375   6.115 -0.2998 -0.1210  0.0059
 3120SOL    HW120822   1.153   2.347   6.171 -0.1229 -0.5710  0.0098
 3120SOL    HW220823   1.178   2.439   6.061  0.4975 -1.3612 -2.1626
 3121SOL     OW20824   0.286   3.717   0.851  0.0367 -0.4512  0.4730
 3121SOL    HW120825   0.343   3.647   0.882  2.3840  0.9169 -0.7259
 3121SOL    HW220826   0.277   3.766   0.933  0.1758 -0.2419  0.3643
 3122SOL     OW20827   3.810   2.297   7.424 -0.6536 -1.0030 -0.3144
 3122SOL    HW120828   3.776   2.320   7.511 -1.8575 -0.0002 -1.0489
 3122SOL    HW220829   3.822   2.202   7.429  0.6819 -0.8845 -1.4917
 3123SOL     OW20830   3.598   2.637   4.763  0.2275  0.0435  0.7332
 3123SOL    HW120831   3.583   2.709   4.824 -0.6123  0.0195  0.5568
 3123SOL    HW220832   3.692   2.625   4.775  0.2779  0.3550  0.6545
 3124SOL     OW20833   0.480   3.141   5.329 -0.1286  0.1895 -0.0959
 3124SOL    HW120834   0.569   3.112   5.309  1.1095  2.3236  2.2451
 3124SOL    HW220835   0.497   3.235   5.331  3.4615 -0.4666 -0.1971
 3125SOL     OW20836   2.580   4.654   3.381 -0.1884 -0.0845 -0.3170
 3125SOL    HW120837   2.570   0.029   3.373  0.0369  0.0434  0.7941
 3125SOL    HW220838   2.514   4.624   3.319 -0.8707 -1.5348  1.0901
 3126SOL     OW20839   2.375   0.749   9.938  0.1471  0.8117 -0.7566
 3126SOL    HW120840   2.304   0.694   9.971  2.6565 -0.0945  3.1066
 3126SOL    HW220841   2.334   0.835   9.949 -0.1034  0.9599 -2.8432
 3127SOL     OW20842   1.449   1.051   8.057  0.0848 -0.0112  0.0307
 3127SOL    HW120843   1.426   1.031   7.966 -1.0067  0.1563  0.2718
 3127SOL    HW220844   1.439   0.963   8.095  2.0476  0.6647  2.0949
 3128SOL     OW20845   3.721   0.318   7.702 -0.3976 -1.0405 -0.2292
 3128SOL    HW120846   3.629   0.294   7.704 -0.6219 -0.3407 -2.9355
 3128SOL    HW220847   3.759   0.284   7.621 -0.2396 -0.8615 -0.2324
 3129SOL     OW20848   0.461   0.913   3.933 -0.5331 -0.1142 -0.1069
 3129SOL    HW120849   0.403   0.951   3.999  2.0382  1.6600  1.1215
 3129SOL    HW220850   0.431   0.972   3.863 -1.5195 -0.1113  0.3138
 3130SOL     OW20851   1.486   2.571   5.593 -0.1502  0.3813  0.0138
 3130SOL    HW120852   1.463   2.537   5.680 -1.2811  0.5913 -0.2079
 3130SOL    HW220853   1.569   2.524   5.583  0.0669  0.7376  0.1458
 3131SOL     OW20854   3.948   1.563   1.612  0.0172  0.4198  0.1057
 3131SOL    HW120855   3.981   1.567   1.522 -0.3268 -1.5214 -0.0970
 3131SOL    HW220856   3.855   1.545   1.600 -0.0676 -1.1410  3.1064
 3132SOL     OW20857   3.510   4.105   4.639  0.4941 -0.2422  0.2737
 3132SOL    HW120858   3.471   4.189   4.615  1.8639  0.8774  1.9456
 3132SOL    HW220859   3.486   4.043   4.570  0.3114 -0.3186  0.4073
 3133SOL     OW20860   1.332   3.744   6.507 -0.4456 -0.4503  0.2742
 3133SOL    HW120861   1.267   3.748   6.438  0.8764 -0.5223 -0.9846
 3133SOL    HW220862   1.375   3.830   6.502 -2.1979  0.3511 -0.7487
 3134SOL     OW20863   3.132   1.964   6.908  0.1381  0.0837  0.6510
 3134SOL    HW120864   3.193   1.958   6.981  0.5900  1.0382  0.3414
 3134SOL    HW220865   3.044   1.955   6.945  0.3956  0.6660  1.3793
 3135SOL     OW20866   4.141   4.215   5.956  0.3180  0.2822 -0.2535
 3135SOL    HW120867   4.176   4.262   5.880  1.8341  0.2491  0.4126
 3135SOL    HW220868   4.170   4.278   6.022  3.0182 -2.2982  1.0634
 3136SOL     OW20869   2.695   1.508   4.619 -0.0822  0.0315 -0.2638
 3136SOL    HW120870   2.618   1.520   4.564 -1.2861 -0.3297  1.3609
 3136SOL    HW220871   2.764   1.554   4.570  0.3230 -0.4708 -0.1613
 3137SOL     OW20872   4.411   0.913  16.731  0.7875 -0.6028 -0.5600
 3137SOL    HW120873   4.419   0.875  16.643  1.7703 -0.0268 -0.7157
 3137SOL    HW220874   4.496   0.884  16.764  1.2366  1.3852  0.0479
 3138SOL     OW20875   1.543   0.636  13.784  0.2244 -0.1764 -0.0936
 3138SOL    HW120876   1.565   0.646  13.876 -0.4144  2.0290 -0.1729
 3138SOL    HW220877   1.572   0.714  13.736 -0.2770  0.9824  1.4859
 3139SOL     OW20878   2.717   2.067  10.023 -0.2249  0.0031  0.4104
 3139SOL    HW120879   2.750   1.980  10.046 -2.7199 -1.0063  0.1762
 3139SOL    HW220880   2.740   2.110  10.105  3.6110 -2.7672  0.8039
 3140SOL     OW20881   1.445   3.976   6.543 -0.0055 -0.0341  0.3039
 3140SOL    HW120882   1.536   3.978   6.573 -0.1562 -0.0763  0.7749
 3140SOL    HW220883   1.428   4.066   6.515 -3.7189 -1.1640 -0.9742
 3141SOL     OW20884   2.864   3.928   2.723  0.1131  0.1384 -0.1180
 3141SOL    HW120885   2.894   3.837   2.721 -4.0325 -1.2041 -1.7650
 3141SOL    HW220886   2.912   3.962   2.647  1.3919  2.1338  1.5953
 3142SOL     OW20887   3.536   2.265   4.506 -0.1811  0.0288  0.0156
 3142SOL    HW120888   3.628   2.291   4.498  0.4563 -2.3156 -0.1620
 3142SOL    HW220889   3.523   2.283   4.599 -0.9491 -0.1658 -0.0506
 3143SOL     OW20890   3.795   2.979   5.122  0.0958  0.1342 -0.5721
 3143SOL    HW120891   3.752   3.062   5.101 -2.8979 -0.7199  2.1470
 3143SOL    HW220892   3.860   3.020   5.180 -0.8945  0.0661  0.5837
 3144SOL     OW20893   2.675   4.126   4.827 -0.0726 -0.1504  0.4679
 3144SOL    HW120894   2.588   4.119   4.866 -0.6728 -0.0641 -0.8775
 3144SOL    HW220895   2.694   4.219   4.818 -0.8817 -0.1021 -0.7775
 3145SOL     OW20896   0.090   1.202  11.193  0.1606 -0.6535 -0.3986
 3145SOL    HW120897   0.103   1.228  11.284 -3.5938 -1.1705  0.2767
 3145SOL    HW220898   0.106   1.288  11.153 -1.6470 -0.5791 -0.9699
 3146SOL     OW20899   4.273   3.984   8.551 -0.1059  0.4375  0.4007
 3146SOL    HW120900   4.336   4.001   8.481  0.4851  0.3532  0.9049
 3146SOL    HW220901   4.246   3.892   8.539 -2.5076  1.5634 -2.8434
 3147SOL     OW20902   4.456   1.532   5.321  0.6298  0.4476 -0.2360
 3147SOL    HW120903   4.405   1.453   5.336  0.8129 -0.3434 -3.8177
 3147SOL    HW220904   4.490   1.515   5.234 -1.1029  1.4001 -1.1084
 3148SOL     OW20905   1.392   3.558   6.154  0.1871  0.0319 -0.3374
 3148SOL    HW120906   1.478   3.590   6.182  0.6004  0.2152 -1.7821
 3148SOL    HW220907   1.394   3.484   6.214  0.9930 -0.7804 -1.3646
 3149SOL     OW20908   3.054   4.593  15.431 -0.0566  0.4279 -0.3671
 3149SOL    HW120909   2.982   4.573  15.491 -0.9207  0.0787 -1.5127
 3149SOL    HW220910   3.111   4.641  15.490 -0.3233 -0.0089  0.2412
 3150SOL     OW20911   3.248   4.207  11.357 -0.6368 -0.5817  0.5764
 3150SOL    HW120912   3.325   4.250  11.321 -1.3999  0.8603  0.6715
 3150SOL    HW220913   3.186   4.226  11.287  1.0120  4.3545  0.4454
 3151SOL     OW20914   1.568   2.687   9.225  0.1329  0.2898  0.3827
 3151SOL    HW120915   1.535   2.776   9.237 -0.3665 -0.2475  2.8380
 3151SOL    HW220916   1.620   2.681   9.305 -0.8073 -2.3333  0.8032
 3152SOL     OW20917   3.484   1.588   7.636 -0.1520 -0.0109  0.3466
 3152SOL    HW120918   3.389   1.580   7.629 -0.2537  0.4740  1.2026
 3152SOL    HW220919   3.493   1.658   7.571 -1.6410  0.4571  0.6633
 3153SOL     OW20920   1.980   4.006   7.134  0.4756  0.4052  0.2842
 3153SOL    HW120921   1.925   3.980   7.060 -1.0720 -0.3316  1.6972
 3153SOL    HW220922   1.985   3.918   7.173 -0.2816 -0.2066 -1.0139
 3154SOL     OW20923   2.366   4.420   6.577 -0.0962  0.2678 -0.7531
 3154SOL    HW120924   2.291   4.370   6.545  0.6901 -1.3723 -0.0191
 3154SOL    HW220925   2.423   4.395   6.504  1.0864 -1.3784  0.7544
 3155SOL     OW20926   0.218   2.512   5.006  0.8635 -0.0989  0.2760
 3155SOL    HW120927   0.293   2.541   5.058  0.6772 -0.9112  0.9942
 3155SOL    HW220928   0.206   2.425   5.045 -1.5724 -0.2368 -0.7764
 3156SOL     OW20929   2.735   4.002  14.907 -0.1666 -0.0467  0.6250
 3156SOL    HW120930   2.673   3.961  14.966 -1.1235 -0.6241 -0.7797
 3156SOL    HW220931   2.772   4.066  14.968 -1.7858  0.9750  0.5341
 3157SOL     OW20932   3.543   0.760   4.703 -0.1072  0.3993  0.4688
 3157SOL    HW120933   3.616   0.721   4.751 -0.5506 -0.8201  0.1598
 3157SOL    HW220934   3.512   0.831   4.759 -0.3603 -1.0060  2.1212
 3158SOL     OW20935   3.539   4.262   7.159 -0.0759 -0.5290 -0.2335
 3158SOL    HW120936   3.559   4.229   7.071 -0.7182 -1.1634 -0.1455
 3158SOL    HW220937   3.456   4.214   7.164 -1.1914  1.0831 -3.1927
 3159SOL     OW20938   1.580   4.467   5.443 -0.5702  0.0766  0.3816
 3159SOL    HW120939   1.649   4.524   5.477 -0.3347  1.1375 -1.8859
 3159SOL    HW220940   1.563   4.516   5.362 -2.6747 -0.3092  0.5990
 3160SOL     OW20941   3.667   1.147  17.147  0.2953 -0.2904  0.3320
 3160SOL    HW120942   3.702   1.203  17.078 -1.2844  0.3433  0.0381
 3160SOL    HW220943   3.577   1.180  17.150  0.6442  0.5381  1.6002
 3161SOL     OW20944   3.209   2.435   1.490  0.2309  0.1776 -0.0107
 3161SOL    HW120945   3.114   2.438   1.497  0.3260  2.9237 -0.1640
 3161SOL    HW220946   3.222   2.521   1.451 -0.7073  0.6502  0.7320
 3162SOL     OW20947   1.342   4.637   3.568  0.5962 -0.2123  0.4548
 3162SOL    HW120948   1.294   4.576   3.624  0.3024  1.6959  2.2675
 3162SOL    HW220949   1.423   4.587   3.556  0.1812 -0.8401  0.2185
 3163SOL     OW20950   4.325   2.381  13.610  0.2677  0.5644 -0.3490
 3163SOL    HW120951   4.310   2.335  13.528  0.1428  0.5782 -0.3346
 3163SOL    HW220952   4.236   2.378  13.645  0.4950  1.8333  0.3365
 3164SOL     OW20953   3.501   0.858   5.537 -0.0144 -0.1351 -0.7870
 3164SOL    HW120954   3.426   0.869   5.596  0.6922  1.7793 -0.2407
 3164SOL    HW220955   3.472   0.849   5.446 -1.4585 -0.2224 -0.3260
 3165SOL     OW20956   2.611   1.799  17.661 -0.1869  0.1920  0.4289
 3165SOL    HW120957   2.698   1.839  17.657 -0.2274  0.3463  1.0912
 3165SOL    HW220958   2.560   1.879  17.679 -0.9406 -0.5245  1.5396
 3166SOL     OW20959   0.396   3.547   3.018 -0.7663  0.2052 -0.3895
 3166SOL    HW120960   0.314   3.591   2.996 -1.3733 -1.2835 -1.1473
 3166SOL    HW220961   0.366   3.469   3.066  0.9840  1.9031  3.3982
 3167SOL     OW20962   0.058   4.244   9.188  0.1737 -0.1426  0.1590
 3167SOL    HW120963   4.704   4.277   9.137 -1.3460 -0.8246  1.9222
 3167SOL    HW220964   0.073   4.330   9.226 -0.4067  0.7570 -1.6508
 3168SOL     OW20965   0.075   0.828   3.943  0.8722 -0.7530  0.5836
 3168SOL    HW120966   0.007   0.809   4.008  0.9598  2.5887  1.6299
 3168SOL    HW220967   0.144   0.865   3.998 -1.2365  0.7108  2.2193
 3169SOL     OW20968   0.612   3.592  11.619 -0.0996 -0.0698  0.0664
 3169SOL    HW120969   0.675   3.644  11.570 -1.7491  2.2045  0.3526
 3169SOL    HW220970   0.562   3.546  11.552 -2.4885 -0.9632  2.4717
 3170SOL     OW20971   4.097   1.125   2.425 -0.0761 -0.0380  0.6152
 3170SOL    HW120972   4.040   1.048   2.424 -0.6914  0.4431 -1.2458
 3170SOL    HW220973   4.028   1.191   2.433 -0.4155 -0.0899 -1.8716
 3171SOL     OW20974   2.251   0.485   6.203 -0.1914 -0.5978 -0.0523
 3171SOL    HW120975   2.312   0.550   6.236 -0.3678 -1.6393  2.3151
 3171SOL    HW220976   2.169   0.523   6.237  0.1207 -0.3973  0.4684
 3172SOL     OW20977   4.109   0.334  13.923  0.5439 -0.4571  0.0940
 3172SOL    HW120978   4.110   0.324  13.828  2.7502  1.1907 -0.0611
 3172SOL    HW220979   4.034   0.393  13.933  0.5857 -0.7220  2.0055
 3173SOL     OW20980   2.686   3.260  13.633 -0.0856  0.2250  0.2966
 3173SOL    HW120981   2.678   3.166  13.618 -1.2886  0.0969  1.7465
 3173SOL    HW220982   2.741   3.259  13.711 -2.2421  1.2514  1.8216
 3174SOL     OW20983   4.308   4.001   6.278  0.2447 -0.0376  0.2568
 3174SOL    HW120984   4.393   3.970   6.249 -0.7173 -1.6218 -0.8972
 3174SOL    HW220985   4.328   4.093   6.292 -2.8131  0.5201  1.0992
 3175SOL     OW20986   4.007   2.151   8.014  0.2457  0.2849  0.2864
 3175SOL    HW120987   3.921   2.121   8.044  0.1362 -0.0165 -0.3104
 3175SOL    HW220988   3.993   2.138   7.920  0.3521  1.2593  0.1317
 3176SOL     OW20989   1.924   0.849   3.614 -0.2187 -0.0480 -0.0255
 3176SOL    HW120990   1.885   0.923   3.659 -4.0914 -1.2491 -1.3698
 3176SOL    HW220991   1.902   0.862   3.521 -0.0189  1.1038  0.0906
 3177SOL     OW20992   1.653   1.877   2.464  0.0245  0.3524  0.3868
 3177SOL    HW120993   1.623   1.956   2.419  0.4126  0.1497 -0.2229
 3177SOL    HW220994   1.580   1.817   2.447 -0.1446  0.5479  0.4153
 3178SOL     OW20995   3.859   2.695   1.363 -0.3116 -0.1232  0.2798
 3178SOL    HW120996   3.948   2.659   1.364  0.0020  0.6136 -0.7342
 3178SOL    HW220997   3.797   2.622   1.360  0.4846 -0.7565 -0.7368
 3179SOL     OW20998   1.256   4.668   5.278 -0.5827 -0.3090 -0.4905
 3179SOL    HW120999   1.307   4.700   5.352 -1.6738 -0.2207  0.2229
 3179SOL    HW221000   1.166   4.692   5.302  1.0302  3.0225  2.2163
 3180SOL     OW21001   3.318   0.066  12.752 -0.5003 -0.0448  0.7722
 3180SOL    HW121002   3.318   0.160  12.735 -0.2359 -0.0043  0.9943
 3180SOL    HW221003   3.243   0.054  12.811 -0.8469 -3.2752 -0.3601
 3181SOL     OW21004   0.205   4.466   3.094  0.1227  0.3604 -0.2325
 3181SOL    HW121005   0.141   4.395   3.105  1.2384 -0.6565 -0.2827
 3181SOL    HW221006   0.289   4.421   3.098  0.2170  0.3838 -1.6794
 3182SOL     OW21007   1.199   3.071   5.100  0.1072  0.2609  0.1934
 3182SOL    HW121008   1.249   3.006   5.148  1.4378  0.9545 -0.2589
 3182SOL    HW221009   1.264   3.122   5.052 -1.7858  3.1230  0.6833
 3183SOL     OW21010   2.148   0.659   1.880 -0.3979  0.0168 -0.1729
 3183SOL    HW121011   2.082   0.634   1.944  1.4318 -1.3701  1.1688
 3183SOL    HW221012   2.167   0.743   1.921  0.1208  0.3976 -1.1797
 3184SOL     OW21013   2.410   3.746   9.307 -0.6396  0.3884 -0.5643
 3184SOL    HW121014   2.388   3.678   9.370 -0.8279 -0.1578 -1.2105
 3184SOL    HW221015   2.350   3.814   9.339 -0.2217 -0.1295  1.2679
 3185SOL     OW21016   3.800   4.327   4.771  0.9763  0.2415  0.6124
 3185SOL    HW121017   3.819   4.412   4.812 -0.6698  1.6810 -1.6014
 3185SOL    HW221018   3.730   4.294   4.826 -1.6547  0.2676 -2.7382
 3186SOL     OW21019   3.519   3.252   0.772  0.0265  0.3242 -0.4359
 3186SOL    HW121020   3.436   3.204   0.778  1.6472 -2.2550  1.0585
 3186SOL    HW221021   3.576   3.205   0.712  2.0745  0.8010  1.1571
 3187SOL     OW21022   3.599   0.524   6.596 -0.3161  0.3400  0.4973
 3187SOL    HW121023   3.642   0.561   6.519  0.3666 -0.2757  0.5746
 3187SOL    HW221024   3.663   0.542   6.665 -1.9134 -0.5730  2.2177
 3188SOL     OW21025   1.052   4.120   4.231 -0.4445  0.1677 -0.1322
 3188SOL    HW121026   1.031   4.028   4.215 -0.8582 -0.2131  2.7307
 3188SOL    HW221027   0.990   4.164   4.173 -2.8813 -0.0308  2.3704
 3189SOL     OW21028   3.019   3.898   6.209  0.1360  0.6495 -0.1909
 3189SOL    HW121029   3.016   3.900   6.305 -1.7621  1.7761 -0.2860
 3189SOL    HW221030   3.030   3.805   6.190 -2.2447  1.0562 -3.5805
 3190SOL     OW21031   3.681   1.657  11.560  0.2900  0.0780  0.6531
 3190SOL    HW121032   3.647   1.744  11.579 -0.1932  0.2041 -0.7770
 3190SOL    HW221033   3.686   1.652  11.464 -1.1545  2.4626  0.4708
 3191SOL     OW21034   0.239   4.338   9.531 -0.7032 -0.1148 -0.3056
 3191SOL    HW121035   0.200   4.282   9.598 -0.3795  2.0431  1.6681
 3191SOL    HW221036   0.167   4.346   9.468  0.1038 -0.7993 -1.3257
 3192SOL     OW21037   3.538   2.558   7.144  0.0874  0.4607 -0.1815
 3192SOL    HW121038   3.473   2.504   7.188  0.8626  1.2069  1.9040
 3192SOL    HW221039   3.502   2.574   7.057  1.3124  1.9638 -0.4083
 3193SOL     OW21040   3.247   0.680   5.712  0.0571 -0.4063  0.7288
 3193SOL    HW121041   3.315   0.613   5.707  0.8656  0.4118  0.8127
 3193SOL    HW221042   3.235   0.701   5.619  0.3823 -0.8412  0.5860
 3194SOL     OW21043   0.243   0.080   7.327 -0.2482 -0.0947 -0.0032
 3194SOL    HW121044   0.288   0.029   7.260  2.5921  0.0814  1.7450
 3194SOL    HW221045   0.274   0.028   7.401  1.1998 -0.3617 -0.8002
 3195SOL     OW21046   0.964   1.394  11.636 -0.0165  0.5365  0.2112
 3195SOL    HW121047   0.882   1.355  11.607  1.4769 -2.3171 -0.1211
 3195SOL    HW221048   0.967   1.469  11.577  2.4429 -0.1320 -0.5283
 3196SOL     OW21049   1.670   2.602  12.375  0.3439 -0.1438  0.1341
 3196SOL    HW121050   1.600   2.663  12.352 -2.2916 -2.8153  0.9888
 3196SOL    HW221051   1.633   2.552  12.448 -3.2249  2.8201  0.3325
 3197SOL     OW21052   4.244   1.568  14.753  0.2032  0.4817 -0.5018
 3197SOL    HW121053   4.155   1.568  14.786  0.5170  0.1370  0.3407
 3197SOL    HW221054   4.252   1.481  14.713  1.5260  1.2832 -1.9771
 3198SOL     OW21055   3.486   3.168   7.580 -0.2795 -0.4829 -0.6344
 3198SOL    HW121056   3.523   3.224   7.649  1.2967 -1.0863 -0.9990
 3198SOL    HW221057   3.483   3.235   7.512  1.1539  2.7554  2.4241
 3199SOL     OW21058   1.451   1.536  16.679  0.2817  0.0319 -0.4390
 3199SOL    HW121059   1.385   1.473  16.708  2.3878 -1.7225  0.4798
 3199SOL    HW221060   1.529   1.511  16.728  0.8870 -1.1860 -2.0300
 3200SOL     OW21061   2.119   3.012   2.375  0.3917 -0.0746 -0.6612
 3200SOL    HW121062   2.141   3.026   2.467 -0.2190 -2.6251 -0.1280
 3200SOL    HW221063   2.027   3.040   2.374  0.2610 -0.6228 -4.9216
 3201SOL     OW21064   2.188   0.787   6.873  0.1575  0.1025  0.1636
 3201SOL    HW121065   2.207   0.712   6.929 -0.1523 -0.4817 -0.5159
 3201SOL    HW221066   2.265   0.798   6.816  0.2640  0.1282  0.3122
 3202SOL     OW21067   4.325   2.683   6.136  0.0343  0.3754  0.6185
 3202SOL    HW121068   4.238   2.719   6.117 -1.1415 -1.0981  3.1843
 3202SOL    HW221069   4.351   2.672   6.045  0.3041  2.2997  0.4482
 3203SOL     OW21070   1.100   2.990  16.611 -0.3111  0.5217 -0.3369
 3203SOL    HW121071   1.184   3.037  16.610  0.2184 -0.4396 -2.1058
 3203SOL    HW221072   1.068   3.007  16.699  0.9659  1.0106  0.0417
 3204SOL     OW21073   3.435   2.669   2.893 -0.3555 -0.0349 -0.2848
 3204SOL    HW121074   3.407   2.585   2.856 -2.0379  1.1031 -1.5882
 3204SOL    HW221075   3.389   2.668   2.976  3.4022  1.5664  1.8161
 3205SOL     OW21076   0.509   4.136   4.515 -0.1421  0.2040  0.6126
 3205SOL    HW121077   0.563   4.086   4.576 -1.8553 -0.2938  1.7004
 3205SOL    HW221078   0.449   4.181   4.574 -1.4125  0.7287 -1.0864
 3206SOL     OW21079   0.413   4.342   2.748  0.5153 -0.4370  0.6805
 3206SOL    HW121080   0.432   4.249   2.764  2.8762  0.1118  1.1059
 3206SOL    HW221081   0.461   4.388   2.817  1.7924  1.7320 -1.6776
 3207SOL     OW21082   0.112   1.988   9.633  0.4442  0.0243 -0.3885
 3207SOL    HW121083   0.034   2.043   9.642  1.3875  1.2249  0.3150
 3207SOL    HW221084   0.078   1.898   9.635 -1.8768  0.9474  1.7775
 3208SOL     OW21085   1.562   1.893   7.781  0.0346  0.1864  0.2178
 3208SOL    HW121086   1.506   1.960   7.821 -0.9074 -0.2727 -0.3273
 3208SOL    HW221087   1.500   1.832   7.741  1.1259 -2.1081  2.0418
 3209SOL     OW21088   2.722   3.961  12.817  0.4510  0.2759 -0.2084
 3209SOL    HW121089   2.731   3.868  12.838 -0.9790  0.1870  0.0082
 3209SOL    HW221090   2.699   3.996  12.903  1.1988  1.1392 -0.3624
 3210SOL     OW21091   2.340   2.104  11.723  0.4926  0.4127  0.4311
 3210SOL    HW121092   2.257   2.059  11.734 -0.0347  1.1031 -0.7082
 3210SOL    HW221093   2.340   2.152  11.805  0.2985 -0.6017  1.0293
 3211SOL     OW21094   3.056   0.108   6.200 -0.5067 -0.0162 -0.1577
 3211SOL    HW121095   3.138   0.075   6.163 -1.1471 -1.2257 -0.5116
 3211SOL    HW221096   3.007   0.026   6.195  0.2330 -0.3450 -1.9903
 3212SOL     OW21097   3.800   3.138   6.774 -0.3766  0.0009 -0.7446
 3212SOL    HW121098   3.839   3.085   6.843  0.1094 -1.0765 -1.8579
 3212SOL    HW221099   3.753   3.078   6.718  0.3499 -0.8675 -0.4166
 3213SOL     OW21100   2.750   4.156   1.906  0.0382  0.6547  0.1062
 3213SOL    HW121101   2.707   4.125   1.826  2.2428  0.5981 -1.0662
 3213SOL    HW221102   2.696   4.141   1.983  2.1608  2.4224  1.9426
 3214SOL     OW21103   1.727   0.346   8.317  0.2272  0.0465 -0.6656
 3214SOL    HW121104   1.762   0.373   8.232 -0.0533 -2.0627 -1.4716
 3214SOL    HW221105   1.770   0.260   8.327  1.5924  0.4847 -2.7542
 3215SOL     OW21106   0.864   4.592  16.881 -0.1501 -0.2595 -0.0905
 3215SOL    HW121107   0.893   4.603  16.972  1.7557 -1.5273 -0.5583
 3215SOL    HW221108   0.813   4.511  16.886 -1.5292  0.7369  2.5750
 3216SOL     OW21109   4.203   3.180   9.777  0.2790 -0.3428  0.0854
 3216SOL    HW121110   4.181   3.239   9.849  1.9985 -0.8466  1.0322
 3216SOL    HW221111   4.143   3.108   9.795 -0.7692  0.9271  1.5585
 3217SOL     OW21112   4.417   3.801  10.856 -0.3073  0.2327  0.3305
 3217SOL    HW121113   4.383   3.816  10.944  0.5424  3.9117  0.0424
 3217SOL    HW221114   4.463   3.719  10.873  0.6013  0.1960 -2.3117
 3218SOL     OW21115   2.799   4.047   0.179 -0.1573 -0.2688  0.8500
 3218SOL    HW121116   2.806   4.128   0.128 -0.7416 -1.3261 -0.9134
 3218SOL    HW221117   2.866   4.051   0.247  0.2047 -0.9068  0.5316
 3219SOL     OW21118   2.622   0.698   2.773 -0.0355 -0.6032  0.1376
 3219SOL    HW121119   2.658   0.756   2.839 -1.0524 -0.9909  1.0309
 3219SOL    HW221120   2.582   0.626   2.823 -0.0054 -0.5103  0.2949
 3220SOL     OW21121   2.855   2.763   3.894  0.1134 -0.5985  0.0668
 3220SOL    HW121122   2.810   2.766   3.978 -1.3549  0.3736 -0.7695
 3220SOL    HW221123   2.783   2.778   3.834  1.3048 -0.7492 -1.3950
 3221SOL     OW21124   1.302   1.907  13.172  0.1008 -0.0457  0.5616
 3221SOL    HW121125   1.325   1.949  13.255 -0.0157 -0.4813  0.8147
 3221SOL    HW221126   1.393   1.892  13.145 -1.0375  1.5680 -4.0705
 3222SOL     OW21127   2.637   3.317   7.832 -0.1023 -0.1969  0.6685
 3222SOL    HW121128   2.545   3.292   7.837 -0.3498  0.5697 -0.1644
 3222SOL    HW221129   2.668   3.258   7.901  0.9385 -0.7146 -0.2360
 3223SOL     OW21130   1.836   4.297   7.001 -0.1836 -0.1610 -0.0854
 3223SOL    HW121131   1.785   4.227   6.960 -1.5651 -0.7485  2.5618
 3223SOL    HW221132   1.766   4.360   7.018 -1.8955 -2.7826  2.7551
 3224SOL     OW21133   1.918   2.032  17.084 -0.4377 -0.1571  0.0067
 3224SOL    HW121134   1.956   1.945  17.098 -0.9548 -0.4384 -0.3511
 3224SOL    HW221135   1.919   2.065  17.174  0.9317 -0.0292 -0.0603
 3225SOL     OW21136   4.709   1.842   2.409  0.1175  0.1198  0.3629
 3225SOL    HW121137   4.675   1.784   2.478 -0.4609 -1.7886 -1.5042
 3225SOL    HW221138   4.624   1.868   2.372 -0.2524 -1.1542  0.2909
 3226SOL     OW21139   1.511   3.296  11.815 -0.0304  0.2825  0.0905
 3226SOL    HW121140   1.425   3.330  11.790 -0.5130 -0.5744  0.6019
 3226SOL    HW221141   1.536   3.249  11.735 -1.8480  0.2240 -0.4629
 3227SOL     OW21142   0.008   3.011   7.216 -0.2970  0.7739 -0.2166
 3227SOL    HW121143   0.093   2.976   7.192 -0.5484  0.1293 -0.1656
 3227SOL    HW221144   4.718   3.079   7.149 -1.1395  0.7979 -0.0804
 3228SOL     OW21145   2.102   1.142   7.733 -0.1649  0.0405  0.0066
 3228SOL    HW121146   2.049   1.182   7.801  0.0359 -0.1878  0.2987
 3228SOL    HW221147   2.064   1.175   7.652 -0.8702  1.5140  0.9438
 3229SOL     OW21148   4.635   3.567   6.049 -0.4828 -0.3824  0.2499
 3229SOL    HW121149   4.570   3.524   6.105  0.2324 -0.8044  0.7599
 3229SOL    HW221150   4.703   3.574   6.115 -0.7553 -1.0469  0.6021
 3230SOL     OW21151   1.871   3.960   9.977 -0.1548  0.3161  0.5198
 3230SOL    HW121152   1.934   3.896   9.944 -0.9855 -0.8229  1.1484
 3230SOL    HW221153   1.901   3.979  10.066 -0.8716  0.3403  0.7536
 3231SOL     OW21154   1.792   4.387  14.492  0.4045 -0.5594  0.5567
 3231SOL    HW121155   1.872   4.414  14.536 -1.5501  0.3122  3.5885
 3231SOL    HW221156   1.740   4.349  14.563 -2.7467 -0.4085 -1.6792
 3232SOL     OW21157   1.036   0.640  11.588 -0.3478  0.0459  0.8017
 3232SOL    HW121158   1.041   0.599  11.502 -0.3054  0.2105  0.7261
 3232SOL    HW221159   1.036   0.731  11.557  1.4044  0.6753  2.6203
 3233SOL     OW21160   3.894   0.810   3.841  0.0997  0.1707  0.2604
 3233SOL    HW121161   3.898   0.716   3.854 -0.2455  0.2118  0.6484
 3233SOL    HW221162   3.895   0.845   3.930  0.8892  3.4090 -1.0130
 3234SOL     OW21163   4.293   3.566   6.891 -0.3696  0.1955  0.1694
 3234SOL    HW121164   4.335   3.558   6.806 -0.9535  3.2085 -0.4002
 3234SOL    HW221165   4.317   3.482   6.930 -1.8828 -0.7555 -0.9580
 3235SOL     OW21166   0.464   3.036   8.646  0.0245  0.4909 -0.1261
 3235SOL    HW121167   0.515   3.090   8.584  2.0566 -0.5015  0.6725
 3235SOL    HW221168   0.469   2.947   8.610 -0.3628  0.6043 -0.4494
 3236SOL     OW21169   1.574   2.278   7.842 -0.5770  0.8455 -0.3121
 3236SOL    HW121170   1.668   2.266   7.835 -0.5978 -1.0892  2.9339
 3236SOL    HW221171   1.564   2.362   7.797 -2.9137  1.4068  1.2593
 3237SOL     OW21172   4.677   4.563   4.283  0.0094  0.2332 -0.3697
 3237SOL    HW121173   0.017   4.488   4.288 -0.1168  0.0659 -1.4303
 3237SOL    HW221174   4.611   4.538   4.348 -0.2732 -3.3807 -2.0212
 3238SOL     OW21175   2.302   0.289  10.873 -0.8645  0.7265 -0.4852
 3238SOL    HW121176   2.291   0.354  10.804 -1.6042  0.9745 -0.1234
 3238SOL    HW221177   2.379   0.322  10.920  0.2474 -2.6791  0.1015
 3239SOL     OW21178   2.694   0.820   2.523 -0.4851 -0.0288 -0.5848
 3239SOL    HW121179   2.727   0.752   2.582 -1.5932  2.4134  2.8904
 3239SOL    HW221180   2.774   0.854   2.484  0.9061  0.0479  2.3157
 3240SOL     OW21181   1.520   0.171   3.906  0.3447  0.1437 -0.3657
 3240SOL    HW121182   1.537   0.266   3.908  1.2832 -0.0120 -0.6939
 3240SOL    HW221183   1.425   0.170   3.893  0.1362  1.2448  1.0565
 3241SOL     OW21184   0.622   4.458   4.193  0.2422  0.0042 -0.8807
 3241SOL    HW121185   0.682   4.485   4.263 -0.6557 -1.7030  0.5552
 3241SOL    HW221186   0.588   4.374   4.222 -0.0585  0.8178  1.1008
 3242SOL     OW21187   1.451   1.072   6.989  0.4492  0.1099 -0.4451
 3242SOL    HW121188   1.372   1.018   6.994 -0.3778  1.4391  0.4279
 3242SOL    HW221189   1.460   1.078   6.894 -0.7959 -1.7492 -0.6841
 3243SOL     OW21190   0.931   1.240  17.440  0.0180  0.1306  0.1719
 3243SOL    HW121191   0.954   1.147  17.445 -1.2212 -0.3608 -2.8368
 3243SOL    HW221192   0.981   1.267  17.363 -0.8298  0.0122 -0.4229
 3244SOL     OW21193   0.484   0.264   4.992 -0.4115 -0.3594  0.0715
 3244SOL    HW121194   0.467   0.253   4.899  0.0385 -1.5370  0.1295
 3244SOL    HW221195   0.397   0.246   5.027 -1.7288  3.1130 -1.4094
 3245SOL     OW21196   3.484   0.008   8.993  0.1615  0.6480  0.3412
 3245SOL    HW121197   3.531   0.040   8.917  1.9564 -4.1341 -0.5395
 3245SOL    HW221198   3.554   0.026   9.055 -0.3638  4.8749 -0.2905
 3246SOL     OW21199   3.686   2.848   2.019  0.0436 -0.6126 -0.3660
 3246SOL    HW121200   3.645   2.916   2.072 -0.8417 -1.8119  0.4583
 3246SOL    HW221201   3.613   2.806   1.975 -1.6663  2.3401 -0.3582
 3247SOL     OW21202   0.877   1.127   7.080  0.4295  0.4787  0.1747
 3247SOL    HW121203   0.954   1.125   7.022  0.5548 -0.9231  0.3912
 3247SOL    HW221204   0.884   1.213   7.122  1.3258  0.3771  0.2401
 3248SOL     OW21205   1.714   1.559  15.884  0.2680  0.8827 -0.5727
 3248SOL    HW121206   1.784   1.559  15.949  0.2801 -0.4536 -0.5871
 3248SOL    HW221207   1.724   1.467  15.858  3.0983  0.7006  1.2570
 3249SOL     OW21208   2.228   4.620  15.394  0.2077  0.0312  0.1320
 3249SOL    HW121209   2.268   4.566  15.462 -1.2237  1.1657  1.8874
 3249SOL    HW221210   2.298   4.638  15.332  1.3479  0.5837  1.5814
 3250SOL     OW21211   0.092   3.625  15.815 -0.0211 -0.2827 -0.2244
 3250SOL    HW121212   0.022   3.672  15.860  1.2759  2.1836 -0.8004
 3250SOL    HW221213   0.038   3.551  15.788  0.9517 -0.5510 -1.4383
 3251SOL     OW21214   4.563   3.769   5.291  0.2784 -0.0815 -0.1470
 3251SOL    HW121215   4.579   3.674   5.284 -1.2483 -0.2754 -0.9787
 3251SOL    HW221216   4.582   3.798   5.202 -1.4897  2.2314  0.2524
 3252SOL     OW21217   4.048   0.675   5.659  0.3370  0.1295  0.0925
 3252SOL    HW121218   4.091   0.749   5.617  1.9876 -1.1455 -0.4502
 3252SOL    HW221219   4.025   0.613   5.590  1.0375  1.3949 -1.2583
 3253SOL     OW21220   3.509   1.433   3.098 -0.3211 -0.0352 -0.3463
 3253SOL    HW121221   3.592   1.386   3.102 -0.0157  0.3908 -1.8201
 3253SOL    HW221222   3.522   1.494   3.026 -0.2307  0.2230 -0.1126
 3254SOL     OW21223   1.763   3.841   4.214  0.8858  0.3686 -0.0441
 3254SOL    HW121224   1.710   3.799   4.283  0.9287 -1.2543 -1.0145
 3254SOL    HW221225   1.698   3.880   4.155  0.6960 -0.9705 -0.6988
 3255SOL     OW21226   1.249   1.794   2.883 -0.7412  0.3302 -0.0217
 3255SOL    HW121227   1.183   1.727   2.898 -1.1625  0.3187 -1.9129
 3255SOL    HW221228   1.193   1.871   2.889  1.4772  1.9659 -0.0953
 3256SOL     OW21229   2.366   2.237   2.432  0.2777 -0.2897 -0.3871
 3256SOL    HW121230   2.359   2.294   2.509  0.2058 -0.3499 -0.3490
 3256SOL    HW221231   2.459   2.241   2.408  0.3236 -1.4714 -0.4090
 3257SOL     OW21232   0.816   0.990   7.302  0.3661  0.0347  0.0000
 3257SOL    HW121233   0.836   1.050   7.230 -1.6297 -1.0784 -1.4671
 3257SOL    HW221234   0.868   1.035   7.369 -0.0376  0.4670  0.0222
 3258SOL     OW21235   1.184   0.789  11.040 -0.2075  0.5405 -0.4810
 3258SOL    HW121236   1.270   0.783  10.997 -0.7250 -0.6766 -1.3328
 3258SOL    HW221237   1.207   0.850  11.110 -0.5465 -1.3665  1.2868
 3259SOL     OW21238   1.705   2.398  12.001  0.4781  0.2224  0.8383
 3259SOL    HW121239   1.787   2.348  12.003  0.7098  0.5424 -0.5940
 3259SOL    HW221240   1.673   2.402  11.911 -0.6533 -0.7739  1.2017
 3260SOL     OW21241   2.196   0.124   2.861  0.0423 -0.4879  0.1649
 3260SOL    HW121242   2.119   0.149   2.809 -0.2146 -1.7494 -0.0657
 3260SOL    HW221243   2.266   0.169   2.814  0.0577  0.3364  0.9864
 3261SOL     OW21244   4.393   0.613   7.830  0.2604  0.3967 -0.3664
 3261SOL    HW121245   4.358   0.558   7.760  0.3606  0.7995 -0.7304
 3261SOL    HW221246   4.333   0.686   7.814  0.9408  1.1053  0.2986
 3262SOL     OW21247   2.105   4.134   3.632  0.1765  0.3323  0.5309
 3262SOL    HW121248   2.078   4.200   3.568  0.4971 -1.3381 -1.3163
 3262SOL    HW221249   2.200   4.143   3.624  0.5420 -3.9009  0.2285
 3263SOL     OW21250   4.419   1.486  14.473 -0.2925 -0.2347 -0.0246
 3263SOL    HW121251   4.374   1.546  14.533  0.9383 -1.5222  2.1780
 3263SOL    HW221252   4.441   1.410  14.527  1.4373  2.9443  3.7047
 3264SOL     OW21253   4.581   3.768   8.499  0.3507  0.4635 -0.2282
 3264SOL    HW121254   4.636   3.809   8.433  3.0738 -1.5491  0.8041
 3264SOL    HW221255   4.508   3.738   8.443  0.7579 -1.2801  0.1671
 3265SOL     OW21256   0.179   0.408   9.449 -0.0472  0.0938  0.6228
 3265SOL    HW121257   0.113   0.338   9.443 -2.3323  2.2006  1.3138
 3265SOL    HW221258   0.143   0.473   9.390 -3.3579 -1.4674  0.8993
 3266SOL     OW21259   0.864   3.758   8.077 -0.3173  0.2815 -0.0936
 3266SOL    HW121260   0.877   3.756   7.982  0.0284  1.1208 -0.0642
 3266SOL    HW221261   0.918   3.685   8.109 -0.4796  0.0951 -0.2483
 3267SOL     OW21262   3.400   0.687   4.156 -0.0577 -0.2307 -0.7584
 3267SOL    HW121263   3.405   0.641   4.072 -1.5578 -0.3183 -0.7944
 3267SOL    HW221264   3.315   0.730   4.143 -0.8907 -1.1575  1.6945
 3268SOL     OW21265   3.171   4.405   6.957 -0.2436 -0.6636 -0.4739
 3268SOL    HW121266   3.086   4.377   6.924 -0.2950 -2.1962  0.9539
 3268SOL    HW221267   3.203   4.463   6.888 -1.0269  1.0417  0.5937
 3269SOL     OW21268   1.416   1.304  12.680 -0.1074  0.7492 -0.2259
 3269SOL    HW121269   1.473   1.380  12.694 -0.6335  1.2983 -1.1432
 3269SOL    HW221270   1.365   1.350  12.613 -0.4942 -0.2913 -0.6420
 3270SOL     OW21271   3.611   3.292  14.296 -0.8142  0.0227 -0.1930
 3270SOL    HW121272   3.573   3.367  14.250  1.4272  1.9392  1.0892
 3270SOL    HW221273   3.659   3.257  14.222 -0.3311  0.7135 -0.2029
 3271SOL     OW21274   0.981   0.231  14.909 -0.2133 -0.0804 -0.0588
 3271SOL    HW121275   0.996   0.211  14.817 -2.1302 -0.4877 -0.2754
 3271SOL    HW221276   1.060   0.203  14.956 -0.1457 -1.9984 -1.3260
 3272SOL     OW21277   4.540   1.647   8.024  0.2901 -0.1181  0.3825
 3272SOL    HW121278   4.606   1.592   8.066  0.9656  1.2059  1.0542
 3272SOL    HW221279   4.600   1.692   7.965 -0.3469  0.7474  0.4041
 3273SOL     OW21280   0.811   1.923   2.952  0.3006  0.0511  0.2945
 3273SOL    HW121281   0.731   1.908   3.003  0.8630 -0.7893  0.9238
 3273SOL    HW221282   0.773   1.951   2.868 -1.7142  0.3912  1.3151
 3274SOL     OW21283   2.188   0.005  15.088 -0.2880  0.5934 -0.2621
 3274SOL    HW121284   2.242   0.084  15.089  3.1507 -1.7926  3.0783
 3274SOL    HW221285   2.113   0.032  15.141  0.0765  0.1201  0.4938
 3275SOL     OW21286   2.850   0.234   4.497 -0.0033 -0.2613  0.0418
 3275SOL    HW121287   2.790   0.292   4.545  0.3697 -0.6846  1.0164
 3275SOL    HW221288   2.919   0.288   4.458 -0.6303  0.8244  0.4119
 3276SOL     OW21289   2.887   1.003   3.945  0.3760 -0.6546  0.0328
 3276SOL    HW121290   2.909   0.935   3.881  2.6288  0.4539 -0.3967
 3276SOL    HW221291   2.940   1.078   3.917 -0.1296 -0.0226  0.7766
 3277SOL     OW21292   0.507   2.784  12.980  0.1881  0.2110  0.0362
 3277SOL    HW121293   0.492   2.692  13.000  0.5332  0.0551 -0.4343
 3277SOL    HW221294   0.419   2.822  12.988  0.7782  1.7519 -0.6981
 3278SOL     OW21295   3.035   2.073   5.905 -0.1413  0.5995 -0.1911
 3278SOL    HW121296   3.069   2.066   5.816 -0.9764 -0.4990 -0.4301
 3278SOL    HW221297   3.106   2.099   5.965 -0.0985 -0.1311  0.0758
 3279SOL     OW21298   1.955   0.447   7.468 -0.3035  0.4994 -0.1016
 3279SOL    HW121299   2.016   0.373   7.472 -1.4378 -0.2289  3.2959
 3279SOL    HW221300   1.873   0.400   7.451 -0.2851 -0.2404  1.8578
 3280SOL     OW21301   3.262   4.067  16.662 -0.3152 -0.0584  0.3248
 3280SOL    HW121302   3.345   4.070  16.709 -0.2130  1.5989  0.0328
 3280SOL    HW221303   3.291   4.137  16.603 -2.5739  1.0535  0.5050
 3281SOL     OW21304   3.381   0.295   8.311 -0.8756 -0.2168  0.3590
 3281SOL    HW121305   3.421   0.292   8.397 -1.0824  3.0727  0.5702
 3281SOL    HW221306   3.297   0.340   8.322  0.0507  1.7296 -0.5265
 3282SOL     OW21307   0.805   3.230   4.551 -0.1173  0.5780 -0.1777
 3282SOL    HW121308   0.829   3.321   4.534  0.7577  0.6631  1.4999
 3282SOL    HW221309   0.725   3.222   4.602 -0.3448  1.2403 -0.4290
 3283SOL     OW21310   4.636   4.684   5.759  0.0602 -0.2274 -0.1261
 3283SOL    HW121311   4.589   4.609   5.721 -0.3233 -0.0761  0.0504
 3283SOL    HW221312   4.582   4.705   5.835  2.9328 -1.9580  2.4277
 3284SOL     OW21313   4.554   3.612   2.933 -0.5450  0.3193  0.0967
 3284SOL    HW121314   4.629   3.665   2.908  0.5172 -1.4891 -0.4850
 3284SOL    HW221315   4.491   3.682   2.954 -0.5189  0.3672  0.0165
 3285SOL     OW21316   3.933   0.407   7.165  0.9064  0.2504  1.2286
 3285SOL    HW121317   3.844   0.373   7.177  0.8683 -0.1361 -0.2389
 3285SOL    HW221318   3.928   0.463   7.088  0.1012 -0.9526  0.3895
 3286SOL     OW21319   1.878   2.584   9.137 -0.3748 -0.1730 -0.2419
 3286SOL    HW121320   1.840   2.497   9.131  0.1741 -0.4960  1.0101
 3286SOL    HW221321   1.808   2.641   9.169 -1.2852 -1.5674  0.2142
 3287SOL     OW21322   3.155   0.959   5.214  0.1722  0.2671 -0.1865
 3287SOL    HW121323   3.195   1.034   5.169  2.5110  0.1030  1.6300
 3287SOL    HW221324   3.162   0.982   5.306 -1.8332  0.3020 -0.0626
 3288SOL     OW21325   4.379   1.655  15.014  0.4811 -0.2004  0.0852
 3288SOL    HW121326   4.445   1.653  15.083  0.7186 -0.7644 -0.1587
 3288SOL    HW221327   4.310   1.604  15.057  0.5075 -0.7224 -0.4876
 3289SOL     OW21328   3.130   3.127   1.617  0.0809  0.6275 -0.6136
 3289SOL    HW121329   3.075   3.183   1.672  0.8172 -0.3402  1.0849
 3289SOL    HW221330   3.063   3.071   1.578 -0.1567  0.0765  0.5883
 3290SOL     OW21331   2.807   4.034   0.814  0.4805  0.2190 -0.3163
 3290SOL    HW121332   2.798   4.014   0.721  2.0466 -1.8391 -0.0254
 3290SOL    HW221333   2.811   4.129   0.807 -0.5744  0.2508 -0.5832
 3291SOL     OW21334   4.313   4.473   2.981 -0.1203  0.0621  0.2023
 3291SOL    HW121335   4.293   4.502   3.070 -0.4203  2.1740 -0.5578
 3291SOL    HW221336   4.241   4.515   2.936  1.3632  1.2812 -1.0375
 3292SOL     OW21337   1.814   1.010   9.513  0.1919  0.1473 -0.2508
 3292SOL    HW121338   1.869   0.933   9.528 -1.2881 -0.7939  0.2801
 3292SOL    HW221339   1.843   1.061   9.589 -3.0915 -1.0141  1.7957
 3293SOL     OW21340   3.133   1.295  15.196 -0.2438 -0.1269  0.1062
 3293SOL    HW121341   3.119   1.357  15.268  2.8810  0.2927  0.3734
 3293SOL    HW221342   3.213   1.251  15.224 -0.8799 -2.1409 -1.2487
 3294SOL     OW21343   4.251   4.687   5.778  0.0692 -0.4418  0.5456
 3294SOL    HW121344   4.312   0.040   5.794  0.2061 -0.6369  0.8938
 3294SOL    HW221345   4.185   4.713   5.842  1.9946  0.8446  2.0075
 3295SOL     OW21346   0.098   4.152   3.123  0.2392  0.0569 -0.0573
 3295SOL    HW121347   0.183   4.138   3.165  0.2852  0.5703  0.0294
 3295SOL    HW221348   0.037   4.120   3.189 -1.1260 -0.4486 -1.5602
 3296SOL     OW21349   1.599   4.430   8.889 -0.2283  0.4658 -0.2151
 3296SOL    HW121350   1.537   4.377   8.839 -2.0249  1.7834  0.6134
 3296SOL    HW221351   1.543   4.502   8.919 -1.3526 -0.8310  0.8016
 3297SOL     OW21352   2.590   2.748   3.611  0.4637  0.6369  0.2268
 3297SOL    HW121353   2.650   2.674   3.596  1.1962  1.2862 -0.0393
 3297SOL    HW221354   2.504   2.708   3.597  0.8728 -1.1619  2.7514
 3298SOL     OW21355   2.566   3.741   3.410 -0.4263  0.2108  0.1320
 3298SOL    HW121356   2.602   3.669   3.359  0.6624 -1.0506  2.7304
 3298SOL    HW221357   2.523   3.794   3.343  0.1382  1.6022  0.8805
 3299SOL     OW21358   2.436   1.513   3.604 -1.0266 -0.3117  0.5222
 3299SOL    HW121359   2.527   1.535   3.584 -1.6046 -0.6229 -2.5405
 3299SOL    HW221360   2.394   1.575   3.545 -0.7047  0.7386  1.4184
 3300SOL     OW21361   2.409   0.894   1.987  0.1310 -0.0220  0.0749
 3300SOL    HW121362   2.472   0.909   2.057  0.7607 -0.2346 -0.4478
 3300SOL    HW221363   2.324   0.910   2.028  1.4066 -0.8030  2.9744
 3301SOL     OW21364   4.016   0.366   2.848 -0.5977 -0.1598  0.3023
 3301SOL    HW121365   3.955   0.353   2.921  0.0755 -0.6751  0.7692
 3301SOL    HW221366   3.970   0.315   2.781  2.1441  1.2527 -2.6498
 3302SOL     OW21367   1.688   4.494   9.585  0.0866  0.4284 -0.2889
 3302SOL    HW121368   1.705   4.581   9.549  1.5355 -0.8595 -2.7187
 3302SOL    HW221369   1.743   4.435   9.532 -1.7986 -0.3890 -1.3602
 3303SOL     OW21370   3.516   4.444   8.697 -0.0478  0.1186 -0.6079
 3303SOL    HW121371   3.466   4.523   8.673  0.2708 -0.5314 -3.4618
 3303SOL    HW221372   3.490   4.393   8.620  2.1153  0.4959 -1.6107
 3304SOL     OW21373   2.593   2.434  13.424  0.1816  0.5385  0.0529
 3304SOL    HW121374   2.682   2.401  13.413 -0.7302 -1.4879 -1.1283
 3304SOL    HW221375   2.601   2.468  13.514 -1.9099  0.6393  0.2131
 3305SOL     OW21376   2.691   3.913  17.632 -0.0362 -1.0106  0.0399
 3305SOL    HW121377   2.722   3.822  17.624  2.3393 -0.1981 -0.1202
 3305SOL    HW221378   2.733   3.939   0.034  0.5610  0.2167 -0.6522
 3306SOL     OW21379   0.482   1.128   2.974 -0.1906  0.2731  0.4327
 3306SOL    HW121380   0.511   1.110   2.885  0.0551  1.2321  0.3140
 3306SOL    HW221381   0.511   1.218   2.989  0.5691 -0.2682  2.1868
 3307SOL     OW21382   2.411   2.270   1.990 -0.0435  0.3812  0.2437
 3307SOL    HW121383   2.339   2.303   2.043  1.1791  0.7133  1.7014
 3307SOL    HW221384   2.475   2.337   2.014  1.5993 -0.5597 -1.4392
 3308SOL     OW21385   2.888   2.939   9.952 -0.0109  0.0378 -0.3434
 3308SOL    HW121386   2.966   2.885   9.940  0.1935  0.2702 -0.0764
 3308SOL    HW221387   2.917   3.016  10.000 -0.2104  0.6855 -1.2843
 3309SOL     OW21388   3.829   2.991   2.594  0.6914 -0.0172 -0.1962
 3309SOL    HW121389   3.850   3.033   2.511  1.9301  0.7075  0.4895
 3309SOL    HW221390   3.776   2.913   2.575  0.4219  0.0919  0.0948
 3310SOL     OW21391   3.953   3.847   7.111 -0.4044 -0.2825  0.0289
 3310SOL    HW121392   3.992   3.788   7.176  1.2632  0.5040 -0.2481
 3310SOL    HW221393   4.009   3.823   7.037 -0.6502 -2.2697  0.4905
 3311SOL     OW21394   0.880   2.378  12.390  0.2713 -0.1082  0.0720
 3311SOL    HW121395   0.976   2.378  12.400  0.2490 -2.3274  0.3843
 3311SOL    HW221396   0.864   2.433  12.313 -1.3175  0.5463  0.8741
 3312SOL     OW21397   0.944   1.411   5.845 -0.4054  0.1821 -0.0756
 3312SOL    HW121398   1.021   1.462   5.870 -0.4316 -0.4569  1.3046
 3312SOL    HW221399   0.957   1.408   5.750  0.1890 -1.8782  0.0652
 3313SOL     OW21400   3.376   4.172   2.789  0.3523 -0.2952  0.5076
 3313SOL    HW121401   3.408   4.246   2.737  0.5497  0.3742  1.5694
 3313SOL    HW221402   3.379   4.211   2.877  0.4995  0.7459  0.0422
 3314SOL     OW21403   3.735   4.510   8.017 -0.5108 -0.5617 -0.2033
 3314SOL    HW121404   3.691   4.554   7.944 -0.0676 -1.4141 -0.9839
 3314SOL    HW221405   3.803   4.574   8.038  0.1876 -0.2830 -3.3170
 3315SOL     OW21406   2.921   4.630   8.182  0.4798  0.2090 -0.8668
 3315SOL    HW121407   2.877   4.679   8.251  2.9406  0.4112  0.5496
 3315SOL    HW221408   2.854   4.627   8.114 -0.2787  0.6350 -0.1427
 3316SOL     OW21409   2.554   1.507   3.911  0.1460  0.9232  0.5198
 3316SOL    HW121410   2.627   1.448   3.893  1.3469  2.8141 -0.8961
 3316SOL    HW221411   2.483   1.455   3.874  0.7648  2.1252 -2.3456
 3317SOL     OW21412   1.491   2.494   4.415  0.1305  0.6200  0.8714
 3317SOL    HW121413   1.462   2.585   4.422  0.5428  0.9803 -1.8795
 3317SOL    HW221414   1.495   2.499   4.319 -1.5236  1.0369  0.8285
 3318SOL     OW21415   3.264   0.006   1.138  0.3860  0.6248  0.4392
 3318SOL    HW121416   3.243   4.644   1.092 -2.2834 -0.4956  3.6781
 3318SOL    HW221417   3.188   0.018   1.194  0.4483  0.6753  0.5128
 3319SOL     OW21418   0.725   4.388   5.695 -0.0363  0.0133  0.1316
 3319SOL    HW121419   0.737   4.473   5.652  0.4354 -0.0149  0.1992
 3319SOL    HW221420   0.632   4.368   5.691 -0.0814  0.4956 -1.3967
 3320SOL     OW21421   3.842   3.403   2.026 -0.6869  0.0302  0.1250
 3320SOL    HW121422   3.816   3.468   1.962 -1.4866  1.7645  2.1977
 3320SOL    HW221423   3.803   3.326   1.984  0.6127 -2.4989  3.5461
 3321SOL     OW21424   2.525   2.563   5.860  0.1409 -0.2038  0.1200
 3321SOL    HW121425   2.620   2.562   5.856  0.1300 -0.7053 -0.0465
 3321SOL    HW221426   2.508   2.657   5.868 -0.3494 -0.5568  3.5796
 3322SOL     OW21427   3.474   2.227  11.492 -0.5828  0.1083  0.2377
 3322SOL    HW121428   3.421   2.153  11.463  0.8837  0.1372 -2.5284
 3322SOL    HW221429   3.533   2.227  11.417 -0.0835 -1.4971  0.6116
 3323SOL     OW21430   4.629   0.582   3.324 -0.4248  0.2766  0.4512
 3323SOL    HW121431   4.623   0.618   3.236 -0.1788 -0.4600  0.1354
 3323SOL    HW221432   4.634   0.662   3.377  0.5663  0.3346  0.2737
 3324SOL     OW21433   4.629   0.988  16.868 -1.0807 -0.1180 -0.1507
 3324SOL    HW121434   4.672   0.949  16.944 -0.5766  2.4020  0.8345
 3324SOL    HW221435   4.614   1.076  16.902 -2.3379 -0.0487 -0.8950
 3325SOL     OW21436   4.150   1.826  10.038 -0.1811 -0.4055  0.6269
 3325SOL    HW121437   4.092   1.826  10.114 -3.0486 -1.5940 -1.5848
 3325SOL    HW221438   4.099   1.863   9.966  0.3483  1.1844  1.0702
 3326SOL     OW21439   1.085   4.685  16.750 -0.0060  0.4025 -0.3452
 3326SOL    HW121440   0.992   4.678  16.774 -0.5518 -3.2613 -3.5105
 3326SOL    HW221441   1.118   4.608  16.796 -1.7570 -0.2720 -0.1937
 3327SOL     OW21442   2.472   1.276   4.311 -0.3732 -0.0395  0.1225
 3327SOL    HW121443   2.402   1.244   4.368 -1.6151 -0.3242 -1.5629
 3327SOL    HW221444   2.418   1.279   4.232 -0.2886  2.3279  0.1577
 3328SOL     OW21445   3.959   1.388   8.115 -0.2471 -0.1394  0.2588
 3328SOL    HW121446   3.981   1.454   8.049 -0.6303 -0.1910  0.0818
 3328SOL    HW221447   3.864   1.392   8.115 -0.2148  0.6271 -2.4259
 3329SOL     OW21448   3.650   3.025   4.226 -0.0500 -0.4362 -0.0999
 3329SOL    HW121449   3.555   3.026   4.214 -0.0157 -0.1254 -0.3355
 3329SOL    HW221450   3.653   3.004   4.319 -0.7885 -0.7749 -0.1511
 3330SOL     OW21451   2.447   0.324   5.632  0.2168 -0.2525  0.5863
 3330SOL    HW121452   2.477   0.317   5.722 -4.3930 -2.0533  1.9900
 3330SOL    HW221453   2.469   0.415   5.609  0.8885 -0.5082  0.2202
 3331SOL     OW21454   2.535   0.597   5.570 -0.2763 -0.2540 -0.3954
 3331SOL    HW121455   2.499   0.670   5.621 -2.4666  0.7251 -3.3693
 3331SOL    HW221456   2.622   0.583   5.609  0.3662 -0.5388 -1.9174
 3332SOL     OW21457   0.304   2.327   7.834 -0.3589  0.1336  0.2247
 3332SOL    HW121458   0.392   2.361   7.853 -0.1172  0.2025 -0.9931
 3332SOL    HW221459   0.289   2.334   7.739  0.4953 -1.2487 -0.0126
 3333SOL     OW21460   3.436   4.385  12.677 -0.1594  0.0121  0.6986
 3333SOL    HW121461   3.456   4.452  12.743  1.1611  0.2799  0.0394
 3333SOL    HW221462   3.519   4.387  12.628 -0.3278  0.2528  0.4237
 3334SOL     OW21463   0.070   2.832   3.244 -1.1224  0.0444  0.1967
 3334SOL    HW121464   0.040   2.875   3.325  2.2979  1.3212  0.7676
 3334SOL    HW221465   0.111   2.902   3.194  2.8444 -2.2443  0.3121
 3335SOL     OW21466   0.353   1.750   4.197  0.0733 -0.4663  0.0700
 3335SOL    HW121467   0.285   1.783   4.138 -1.0370  0.6342  1.9567
 3335SOL    HW221468   0.302   1.744   4.278  0.0529  0.4325  0.1218
 3336SOL     OW21469   3.149   3.317   8.406 -0.4340  0.2249  0.1760
 3336SOL    HW121470   3.093   3.383   8.365  4.2860  3.3779 -1.2350
 3336SOL    HW221471   3.225   3.365   8.374  0.4968  1.0061  3.5126
 3337SOL     OW21472   4.350   0.991   5.757  0.5967 -0.3274 -0.3404
 3337SOL    HW121473   4.371   0.921   5.695  1.0124 -0.1925 -0.3580
 3337SOL    HW221474   4.361   1.074   5.710  0.5082  0.1365  0.4563
 3338SOL     OW21475   0.830   0.086   4.566  0.2718  0.3327  0.0700
 3338SOL    HW121476   0.816   0.016   4.630  1.5555  2.0082  2.1954
 3338SOL    HW221477   0.776   0.157   4.602 -1.6191 -1.2089  0.2755
 3339SOL     OW21478   3.629   3.303  11.382  0.2584 -0.2286  0.1357
 3339SOL    HW121479   3.644   3.301  11.477  2.4658  0.1556 -0.2265
 3339SOL    HW221480   3.557   3.366  11.376  0.3569 -0.2304 -1.0987
 3340SOL     OW21481   3.784   0.092   9.401  0.8025  0.0949 -0.1940
 3340SOL    HW121482   3.691   0.075   9.385  0.9400 -1.0206  0.1717
 3340SOL    HW221483   3.781   0.132   9.488  0.2793 -0.0958 -0.1215
 3341SOL     OW21484   1.502   2.223  13.747  0.0816  0.3210 -0.0410
 3341SOL    HW121485   1.413   2.188  13.749  0.4750 -0.5544  2.1574
 3341SOL    HW221486   1.485   2.313  13.775 -1.6330  0.2448 -0.8989
 3342SOL     OW21487   4.618   1.367   3.915 -0.6995  0.1719  0.2550
 3342SOL    HW121488   4.646   1.278   3.893 -1.0185  0.4451 -1.2385
 3342SOL    HW221489   4.594   1.399   3.828  1.0824  0.5914 -0.0751
 3343SOL     OW21490   4.546   2.793  12.635  0.3067 -0.5066  0.0034
 3343SOL    HW121491   4.452   2.785  12.647  0.2865 -2.0660 -1.2287
 3343SOL    HW221492   4.576   2.853  12.704 -1.9539  1.3851 -0.6814
 3344SOL     OW21493   4.536   0.428   4.534  0.9111 -0.0298  0.2651
 3344SOL    HW121494   4.627   0.447   4.513  0.1424 -0.6200 -3.4862
 3344SOL    HW221495   4.522   0.371   4.459  2.1248 -1.4297  1.1180
 3345SOL     OW21496   2.627   2.260   2.368  0.2910  0.4288  0.0236
 3345SOL    HW121497   2.664   2.336   2.414  1.5807 -0.9215  1.2371
 3345SOL    HW221498   2.641   2.298   2.282 -0.5931 -0.6296 -0.5773
 3346SOL     OW21499   3.645   3.041   5.970  0.2459  0.5271 -0.2647
 3346SOL    HW121500   3.626   3.078   6.056 -0.6024  0.1060 -0.2650
 3346SOL    HW221501   3.677   3.116   5.919  2.4194  1.0850  1.9407
 3347SOL     OW21502   1.129   2.629   7.206 -0.9041  0.0042  0.4192
 3347SOL    HW121503   1.176   2.549   7.183 -2.3598 -0.2162 -1.8041
 3347SOL    HW221504   1.122   2.626   7.302  0.6056 -2.4208  0.4571
 3348SOL     OW21505   2.065   4.480  11.217  0.3286  0.0529 -0.1106
 3348SOL    HW121506   2.113   4.414  11.267 -1.3568 -1.2269 -0.1478
 3348SOL    HW221507   1.995   4.493  11.281  0.4683 -2.0225  0.4819
 3349SOL     OW21508   3.206   1.337   0.481  0.4595 -0.3472 -0.1126
 3349SOL    HW121509   3.238   1.295   0.401 -0.1360  1.7938 -1.4711
 3349SOL    HW221510   3.271   1.406   0.497  1.4865 -1.3872  0.2442
 3350SOL     OW21511   3.082   0.884   9.966 -0.5554 -0.7467  0.0060
 3350SOL    HW121512   3.093   0.923  10.053 -0.5218  0.9808 -0.7917
 3350SOL    HW221513   3.001   0.924   9.935  0.8820  1.2681 -1.0908
 3351SOL     OW21514   1.888   4.094   6.367  0.6197  0.1317  0.3812
 3351SOL    HW121515   1.971   4.095   6.319  1.0247 -3.0689  1.0282
 3351SOL    HW221516   1.864   4.184   6.344  2.3678  1.0013  2.0047
 3352SOL     OW21517   3.968   0.481  15.335 -0.7141  0.7867  0.0080
 3352SOL    HW121518   4.054   0.493  15.376 -0.0315 -0.5900 -1.0444
 3352SOL    HW221519   3.954   0.389  15.359 -1.9866  0.4913 -1.8290
 3353SOL     OW21520   4.584   2.020   9.856  0.1946 -0.2803  0.5993
 3353SOL    HW121521   4.522   2.027   9.929  0.9715 -3.2557  1.5423
 3353SOL    HW221522   4.531   1.984   9.785  1.0687 -0.7928  0.2115
 3354SOL     OW21523   0.545   0.103   8.892 -0.1395 -0.4522 -0.3250
 3354SOL    HW121524   0.625   0.154   8.878  0.6143 -1.6384 -0.3658
 3354SOL    HW221525   0.543   0.100   8.988  0.5175  1.5656 -0.2428
 3355SOL     OW21526   1.143   2.863   7.523 -0.1207  0.2618 -0.0254
 3355SOL    HW121527   1.095   2.869   7.606 -1.3733  0.5737 -0.7719
 3355SOL    HW221528   1.141   2.768   7.510 -0.6809  0.4490 -1.3114
 3356SOL     OW21529   2.328   4.460  15.071 -0.1663 -0.3216 -0.5774
 3356SOL    HW121530   2.414   4.494  15.096 -0.7992  0.4964  0.4612
 3356SOL    HW221531   2.276   4.541  15.067  0.0617 -0.1388  0.2818
 3357SOL     OW21532   3.742   1.547   8.782  0.1801 -0.2786  0.0914
 3357SOL    HW121533   3.654   1.511   8.778  0.2560 -0.0938 -2.9582
 3357SOL    HW221534   3.782   1.498   8.854  0.0295 -1.1960 -0.4644
 3358SOL     OW21535   4.481   1.361   1.823  0.0626  0.5363 -0.1340
 3358SOL    HW121536   4.476   1.443   1.872 -3.2771 -0.0792  0.5755
 3358SOL    HW221537   4.538   1.309   1.879  1.1855 -0.8204 -2.5732
 3359SOL     OW21538   1.896   2.127   3.431 -0.2117  0.4110 -0.1551
 3359SOL    HW121539   1.891   2.188   3.505  2.1969 -2.2602  2.2344
 3359SOL    HW221540   1.879   2.045   3.477 -0.2976 -0.9652 -2.6631
 3360SOL     OW21541   3.679   2.881   6.636 -0.5242 -0.2306 -0.1024
 3360SOL    HW121542   3.685   2.813   6.703 -0.6947 -0.1972 -0.0523
 3360SOL    HW221543   3.706   2.833   6.558  0.8454  1.2509 -0.5424
 3361SOL     OW21544   4.513   3.129   3.217  0.1778 -0.6756 -0.4007
 3361SOL    HW121545   4.469   3.047   3.240 -1.3833  0.8751  2.1515
 3361SOL    HW221546   4.439   3.189   3.217 -0.5905 -1.6305  0.1973
 3362SOL     OW21547   2.349   4.202   2.229  0.5173 -0.3304 -0.1837
 3362SOL    HW121548   2.351   4.297   2.229 -0.7461 -0.3063 -2.3406
 3362SOL    HW221549   2.414   4.183   2.297  0.9821  1.4204 -0.1399
 3363SOL     OW21550   1.402   2.755   7.210  0.0688 -0.3487  0.0614
 3363SOL    HW121551   1.479   2.792   7.252 -0.8351 -1.2608  2.4968
 3363SOL    HW221552   1.345   2.831   7.211 -0.0259 -0.4801  2.5072
 3364SOL     OW21553   1.901   4.622   0.398  0.1582 -0.2877 -0.5671
 3364SOL    HW121554   1.963   4.693   0.410  0.1220 -0.2349 -0.6884
 3364SOL    HW221555   1.872   4.605   0.487 -0.5662  2.0245 -0.3832
 3365SOL     OW21556   0.321   2.176   6.222 -0.7109  0.0785 -0.1388
 3365SOL    HW121557   0.294   2.188   6.313  1.4159  0.4928  0.4256
 3365SOL    HW221558   0.416   2.172   6.229 -0.8071 -0.8429  0.6377
 3366SOL     OW21559   2.957   2.610   8.638 -0.0338 -0.6474  0.3440
 3366SOL    HW121560   2.987   2.528   8.677  1.0362 -0.4966 -0.1481
 3366SOL    HW221561   3.020   2.664   8.686 -0.3571 -1.4207  1.6168
 3367SOL     OW21562   0.125   4.268   6.381 -0.1295  0.2896 -0.6975
 3367SOL    HW121563   0.171   4.229   6.455 -1.3715  1.2136  0.5380
 3367SOL    HW221564   0.177   4.347   6.363 -2.0115  2.0537  1.6591
 3368SOL     OW21565   0.969   0.753  11.887  0.0776 -0.0236  0.0876
 3368SOL    HW121566   0.988   0.846  11.899 -0.7219  0.3260 -1.3789
 3368SOL    HW221567   0.884   0.764  11.844 -0.2886  1.0863  1.1146
 3369SOL     OW21568   0.756   3.020  16.036  0.1449  0.0678  0.1220
 3369SOL    HW121569   0.837   3.055  16.072 -1.8822  2.0200  2.7356
 3369SOL    HW221570   0.708   3.101  16.022 -1.1106 -0.6378  0.3030
 3370SOL     OW21571   4.223   2.202   8.522  0.2901  0.2779  0.5423
 3370SOL    HW121572   4.130   2.192   8.541 -0.3259  0.1500 -2.4694
 3370SOL    HW221573   4.225   2.128   8.462 -0.4317  0.7265 -0.0380
 3371SOL     OW21574   1.172   2.416  12.360 -0.3672 -0.1648 -0.0728
 3371SOL    HW121575   1.213   2.339  12.399 -1.3627 -0.8152 -0.3212
 3371SOL    HW221576   1.184   2.394  12.268 -4.2869  3.4027 -1.4409
 3372SOL     OW21577   0.090   4.161  13.033  0.2621  0.0412  0.6103
 3372SOL    HW121578   0.008   4.163  12.983  1.1771  1.6287 -0.8133
 3372SOL    HW221579   0.097   4.251  13.064  0.1025 -0.3992  1.9279
 3373SOL     OW21580   3.920   3.034   4.068  0.1754  0.4712 -0.4374
 3373SOL    HW121581   3.857   2.969   4.037  1.3250 -0.9393  0.1728
 3373SOL    HW221582   4.001   3.004   4.027  0.8491  2.4856 -0.5744
 3374SOL     OW21583   3.049   1.612   8.015 -0.0453  0.1642 -0.6947
 3374SOL    HW121584   3.076   1.661   8.093  0.2502  0.6903 -1.1338
 3374SOL    HW221585   3.036   1.523   8.048 -1.8652 -0.3451 -2.8323
 3375SOL     OW21586   4.427   0.419   5.534  0.4082 -0.6985  0.1931
 3375SOL    HW121587   4.411   0.369   5.614 -1.3572  0.7275  0.7184
 3375SOL    HW221588   4.522   0.425   5.537  0.3060  1.1996 -0.9142
 3376SOL     OW21589   0.000   4.576   5.152 -0.6032 -0.7740 -0.0509
 3376SOL    HW121590   4.680   4.492   5.128 -0.8356 -0.6440 -0.1219
 3376SOL    HW221591   0.038   4.607   5.070 -2.9070  0.7974 -0.5209
 3377SOL     OW21592   4.172   3.065  11.582  0.0243  0.0347 -0.4275
 3377SOL    HW121593   4.164   2.986  11.528 -1.0427 -0.8099  0.9504
 3377SOL    HW221594   4.088   3.104  11.559 -0.3839 -1.4255 -1.4317
 3378SOL     OW21595   4.428   1.209   5.577 -0.1990 -0.4179  0.5216
 3378SOL    HW121596   4.509   1.158   5.586  1.1716  1.6249 -0.3192
 3378SOL    HW221597   4.456   1.298   5.598  0.4881 -0.3549 -0.6682
 3379SOL     OW21598   0.270   1.408   1.844  0.0642 -0.2848  0.8411
 3379SOL    HW121599   0.344   1.353   1.872 -0.8902 -0.9786  1.9950
 3379SOL    HW221600   0.228   1.335   1.798  0.8765  0.0386 -0.4168
 3380SOL     OW21601   2.930   4.476   2.143 -0.0827  0.0442 -0.1607
 3380SOL    HW121602   2.993   4.529   2.095 -0.7669  0.4731 -0.5843
 3380SOL    HW221603   2.944   4.393   2.097 -1.5031 -1.2597  1.7745
 3381SOL     OW21604   2.001   2.538   4.028  0.4500 -0.1889 -0.1262
 3381SOL    HW121605   2.043   2.470   3.975  1.0066 -0.8434  1.1614
 3381SOL    HW221606   2.045   2.618   3.998 -0.0982  0.6777  1.4278
 3382SOL     OW21607   0.574   3.828   4.908 -0.3489  0.3142  0.1041
 3382SOL    HW121608   0.529   3.764   4.852  0.3804  3.1627 -3.7346
 3382SOL    HW221609   0.499   3.857   4.961 -1.0149 -3.7523  1.4006
 3383SOL     OW21610   2.746   0.419   2.522 -0.1300  0.2216 -0.1969
 3383SOL    HW121611   2.795   0.487   2.567 -1.8628  2.0040 -1.0325
 3383SOL    HW221612   2.773   0.426   2.430  2.3305 -1.6461  0.3644
 3384SOL     OW21613   4.621   2.414  13.087 -0.7462 -0.0934 -0.3154
 3384SOL    HW121614   4.614   2.338  13.029  2.1599 -3.0150  3.0999
 3384SOL    HW221615   4.717   2.418  13.086 -0.8078  0.7336 -1.7357
 3385SOL     OW21616   3.092   1.317   3.286  0.1979  0.2048  0.3244
 3385SOL    HW121617   3.083   1.399   3.237 -0.2958 -0.4027 -0.5869
 3385SOL    HW221618   3.116   1.356   3.370 -0.5310  2.6282 -0.5886
 3386SOL     OW21619   2.234   3.589   7.225  0.3378 -0.5334 -0.3285
 3386SOL    HW121620   2.282   3.573   7.306 -0.6517 -1.3697  0.0959
 3386SOL    HW221621   2.241   3.501   7.187 -3.8132 -0.3912 -1.4665
 3387SOL     OW21622   0.745   1.733   1.204  0.0859  0.2388 -0.5500
 3387SOL    HW121623   0.739   1.644   1.169 -1.2982 -0.8400  2.4964
 3387SOL    HW221624   0.788   1.715   1.287 -3.2697 -0.1086  1.0776
 3388SOL     OW21625   3.970   3.176   3.734 -0.2981 -0.5133  0.0700
 3388SOL    HW121626   4.054   3.201   3.773  0.5824  0.1424 -2.2508
 3388SOL    HW221627   3.972   3.081   3.740  2.6990 -0.4556 -0.2209
 3389SOL     OW21628   1.897   1.172   1.913 -0.3260 -0.2498  0.0216
 3389SOL    HW121629   1.952   1.094   1.922 -2.3482 -1.7718 -0.6049
 3389SOL    HW221630   1.821   1.149   1.860 -0.1392 -0.3486 -0.2023
 3390SOL     OW21631   1.782   0.648  11.585  0.7548 -0.0938 -0.2843
 3390SOL    HW121632   1.701   0.699  11.583 -0.7649 -2.4988 -0.0259
 3390SOL    HW221633   1.775   0.606  11.671 -3.2520 -3.1556 -2.1289
 3391SOL     OW21634   2.518   4.621  10.069  0.1823 -0.4017 -0.7053
 3391SOL    HW121635   2.533   4.627   9.974  0.7751 -1.1558 -0.6611
 3391SOL    HW221636   2.499   4.713  10.085  1.4758  0.2015 -2.6104
 3392SOL     OW21637   4.070   3.665   8.185  0.0489 -0.3164 -0.6376
 3392SOL    HW121638   3.990   3.701   8.147  0.2167  1.1079  0.3568
 3392SOL    HW221639   4.030   3.590   8.229  1.1135  0.2773  1.3209
 3393SOL     OW21640   3.789   3.025  12.141 -0.4255  0.3308 -0.1643
 3393SOL    HW121641   3.862   3.086  12.133  0.4654 -0.5375  1.1950
 3393SOL    HW221642   3.718   3.067  12.093 -1.5121 -0.8630  0.3971
 3394SOL     OW21643   3.684   3.531   1.837 -0.2168  0.1848 -0.7238
 3394SOL    HW121644   3.594   3.557   1.820 -0.3262  0.0624 -0.3507
 3394SOL    HW221645   3.706   3.497   1.750 -0.5980 -0.6630 -0.4939
 3395SOL     OW21646   0.776   1.804   6.092  0.7066 -0.2963 -0.0913
 3395SOL    HW121647   0.854   1.839   6.050 -0.7199 -0.3853 -2.7868
 3395SOL    HW221648   0.793   1.710   6.098 -2.8519 -0.8341  1.7498
 3396SOL     OW21649   0.797   0.631   6.343  0.4566  0.0798  0.1892
 3396SOL    HW121650   0.719   0.595   6.386 -1.8117  0.0140 -3.9464
 3396SOL    HW221651   0.818   0.571   6.272 -1.4273  0.3595 -0.6014
 3397SOL     OW21652   2.540   1.563   9.544  0.3554  0.4373  0.8060
 3397SOL    HW121653   2.627   1.589   9.514  0.2073 -0.4224 -0.4205
 3397SOL    HW221654   2.525   1.469   9.531  0.7845  0.5667 -0.6773
 3398SOL     OW21655   1.831   4.029  10.287 -0.1496 -0.2830  0.8669
 3398SOL    HW121656   1.893   3.970  10.329  2.5493  0.5997 -1.9308
 3398SOL    HW221657   1.761   3.967  10.267  0.5351 -1.7072  2.8376
 3399SOL     OW21658   1.712   3.400  12.277  0.5810 -0.2768  0.4671
 3399SOL    HW121659   1.771   3.443  12.214 -0.3803  0.7730  0.2859
 3399SOL    HW221660   1.755   3.314  12.283  2.2914  0.3953 -1.9184
 3400SOL     OW21661   3.992   3.897   9.879 -0.0423  0.0024 -0.1482
 3400SOL    HW121662   3.987   3.832   9.948 -0.3884  2.1482  1.8434
 3400SOL    HW221663   3.946   3.966   9.927  0.2239 -0.6933  1.1061
 3401SOL     OW21664   4.125   0.342   9.232  0.2712 -0.2841 -0.5524
 3401SOL    HW121665   4.133   0.339   9.137  2.8296  0.3599 -0.3712
 3401SOL    HW221666   4.060   0.276   9.254 -0.7707  0.2122 -2.1505
 3402SOL     OW21667   0.998   2.812   7.747 -0.1275  0.1500 -0.1190
 3402SOL    HW121668   0.926   2.859   7.789 -2.0565 -1.8050 -1.2723
 3402SOL    HW221669   1.060   2.791   7.817 -1.5660  0.7944  1.3461
 3403SOL     OW21670   2.554   0.933   8.148  0.1546 -0.2739 -0.1795
 3403SOL    HW121671   2.525   0.847   8.179  1.9299 -0.4059  1.1335
 3403SOL    HW221672   2.481   0.995   8.145 -0.5323 -1.1257 -0.7759
 3404SOL     OW21673   3.550   2.967   8.248  0.3543 -0.1819  0.1051
 3404SOL    HW121674   3.609   3.013   8.188  1.3315  1.3796  2.2709
 3404SOL    HW221675   3.571   2.880   8.215 -0.2897 -0.1332 -0.4425
 3405SOL     OW21676   3.413   0.441   6.765  0.2446  0.2984  0.5691
 3405SOL    HW121677   3.445   0.452   6.676 -0.2794  0.3087  0.3825
 3405SOL    HW221678   3.497   0.409   6.798  0.9293 -0.9884 -2.4422
 3406SOL     OW21679   0.143   2.823   8.919  0.0147  0.5126 -0.8597
 3406SOL    HW121680   0.190   2.902   8.890  0.6837  1.3129  2.3994
 3406SOL    HW221681   0.214   2.784   8.970  0.7591  0.6121 -1.8107
 3407SOL     OW21682   4.364   1.621   9.562 -0.7736 -0.2397 -0.3609
 3407SOL    HW121683   4.269   1.624   9.555 -0.7528  0.1423 -0.4947
 3407SOL    HW221684   4.395   1.694   9.616  0.5542 -1.7321  0.8892
 3408SOL     OW21685   3.142   2.970  10.909 -0.1371 -0.0820  0.0912
 3408SOL    HW121686   3.158   2.881  10.941  2.0866  0.3550  0.1877
 3408SOL    HW221687   3.172   3.020  10.984 -1.3565  3.8756 -2.0981
 3409SOL     OW21688   0.053   3.537   1.904 -1.0359  0.1406 -0.3599
 3409SOL    HW121689   0.111   3.465   1.877  1.6334  2.2847 -0.4239
 3409SOL    HW221690   4.687   3.496   1.904 -0.6027 -0.7598  0.0444
 3410SOL     OW21691   4.147   2.772   4.652 -0.5460 -0.4866 -0.3049
 3410SOL    HW121692   4.228   2.725   4.633  0.2362  0.6552  0.2093
 3410SOL    HW221693   4.173   2.853   4.696 -2.4935 -1.3171  2.3946
 3411SOL     OW21694   1.338   3.806   1.367 -0.0190  0.0018  0.0668
 3411SOL    HW121695   1.269   3.743   1.347  0.8285 -1.6143  2.2503
 3411SOL    HW221696   1.312   3.876   1.307 -4.1933 -1.7781 -0.1401
 3412SOL     OW21697   0.800   3.805   9.419 -0.2372 -0.2190 -0.5356
 3412SOL    HW121698   0.828   3.713   9.418  1.1854  0.1895  1.7086
 3412SOL    HW221699   0.826   3.832   9.331 -1.2161 -1.1239 -1.1016
 3413SOL     OW21700   1.968   4.009   3.335  0.0412 -0.9727  0.0074
 3413SOL    HW121701   2.016   4.025   3.416 -0.8332 -1.2108  0.5784
 3413SOL    HW221702   2.022   3.938   3.302 -1.4076 -1.8269 -0.5368
 3414SOL     OW21703   1.860   1.384  10.870  0.1619  0.4828  0.0718
 3414SOL    HW121704   1.848   1.374  10.964 -0.8115 -1.7999 -0.2890
 3414SOL    HW221705   1.956   1.388  10.866  0.2018 -0.7217 -0.1779
 3415SOL     OW21706   2.458   1.334  11.547  0.0848  0.0380 -0.0561
 3415SOL    HW121707   2.480   1.291  11.629  1.3470 -0.1648 -0.4855
 3415SOL    HW221708   2.529   1.396  11.533  0.5960 -0.5840 -0.2444
 3416SOL     OW21709   3.005   4.571   6.774  0.7468  0.2484  0.6787
 3416SOL    HW121710   3.001   4.476   6.764 -1.2428  0.6719 -2.5547
 3416SOL    HW221711   2.929   4.583   6.831  2.2607 -0.5862  2.8842
 3417SOL     OW21712   1.646   3.669  11.370  0.1074  0.0538  0.4131
 3417SOL    HW121713   1.722   3.679  11.428  0.6113  0.6246 -0.3446
 3417SOL    HW221714   1.588   3.609  11.417  0.3093 -1.2339 -0.9881
 3418SOL     OW21715   4.018   4.425   8.235 -0.3358 -0.0699 -0.2457
 3418SOL    HW121716   4.046   4.341   8.197 -0.7628  0.1510 -1.0418
 3418SOL    HW221717   3.925   4.409   8.253  0.4470 -2.5613  1.6835
 3419SOL     OW21718   2.536   3.745  13.158 -0.3167  0.6009  0.2330
 3419SOL    HW121719   2.485   3.700  13.090 -2.1576 -0.9599  2.6472
 3419SOL    HW221720   2.466   3.786  13.209  1.6546  2.3150  1.5679
 3420SOL     OW21721   2.048   1.566   5.404 -0.0964  0.2206  0.0969
 3420SOL    HW121722   2.043   1.483   5.451 -0.1480  0.0530 -0.2017
 3420SOL    HW221723   2.131   1.604   5.433  0.3865 -0.5697 -0.2461
 3421SOL     OW21724   3.659   3.854  17.122 -0.1352  0.1708  0.4401
 3421SOL    HW121725   3.748   3.857  17.087  0.0558  1.3954  1.0155
 3421SOL    HW221726   3.628   3.775  17.077  4.7844 -1.0108 -0.8436
 3422SOL     OW21727   2.718   4.396   2.850 -0.1308  0.2987  0.3490
 3422SOL    HW121728   2.696   4.388   2.758  0.4777  0.8502  0.1506
 3422SOL    HW221729   2.795   4.451   2.834 -1.0985  0.9921 -1.9162
 3423SOL     OW21730   2.673   2.982  13.652  0.2763 -0.0319 -0.0514
 3423SOL    HW121731   2.594   2.931  13.670 -1.0007  1.5732 -1.1089
 3423SOL    HW221732   2.740   2.914  13.662  0.3759  0.2067  0.8143
 3424SOL     OW21733   2.243   1.309  10.034  0.4452  0.0079  0.2463
 3424SOL    HW121734   2.284   1.327  10.119  1.2730  0.5734 -0.2822
 3424SOL    HW221735   2.322   1.295   9.982 -0.1897 -1.2296 -0.3601
 3425SOL     OW21736   2.420   0.882   2.659 -0.1868  0.4650  0.4312
 3425SOL    HW121737   2.328   0.896   2.684 -0.5962  0.6920 -1.1648
 3425SOL    HW221738   2.433   0.787   2.661  1.0910  0.6209 -0.2803
 3426SOL     OW21739   3.872   1.708   3.050 -0.1206  0.2425 -0.0571
 3426SOL    HW121740   3.848   1.700   3.143  1.2122 -2.5027  0.0551
 3426SOL    HW221741   3.938   1.640   3.037 -0.0374  0.3993 -0.4482
 3427SOL     OW21742   3.934   1.243   3.501  0.3803  0.4711 -0.0368
 3427SOL    HW121743   3.865   1.270   3.561 -0.2731 -0.7737 -0.2346
 3427SOL    HW221744   3.886   1.237   3.419 -1.6287  2.5973  0.9662
 3428SOL     OW21745   4.463   1.146   8.436 -0.0622 -0.1330  0.4070
 3428SOL    HW121746   4.424   1.089   8.370 -1.1118 -0.3245  1.1955
 3428SOL    HW221747   4.426   1.232   8.420  2.2540  0.9897  1.0650
 3429SOL     OW21748   4.145   0.679  12.301 -0.5242  0.3774  0.1968
 3429SOL    HW121749   4.093   0.635  12.233  0.7119  0.6137 -0.8944
 3429SOL    HW221750   4.079   0.741  12.333  0.4073  0.7312  1.4249
 3430SOL     OW21751   1.981   1.113   9.752 -0.2768  0.5897 -0.2432
 3430SOL    HW121752   1.976   1.049   9.823  0.7756  1.1008  0.2885
 3430SOL    HW221753   1.906   1.170   9.764  0.2122  1.3756 -0.9210
 3431SOL     OW21754   3.147   1.578   5.854  0.0140 -0.0030 -0.2560
 3431SOL    HW121755   3.141   1.499   5.908  0.4207  0.9144  1.1412
 3431SOL    HW221756   3.097   1.551   5.777 -1.0690 -2.0334  1.1677
 3432SOL     OW21757   1.497   2.578   1.465  0.5724 -0.7095 -0.0734
 3432SOL    HW121758   1.411   2.606   1.434 -0.9108 -2.8197  2.2103
 3432SOL    HW221759   1.506   2.633   1.544 -0.1481 -0.4978 -0.1365
 3433SOL     OW21760   2.412   4.367  10.042  0.1417 -0.2647  0.1892
 3433SOL    HW121761   2.435   4.459  10.034 -0.1146 -0.1369  0.9561
 3433SOL    HW221762   2.394   4.368  10.136 -1.7977  1.5825 -0.1988
 3434SOL     OW21763   1.090   0.300  10.707 -0.0429 -0.8695 -0.6686
 3434SOL    HW121764   1.141   0.233  10.661  3.1402  0.2813  1.1605
 3434SOL    HW221765   1.087   0.368  10.640  0.4458 -0.0296  0.1514
 3435SOL     OW21766   0.139   3.338   8.948 -0.0537 -0.6683  0.0691
 3435SOL    HW121767   0.069   3.280   8.980 -1.5910  1.7209  0.9743
 3435SOL    HW221768   0.100   3.424   8.962 -3.3603 -2.0324 -0.8447
 3436SOL     OW21769   2.605   1.520   6.011  0.2431  0.2149  0.1390
 3436SOL    HW121770   2.658   1.590   6.048 -2.0668  1.5311  0.9779
 3436SOL    HW221771   2.520   1.564   6.015 -0.5044 -1.1087 -0.9748
 3437SOL     OW21772   0.308   1.897   5.808  0.4442  0.4453 -0.2917
 3437SOL    HW121773   0.365   1.828   5.842  0.4766 -0.5158 -2.2300
 3437SOL    HW221774   0.368   1.969   5.826 -1.0798  0.7221  3.6840
 3438SOL     OW21775   4.402   2.467  15.671  0.0782 -0.5643  0.5811
 3438SOL    HW121776   4.388   2.467  15.766  1.4306  0.7837  0.7719
 3438SOL    HW221777   4.463   2.396  15.652 -1.4948 -2.2599  1.7805
 3439SOL     OW21778   2.053   1.150  10.720 -0.3191 -0.4164  0.2481
 3439SOL    HW121779   2.121   1.155  10.652 -0.1669  0.7798  0.4839
 3439SOL    HW221780   2.065   1.238  10.757  0.8541  0.7270 -2.8101
 3440SOL     OW21781   0.959   3.660   6.007 -0.3739 -0.4989  0.3193
 3440SOL    HW121782   0.913   3.740   5.982 -1.0755 -0.4423  1.7942
 3440SOL    HW221783   1.021   3.649   5.935  1.4569  0.2017  1.7820
 3441SOL     OW21784   0.272   4.617   5.259  0.2258 -0.0913 -0.6240
 3441SOL    HW121785   0.180   4.635   5.241  0.0028  1.6243  2.2938
 3441SOL    HW221786   0.290   4.534   5.216 -2.5998 -0.9815 -0.1038
 3442SOL     OW21787   2.480   3.377  17.415 -0.1297  0.6024 -0.2378
 3442SOL    HW121788   2.474   3.406  17.324 -0.7556 -0.8396 -0.6583
 3442SOL    HW221789   2.389   3.365  17.442  0.4953 -0.4078  1.3759
 3443SOL     OW21790   1.932   0.898   3.348  0.2312  0.5204  0.0095
 3443SOL    HW121791   1.986   0.873   3.273 -0.3594 -0.3462 -0.1308
 3443SOL    HW221792   1.841   0.901   3.321  0.3717  2.2162 -0.2831
 3444SOL     OW21793   2.861   1.641   8.773  0.1411 -0.2942  0.4648
 3444SOL    HW121794   2.855   1.713   8.711  0.2466  1.0921  2.0665
 3444SOL    HW221795   2.950   1.610   8.758  0.7639  2.0029 -0.6333
 3445SOL     OW21796   2.932   3.656  17.125 -0.8071 -0.0631 -0.4360
 3445SOL    HW121797   2.937   3.651  17.029  1.5022 -0.6930 -0.2772
 3445SOL    HW221798   3.025   3.670  17.146 -1.0209  1.6712 -0.5884
 3446SOL     OW21799   4.711   0.694   7.588  0.5783 -0.4721  0.0795
 3446SOL    HW121800   0.005   0.750   7.665  0.1052  1.8951 -1.5759
 3446SOL    HW221801   4.642   0.743   7.543  2.0612  0.4773 -1.1227
 3447SOL     OW21802   4.340   3.029   6.962 -0.3981  0.1472 -0.0641
 3447SOL    HW121803   4.372   2.943   6.990 -1.0711 -0.6914 -1.8776
 3447SOL    HW221804   4.261   3.039   7.014  0.4911 -0.2089  1.3551
 3448SOL     OW21805   0.811   1.350   9.287  0.7871 -0.3295  0.0857
 3448SOL    HW121806   0.885   1.411   9.287 -1.0836  1.9184 -0.7693
 3448SOL    HW221807   0.777   1.356   9.377  0.7961 -1.4822  0.1706
 3449SOL     OW21808   3.189   1.956   3.233 -0.2029 -0.1738 -0.1040
 3449SOL    HW121809   3.219   1.951   3.324 -1.4009  2.3650  0.4372
 3449SOL    HW221810   3.267   1.991   3.190 -0.8797  1.3603 -0.1050
 3450SOL     OW21811   1.273   0.919   5.603 -0.7958  0.0559 -0.2122
 3450SOL    HW121812   1.203   0.854   5.591 -0.4740 -0.3044 -0.1279
 3450SOL    HW221813   1.269   0.969   5.521 -1.4019  1.7313  0.8421
 3451SOL     OW21814   1.616   2.846   8.665  0.0907  0.0046  0.3150
 3451SOL    HW121815   1.644   2.883   8.581 -0.1648 -1.8157 -0.5717
 3451SOL    HW221816   1.602   2.925   8.717 -0.1612  0.3172 -0.2210
 3452SOL     OW21817   4.623   2.249   3.944  0.4564  0.4445 -0.1781
 3452SOL    HW121818   4.705   2.252   3.994  0.1625  4.1938  0.1053
 3452SOL    HW221819   4.652   2.284   3.860 -0.8458  0.6428 -0.5430
 3453SOL     OW21820   1.572   4.577   8.053 -0.1995  0.0344  0.4227
 3453SOL    HW121821   1.520   4.522   7.994  0.2461 -2.2698  2.1525
 3453SOL    HW221822   1.662   4.543   8.048 -0.2271 -0.0704  0.6132
 3454SOL     OW21823   0.817   2.755  10.020  1.2097  0.1345  0.1393
 3454SOL    HW121824   0.910   2.766  10.036  1.7124 -3.3832 -0.2584
 3454SOL    HW221825   0.818   2.696   9.944 -0.5451 -0.0850  0.2763
 3455SOL     OW21826   1.648   0.233   4.336 -0.2785  0.0832  0.4663
 3455SOL    HW121827   1.668   0.319   4.298 -2.7799 -0.0008 -1.0102
 3455SOL    HW221828   1.554   0.247   4.344 -0.5125 -1.1050 -0.2024
 3456SOL     OW21829   1.808   1.903   9.456  0.1369  0.3285  0.1290
 3456SOL    HW121830   1.862   1.892   9.378  4.0494 -0.1072  2.8808
 3456SOL    HW221831   1.862   1.868   9.528  0.6862  0.8168 -0.0498
 3457SOL     OW21832   0.441   3.020   7.266  0.5152 -0.7010 -0.1556
 3457SOL    HW121833   0.366   2.976   7.227  0.8058 -1.0592 -0.3063
 3457SOL    HW221834   0.478   3.064   7.189 -0.3716  1.6224  0.7583
 3458SOL     OW21835   3.522   4.059  12.260  0.2739  0.3487 -0.6822
 3458SOL    HW121836   3.475   3.997  12.205  1.4998  0.3893 -1.7827
 3458SOL    HW221837   3.454   4.104  12.310 -0.8387 -0.7289 -1.2272
 3459SOL     OW21838   4.564   2.093  12.992  0.2170 -0.6960 -0.1761
 3459SOL    HW121839   4.618   2.137  12.926  2.0566  0.3275  1.9900
 3459SOL    HW221840   4.599   2.004  12.990  0.0245 -0.7898  0.8796
 3460SOL     OW21841   0.471   2.124   2.190  0.0541 -0.3549 -0.0734
 3460SOL    HW121842   0.476   2.218   2.175  0.6548 -0.5679 -1.1627
 3460SOL    HW221843   0.378   2.104   2.207  0.1124 -1.9018 -1.6366
 3461SOL     OW21844   2.375   0.868   4.427 -0.1136 -0.2213  0.7653
 3461SOL    HW121845   2.328   0.949   4.405  1.6097  0.0016 -2.1330
 3461SOL    HW221846   2.298   0.813   4.411 -0.4519  0.6364 -0.5588
 3462SOL     OW21847   1.213   1.598   6.701  0.3517  0.1184 -0.3439
 3462SOL    HW121848   1.202   1.686   6.665 -1.0408 -0.9549 -2.5200
 3462SOL    HW221849   1.136   1.547   6.678  0.2203 -0.1647  0.7217
 3463SOL     OW21850   2.783   3.689   8.857 -0.1279 -0.2352 -0.5762
 3463SOL    HW121851   2.856   3.663   8.914  0.1873  0.2979 -0.7334
 3463SOL    HW221852   2.811   3.772   8.819 -1.7006  1.3460  1.7072
 3464SOL     OW21853   4.607   0.334  15.996 -0.6035 -0.3817  0.3574
 3464SOL    HW121854   4.543   0.336  15.925  0.2949  0.8444 -0.4260
 3464SOL    HW221855   4.658   0.409  15.966  1.2893 -1.5516  0.7092
 3465SOL     OW21856   3.142   2.866   0.486  0.3842  0.3773  0.2280
 3465SOL    HW121857   3.074   2.890   0.422  2.0815  0.9927 -1.3450
 3465SOL    HW221858   3.096   2.845   0.568 -0.3959 -2.1977 -0.8798
 3466SOL     OW21859   0.099   2.070  16.769  0.4418  0.0250  0.2495
 3466SOL    HW121860   0.037   2.143  16.765 -0.2682 -0.6361 -0.8608
 3466SOL    HW221861   0.041   1.995  16.753  0.2350  0.0802  0.7243
 3467SOL     OW21862   4.164   3.479   3.667  0.1628  0.2861 -0.1610
 3467SOL    HW121863   4.205   3.414   3.725  0.6808 -0.5100 -1.4294
 3467SOL    HW221864   4.225   3.552   3.666  0.8253 -0.3078 -2.7775
 3468SOL     OW21865   0.436   0.380   4.054 -0.4215  0.2611  0.7984
 3468SOL    HW121866   0.380   0.333   3.992  0.2197  0.7406 -0.1441
 3468SOL    HW221867   0.511   0.407   4.001 -1.4951 -1.6552 -1.7125
 3469SOL     OW21868   3.578   2.767  15.823 -0.2172  0.7041 -0.0539
 3469SOL    HW121869   3.653   2.726  15.866 -1.9205 -0.9848  1.2868
 3469SOL    HW221870   3.559   2.832  15.891  0.4938  0.8257  0.0257
 3470SOL     OW21871   2.816   2.584   5.537  0.2654  0.5349 -0.1172
 3470SOL    HW121872   2.879   2.515   5.558  0.3656  1.0242  1.2390
 3470SOL    HW221873   2.787   2.617   5.622  1.8378  1.2891  0.1279
 3471SOL     OW21874   3.225   1.484   8.359  0.3559 -0.4942 -0.0550
 3471SOL    HW121875   3.280   1.556   8.390 -0.5343  0.7575 -1.3742
 3471SOL    HW221876   3.223   1.436   8.442  1.3599  2.3111  1.5871
 3472SOL     OW21877   2.868   1.931   8.289  0.3148 -0.9719 -0.1112
 3472SOL    HW121878   2.856   1.879   8.210 -1.3551 -0.8247  0.0553
 3472SOL    HW221879   2.783   1.972   8.302  0.7890 -0.5551  1.7278
 3473SOL     OW21880   3.838   4.628  13.045  0.2571  0.4278 -0.3866
 3473SOL    HW121881   3.907   4.692  13.057  2.0914 -1.6578  0.2258
 3473SOL    HW221882   3.862   4.594  12.959  0.3827 -1.6749  0.4692
 3474SOL     OW21883   2.388   2.181   0.241 -0.0035 -0.2891 -0.6495
 3474SOL    HW121884   2.294   2.194   0.253  0.1089 -0.6749  0.5876
 3474SOL    HW221885   2.407   2.115   0.307  0.7711 -2.4310 -2.9828
 3475SOL     OW21886   1.377   0.978   5.080  0.3303 -0.6519 -0.6775
 3475SOL    HW121887   1.455   0.947   5.126  0.9128 -0.4861 -1.5665
 3475SOL    HW221888   1.403   0.971   4.988 -0.5645  1.6093 -1.1032
 3476SOL     OW21889   3.442   3.621   5.736  0.2713  0.2827 -0.2561
 3476SOL    HW121890   3.527   3.615   5.781  0.9456  1.7239 -1.3444
 3476SOL    HW221891   3.386   3.635   5.813 -2.2173  0.8970 -2.2044
 3477SOL     OW21892   0.536   1.100   6.430  0.6585 -0.4035  0.2579
 3477SOL    HW121893   0.595   1.114   6.356  1.2554 -1.6071  0.5122
 3477SOL    HW221894   0.574   1.162   6.492  0.8594  0.9808 -1.2391
 3478SOL     OW21895   0.872   1.641   3.548 -0.5368  0.1933 -0.5681
 3478SOL    HW121896   0.946   1.702   3.553  0.2071 -0.7101 -0.5269
 3478SOL    HW221897   0.805   1.704   3.572  0.3568  0.6213  0.8204
 3479SOL     OW21898   2.887   4.581   2.725 -0.4153 -0.3538 -0.1376
 3479SOL    HW121899   2.944   4.540   2.659 -0.4430 -1.9583  0.8177
 3479SOL    HW221900   2.804   4.602   2.682 -0.8736 -0.6101  0.6281
 3480SOL     OW21901   1.993   0.247  13.833  0.7323  0.0571 -0.4109
 3480SOL    HW121902   2.069   0.273  13.781  0.2075 -1.3686 -1.8942
 3480SOL    HW221903   2.040   0.198  13.901 -2.0971  1.3245  2.4279
 3481SOL     OW21904   4.220   2.198   7.444  0.5047 -0.9734 -0.0316
 3481SOL    HW121905   4.165   2.264   7.401  0.9364 -0.7590 -0.2563
 3481SOL    HW221906   4.205   2.227   7.534 -3.1534 -0.4367 -0.8151
 3482SOL     OW21907   4.483   4.431   4.668 -0.4427  0.0375  0.1918
 3482SOL    HW121908   4.538   4.362   4.633 -0.4780 -0.5833  1.3757
 3482SOL    HW221909   4.466   4.484   4.589  0.7598  1.3757  0.8331
 3483SOL     OW21910   4.402   4.311   8.761  0.1132  0.0121 -0.2285
 3483SOL    HW121911   4.343   4.315   8.837 -1.8095  0.6086 -1.7457
 3483SOL    HW221912   4.344   4.270   8.696  0.4449  0.0465 -0.5440
 3484SOL     OW21913   0.729   1.135   4.969  0.9681 -0.2187 -0.7076
 3484SOL    HW121914   0.795   1.075   4.933  3.4158  1.7933  0.4763
 3484SOL    HW221915   0.657   1.105   4.913  1.3998 -0.5507 -1.0855
 3485SOL     OW21916   0.578   3.298  15.329  0.3459  0.1159  0.7550
 3485SOL    HW121917   0.652   3.240  15.350  0.9678 -0.1678 -2.1496
 3485SOL    HW221918   0.550   3.329  15.415  0.9142  0.3647  0.8535
 3486SOL     OW21919   1.204   0.095   0.293 -0.5852 -0.3999 -0.2990
 3486SOL    HW121920   1.299   0.099   0.298 -0.7021  0.7929  0.9707
 3486SOL    HW221921   1.202   0.005   0.259  0.5669 -0.8025  0.7195
 3487SOL     OW21922   2.106   0.554   5.750  0.0944 -0.2763  0.1482
 3487SOL    HW121923   2.111   0.505   5.668 -0.1142  0.9850 -0.6104
 3487SOL    HW221924   2.163   0.502   5.807  3.4603  2.5904 -0.6230
 3488SOL     OW21925   3.671   1.184   7.200  0.1019 -0.4457  0.0488
 3488SOL    HW121926   3.582   1.154   7.218 -0.3631  0.1834 -1.1708
 3488SOL    HW221927   3.724   1.105   7.211 -0.2480 -0.6895 -0.0431
 3489SOL     OW21928   1.787   2.544  15.680  0.1119 -0.0767 -0.4821
 3489SOL    HW121929   1.749   2.616  15.730  0.5762  1.2650 -2.0552
 3489SOL    HW221930   1.712   2.485  15.686 -0.1583  0.2154 -1.0961
 3490SOL     OW21931   3.900   4.703   5.618 -0.0069  0.4375  0.0055
 3490SOL    HW121932   3.871   4.629   5.565 -0.7445  0.2318  0.6967
 3490SOL    HW221933   3.995   4.693   5.616 -0.0109 -0.1295  3.0418
 3491SOL     OW21934   2.065   0.486  12.774  0.4724 -0.7808 -0.0921
 3491SOL    HW121935   2.151   0.526  12.761  0.0630 -0.5021 -1.9422
 3491SOL    HW221936   2.019   0.532  12.703  0.6028 -0.1879  0.2116
 3492SOL     OW21937   2.395   1.292  12.018 -0.7053  0.0888 -0.2511
 3492SOL    HW121938   2.473   1.335  12.055 -1.4641  2.9425 -1.9193
 3492SOL    HW221939   2.371   1.369  11.965 -1.1300  1.1478  1.4732
 3493SOL     OW21940   3.443   4.164  17.524 -0.2393 -0.0641  0.0176
 3493SOL    HW121941   3.447   4.192  17.433 -0.1494 -1.3222 -0.3668
 3493SOL    HW221942   3.442   4.252  17.561 -0.5291 -0.9525  2.1132
 3494SOL     OW21943   0.979   0.318   4.671 -0.1361 -0.1545 -0.2531
 3494SOL    HW121944   0.898   0.345   4.626 -0.3882  0.9164  0.8271
 3494SOL    HW221945   0.951   0.329   4.762  2.5423 -0.5609  0.6170
 3495SOL     OW21946   1.734   2.619   5.256  0.6214 -0.2394  0.0457
 3495SOL    HW121947   1.685   2.545   5.291 -0.3683 -0.0605 -0.9667
 3495SOL    HW221948   1.715   2.689   5.319  0.5187 -1.4641  1.3793
 3496SOL     OW21949   2.212   2.880   8.630 -0.1630 -0.1845  0.3956
 3496SOL    HW121950   2.297   2.899   8.590  0.1332  0.0997  1.1516
 3496SOL    HW221951   2.144   2.924   8.578 -0.2811 -1.0389 -0.1775
 3497SOL     OW21952   3.930   1.828   3.480 -0.2346 -0.5017 -0.0066
 3497SOL    HW121953   4.018   1.817   3.517  0.2783  0.5600 -0.9058
 3497SOL    HW221954   3.898   1.914   3.506  1.0494 -0.2848  0.8692
 3498SOL     OW21955   0.901   2.238   3.928  0.7526 -0.1321 -0.0085
 3498SOL    HW121956   0.846   2.275   3.996  2.6210  4.1723 -0.8036
 3498SOL    HW221957   0.910   2.311   3.866 -2.3598 -1.3954 -1.9266
 3499SOL     OW21958   1.163   3.397   5.591  0.0442  0.5703 -0.4915
 3499SOL    HW121959   1.167   3.321   5.649 -0.7518 -0.4259 -1.7584
 3499SOL    HW221960   1.186   3.355   5.508 -1.6868  1.4846 -1.4311
 3500SOL     OW21961   4.259   3.396  11.472 -0.5611 -0.1209 -0.1436
 3500SOL    HW121962   4.265   3.334  11.544  2.3055 -0.1141 -0.3586
 3500SOL    HW221963   4.346   3.386  11.432 -0.3847 -1.7972  0.6648
 3501SOL     OW21964   1.749   1.090   1.368 -0.0918  0.2324 -0.3066
 3501SOL    HW121965   1.687   1.095   1.295 -1.4443 -2.9035  0.6581
 3501SOL    HW221966   1.699   1.143   1.430  0.2770  0.7146 -0.4144
 3502SOL     OW21967   2.463   3.485   2.275  1.0846 -0.3831  0.0965
 3502SOL    HW121968   2.443   3.392   2.284  0.0181  0.0802  2.7250
 3502SOL    HW221969   2.542   3.501   2.327 -0.7801  3.2881  1.7974
 3503SOL     OW21970   0.965   3.846   6.508 -0.3771 -0.5844  0.1294
 3503SOL    HW121971   1.009   3.785   6.449  1.8661  1.1215  0.0534
 3503SOL    HW221972   1.007   3.824   6.591 -1.1764  0.8697  0.9185
 3504SOL     OW21973   4.597   2.956   8.986  0.3390 -0.0064  0.0843
 3504SOL    HW121974   4.510   2.921   8.965 -0.4495 -1.1470  5.1097
 3504SOL    HW221975   4.648   2.879   9.012  1.2188  1.4635  2.7441
 3505SOL     OW21976   4.337   1.397   2.757 -0.4159  0.5554  0.4022
 3505SOL    HW121977   4.366   1.430   2.672  0.0711  0.7957  0.6597
 3505SOL    HW221978   4.307   1.308   2.737 -1.5042  0.9596  0.2299
 3506SOL     OW21979   4.352   4.577  12.369 -0.8528  0.3916 -0.4216
 3506SOL    HW121980   4.423   4.627  12.328 -0.0952  1.2252  1.8798
 3506SOL    HW221981   4.323   4.529  12.292 -1.4933 -2.2994  1.5019
 3507SOL     OW21982   3.573   3.549  16.347 -0.2824  0.6380 -0.0881
 3507SOL    HW121983   3.559   3.643  16.360  0.7352  0.4891  2.0562
 3507SOL    HW221984   3.567   3.534  16.252 -0.0543 -0.7649  0.1245
 3508SOL     OW21985   1.507   1.656   6.290  0.1138  0.5651 -0.0679
 3508SOL    HW121986   1.490   1.748   6.268  1.9584  1.0202  0.4207
 3508SOL    HW221987   1.501   1.613   6.205  1.1655 -0.9837  0.6541
 3509SOL     OW21988   0.038   2.134  13.313 -0.2067 -0.7673 -0.0061
 3509SOL    HW121989   0.027   2.227  13.333 -1.1879 -1.2560  1.7944
 3509SOL    HW221990   4.668   2.100  13.302  0.0157 -1.2707 -0.2427
 3510SOL     OW21991   4.324   4.238   8.437  0.1719 -0.1025 -0.1069
 3510SOL    HW121992   4.250   4.207   8.489  1.3799  1.2546  2.4261
 3510SOL    HW221993   4.289   4.322   8.406  0.1007  0.6251  1.9833
 3511SOL     OW21994   3.099   1.579   4.913  0.3862 -0.2631  0.2197
 3511SOL    HW121995   3.004   1.582   4.921  0.7664 -0.4610  4.7704
 3511SOL    HW221996   3.122   1.646   4.849  0.0902  0.6047  1.0331
 3512SOL     OW21997   2.225   0.147   6.681 -0.3118  0.2091 -0.0591
 3512SOL    HW121998   2.151   0.146   6.620  0.9021  0.7656 -1.5475
 3512SOL    HW221999   2.259   0.236   6.673 -0.1334  0.2245  0.8875
 3513SOL     OW22000   3.381   0.553  14.262 -0.0842  0.7822 -0.2093
 3513SOL    HW122001   3.369   0.557  14.167  0.2199 -0.1995 -0.2843
 3513SOL    HW222002   3.294   0.543  14.300  0.4653  1.7600  1.3189
 3514SOL     OW22003   0.190   2.531   3.598  0.3759  0.4729  0.1544
 3514SOL    HW122004   0.180   2.553   3.505 -0.2348 -1.7151 -0.3090
 3514SOL    HW222005   0.129   2.458   3.604 -0.2489  0.9389 -0.5299
 3515SOL     OW22006   1.979   1.233  11.876 -0.3688  0.3043  0.4271
 3515SOL    HW122007   2.049   1.295  11.855 -1.0279  1.3694  1.4372
 3515SOL    HW222008   1.989   1.226  11.971  1.6978  0.2821  0.2142
 3516SOL     OW22009   2.990   2.869   4.516 -0.3617  1.0689  0.1502
 3516SOL    HW122010   2.959   2.796   4.569  0.3496  1.8340  1.5846
 3516SOL    HW222011   2.914   2.928   4.512 -0.4461  0.9595  0.1562
 3517SOL     OW22012   2.700   2.411   2.153  0.7507 -0.2832 -0.1262
 3517SOL    HW122013   2.647   2.464   2.093  2.1527 -0.0441 -1.1417
 3517SOL    HW222014   2.787   2.444   2.132  1.0481 -1.8847 -1.4550
 3518SOL     OW22015   0.328   0.868   5.687  1.1687  0.2109 -0.8553
 3518SOL    HW122016   0.270   0.929   5.641  0.3716  0.0502 -0.0590
 3518SOL    HW222017   0.317   0.786   5.639  0.9239  0.0702 -0.5592
 3519SOL     OW22018   4.391   1.006   0.505  0.1458  0.4873  0.7721
 3519SOL    HW122019   4.345   1.090   0.506  0.8995  0.9201 -0.4012
 3519SOL    HW222020   4.325   0.939   0.525  0.1399  0.9520  2.2685
 3520SOL     OW22021   3.804   0.063   3.656 -0.5101 -0.0445  0.2275
 3520SOL    HW122022   3.775   4.716   3.718  0.0864 -1.4747 -1.0260
 3520SOL    HW222023   3.722   0.100   3.622 -0.9460 -1.6572 -0.4778
 3521SOL     OW22024   2.573   3.000   0.041  0.6213  0.0509 -0.0787
 3521SOL    HW122025   2.612   3.053  17.652 -1.2397  1.0093 -0.3893
 3521SOL    HW222026   2.487   2.988   0.001  0.0798 -0.6001  1.2865
 3522SOL     OW22027   0.614   3.987   7.197 -0.0609  0.1923  0.5404
 3522SOL    HW122028   0.635   3.961   7.107 -0.1121 -0.1156  0.6147
 3522SOL    HW222029   0.686   3.966   7.257  3.2920  0.7662 -3.3124
 3523SOL     OW22030   0.327   4.305  10.837  0.2651  0.1773  0.0653
 3523SOL    HW122031   0.364   4.257  10.763 -0.9639 -0.6396 -0.0147
 3523SOL    HW222032   0.375   4.386  10.821 -2.2738  1.5155 -0.6017
 3524SOL     OW22033   1.289   1.029   7.437 -0.4909  0.0557 -0.3458
 3524SOL    HW122034   1.372   0.986   7.419 -0.1658  1.2523 -1.7081
 3524SOL    HW222035   1.322   1.098   7.495  1.9240 -2.0955  0.8656
 3525SOL     OW22036   4.009   3.824  10.315 -0.1396  0.3971  0.0454
 3525SOL    HW122037   4.029   3.733  10.337  1.9173  1.2144  1.5683
 3525SOL    HW222038   4.091   3.864  10.285 -0.6332  0.9197 -0.5985
 3526SOL     OW22039   2.235   3.784  12.010 -0.2204  0.2743  0.1008
 3526SOL    HW122040   2.211   3.711  11.953 -1.1382 -1.2377  2.4696
 3526SOL    HW222041   2.257   3.746  12.094  3.9709 -0.4650 -1.3409
 3527SOL     OW22042   0.402   1.960  13.662  0.3665 -0.4852  0.5820
 3527SOL    HW122043   0.380   1.904  13.588 -0.4438  1.1249 -0.3804
 3527SOL    HW222044   0.336   1.932  13.727 -0.1200  1.0902  0.7625
 3528SOL     OW22045   1.397   1.590  15.148  0.9072 -0.3063 -0.2578
 3528SOL    HW122046   1.314   1.546  15.169  1.5826 -0.7455  1.4010
 3528SOL    HW222047   1.451   1.558  15.220  1.2086  2.3830  0.7153
 3529SOL     OW22048   4.367   2.100  16.647  0.3803 -0.1505  0.4084
 3529SOL    HW122049   4.277   2.068  16.645  0.7508 -1.2044  1.0183
 3529SOL    HW222050   4.414   2.062  16.573 -0.6150  1.3066 -0.9571
 3530SOL     OW22051   0.800   1.518   0.181 -0.0349 -1.0553 -0.2789
 3530SOL    HW122052   0.819   1.428   0.208  1.2760 -0.6871  0.0307
 3530SOL    HW222053   0.875   1.539   0.126  0.4037 -0.9309  0.3632
 3531SOL     OW22054   1.239   3.192  11.630  0.5838  0.2731 -0.1903
 3531SOL    HW122055   1.269   3.282  11.645 -0.3746  0.5540  0.1197
 3531SOL    HW222056   1.246   3.195  11.535 -0.2691 -1.5918 -0.3074
 3532SOL     OW22057   2.012   0.137   5.732 -0.0699  0.5544 -0.1808
 3532SOL    HW122058   1.956   0.097   5.665 -1.6054  0.3826  1.2185
 3532SOL    HW222059   2.073   0.195   5.685  0.1119  0.0630 -0.5469
 3533SOL     OW22060   2.330   4.690  12.040  0.0355  0.2263  0.0788
 3533SOL    HW122061   2.326   0.031  11.966  0.8738  0.4284  0.2019
 3533SOL    HW222062   2.385   4.623  11.998 -0.6093 -0.2318 -0.0459
 3534SOL     OW22063   2.139   2.412  14.415 -0.0118 -0.2185  0.0006
 3534SOL    HW122064   2.073   2.464  14.461 -0.2886  0.3117 -1.0148
 3534SOL    HW222065   2.136   2.324  14.455  1.4882 -0.3125 -0.1039
 3535SOL     OW22066   0.350   1.877   6.886  0.1821  0.3195  0.0166
 3535SOL    HW122067   0.333   1.943   6.819  1.3678  1.8093  1.1946
 3535SOL    HW222068   0.337   1.798   6.833  0.9862  1.4393 -1.8519
 3536SOL     OW22069   4.312   0.594   5.372  0.4535 -0.0473 -0.0112
 3536SOL    HW122070   4.260   0.541   5.311 -0.7823 -1.1485  2.0351
 3536SOL    HW222071   4.353   0.531   5.431 -2.0593 -0.3201  1.4338
 3537SOL     OW22072   2.841   2.423  15.342 -0.1285 -0.4785 -0.6050
 3537SOL    HW122073   2.854   2.500  15.287  0.8023  0.5582  1.0739
 3537SOL    HW222074   2.924   2.376  15.334  1.1940  1.7356 -0.0807
 3538SOL     OW22075   3.358   3.116   2.721 -0.0024  0.6714  0.2499
 3538SOL    HW122076   3.278   3.121   2.668 -0.6755  2.0774  1.3838
 3538SOL    HW222077   3.433   3.129   2.664 -0.0212  2.6619  0.6654
 3539SOL     OW22078   4.330   3.533   1.757 -0.1146  0.1284  0.1715
 3539SOL    HW122079   4.238   3.529   1.781 -0.0956 -2.0581 -0.0621
 3539SOL    HW222080   4.331   3.467   1.687  0.2895  0.6722 -0.3367
 3540SOL     OW22081   4.194   2.544   4.507 -0.0520  0.1362 -0.4844
 3540SOL    HW122082   4.220   2.476   4.568 -0.2157  1.1645  0.7468
 3540SOL    HW222083   4.098   2.549   4.509 -0.1278 -0.4326 -2.0844
 3541SOL     OW22084   2.885   3.215   7.025  0.2980  0.1220 -0.3726
 3541SOL    HW122085   2.822   3.200   7.096 -0.1704  1.0684 -0.5815
 3541SOL    HW222086   2.830   3.184   6.953 -0.5212  0.0096  0.2890
 3542SOL     OW22087   1.962   3.077   9.861  0.4634  0.2796 -0.6074
 3542SOL    HW122088   2.011   3.109   9.937  2.4004  0.7117 -2.0328
 3542SOL    HW222089   1.874   3.073   9.898  0.2285 -0.4815 -1.2487
 3543SOL     OW22090   2.280   2.361   4.010 -0.5129 -0.1146  0.0506
 3543SOL    HW122091   2.264   2.366   4.105  0.0269 -0.0892  0.1413
 3543SOL    HW222092   2.320   2.447   3.998 -3.6408  1.1969 -0.8955
 3544SOL     OW22093   4.400   3.795   3.024 -0.1865  0.0150 -0.0172
 3544SOL    HW122094   4.413   3.873   3.079 -0.3959 -0.6586  0.9995
 3544SOL    HW222095   4.309   3.819   3.004 -0.7175 -1.1747  0.9557
 3545SOL     OW22096   0.672   1.800   3.610  0.0441  0.0923 -0.3384
 3545SOL    HW122097   0.700   1.877   3.561  1.0612  0.0917  0.2492
 3545SOL    HW222098   0.685   1.818   3.703  2.0990 -1.1496 -0.3772
 3546SOL     OW22099   1.140   4.625   8.386 -0.1452  0.2001 -0.5388
 3546SOL    HW122100   1.153   4.695   8.451 -0.6791 -0.0198 -0.1929
 3546SOL    HW222101   1.207   4.569   8.423  0.4326  1.4817  0.3705
 3547SOL     OW22102   0.219   3.873  11.808 -0.2853 -0.0790 -0.1652
 3547SOL    HW122103   0.229   3.901  11.717  1.3727 -0.3552 -0.0613
 3547SOL    HW222104   0.286   3.915  11.861 -1.9439 -0.2608  2.0767
 3548SOL     OW22105   2.487   3.454   8.621 -0.4858 -0.2898  0.4762
 3548SOL    HW122106   2.547   3.380   8.617 -1.5331 -1.0043 -1.8267
 3548SOL    HW222107   2.492   3.497   8.706  3.7884  1.3536 -0.6139
 3549SOL     OW22108   4.459   4.425  17.066  0.1326  0.2153 -0.2485
 3549SOL    HW122109   4.542   4.456  17.031  0.4294  1.2770  1.4099
 3549SOL    HW222110   4.471   4.361  17.136 -1.0776 -2.2186 -2.2757
 3550SOL     OW22111   1.843   0.377  11.515  0.0883 -0.1766 -0.2382
 3550SOL    HW122112   1.804   0.398  11.431  0.4475 -1.2953 -0.6869
 3550SOL    HW222113   1.800   0.437  11.575  0.0231  0.5202 -0.9915
 3551SOL     OW22114   4.394   0.650   2.367  0.4575  0.1101  0.0059
 3551SOL    HW122115   4.481   0.673   2.333  0.4514  0.3193  0.1337
 3551SOL    HW222116   4.414   0.607   2.450 -2.7066  0.5230  0.9669
 3552SOL     OW22117   3.003   1.767   2.047 -0.0066  0.1266 -0.3835
 3552SOL    HW122118   3.059   1.833   2.008  0.1449  1.8474  2.7515
 3552SOL    HW222119   2.998   1.805   2.135 -0.7958  0.7943 -0.7232
 3553SOL     OW22120   0.833   0.501   3.315  0.4015 -0.1543 -0.2208
 3553SOL    HW122121   0.792   0.487   3.229  0.3360 -1.1087 -0.0369
 3553SOL    HW222122   0.912   0.447   3.323 -0.8738 -1.8635  0.9645
 3554SOL     OW22123   4.717   2.213  12.800 -0.5598  0.4956  0.0056
 3554SOL    HW122124   4.673   2.156  12.737  1.5510 -0.2954 -0.7651
 3554SOL    HW222125   0.017   2.292  12.748  0.0439  1.1630  1.2418
 3555SOL     OW22126   1.414   4.231   1.071  0.0647  0.2896  0.5980
 3555SOL    HW122127   1.500   4.267   1.051  0.2354 -0.0848  0.6470
 3555SOL    HW222128   1.394   4.218   0.979  2.8871 -2.4840  0.3598
 3556SOL     OW22129   0.395   4.590   3.726  0.2725  0.0979  0.0374
 3556SOL    HW122130   0.315   4.541   3.740 -0.0325  1.2643  2.4414
 3556SOL    HW222131   0.463   4.523   3.719 -1.0163 -1.1204 -0.7289
 3557SOL     OW22132   0.576   2.584   4.493 -0.3863  0.0592 -0.1709
 3557SOL    HW122133   0.624   2.660   4.525  0.8607 -0.5121 -0.6466
 3557SOL    HW222134   0.614   2.509   4.538  0.7123  1.7313  1.6557
 3558SOL     OW22135   0.746   4.147  14.444  0.2817  0.7865 -0.1621
 3558SOL    HW122136   0.792   4.063  14.443  0.8125  1.0542  0.9584
 3558SOL    HW222137   0.666   4.130  14.394  1.0485 -0.1951 -1.0429
 3559SOL     OW22138   3.675   0.109   1.750  0.2181  0.0255 -0.8423
 3559SOL    HW122139   3.758   0.061   1.748  1.3027  1.8287  0.6279
 3559SOL    HW222140   3.632   0.058   1.819 -0.9743 -2.4133 -3.3930
 3560SOL     OW22141   0.268   4.113   8.355  0.2173  0.4511 -0.2659
 3560SOL    HW122142   0.207   4.090   8.285  1.9558 -1.2619 -1.2100
 3560SOL    HW222143   0.257   4.043   8.420 -0.9456 -0.3248 -1.3017
 3561SOL     OW22144   0.016   0.713  17.651 -0.1884  0.0459 -0.0691
 3561SOL    HW122145   4.694   0.731  17.566  0.8561  0.8180 -0.4130
 3561SOL    HW222146   4.699   0.777   0.032 -0.6543 -0.2800 -0.0077
 3562SOL     OW22147   0.088   0.169  11.335  0.0829  0.0320 -0.1132
 3562SOL    HW122148   0.010   0.114  11.332  1.3151 -1.8266  2.5052
 3562SOL    HW222149   0.045   0.242  11.381 -0.4531 -0.7483  0.6155
 3563SOL     OW22150   3.827   3.401   7.719  0.4900  0.4441  0.2988
 3563SOL    HW122151   3.815   3.489   7.682 -1.2210 -0.3928 -1.1204
 3563SOL    HW222152   3.741   3.363   7.739  1.1817 -0.3486  1.7577
 3564SOL     OW22153   0.740   1.098  17.648  0.3161  0.3520 -0.0412
 3564SOL    HW122154   0.804   1.168  17.630  0.1601  0.6319  0.4830
 3564SOL    HW222155   0.809   1.032  17.654  0.4485  0.4721 -0.2446
 3565SOL     OW22156   3.633   1.181  14.286 -0.4964 -0.5753  0.6013
 3565SOL    HW122157   3.589   1.221  14.211  1.0689 -0.6750 -0.3568
 3565SOL    HW222158   3.727   1.186  14.273 -0.7771 -0.1539 -1.2784
 3566SOL     OW22159   2.562   3.703  17.298  0.5265  0.6980  0.5928
 3566SOL    HW122160   2.531   3.618  17.268  2.7365  0.8046 -1.9595
 3566SOL    HW222161   2.656   3.684  17.298  0.4207  0.1949  1.6045
 3567SOL     OW22162   1.237   3.634   4.922  0.3435 -0.1648  0.3380
 3567SOL    HW122163   1.198   3.610   5.006 -1.5413  2.1124  0.0837
 3567SOL    HW222164   1.331   3.637   4.939  0.6014  1.3153 -1.3345
 3568SOL     OW22165   3.618   2.561   6.198  0.0743  0.0934 -0.1608
 3568SOL    HW122166   3.625   2.545   6.292 -2.4498 -1.5832 -0.2507
 3568SOL    HW222167   3.550   2.499   6.171 -0.7545  1.7119 -1.8295
 3569SOL     OW22168   4.584   4.393   9.035  0.0094  0.1832 -0.3769
 3569SOL    HW122169   4.529   4.437   8.970  1.7433  0.6511 -1.5219
 3569SOL    HW222170   4.519   4.390   9.105 -0.3584  0.1887 -0.7172
 3570SOL     OW22171   3.522   3.591   7.465 -0.0603 -0.5746  0.4676
 3570SOL    HW122172   3.495   3.647   7.392 -2.2088  0.1434  1.8195
 3570SOL    HW222173   3.518   3.509   7.416 -0.5287 -0.6373  0.6141
 3571SOL     OW22174   3.834   0.026   2.064 -0.3395  0.6975  0.1401
 3571SOL    HW122175   3.921   0.066   2.053 -1.2604  2.7929  0.4713
 3571SOL    HW222176   3.831   0.017   2.159 -0.5343 -1.2022 -0.0522
 3572SOL     OW22177   1.269   2.907   0.681 -0.5816  0.6297  0.0968
 3572SOL    HW122178   1.317   2.985   0.709  0.3152  0.8240 -1.9408
 3572SOL    HW222179   1.332   2.836   0.694 -0.0040  0.9179 -1.1197
 3573SOL     OW22180   4.693   2.990  10.491 -0.5261 -0.5537  0.2791
 3573SOL    HW122181   4.654   2.957  10.572 -0.3774  1.1652  1.0555
 3573SOL    HW222182   0.061   2.953  10.499 -0.1825  0.4568  1.0975
 3574SOL     OW22183   4.341   0.455   9.376  0.1687  0.3149 -0.2840
 3574SOL    HW122184   4.250   0.467   9.348 -0.7680  1.3224  3.2201
 3574SOL    HW222185   4.377   0.533   9.417  1.6444  0.7913 -2.4464
 3575SOL     OW22186   1.164   1.409   2.332 -0.3256 -0.3281  0.7449
 3575SOL    HW122187   1.109   1.332   2.347 -1.7716  0.4669 -0.4741
 3575SOL    HW222188   1.249   1.399   2.374  0.3564 -0.1818 -0.5806
 3576SOL     OW22189   0.050   1.067   5.322 -0.1077  0.2237  0.0301
 3576SOL    HW122190   0.128   1.030   5.364  0.0329  2.5338  1.7978
 3576SOL    HW222191   0.065   1.024   5.237  2.8761 -0.3685  0.8644
 3577SOL     OW22192   0.307   2.300   6.863 -0.6658 -0.1460 -0.0406
 3577SOL    HW122193   0.226   2.252   6.878  1.1045 -2.6343  1.5148
 3577SOL    HW222194   0.279   2.392   6.870 -1.6937 -0.2982 -2.3819
 3578SOL     OW22195   4.291   0.191   4.907 -0.1122 -0.1315  0.3816
 3578SOL    HW122196   4.199   0.216   4.909 -0.3965 -1.0732 -1.2504
 3578SOL    HW222197   4.332   0.266   4.864 -0.1730 -0.2720  0.0795
 3579SOL     OW22198   4.243   2.723   2.907 -0.0648  0.3240  0.5836
 3579SOL    HW122199   4.248   2.650   2.845  0.0081  2.2204 -1.6394
 3579SOL    HW222200   4.204   2.790   2.851  0.6118  0.3255  0.1062
 3580SOL     OW22201   1.425   1.486  16.145 -0.4691  0.4763 -0.8521
 3580SOL    HW122202   1.520   1.491  16.134 -0.2030  2.2959  2.1665
 3580SOL    HW222203   1.420   1.489  16.241  1.8953  0.1136 -0.6975
 3581SOL     OW22204   0.564   0.115   3.777 -0.0547  0.5172 -0.2915
 3581SOL    HW122205   0.509   0.041   3.751 -2.7645  2.2268  0.4756
 3581SOL    HW222206   0.512   0.185   3.737 -0.7075 -0.1504 -0.6151
 3582SOL     OW22207   1.226   4.207   8.478  0.0385 -0.0630  0.2595
 3582SOL    HW122208   1.170   4.178   8.406 -0.4677 -1.2624  1.1508
 3582SOL    HW222209   1.173   4.199   8.557 -0.6235 -1.6095 -0.3612
 3583SOL     OW22210   0.859   3.181   1.444 -0.7051 -0.4694 -0.3174
 3583SOL    HW122211   0.876   3.087   1.437  1.5149 -0.0375 -0.8116
 3583SOL    HW222212   0.794   3.180   1.514 -1.0054 -0.9909 -0.6043
 3584SOL     OW22213   1.401   2.234   8.904 -0.2814  0.1809 -0.2157
 3584SOL    HW122214   1.487   2.226   8.862 -0.7186  1.1828 -1.3193
 3584SOL    HW222215   1.419   2.312   8.956  1.6942 -0.3541 -0.1113
 3585SOL     OW22216   1.160   4.122  14.668  0.8422 -0.1145 -0.1136
 3585SOL    HW122217   1.194   4.145  14.581  1.5846  1.3373  0.5672
 3585SOL    HW222218   1.215   4.045  14.684 -0.1295 -0.4531  1.6043
 3586SOL     OW22219   0.272   1.188   6.748 -0.2900  0.3825  0.4862
 3586SOL    HW122220   0.185   1.216   6.719  0.0551 -0.5377 -1.4111
 3586SOL    HW222221   0.284   1.119   6.683  1.4009  1.0700  0.0773
 3587SOL     OW22222   1.471   0.274   8.064  0.0909 -0.4286 -0.3933
 3587SOL    HW122223   1.438   0.235   8.145 -1.1105  0.3656 -0.4988
 3587SOL    HW222224   1.523   0.345   8.101  0.5350  0.2640 -2.3279
 3588SOL     OW22225   1.281   0.419   6.297  0.1753 -0.3116  0.0222
 3588SOL    HW122226   1.308   0.329   6.277  0.0576 -0.5225  0.8138
 3588SOL    HW222227   1.255   0.406   6.388 -2.4393  0.4175 -0.6309
 3589SOL     OW22228   0.980   3.508  13.144  0.0679 -0.1523 -0.1464
 3589SOL    HW122229   0.885   3.502  13.136 -0.1965  1.4637  1.7466
 3589SOL    HW222230   0.983   3.599  13.173  1.5906  0.0121 -0.8290
 3590SOL     OW22231   0.000   3.105   1.610  0.7851  0.2972 -0.4443
 3590SOL    HW122232   0.081   3.112   1.660  1.4304 -1.4633 -1.2427
 3590SOL    HW222233   0.030   3.104   1.519  1.7129 -0.2972 -0.1406
 3591SOL     OW22234   1.012   1.053   7.504 -0.4508 -0.3322 -0.5876
 3591SOL    HW122235   1.023   0.977   7.561 -2.7493 -0.1374  0.1435
 3591SOL    HW222236   1.102   1.073   7.480 -0.1619 -3.0320 -1.7436
 3592SOL     OW22237   2.099   1.378   6.750  0.1946  0.0388  0.1191
 3592SOL    HW122238   2.102   1.402   6.842 -0.2753  1.2428 -0.1785
 3592SOL    HW222239   2.076   1.460   6.706 -1.1941 -0.1015  0.5867
 3593SOL     OW22240   0.050   0.115  16.046 -0.3035 -0.7548 -0.5827
 3593SOL    HW122241   4.700   0.049  16.043 -2.0781  1.1696 -1.3993
 3593SOL    HW222242   4.716   0.192  16.029  1.4993  0.6407  0.1286
 3594SOL     OW22243   1.717   0.839  13.958 -0.0453 -0.5452  0.2830
 3594SOL    HW122244   1.707   0.849  13.863 -2.3880 -2.3087  0.3526
 3594SOL    HW222245   1.781   0.910  13.969  0.5280 -0.8292 -1.2148
 3595SOL     OW22246   0.581   1.270  13.719 -0.0709  0.1353  0.0765
 3595SOL    HW122247   0.652   1.249  13.781 -1.3577 -0.2548  1.4060
 3595SOL    HW222248   0.530   1.316  13.785 -3.0069 -0.5279 -1.7686
 3596SOL     OW22249   1.002   0.749  13.074 -0.2693 -0.1590 -0.2220
 3596SOL    HW122250   0.942   0.768  13.146 -2.5387  0.9549 -2.4199
 3596SOL    HW222251   1.085   0.743  13.122 -1.2546 -1.6030  1.2766
 3597SOL     OW22252   0.027   3.569  16.123  0.3796 -0.4420 -0.2604
 3597SOL    HW122253   4.684   3.588  16.053 -0.0270  1.2935  0.5628
 3597SOL    HW222254   0.014   3.647  16.177 -0.2121 -1.0703  0.4993
 3598SOL     OW22255   1.889   1.525   8.111  0.4063 -0.0360 -0.8614
 3598SOL    HW122256   1.881   1.602   8.168  2.0723  1.0749 -2.1420
 3598SOL    HW222257   1.833   1.464   8.159  1.4339 -1.5075 -1.5512
 3599SOL     OW22258   0.206   0.701   7.061  0.1045  0.3268  0.0229
 3599SOL    HW122259   0.143   0.748   7.116  0.5502  0.3380  0.5301
 3599SOL    HW222260   0.233   0.627   7.116 -0.6315 -0.0649 -0.1408
 3600SOL     OW22261   0.617   2.672   7.707  0.0414  0.1382  0.3772
 3600SOL    HW122262   0.574   2.649   7.790 -2.7811 -2.6248 -1.8060
 3600SOL    HW222263   0.621   2.765   7.727 -1.0443  0.8202 -2.5054
 3601SOL     OW22264   4.045   3.486   4.631 -0.7692 -0.5827 -0.5548
 3601SOL    HW122265   4.121   3.484   4.689 -1.1034  3.1559  0.0361
 3601SOL    HW222266   4.040   3.581   4.618 -2.2734 -0.6914 -0.8373
 3602SOL     OW22267   4.030   0.769  11.151  0.1563  0.3358 -0.0918
 3602SOL    HW122268   3.950   0.786  11.201  0.9585  0.5883  1.0947
 3602SOL    HW222269   4.015   0.837  11.085  0.5916  1.8831  1.4046
 3603SOL     OW22270   0.864   0.248   8.179 -0.0097 -0.0212  0.0900
 3603SOL    HW122271   0.839   0.338   8.161  1.0799  0.0547 -1.0948
 3603SOL    HW222272   0.785   0.204   8.211 -0.7553  1.1473 -0.1641
 3604SOL     OW22273   3.046   4.359   3.211  0.3161 -0.5596  0.1628
 3604SOL    HW122274   3.047   4.284   3.151  2.4681 -0.1453 -0.3226
 3604SOL    HW222275   2.952   4.373   3.215  0.3276 -0.7761  1.0682
 3605SOL     OW22276   0.877   0.324   1.680 -0.0280  0.2753 -0.0175
 3605SOL    HW122277   0.784   0.317   1.657  0.4178 -1.6840 -1.2348
 3605SOL    HW222278   0.879   0.285   1.768 -1.6617 -0.3851 -0.2739
 3606SOL     OW22279   4.357   4.548   6.335 -0.0550  0.0872 -0.8508
 3606SOL    HW122280   4.325   4.633   6.367 -1.6851 -0.6631 -0.4336
 3606SOL    HW222281   4.362   4.553   6.240  0.3206 -1.2354 -0.9024
 3607SOL     OW22282   2.633   3.322   1.018 -0.3157 -0.3135  0.2053
 3607SOL    HW122283   2.562   3.316   0.954  0.0053 -0.4459 -0.1405
 3607SOL    HW222284   2.598   3.380   1.085 -0.1862  1.3967 -1.2055
 3608SOL     OW22285   0.933   2.005   3.829  0.1120 -0.1109  0.1891
 3608SOL    HW122286   0.912   2.094   3.855  2.3181  0.0731  1.3051
 3608SOL    HW222287   0.915   1.961   3.913 -1.0180 -0.4886 -0.2477
 3609SOL     OW22288   0.427   3.839   1.901 -0.1011  0.1903  0.4083
 3609SOL    HW122289   0.361   3.885   1.849  1.3546  2.2440  0.3665
 3609SOL    HW222290   0.404   3.747   1.886 -0.2712 -0.1657  2.8430
 3610SOL     OW22291   3.499   4.023  11.235  0.1850 -0.0400  0.2708
 3610SOL    HW122292   3.591   4.028  11.259  0.6754 -2.7515 -1.0079
 3610SOL    HW222293   3.498   4.074  11.154  1.5967  0.0223  0.3053
 3611SOL     OW22294   1.290   2.847  14.177  0.2576 -0.0043 -0.0906
 3611SOL    HW122295   1.207   2.829  14.132 -0.1826  0.8423  0.3918
 3611SOL    HW222296   1.291   2.767  14.230 -2.7422 -0.7917 -1.1873
 3612SOL     OW22297   3.635   0.129  12.026  0.0333  0.2284 -0.0656
 3612SOL    HW122298   3.708   0.177  12.065  0.6716  0.4398 -1.4938
 3612SOL    HW222299   3.632   0.050  12.079 -3.2105 -1.3687 -2.6264
 3613SOL     OW22300   4.298   4.515   6.038 -0.0086 -0.1028 -0.7357
 3613SOL    HW122301   4.336   4.434   6.072 -0.4461 -1.9276 -4.5197
 3613SOL    HW222302   4.217   4.502   6.088  1.9726 -3.1134  1.7049
 3614SOL     OW22303   2.851   2.179   7.664  0.2040  0.1232  0.2770
 3614SOL    HW122304   2.825   2.268   7.690  2.4063  0.9336 -0.2798
 3614SOL    HW222305   2.882   2.142   7.746 -0.3012  0.6847  0.7259
 3615SOL     OW22306   3.689   0.981   1.676  0.6725  0.0529 -0.3524
 3615SOL    HW122307   3.614   0.926   1.658  0.3301  0.9759 -1.7840
 3615SOL    HW222308   3.649   1.067   1.662 -1.9694 -1.2793 -0.9283
 3616SOL     OW22309   4.285   2.169   2.302  0.1666  0.5161 -0.9531
 3616SOL    HW122310   4.317   2.254   2.272 -2.1473  1.7078 -0.1230
 3616SOL    HW222311   4.190   2.164   2.288 -0.1141  1.2075  0.7218
 3617SOL     OW22312   0.166   0.479  13.276 -0.0240  0.1508 -0.4207
 3617SOL    HW122313   0.182   0.429  13.356 -1.2388  2.1506  1.0965
 3617SOL    HW222314   0.132   0.417  13.212  0.8654  0.3227 -1.0573
 3618SOL     OW22315   0.577   0.038   5.510 -0.4900 -0.3127 -0.6690
 3618SOL    HW122316   0.516   4.712   5.569  0.3404  0.6018  0.8899
 3618SOL    HW222317   0.565   0.003   5.422  2.1786 -0.9152 -0.7808
 3619SOL     OW22318   3.533   0.560  11.163  0.4859  0.2283 -0.0450
 3619SOL    HW122319   3.566   0.569  11.252 -0.4528 -0.7717  0.3940
 3619SOL    HW222320   3.606   0.503  11.138  0.4136 -1.2140  3.0258
 3620SOL     OW22321   1.248   1.899   7.821  0.3788  0.5411  0.2473
 3620SOL    HW122322   1.212   1.834   7.881 -0.9827  0.6754 -0.4374
 3620SOL    HW222323   1.263   1.965   7.889  0.4903 -0.5429  1.2784
 3621SOL     OW22324   0.433   3.813   9.682 -0.5312  0.3526 -0.0240
 3621SOL    HW122325   0.413   3.732   9.728 -0.7890 -1.3046 -2.9985
 3621SOL    HW222326   0.529   3.815   9.684 -0.5768  0.0379  2.3252
 3622SOL     OW22327   3.429   4.587   6.854 -0.1494 -0.1254  0.4333
 3622SOL    HW122328   3.361   4.653   6.834  0.7051  0.2239 -1.3823
 3622SOL    HW222329   3.507   4.642   6.848  0.6599 -1.4474 -1.0262
 3623SOL     OW22330   3.054   2.541  16.966 -0.0732 -0.5408  0.1065
 3623SOL    HW122331   3.074   2.571  16.877 -1.8449 -0.7174 -0.3560
 3623SOL    HW222332   2.982   2.599  16.991  2.5597  2.4048  0.8653
 3624SOL     OW22333   2.856   3.844  11.274  0.1405  0.0143  0.1247
 3624SOL    HW122334   2.906   3.899  11.213  0.0623  0.9795  0.9363
 3624SOL    HW222335   2.924   3.813  11.335  0.9372  1.1795 -0.1724
 3625SOL     OW22336   2.965   1.248   6.775 -0.1968 -0.2197  0.0502
 3625SOL    HW122337   2.983   1.213   6.687 -1.9404  2.6506 -1.4191
 3625SOL    HW222338   3.017   1.328   6.775 -1.2031  0.4330  0.2899
 3626SOL     OW22339   4.137   2.313   5.526 -0.4693 -0.0353  0.2124
 3626SOL    HW122340   4.083   2.234   5.532 -1.8160  0.8746 -0.0592
 3626SOL    HW222341   4.193   2.282   5.455 -0.2516  0.3767  0.2067
 3627SOL     OW22342   4.366   4.568  11.388 -0.0957 -0.2131 -0.3277
 3627SOL    HW122343   4.352   4.558  11.294  0.2990  0.9141 -0.5133
 3627SOL    HW222344   4.277   4.552  11.420 -0.3960 -0.4283 -1.2827
 3628SOL     OW22345   3.023   2.912   7.272  0.0649  0.7105  0.0355
 3628SOL    HW122346   2.978   2.865   7.341 -1.0744 -0.4456 -1.4886
 3628SOL    HW222347   3.110   2.874   7.269  0.6330  1.8661  1.8124
 3629SOL     OW22348   4.309   1.131   2.700 -0.2944 -0.1714  0.0490
 3629SOL    HW122349   4.319   1.042   2.732 -1.2175 -0.5299 -0.6563
 3629SOL    HW222350   4.334   1.122   2.608  0.1195  1.5891 -0.0156
 3630SOL     OW22351   2.997   2.923   3.723  0.0823 -0.1400 -0.1680
 3630SOL    HW122352   3.079   2.951   3.762  0.6321 -0.8693 -0.8021
 3630SOL    HW222353   2.976   2.842   3.769  1.4788 -1.2391 -1.4477
 3631SOL     OW22354   4.149   0.584   4.485  0.5467 -0.1783  0.1042
 3631SOL    HW122355   4.105   0.569   4.401 -0.8114 -0.6647  0.9008
 3631SOL    HW222356   4.240   0.582   4.453  1.3417  1.8373  2.2759
 3632SOL     OW22357   2.364   2.635   5.538  0.2363 -0.2338  0.4319
 3632SOL    HW122358   2.434   2.700   5.534  0.1198 -0.2421 -1.7828
 3632SOL    HW222359   2.374   2.601   5.449 -0.5767  3.1259 -0.9568
 3633SOL     OW22360   1.883   0.218   3.494  0.2998 -0.0739  0.7185
 3633SOL    HW122361   1.933   0.136   3.500  1.3292  0.5266  0.3374
 3633SOL    HW222362   1.818   0.201   3.426  0.7558  0.5651  0.1239
 3634SOL     OW22363   3.716   2.606   7.484  0.7491  0.0060 -0.0453
 3634SOL    HW122364   3.770   2.675   7.447 -0.3014  1.1171  0.4916
 3634SOL    HW222365   3.662   2.576   7.410  1.1313  1.5726 -0.9632
 3635SOL     OW22366   2.431   3.431   6.804 -0.2045 -0.3165  0.4421
 3635SOL    HW122367   2.389   3.515   6.786  1.0456  0.8624  3.0048
 3635SOL    HW222368   2.448   3.402   6.714  0.8402  0.0439  0.5227
 3636SOL     OW22369   0.502   3.635   8.392  0.8919 -0.3493 -0.5183
 3636SOL    HW122370   0.419   3.677   8.370  1.7723  2.0314  0.7473
 3636SOL    HW222371   0.490   3.627   8.487  1.9031 -2.2187 -0.5302
 3637SOL     OW22372   2.736   4.033   2.920 -0.3886 -0.4229 -0.1485
 3637SOL    HW122373   2.701   3.966   2.978  0.4743 -0.0543  0.8124
 3637SOL    HW222374   2.774   3.990   2.843 -0.6993 -1.0186  0.0372
 3638SOL     OW22375   3.856   1.335   3.052  0.4715 -0.0145 -0.0383
 3638SOL    HW122376   3.887   1.245   3.046  2.3686  0.6253  0.0887
 3638SOL    HW222377   3.833   1.343   2.960 -0.6634  1.4210  0.3724
 3639SOL     OW22378   0.032   0.838  12.401  0.0229 -0.7152 -0.2145
 3639SOL    HW122379   4.683   0.799  12.348 -0.0439 -1.0170  0.0891
 3639SOL    HW222380   0.068   0.751  12.421  0.9296 -0.1300  0.6966
 3640SOL     OW22381   1.324   2.704  10.563  0.0938  0.0252 -1.1506
 3640SOL    HW122382   1.368   2.738  10.640 -0.1333 -0.8660 -0.6286
 3640SOL    HW222383   1.249   2.649  10.588 -0.8083  2.3783  1.3083
 3641SOL     OW22384   3.190   0.626   2.160  0.6460  0.3494 -0.0689
 3641SOL    HW122385   3.117   0.565   2.170  0.6258  0.8651  3.1112
 3641SOL    HW222386   3.233   0.581   2.088 -2.1557 -1.0542 -0.8759
 3642SOL     OW22387   2.187   3.425   6.152 -0.0607  0.2841 -0.0738
 3642SOL    HW122388   2.219   3.367   6.221  0.4841 -0.3090 -0.8126
 3642SOL    HW222389   2.241   3.389   6.081  1.6953  0.7487  1.0112
 3643SOL     OW22390   4.045   0.805  12.659 -0.3162 -0.3694  1.0140
 3643SOL    HW122391   4.001   0.735  12.707 -1.2447  0.0274  0.7428
 3643SOL    HW222392   4.128   0.768  12.630 -1.0736 -1.6194  0.4484
 3644SOL     OW22393   2.436   0.890   8.669 -0.0701 -0.1283  0.0120
 3644SOL    HW122394   2.524   0.927   8.671 -0.4152  0.8362 -2.3228
 3644SOL    HW222395   2.452   0.836   8.591 -0.9399  0.3684 -0.5180
 3645SOL     OW22396   0.819   2.047   4.920 -0.0371 -0.3970  0.4528
 3645SOL    HW122397   0.809   2.132   4.876 -1.4400 -2.4369 -3.1488
 3645SOL    HW222398   0.798   1.985   4.850 -1.0927 -0.0326  0.4418
 3646SOL     OW22399   2.933   4.464   7.277 -0.0717 -0.3691 -0.1930
 3646SOL    HW122400   2.847   4.425   7.292 -0.5682 -0.3747 -3.0054
 3646SOL    HW222401   2.940   4.519   7.356 -1.3332 -0.4006 -0.0725
 3647SOL     OW22402   4.165   3.565   3.308 -0.4180  0.8661  0.3654
 3647SOL    HW122403   4.129   3.573   3.219  0.7981  0.4759 -0.1678
 3647SOL    HW222404   4.195   3.653   3.331  0.7509  0.7659 -0.7101
 3648SOL     OW22405   3.725   0.757   8.741 -0.4083 -0.8792 -0.0144
 3648SOL    HW122406   3.820   0.767   8.740 -0.3229 -1.6992 -0.2971
 3648SOL    HW222407   3.697   0.846   8.722 -1.8594 -1.4070 -0.3852
 3649SOL     OW22408   3.291   4.197  14.925 -0.1461 -0.1137  0.2642
 3649SOL    HW122409   3.285   4.292  14.917  1.6902 -0.0525 -0.2291
 3649SOL    HW222410   3.380   4.169  14.904  0.8757  1.6784  2.1746
 3650SOL     OW22411   4.364   2.754   6.704  0.6186  0.1197  0.1831
 3650SOL    HW122412   4.361   2.791   6.792  1.1147 -1.1056  0.7103
 3650SOL    HW222413   4.420   2.677   6.716  2.3346  1.3389 -0.0463
 3651SOL     OW22414   1.813   3.983  15.314  1.0886 -0.1071  0.2047
 3651SOL    HW122415   1.835   4.011  15.403  0.8824 -1.5834  0.7266
 3651SOL    HW222416   1.815   4.068  15.271  0.5959 -1.0804 -1.7096
 3652SOL     OW22417   4.702   1.852  16.325 -0.0254  0.4229 -0.0159
 3652SOL    HW122418   4.631   1.808  16.276  0.4930 -0.3616 -0.0720
 3652SOL    HW222419   4.719   1.792  16.397  0.0457  0.1244 -0.2772
 3653SOL     OW22420   1.171   2.185   3.952  0.0187  0.4028  0.3887
 3653SOL    HW122421   1.213   2.268   3.972 -2.8383  1.8904  0.1837
 3653SOL    HW222422   1.102   2.219   3.896  0.6512  1.4926  0.2706
 3654SOL     OW22423   0.524   4.215   0.211 -0.3476 -0.0993  0.4551
 3654SOL    HW122424   0.569   4.143   0.256  2.9225  2.0716  0.6341
 3654SOL    HW222425   0.557   4.291   0.258  1.2779 -0.0838 -0.6818
 3655SOL     OW22426   3.421   3.054   3.496 -0.0132 -0.0144 -0.1283
 3655SOL    HW122427   3.329   3.037   3.477 -0.1579  0.4763  0.1336
 3655SOL    HW222428   3.402   3.131   3.550 -1.6509 -0.7041  0.2895
 3656SOL     OW22429   2.459   1.122  17.375  0.1016  0.4218 -0.1899
 3656SOL    HW122430   2.524   1.067  17.418  0.0209  0.2981 -0.2252
 3656SOL    HW222431   2.389   1.057  17.379 -1.0596  1.6474 -0.3990
 3657SOL     OW22432   3.809   3.574   6.104 -0.2257 -0.4748  0.2388
 3657SOL    HW122433   3.899   3.601   6.124  0.2465 -2.4903  0.8979
 3657SOL    HW222434   3.757   3.644   6.144 -0.4923  0.3067 -1.4951
 3658SOL     OW22435   0.962   3.925   1.710  0.2133  0.4932 -1.0526
 3658SOL    HW122436   0.886   3.911   1.655 -1.4942 -1.2611  1.7689
 3658SOL    HW222437   1.022   3.960   1.643  0.4329  0.3447 -0.9349
 3659SOL     OW22438   3.543   3.524   3.411 -0.3229 -0.1662  0.2890
 3659SOL    HW122439   3.568   3.512   3.503  1.7482  0.4103 -0.2065
 3659SOL    HW222440   3.611   3.584   3.379 -1.8088  1.4334  0.1431
 3660SOL     OW22441   2.448   4.229   5.337 -0.3111 -0.1631 -0.6786
 3660SOL    HW122442   2.492   4.189   5.412  0.2087  0.9838 -0.3751
 3660SOL    HW222443   2.358   4.211   5.362 -0.4959 -0.3538 -1.4778
 3661SOL     OW22444   2.747   1.200  15.730 -0.6704  0.3059  0.4309
 3661SOL    HW122445   2.825   1.245  15.764 -0.6679 -0.3961  1.3582
 3661SOL    HW222446   2.736   1.250  15.649 -1.0677  0.5240  0.6210
 3662SOL     OW22447   4.122   2.891   3.404 -0.2493 -0.2823 -0.1366
 3662SOL    HW122448   4.046   2.942   3.430 -0.0726  0.2932 -0.7618
 3662SOL    HW222449   4.107   2.876   3.311 -0.9715  0.8825 -0.2048
 3663SOL     OW22450   2.860   3.426   8.299 -0.2891  0.0155 -0.0022
 3663SOL    HW122451   2.868   3.510   8.345 -1.9116  0.8622 -1.3081
 3663SOL    HW222452   2.934   3.439   8.239 -0.3249  0.5596  0.0705
 3664SOL     OW22453   3.446   0.566   7.990  0.4396  0.2389  0.3380
 3664SOL    HW122454   3.418   0.618   8.065 -4.1926 -0.3317 -1.0432
 3664SOL    HW222455   3.476   0.483   8.026 -0.2519 -1.3765 -2.8547
 3665SOL     OW22456   3.983   2.625   8.756  0.2785  0.0972 -0.7046
 3665SOL    HW122457   4.044   2.558   8.725 -2.3866 -1.3307 -2.9204
 3665SOL    HW222458   4.042   2.696   8.783 -1.2012  1.5976 -1.4310
 3666SOL     OW22459   1.710   2.559   7.259 -0.2997 -0.0712 -0.1323
 3666SOL    HW122460   1.778   2.508   7.302 -0.7482  0.5951  1.3721
 3666SOL    HW222461   1.724   2.651   7.281  2.9471 -1.0350  1.6616
 3667SOL     OW22462   0.675   2.185   1.249  0.4018  0.6763 -0.1697
 3667SOL    HW122463   0.744   2.125   1.278 -0.5038 -0.4293 -0.3206
 3667SOL    HW222464   0.607   2.124   1.224  1.7792 -1.9847  2.5724
 3668SOL     OW22465   2.304   2.368   6.038  0.2471 -0.1314  0.2293
 3668SOL    HW122466   2.330   2.448   5.992 -0.1141 -0.4734 -0.5706
 3668SOL    HW222467   2.209   2.378   6.033  0.3051 -0.2617 -1.1892
 3669SOL     OW22468   2.246   3.000   3.966 -0.1644 -0.2747 -0.3640
 3669SOL    HW122469   2.221   3.075   4.021 -2.5594 -1.2316 -0.1850
 3669SOL    HW222470   2.329   3.028   3.927  0.8313 -2.9285 -0.1638
 3670SOL     OW22471   3.316   2.692  15.456  0.4843  0.2695 -0.1379
 3670SOL    HW122472   3.335   2.628  15.388 -3.0436 -0.5029 -0.3856
 3670SOL    HW222473   3.396   2.723  15.498  0.6014  1.5599 -1.3326
 3671SOL     OW22474   1.830   0.375  16.331 -0.6985  0.8208 -0.6849
 3671SOL    HW122475   1.815   0.283  16.354 -0.2945  0.3754 -2.1983
 3671SOL    HW222476   1.864   0.377  16.241 -0.1718  0.2062 -0.5061
 3672SOL     OW22477   0.420   4.012   3.018  0.5489  0.0841 -0.0341
 3672SOL    HW122478   0.481   4.006   2.946 -0.8490  1.8271 -1.3617
 3672SOL    HW222479   0.339   4.015   2.967  0.0051 -1.6829  0.7296
 3673SOL     OW22480   1.049   1.502  15.961 -0.3662  0.6671 -0.5193
 3673SOL    HW122481   1.032   1.420  15.916 -3.6890  1.1594 -0.1630
 3673SOL    HW222482   0.963   1.545  15.955 -1.2806 -1.1340 -0.4158
 3674SOL     OW22483   0.167   0.998  16.376 -0.4205 -0.0717 -0.0929
 3674SOL    HW122484   0.155   0.956  16.291 -0.4888  1.9866 -1.1170
 3674SOL    HW222485   0.223   1.071  16.348  1.8788 -1.7180  0.3157
 3675SOL     OW22486   4.647   0.766   2.357 -0.2211 -0.4904 -0.0696
 3675SOL    HW122487   4.599   0.819   2.421 -0.5840  1.9521 -2.3893
 3675SOL    HW222488   4.612   0.808   2.279 -1.5306 -2.7354 -0.6955
 3676SOL     OW22489   1.227   4.363   9.058 -0.1354  0.3835 -0.5710
 3676SOL    HW122490   1.238   4.397   8.969  1.1183  0.8438 -0.2409
 3676SOL    HW222491   1.132   4.354   9.069 -0.0202 -1.7626 -1.3368
 3677SOL     OW22492   0.981   2.273   6.188  0.1322 -0.5992  0.3530
 3677SOL    HW122493   1.004   2.185   6.217 -1.1670 -1.4077 -1.0870
 3677SOL    HW222494   0.950   2.249   6.101  1.1677 -0.6207 -0.0117
 3678SOL     OW22495   4.364   0.679   9.603 -0.2036 -0.4052  0.0693
 3678SOL    HW122496   4.327   0.713   9.685  0.8416 -0.4939  0.5837
 3678SOL    HW222497   4.450   0.722   9.608  0.8219 -2.6958  2.5646
 3679SOL     OW22498   0.539   0.998   4.560 -0.1949  0.2297  0.1718
 3679SOL    HW122499   0.540   0.918   4.506  2.4561  0.3321  0.0505
 3679SOL    HW222500   0.623   1.034   4.532 -1.0390  1.7331 -0.3929
 3680SOL     OW22501   2.243   2.859   9.126  0.4142 -0.3599 -0.1670
 3680SOL    HW122502   2.206   2.844   9.039  1.0011 -3.1201  0.0742
 3680SOL    HW222503   2.170   2.831   9.181 -1.7415  1.3526 -2.1355
 3681SOL     OW22504   0.883   0.437   0.964 -0.0598 -0.0356  0.1514
 3681SOL    HW122505   0.866   0.349   0.931 -1.0036  0.4868 -0.7461
 3681SOL    HW222506   0.805   0.460   1.013  0.8911  0.7252  1.3180
 3682SOL     OW22507   0.918   4.516   6.673 -0.2666  0.6775 -0.5892
 3682SOL    HW122508   0.986   4.584   6.678 -0.0072  0.4899 -1.5913
 3682SOL    HW222509   0.893   4.494   6.762  0.3183 -2.7780 -1.2936
 3683SOL     OW22510   4.250   2.023   5.804 -0.1862 -0.3638  0.4837
 3683SOL    HW122511   4.247   1.959   5.875 -1.5181  0.3213  1.0478
 3683SOL    HW222512   4.163   2.061   5.814  0.3189  1.0136 -0.3236
 3684SOL     OW22513   2.522   3.139   3.158 -0.9544  0.4298  0.3688
 3684SOL    HW122514   2.518   3.050   3.193 -0.8312  0.5986  0.8164
 3684SOL    HW222515   2.544   3.183   3.241  0.7039  1.0257 -0.3851
 3685SOL     OW22516   4.332   4.143   9.400  0.2262 -0.2702 -0.2069
 3685SOL    HW122517   4.408   4.104   9.358  0.1696 -1.0915  0.4511
 3685SOL    HW222518   4.350   4.113   9.490 -2.0668 -1.0299 -0.0178
 3686SOL     OW22519   1.107   2.508   3.568  0.2410 -0.2677  0.2709
 3686SOL    HW122520   1.150   2.554   3.496 -0.5507  0.9788  0.5926
 3686SOL    HW222521   1.016   2.504   3.536 -0.3916  1.0891  1.9400
 3687SOL     OW22522   4.699   1.296   3.269  0.6457  0.1290  0.6511
 3687SOL    HW122523   0.040   1.343   3.327  1.6305 -0.8401  0.4063
 3687SOL    HW222524   4.641   1.362   3.230  0.6859 -1.3231 -1.8455
 3688SOL     OW22525   0.109   2.801  17.480 -0.1355 -0.3239  0.4693
 3688SOL    HW122526   0.045   2.848  17.426 -0.4839 -2.2595 -0.8062
 3688SOL    HW222527   0.043   2.748  17.526 -1.3944 -0.3635 -1.3668
 3689SOL     OW22528   2.640   0.457  11.933 -0.0004 -0.1689 -0.1659
 3689SOL    HW122529   2.598   0.407  11.863  0.9840 -2.1602  0.6819
 3689SOL    HW222530   2.668   0.539  11.891  1.2260  0.6795  2.3367
 3690SOL     OW22531   2.532   1.171   1.596 -0.1058  0.3658 -0.4777
 3690SOL    HW122532   2.604   1.227   1.567  0.9986  0.2984  2.1700
 3690SOL    HW222533   2.578   1.087   1.601  1.2895  0.9857 -2.5357
 3691SOL     OW22534   1.434   4.412   6.103  0.4155 -0.5252 -0.1468
 3691SOL    HW122535   1.525   4.440   6.090 -0.3668  2.2044  0.1307
 3691SOL    HW222536   1.432   4.327   6.059  2.1557 -0.3394 -0.6045
 3692SOL     OW22537   2.741   3.243   8.527 -0.1699 -0.4245 -0.2546
 3692SOL    HW122538   2.795   3.251   8.606 -0.3600  1.4993 -0.3182
 3692SOL    HW222539   2.784   3.314   8.479 -0.1874 -0.8188 -0.8510
 3693SOL     OW22540   2.540   2.644  14.906  0.4471 -0.2022 -0.3652
 3693SOL    HW122541   2.599   2.688  14.968  0.7191 -0.5637 -0.3717
 3693SOL    HW222542   2.460   2.653  14.958 -0.5584  1.6044 -2.2384
 3694SOL     OW22543   1.091   2.589   7.486 -0.8247  0.4448 -0.0018
 3694SOL    HW122544   1.036   2.585   7.564 -2.3061 -2.0557 -1.1659
 3694SOL    HW222545   1.095   2.496   7.465  1.5483  0.6213 -0.3354
 3695SOL     OW22546   2.397   3.075   1.716  0.0159 -0.0848  0.1141
 3695SOL    HW122547   2.325   3.120   1.761 -0.7908 -0.0350 -1.2529
 3695SOL    HW222548   2.418   3.139   1.648 -0.9744 -0.6908 -0.7543
 3696SOL     OW22549   0.737   1.685  15.580 -0.4596  0.1385 -0.4398
 3696SOL    HW122550   0.818   1.635  15.588  0.1055  1.0663 -0.3594
 3696SOL    HW222551   0.751   1.706  15.487 -0.1905  1.1328 -0.1787
 3697SOL     OW22552   2.759   3.031  11.343  0.3580 -0.3061  0.2088
 3697SOL    HW122553   2.809   2.972  11.286 -0.2573 -0.1173 -0.5306
 3697SOL    HW222554   2.817   3.107  11.345 -1.2220  0.9461 -1.4321
 3698SOL     OW22555   0.955   0.737   2.936  0.3307 -0.3415  0.0651
 3698SOL    HW122556   0.909   0.817   2.960  0.8376 -0.2519  0.7256
 3698SOL    HW222557   0.961   0.757   2.843  0.6523  0.2205  0.2074
 3699SOL     OW22558   3.488   2.028  13.095  0.5858 -0.0032 -0.1788
 3699SOL    HW122559   3.398   1.995  13.094  0.3945  0.4653  1.1450
 3699SOL    HW222560   3.524   1.956  13.044 -0.9854 -1.2302  0.4427
 3700SOL     OW22561   2.558   3.327   9.648  0.1713 -0.0664  0.0482
 3700SOL    HW122562   2.538   3.341   9.741 -0.8489 -1.9306  0.1143
 3700SOL    HW222563   2.583   3.235   9.658  3.0277  0.8580  1.5202
 3701SOL     OW22564   4.415   1.393   7.679 -0.0543 -0.3132 -0.3051
 3701SOL    HW122565   4.470   1.461   7.641  0.6561  0.3531  1.9238
 3701SOL    HW222566   4.459   1.370   7.761 -2.1442  0.7195  1.1342
 3702SOL     OW22567   0.611   2.402   1.080  0.1265 -0.0380 -0.2338
 3702SOL    HW122568   0.649   2.338   1.140 -0.8309 -0.0878  0.3354
 3702SOL    HW222569   0.669   2.396   1.004 -0.1814  0.7697 -0.5240
 3703SOL     OW22570   0.176   1.495   7.277 -0.1281  0.3206  0.5223
 3703SOL    HW122571   0.242   1.425   7.282 -0.6462 -0.4245 -2.4920
 3703SOL    HW222572   0.116   1.471   7.347  0.5184  1.9931  1.6390
 3704SOL     OW22573   2.629   4.016  13.050  0.3247  0.4472  0.1343
 3704SOL    HW122574   2.674   4.093  13.085  2.1574 -0.6835  0.2132
 3704SOL    HW222575   2.634   3.952  13.121 -1.3849 -1.7506 -1.7329
 3705SOL     OW22576   3.040   1.753   9.466  1.2126 -0.2499  0.4628
 3705SOL    HW122577   3.032   1.776   9.373 -1.6204  0.0003  0.7780
 3705SOL    HW222578   3.063   1.661   9.460 -3.3799 -1.5225  2.5709
 3706SOL     OW22579   0.925   2.223   2.786  0.1839 -0.2401  0.0681
 3706SOL    HW122580   0.989   2.290   2.764  1.1124 -0.8189  1.0218
 3706SOL    HW222581   0.879   2.218   2.702 -1.4010  2.3055  0.7850
 3707SOL     OW22582   2.091   3.725   5.520  0.3488 -0.2911 -0.2869
 3707SOL    HW122583   2.057   3.747   5.433 -0.0071  3.3211  0.7972
 3707SOL    HW222584   2.066   3.795   5.581  2.8468 -1.2722  1.8472
 3708SOL     OW22585   2.318   3.915   8.552 -0.6107 -0.2198 -0.3645
 3708SOL    HW122586   2.348   3.829   8.522 -1.0776 -0.1149 -1.1241
 3708SOL    HW222587   2.379   3.973   8.507  0.3572  1.1718  2.7899
 3709SOL     OW22588   3.042   2.824   6.814  0.2087 -0.7850 -0.9673
 3709SOL    HW122589   3.074   2.895   6.869  1.6961 -1.5619 -0.8265
 3709SOL    HW222590   3.037   2.875   6.733 -2.7445  2.6217  1.4131
 3710SOL     OW22591   0.435   2.795  15.295 -0.6222  0.5668  0.1834
 3710SOL    HW122592   0.481   2.823  15.216 -0.3375 -0.6889 -0.0830
 3710SOL    HW222593   0.513   2.765  15.340 -0.5062  0.0707 -0.3493
 3711SOL     OW22594   3.346   2.894   1.300 -0.1230  0.0488  0.5968
 3711SOL    HW122595   3.360   2.805   1.269 -0.0213 -0.0824  1.0182
 3711SOL    HW222596   3.287   2.875   1.373  1.4473 -2.3698  1.2247
 3712SOL     OW22597   3.600   3.256   7.831 -0.2731  0.2491  0.4383
 3712SOL    HW122598   3.601   3.283   7.923 -2.0088 -1.1643  0.8650
 3712SOL    HW222599   3.620   3.163   7.839  0.7774  0.5852  1.7434
 3713SOL     OW22600   2.530   4.301   6.371  0.6902  0.0158  0.3229
 3713SOL    HW122601   2.607   4.354   6.352  0.2989  0.2073 -0.7069
 3713SOL    HW222602   2.531   4.228   6.309 -2.1198 -0.6871  1.0786
 3714SOL     OW22603   4.283   1.233  15.190 -0.0963 -0.8178  0.6212
 3714SOL    HW122604   4.351   1.295  15.215 -0.7193  0.4987 -0.9970
 3714SOL    HW222605   4.203   1.284  15.181 -0.3508 -1.0838  1.2893
 3715SOL     OW22606   3.142   0.397  12.969 -0.5714  0.2015 -0.0320
 3715SOL    HW122607   3.151   0.333  13.040  0.0875 -0.0309 -0.3328
 3715SOL    HW222608   3.232   0.399  12.938 -0.6864 -0.0761 -0.3777
 3716SOL     OW22609   2.672   3.931   9.786 -0.5382  0.2866 -0.5001
 3716SOL    HW122610   2.664   3.873   9.711  1.6232 -1.4997  0.6649
 3716SOL    HW222611   2.629   3.876   9.851  0.4124 -0.2000 -0.2895
 3717SOL     OW22612   4.421   3.879   0.065 -0.3149  0.0132  0.3253
 3717SOL    HW122613   4.406   3.970   0.041  2.0687  0.2155 -0.4183
 3717SOL    HW222614   4.492   3.889   0.128  1.0209  0.4022 -1.2315
 3718SOL     OW22615   1.312   0.928   4.565 -0.1241  0.1915 -0.1911
 3718SOL    HW122616   1.387   0.941   4.623  0.8086 -0.8582 -1.1453
 3718SOL    HW222617   1.341   0.963   4.480 -0.7506 -0.8495 -0.8383
 3719SOL     OW22618   1.202   2.141   1.953  0.1789 -0.7226  0.2633
 3719SOL    HW122619   1.121   2.153   1.903 -0.2204 -0.9352  0.8601
 3719SOL    HW222620   1.218   2.048   1.939 -1.6489 -0.7945 -1.4219
 3720SOL     OW22621   2.298   0.480   8.110 -0.2859  0.7518  0.0821
 3720SOL    HW122622   2.270   0.475   8.019 -0.6528  1.1848  0.1700
 3720SOL    HW222623   2.318   0.388   8.129 -0.9492  0.3751 -1.0363
 3721SOL     OW22624   0.423   3.236  17.060  0.7514 -0.5340 -0.2166
 3721SOL    HW122625   0.340   3.208  17.099  0.4717  0.6766  0.0694
 3721SOL    HW222626   0.383   3.265  16.977 -1.0630  0.1036  0.8721
 3722SOL     OW22627   2.052   2.699   5.511  0.0266 -0.1276  0.0413
 3722SOL    HW122628   2.103   2.676   5.433 -0.2095  0.6213 -0.3359
 3722SOL    HW222629   1.995   2.768   5.478  0.9387  0.3917 -0.4591
 3723SOL     OW22630   1.141   2.763  16.868  0.5175 -0.0255  0.2822
 3723SOL    HW122631   1.129   2.853  16.899 -1.8856 -0.3799  0.3541
 3723SOL    HW222632   1.065   2.757  16.809  0.8378  0.1358 -0.1470
 3724SOL     OW22633   3.030   4.452   5.658  0.1181 -0.2234  0.6029
 3724SOL    HW122634   3.117   4.430   5.691  0.2082 -1.4480 -0.4762
 3724SOL    HW222635   3.025   4.399   5.578 -1.3621  0.7664  0.0333
 3725SOL     OW22636   4.449   2.973   1.882  0.5956 -0.2314 -0.1119
 3725SOL    HW122637   4.397   2.896   1.856 -0.5582  0.0736  1.2701
 3725SOL    HW222638   4.464   3.012   1.795  0.9088  1.6105  0.7793
 3726SOL     OW22639   1.175   2.302  17.098 -1.1251 -0.0603  0.0898
 3726SOL    HW122640   1.149   2.387  17.065 -1.1729  0.8859  2.5990
 3726SOL    HW222641   1.093   2.256  17.116 -0.5608 -0.7050  1.0049
 3727SOL     OW22642   2.475   4.172  10.452 -0.0314 -0.2657  0.1973
 3727SOL    HW122643   2.468   4.094  10.397 -2.9137  1.1668 -1.5127
 3727SOL    HW222644   2.527   4.214  10.383  0.7128  1.8188  2.0249
 3728SOL     OW22645   3.142   1.037  11.630  0.0632  0.1732 -0.7557
 3728SOL    HW122646   3.115   0.971  11.565  1.6682 -0.2701 -0.9621
 3728SOL    HW222647   3.234   1.016  11.644  0.1100  1.2552  0.5162
 3729SOL     OW22648   3.149   2.023   5.322  0.3203 -0.4667  0.4214
 3729SOL    HW122649   3.183   1.948   5.274 -0.9210 -0.4456 -0.5141
 3729SOL    HW222650   3.224   2.057   5.370  0.2254  2.1667 -1.2686
 3730SOL     OW22651   1.413   4.284   6.866 -0.5732 -0.5529  0.2733
 3730SOL    HW122652   1.402   4.373   6.897 -1.7958  0.6529 -3.5770
 3730SOL    HW222653   1.508   4.275   6.868 -0.4640  0.3639 -1.0106
 3731SOL     OW22654   0.196   0.759  13.233 -0.1228  0.2099  0.1888
 3731SOL    HW122655   0.119   0.743  13.179  0.2628  2.0285 -0.9128
 3731SOL    HW222656   0.225   0.671  13.255 -1.4552  0.1281  1.5913
 3732SOL     OW22657   3.958   3.748  15.386  0.0221  0.0553  0.1237
 3732SOL    HW122658   3.960   3.796  15.303  1.7028 -0.2019 -0.0015
 3732SOL    HW222659   4.009   3.811  15.437 -0.8765  0.5437  0.4164
 3733SOL     OW22660   2.769   0.147   5.292 -0.0183  0.5454 -0.4025
 3733SOL    HW122661   2.834   0.092   5.336 -0.6030 -2.3635 -3.1717
 3733SOL    HW222662   2.688   0.136   5.342  0.6004  1.1192  0.7288
 3734SOL     OW22663   0.938   0.096   6.981  0.1091 -0.0972 -0.5596
 3734SOL    HW122664   0.925   0.117   7.074  0.5866  1.3534 -0.8265
 3734SOL    HW222665   0.984   0.174   6.951 -0.9149  2.6075  4.7663
 3735SOL     OW22666   1.759   2.484   6.992 -0.6282  0.0762  0.7831
 3735SOL    HW122667   1.718   2.503   7.076  0.2311 -1.7097  1.6114
 3735SOL    HW222668   1.832   2.427   7.017 -0.1667  0.6096  0.6329
 3736SOL     OW22669   3.035   3.189  14.219 -0.4398 -0.3479  0.3713
 3736SOL    HW122670   3.022   3.207  14.312  0.4420 -0.4422  0.5134
 3736SOL    HW222671   2.943   3.176  14.198 -0.8455  0.8155  1.4536
 3737SOL     OW22672   0.710   3.287   6.506 -0.5989  0.4690  0.0908
 3737SOL    HW122673   0.729   3.328   6.422 -2.4423 -1.4496 -1.2865
 3737SOL    HW222674   0.720   3.196   6.478 -0.0734  0.3813  0.5701
 3738SOL     OW22675   4.296   3.346   8.181 -0.0108 -0.1712  0.6646
 3738SOL    HW122676   4.252   3.287   8.243 -1.1260 -0.1825 -0.1388
 3738SOL    HW222677   4.230   3.365   8.114  1.7057  0.2477 -0.9272
 3739SOL     OW22678   1.250   4.497   0.562 -0.3526  0.1986  0.4353
 3739SOL    HW122679   1.201   4.434   0.508 -0.7099 -0.3070  1.3462
 3739SOL    HW222680   1.223   4.584   0.533 -2.9283 -0.2731  1.3739
 3740SOL     OW22681   1.701   4.075   1.652 -0.1830  0.2592  0.0574
 3740SOL    HW122682   1.607   4.064   1.644 -0.2121  0.6729 -0.1363
 3740SOL    HW222683   1.739   3.987   1.663 -0.1232  0.0133 -2.1042
 3741SOL     OW22684   0.555   0.811   5.532 -0.6518 -0.4649  0.1957
 3741SOL    HW122685   0.478   0.855   5.568  0.0734  0.2675  0.8427
 3741SOL    HW222686   0.521   0.786   5.446  2.1732 -1.6037 -0.5855
 3742SOL     OW22687   2.537   4.022   6.789 -0.4145 -0.3325  0.2365
 3742SOL    HW122688   2.504   3.958   6.727  2.7895 -1.6210 -0.1276
 3742SOL    HW222689   2.458   4.045   6.839  0.2898  1.6746  0.4363
 3743SOL     OW22690   2.376   3.557   7.445 -0.0140 -0.5350  0.5514
 3743SOL    HW122691   2.388   3.582   7.537  0.4677  1.3843 -0.0168
 3743SOL    HW222692   2.457   3.510   7.425  0.9448  0.9615  0.9275
 3744SOL     OW22693   2.933   2.949  15.613  0.3559 -0.2438  0.5104
 3744SOL    HW122694   2.878   2.971  15.538  0.7282 -1.0713 -0.0029
 3744SOL    HW222695   3.015   2.972  15.570  0.8222 -0.4351  1.2865
 3745SOL     OW22696   0.429   0.810   6.920 -0.2428 -0.1078  0.6718
 3745SOL    HW122697   0.504   0.751   6.930 -1.1040 -1.8424 -2.7685
 3745SOL    HW222698   0.361   0.784   6.982 -1.1205 -3.6090 -1.6881
 3746SOL     OW22699   2.595   1.203  12.419  0.6609  0.3350 -0.3229
 3746SOL    HW122700   2.511   1.166  12.395  0.9411 -0.7549  0.3582
 3746SOL    HW222701   2.635   1.122  12.451  1.2382  1.1788  1.1372
 3747SOL     OW22702   1.835   0.771  11.182  0.3933  0.4163  0.2257
 3747SOL    HW122703   1.816   0.818  11.101  1.8325 -1.6906 -1.3387
 3747SOL    HW222704   1.879   0.694  11.147 -2.2335 -0.6429 -0.7466
 3748SOL     OW22705   4.279   4.307   7.573  0.7567 -0.2777 -0.1018
 3748SOL    HW122706   4.230   4.336   7.496  1.2448 -1.0864 -0.7181
 3748SOL    HW222707   4.340   4.248   7.529 -1.6210 -0.8363 -2.6244
 3749SOL     OW22708   3.264   1.415   3.491 -0.5846  0.0831 -0.0489
 3749SOL    HW122709   3.201   1.396   3.561  1.0944 -2.2741  0.8389
 3749SOL    HW222710   3.340   1.370   3.528 -1.0930 -0.2972  0.5485
 3750SOL     OW22711   1.292   0.607   1.788  0.5094  0.0051  0.7238
 3750SOL    HW122712   1.266   0.668   1.719 -2.0760 -0.2576  1.4669
 3750SOL    HW222713   1.322   0.658   1.863  0.5567 -0.2243  0.8617
 3751SOL     OW22714   0.042   3.062   8.736 -0.2487 -0.1630 -0.3245
 3751SOL    HW122715   0.013   2.971   8.736  1.1126 -0.5910 -0.1158
 3751SOL    HW222716   0.127   3.049   8.778 -0.3391 -1.5559 -0.5687
 3752SOL     OW22717   2.070   1.190   1.644 -0.2946  0.3225 -0.4028
 3752SOL    HW122718   1.984   1.149   1.633  0.0167  0.0648 -1.8668
 3752SOL    HW222719   2.074   1.236   1.561  0.0193  0.8368 -0.1042
 3753SOL     OW22720   4.112   4.668   2.885 -0.4406 -0.3455 -0.3218
 3753SOL    HW122721   4.032   4.654   2.834 -0.1688  1.1325 -1.1370
 3753SOL    HW222722   4.070   0.003   2.951  0.4860 -0.0100 -0.0089
 3754SOL     OW22723   4.277   4.071   2.369 -0.3161  0.2346 -0.0976
 3754SOL    HW122724   4.312   3.986   2.396 -0.2682 -0.5441 -2.6121
 3754SOL    HW222725   4.289   4.062   2.274 -0.1830 -1.3693  0.0654
 3755SOL     OW22726   0.053   4.684   7.915 -0.0741 -0.0475  0.4805
 3755SOL    HW122727   0.019   4.709   8.001 -0.3763  1.5499 -0.1007
 3755SOL    HW222728   0.145   4.676   7.940  0.0688  0.6095  0.1700
 3756SOL     OW22729   4.003   3.431   2.225  0.5025 -0.2624  0.0832
 3756SOL    HW122730   3.945   3.399   2.156  0.5176 -0.3987  0.1351
 3756SOL    HW222731   4.064   3.358   2.236  1.8794  0.8420 -0.2377
 3757SOL     OW22732   0.025   2.945   8.133  0.6213 -0.8112 -0.0778
 3757SOL    HW122733   4.701   2.973   8.052 -0.6820  0.8814  1.2020
 3757SOL    HW222734   0.025   3.027   8.181  0.0380 -0.8414 -0.0262
 3758SOL     OW22735   1.635   1.472   6.784 -0.2548 -0.3141 -0.2965
 3758SOL    HW122736   1.549   1.513   6.791  0.3923  1.1421 -0.7918
 3758SOL    HW222737   1.682   1.536   6.730 -2.0597  0.8584 -0.4757
 3759SOL     OW22738   0.245   0.871  10.452  0.2736  0.5045  0.2815
 3759SOL    HW122739   0.229   0.963  10.431  0.0064  0.0142 -1.5880
 3759SOL    HW222740   0.296   0.833  10.381  0.4012  1.8553 -0.3481
 3760SOL     OW22741   2.785   3.524   1.936 -0.2034  0.2042 -0.1868
 3760SOL    HW122742   2.859   3.512   1.877 -1.4328 -0.3289 -1.6203
 3760SOL    HW222743   2.826   3.550   2.018 -3.0785  0.2949  1.2222
 3761SOL     OW22744   2.013   3.423   5.749  0.0038 -0.0236  0.0140
 3761SOL    HW122745   2.041   3.506   5.789  0.0697 -0.3558  0.6691
 3761SOL    HW222746   2.081   3.397   5.687  0.3300  2.4880 -0.7090
 3762SOL     OW22747   1.123   0.915   8.846  0.7930  0.3127 -0.2598
 3762SOL    HW122748   1.044   0.968   8.834 -0.6488 -1.6458  0.4973
 3762SOL    HW222749   1.187   0.985   8.854 -0.5190  1.4393  0.3437
 3763SOL     OW22750   3.158   2.864   4.311  0.7034 -0.1287  0.0887
 3763SOL    HW122751   3.084   2.859   4.371  0.5641 -0.8314 -0.1458
 3763SOL    HW222752   3.153   2.780   4.267  1.1517  0.2012 -0.5949
 3764SOL     OW22753   4.635   0.970   6.774 -0.2924 -0.2631 -0.0763
 3764SOL    HW122754   4.597   1.024   6.704  0.5530  1.0807  0.4921
 3764SOL    HW222755   4.667   1.038   6.833  0.5418 -0.0216 -0.8017
 3765SOL     OW22756   3.402   4.230   6.579 -0.3628  0.1360 -0.0313
 3765SOL    HW122757   3.323   4.184   6.550 -0.8407  0.5224  0.6562
 3765SOL    HW222758   3.408   4.292   6.506  0.2257  2.4732  1.9834
 3766SOL     OW22759   4.489   1.522   9.910  0.1518  0.4465 -0.1689
 3766SOL    HW122760   4.481   1.531  10.005  0.3448  0.5435 -0.1602
 3766SOL    HW222761   4.405   1.479   9.895 -0.3547  1.3840 -0.0269
 3767SOL     OW22762   3.752   3.740   1.998 -0.2538 -0.0074 -1.0018
 3767SOL    HW122763   3.844   3.731   2.020 -0.4403 -0.7871 -0.5230
 3767SOL    HW222764   3.732   3.664   1.945  0.8816 -1.2137  0.3164
 3768SOL     OW22765   0.363   4.432   6.379 -0.2315  0.3379  0.2078
 3768SOL    HW122766   0.447   4.387   6.392  0.2388  1.2545  0.3602
 3768SOL    HW222767   0.379   4.499   6.313  1.1751 -0.4632 -0.2732
 3769SOL     OW22768   0.179   1.683   2.992 -0.0290 -0.0023 -0.0558
 3769SOL    HW122769   0.116   1.653   2.926 -0.2137  0.3025 -0.0178
 3769SOL    HW222770   0.259   1.649   2.953 -0.8975 -1.1909 -0.8251
 3770SOL     OW22771   0.740   0.114   7.195  0.0036 -0.7496  0.2199
 3770SOL    HW122772   0.729   0.169   7.273  2.9031 -1.6534  1.2606
 3770SOL    HW222773   0.660   0.063   7.206 -1.3222  1.0078 -1.2471
 3771SOL     OW22774   1.193   3.171   8.917  0.3974  0.3547  0.2434
 3771SOL    HW122775   1.154   3.135   8.997  2.0716 -0.2184  0.8198
 3771SOL    HW222776   1.158   3.260   8.918 -0.6617 -0.0860  1.3639
 3772SOL     OW22777   4.169   0.638   1.338 -0.0079  0.8155 -0.4064
 3772SOL    HW122778   4.152   0.582   1.261  0.3021 -1.2275  1.0144
 3772SOL    HW222779   4.107   0.710   1.325 -1.9481 -0.7309  0.3866
 3773SOL     OW22780   3.814   0.880   0.978  0.4007 -0.4425 -0.5711
 3773SOL    HW122781   3.842   0.953   0.922 -1.9002 -0.8118 -2.1902
 3773SOL    HW222782   3.737   0.843   0.935  0.4747 -0.5106 -0.6475
 3774SOL     OW22783   0.579   3.277  15.613  0.0697  0.1280 -0.3236
 3774SOL    HW122784   0.519   3.282  15.688 -1.3076  1.2422 -1.5012
 3774SOL    HW222785   0.650   3.328  15.652  1.2640 -1.4893 -0.3813
 3775SOL     OW22786   4.696   1.986   4.361 -0.9635  0.4901  0.2914
 3775SOL    HW122787   0.036   2.044   4.408  0.0140  0.8948 -1.4618
 3775SOL    HW222788   0.008   1.896   4.372 -0.5071  0.4648 -1.2200
 3776SOL     OW22789   2.982   4.055  16.497 -0.0123  0.3759  0.0027
 3776SOL    HW122790   3.032   4.035  16.418  0.3317  0.0141  0.3119
 3776SOL    HW222791   2.907   4.110  16.472  1.0707  1.8666  0.0824
 3777SOL     OW22792   3.456   2.997   4.648 -0.0806  0.0146 -0.1031
 3777SOL    HW122793   3.403   2.922   4.620  0.4090 -0.1139 -0.6985
 3777SOL    HW222794   3.384   3.059   4.653  0.7271  0.8245  1.2217
 3778SOL     OW22795   3.416   2.841   7.400  0.0507  0.3048 -0.2148
 3778SOL    HW122796   3.353   2.806   7.337 -1.6912  1.7834  0.7132
 3778SOL    HW222797   3.424   2.764   7.455 -0.2096  0.1847 -0.3481
 3779SOL     OW22798   2.350   4.102   4.241  0.1311 -0.4197  0.1753
 3779SOL    HW122799   2.337   4.116   4.147 -2.0288  0.1198  0.5624
 3779SOL    HW222800   2.440   4.129   4.259  0.2276 -0.5419 -0.1187
 3780SOL     OW22801   0.800   3.753   8.629  0.2691 -0.1988 -0.2847
 3780SOL    HW122802   0.889   3.717   8.635  0.8847  1.5538  1.0017
 3780SOL    HW222803   0.801   3.825   8.566 -1.3368  0.2171  0.1567
 3781SOL     OW22804   2.613   0.397   8.131 -0.7492  0.0503 -0.0488
 3781SOL    HW122805   2.593   0.427   8.042 -1.9462  0.4772  0.3532
 3781SOL    HW222806   2.538   0.338   8.134 -1.3492  0.7877 -0.5873
 3782SOL     OW22807   0.361   3.134  16.112 -0.0149 -0.0821 -0.1020
 3782SOL    HW122808   0.445   3.180  16.119  0.6161 -1.3779  0.7655
 3782SOL    HW222809   0.302   3.209  16.119  0.0920  0.0161 -0.2519
 3783SOL     OW22810   2.900   4.093   5.190 -0.0609 -0.0516  0.1511
 3783SOL    HW122811   2.962   4.164   5.207  1.2338 -0.7853 -1.5667
 3783SOL    HW222812   2.945   4.045   5.120 -0.2409  3.3800 -2.3538
 3784SOL     OW22813   2.009   1.920   3.762  0.3924  0.0089 -0.1626
 3784SOL    HW122814   1.925   1.899   3.803  0.6400  0.8572  0.7764
 3784SOL    HW222815   1.981   1.893   3.675  0.6913 -0.3864 -0.1316
 3785SOL     OW22816   1.150   1.479  15.159  0.8706  0.5142 -0.3841
 3785SOL    HW122817   1.134   1.477  15.065 -0.2256 -0.3280 -0.1795
 3785SOL    HW222818   1.072   1.436  15.194  2.3007  0.9527  3.4268
 3786SOL     OW22819   2.941   4.409   1.705  0.2497  0.4963 -0.2925
 3786SOL    HW122820   2.881   4.467   1.658  0.5487  1.3858  0.4358
 3786SOL    HW222821   2.911   4.324   1.674  1.8058 -0.0104 -0.3955
 3787SOL     OW22822   4.414   0.279   6.063  0.1065 -0.4853  0.5749
 3787SOL    HW122823   4.466   0.301   6.141  1.4514 -0.4123 -0.3370
 3787SOL    HW222824   4.439   0.192   6.033 -0.7998 -0.8672  0.9559
 3788SOL     OW22825   2.177   1.720   0.105  0.1654 -0.1906  0.1080
 3788SOL    HW122826   2.246   1.715   0.170  0.5428  0.5309 -0.2282
 3788SOL    HW222827   2.099   1.725   0.161  0.6944  1.8041  0.6721
 3789SOL     OW22828   4.447   1.677  16.893 -0.3276  0.2916 -0.1271
 3789SOL    HW122829   4.441   1.649  16.801  1.3214  0.2009 -0.2151
 3789SOL    HW222830   4.432   1.771  16.882  1.7982  0.6291 -0.2510
 3790SOL     OW22831   3.069   3.531  15.207 -0.4361  0.5219  0.1169
 3790SOL    HW122832   3.101   3.442  15.192 -0.3087  0.8036 -1.2860
 3790SOL    HW222833   3.153   3.574  15.193  0.4315 -1.0186  0.6818
 3791SOL     OW22834   4.102   3.773   7.775  0.0193  0.5162  0.0234
 3791SOL    HW122835   4.095   3.813   7.688  0.0238  1.3123  0.3942
 3791SOL    HW222836   4.028   3.819   7.814  0.3156  0.0556  1.1271
 3792SOL     OW22837   2.935   3.337   3.188  0.0548 -0.2388 -0.4087
 3792SOL    HW122838   3.020   3.299   3.165 -0.1910  0.3830 -2.2969
 3792SOL    HW222839   2.920   3.292   3.272  2.0093 -1.4872 -0.7299
 3793SOL     OW22840   0.171   0.537   5.228  0.0719  0.3860 -0.0118
 3793SOL    HW122841   0.212   0.472   5.285 -0.5584 -0.3699 -0.4123
 3793SOL    HW222842   0.230   0.532   5.153  0.7885 -0.8293  0.6358
 3794SOL     OW22843   2.700   0.900   2.052 -0.1492 -0.1687 -0.2596
 3794SOL    HW122844   2.720   0.819   2.097  1.7476  0.2710 -0.3152
 3794SOL    HW222845   2.736   0.961   2.116 -0.6521 -1.0395  0.8487
 3795SOL     OW22846   0.976   2.837  15.803  0.4196  0.6401 -0.3111
 3795SOL    HW122847   0.980   2.766  15.868 -0.2229  0.7146 -0.1886
 3795SOL    HW222848   1.035   2.900  15.843 -1.6395  0.8331  2.4569
 3796SOL     OW22849   2.539   0.784   7.332 -0.0875 -0.0569  0.6767
 3796SOL    HW122850   2.573   0.855   7.387  0.1547  0.5627 -0.2768
 3796SOL    HW222851   2.481   0.741   7.395 -1.3171  2.3248  1.1897
 3797SOL     OW22852   2.678   2.088   8.561 -0.3370 -0.6659  0.5400
 3797SOL    HW122853   2.621   2.166   8.563  1.1297  0.4466 -0.7039
 3797SOL    HW222854   2.635   2.032   8.497  0.6404 -2.5353  1.5441
 3798SOL     OW22855   2.061   4.278   4.128  0.2248 -0.0640  0.7541
 3798SOL    HW122856   1.975   4.244   4.152 -2.0774  3.7611 -2.0691
 3798SOL    HW222857   2.103   4.194   4.108 -0.4792 -0.3366  0.4362
 3799SOL     OW22858   3.604   2.137   0.490  0.1104  0.5947  0.3807
 3799SOL    HW122859   3.590   2.139   0.585  0.9295  0.5646  0.4990
 3799SOL    HW222860   3.698   2.117   0.485  0.2440  1.5445 -0.7391
 3800SOL     OW22861   3.191   3.608   5.418  0.2302 -0.1354  0.3650
 3800SOL    HW122862   3.134   3.680   5.390 -0.3825 -1.0166 -0.6607
 3800SOL    HW222863   3.271   3.658   5.432  0.2771 -0.3034  0.6935
 3801SOL     OW22864   0.821   0.430  11.453  0.0261  0.2707 -0.2648
 3801SOL    HW122865   0.911   0.457  11.431  0.8074 -0.2465  2.2775
 3801SOL    HW222866   0.811   0.351  11.401 -1.4266 -1.0161  1.9801
 3802SOL     OW22867   0.004   1.718  10.797  0.1153 -0.1294 -0.1855
 3802SOL    HW122868   4.631   1.739  10.815  0.9700  2.3230  1.3277
 3802SOL    HW222869   0.053   1.735  10.878 -0.4271  0.8686 -0.0594
 3803SOL     OW22870   1.119   0.103   4.745  0.5167 -0.0856  0.0214
 3803SOL    HW122871   1.156   0.171   4.802 -1.9887 -0.1228  1.6901
 3803SOL    HW222872   1.055   0.159   4.701  2.4077  0.2293 -2.3483
 3804SOL     OW22873   2.058   0.003   1.788 -0.4148  0.2294 -0.1902
 3804SOL    HW122874   1.995   4.664   1.745 -2.0248 -1.1899  4.0462
 3804SOL    HW222875   2.041   4.696   1.878 -1.2050 -0.0897 -0.4296
 3805SOL     OW22876   0.398   2.142  16.720  0.1906 -0.2428  0.3706
 3805SOL    HW122877   0.462   2.071  16.725 -0.2749 -0.6579  0.4331
 3805SOL    HW222878   0.315   2.104  16.747 -0.9603  2.1464  0.1993
 3806SOL     OW22879   3.704   0.800   3.500  0.5439 -0.2696 -0.1034
 3806SOL    HW122880   3.696   0.848   3.417 -0.2579  0.1097  0.1820
 3806SOL    HW222881   3.788   0.756   3.497  1.7838  1.9717  1.9559
 3807SOL     OW22882   2.392   1.763   6.732 -0.4640 -0.3356 -0.5505
 3807SOL    HW122883   2.480   1.801   6.730 -0.3428 -0.5913 -0.0145
 3807SOL    HW222884   2.348   1.801   6.809  3.1710 -0.3870  1.5627
 3808SOL     OW22885   0.709   0.157   4.026 -0.6013  0.5156  0.6665
 3808SOL    HW122886   0.660   0.128   3.949  1.4338  0.1406 -0.4981
 3808SOL    HW222887   0.683   0.249   4.028  0.4032  0.8120 -0.2556
 3809SOL     OW22888   2.449   2.943   0.521  0.2605  0.7653  0.3548
 3809SOL    HW122889   2.407   2.858   0.510 -3.1151  2.3485  1.1875
 3809SOL    HW222890   2.500   2.942   0.440  0.7120  1.1448  0.6320
 3810SOL     OW22891   0.916   0.689   5.346 -0.2226 -0.3549 -0.6260
 3810SOL    HW122892   0.912   0.770   5.397 -2.2800 -0.3658 -0.7446
 3810SOL    HW222893   0.896   0.620   5.409  0.2887 -0.3334 -0.4426
 3811SOL     OW22894   3.014   0.471  11.682  0.9001 -0.0843 -0.1210
 3811SOL    HW122895   2.951   0.507  11.619  2.0290  0.5839 -0.8678
 3811SOL    HW222896   3.055   0.402  11.630  2.2122  0.0266  0.7808
 3812SOL     OW22897   2.836   3.065   6.110 -0.0036 -0.6303 -0.1870
 3812SOL    HW122898   2.774   3.124   6.068 -0.2568  0.8793  2.3067
 3812SOL    HW222899   2.801   2.981   6.081 -1.5117 -0.4866  1.1764
 3813SOL     OW22900   3.212   0.486  10.681 -0.6318  0.1330 -0.4433
 3813SOL    HW122901   3.269   0.458  10.752 -0.7743  1.6229  0.2670
 3813SOL    HW222902   3.221   0.410  10.623  0.7817  0.2571 -0.3684
 3814SOL     OW22903   3.992   2.584  16.874  0.2634 -0.5423  0.3805
 3814SOL    HW122904   3.968   2.565  16.784 -0.2806 -0.4207  0.5024
 3814SOL    HW222905   4.082   2.551  16.880  0.9434  0.9649 -1.7108
 3815SOL     OW22906   4.556   0.235   7.949  0.5233 -0.1158 -0.3140
 3815SOL    HW122907   4.605   0.297   7.895  0.0846  0.6435  0.1587
 3815SOL    HW222908   4.558   0.156   7.894  3.1605  0.4641 -1.0389
 3816SOL     OW22909   2.595   3.634   4.715 -0.2954 -0.4983  0.0700
 3816SOL    HW122910   2.563   3.699   4.653 -2.9655 -1.5033  0.4036
 3816SOL    HW222911   2.685   3.666   4.712  0.3551 -2.3455 -0.5294
 3817SOL     OW22912   4.676   3.239   4.125  0.2281  0.1846 -0.5527
 3817SOL    HW122913   4.689   3.303   4.055  1.0762  1.9370  1.1909
 3817SOL    HW222914   0.010   3.265   4.200 -1.9249  0.5747  0.8489
 3818SOL     OW22915   0.748   4.111   6.109 -0.0091 -0.1244  0.0361
 3818SOL    HW122916   0.776   4.196   6.143  0.0537 -0.5337  1.0313
 3818SOL    HW222917   0.791   4.055   6.174  1.7484 -0.7799 -1.7050
 3819SOL     OW22918   4.485   4.214  16.837 -0.5008 -0.0593  0.1407
 3819SOL    HW122919   4.486   4.258  16.923  0.1419  1.5478 -0.6912
 3819SOL    HW222920   4.537   4.273  16.783 -0.3892 -0.4386 -0.1652
 3820SOL     OW22921   4.103   3.387  12.828 -0.1950  0.2223  0.3414
 3820SOL    HW122922   4.178   3.402  12.770  0.9759  0.8245  2.0288
 3820SOL    HW222923   4.140   3.323  12.888 -0.0923 -0.1209 -0.0843
 3821SOL     OW22924   2.906   3.710   6.978 -0.2314 -0.0914 -0.0784
 3821SOL    HW122925   2.980   3.723   7.037 -0.7109  2.1821  0.0420
 3821SOL    HW222926   2.916   3.618   6.956 -1.5852  0.3006 -2.3329
 3822SOL     OW22927   0.192   3.302   2.975  0.2440  0.1017  0.1190
 3822SOL    HW122928   0.121   3.238   2.974 -0.0719  0.4482  0.2280
 3822SOL    HW222929   0.163   3.354   3.050 -0.0051 -1.7643  1.3157
 3823SOL     OW22930   0.891   3.817   0.514  0.4447 -0.0667  0.1985
 3823SOL    HW122931   0.960   3.750   0.516  0.3042 -0.3157 -3.7616
 3823SOL    HW222932   0.838   3.778   0.445  3.9408  1.7231 -3.5244
 3824SOL     OW22933   2.306   4.082   1.900  0.5781 -0.1212 -0.3893
 3824SOL    HW122934   2.239   4.151   1.896  2.1087  1.2751 -1.9120
 3824SOL    HW222935   2.293   4.039   1.815 -1.9872  1.4947 -0.8291
 3825SOL     OW22936   3.297   2.865  14.433  0.2857 -0.2957 -0.0815
 3825SOL    HW122937   3.267   2.950  14.464 -0.1231 -0.5665  0.2757
 3825SOL    HW222938   3.293   2.882  14.339  0.7338  3.7375  0.6158
 3826SOL     OW22939   0.753   3.380   3.028 -0.0199  0.1265  0.4099
 3826SOL    HW122940   0.810   3.457   3.029 -0.7296  0.6512  0.4440
 3826SOL    HW222941   0.812   3.308   3.008 -0.6505 -0.0429 -0.8851
 3827SOL     OW22942   3.856   1.778   7.888 -0.0427 -0.2969 -0.7677
 3827SOL    HW122943   3.837   1.849   7.949  1.0597 -2.1825  1.7856
 3827SOL    HW222944   3.899   1.708   7.938  1.0264 -0.2795 -1.6687
 3828SOL     OW22945   2.188   2.622   7.541  1.0749  0.6868  0.2875
 3828SOL    HW122946   2.168   2.577   7.458 -2.7622  1.4903  0.7720
 3828SOL    HW222947   2.137   2.702   7.527  1.9613  1.0306 -0.9423
 3829SOL     OW22948   1.445   1.463  16.421  0.1279 -0.4929  0.6505
 3829SOL    HW122949   1.473   1.372  16.431 -1.4982 -0.8426  2.0904
 3829SOL    HW222950   1.452   1.492  16.512  1.3987 -0.1632  0.4460
 3830SOL     OW22951   4.272   3.252  13.008 -0.0543  0.4392  0.0009
 3830SOL    HW122952   4.324   3.302  12.945 -0.5157  1.8968  0.7865
 3830SOL    HW222953   4.307   3.288  13.089 -1.3007  0.0240  0.7142
 3831SOL     OW22954   3.980   3.096   5.659  0.4238  0.1683  0.2836
 3831SOL    HW122955   3.913   3.141   5.607  0.8685  1.7403  1.0594
 3831SOL    HW222956   3.998   3.167   5.721  2.7933 -1.5080  1.5321
 3832SOL     OW22957   2.725   2.170   5.998 -0.0367  0.0956 -0.5811
 3832SOL    HW122958   2.690   2.104   5.936 -1.1815 -0.8241  1.0447
 3832SOL    HW222959   2.646   2.204   6.039  1.6521  1.0315  1.8523
 3833SOL     OW22960   4.489   1.966   0.664  0.1707 -0.4534 -0.7873
 3833SOL    HW122961   4.476   1.905   0.737 -3.3531  1.8389  0.5045
 3833SOL    HW222962   4.573   1.931   0.636  1.5837  0.3519  2.4644
 3834SOL     OW22963   0.959   4.549   1.870 -0.6897  0.4016 -0.2917
 3834SOL    HW122964   0.934   4.470   1.821 -1.0408 -0.2192  0.8898
 3834SOL    HW222965   1.031   4.510   1.921  1.1688 -0.8449 -3.8093
 3835SOL     OW22966   4.369   4.307  15.280 -0.0510  0.4338 -0.1915
 3835SOL    HW122967   4.413   4.224  15.300  2.7486  2.1565  0.8119
 3835SOL    HW222968   4.431   4.328  15.210  1.8090 -0.5653  1.1623
 3836SOL     OW22969   0.396   0.430   6.409 -0.2386 -0.1632 -0.2222
 3836SOL    HW122970   0.479   0.473   6.430 -0.1397 -0.3942 -0.1481
 3836SOL    HW222971   0.362   0.414   6.497  1.2411 -1.6201  0.0800
 3837SOL     OW22972   2.548   2.870  11.385  0.4084 -0.3427 -0.0735
 3837SOL    HW122973   2.572   2.809  11.316  0.8774  1.1455 -1.2152
 3837SOL    HW222974   2.623   2.928  11.395  0.3015 -0.6033  2.3341
 3838SOL     OW22975   0.324   0.135   8.731 -0.2640 -0.5088  0.1908
 3838SOL    HW122976   0.391   0.093   8.784 -0.6454 -1.5498 -0.1522
 3838SOL    HW222977   0.239   0.126   8.774 -2.0264  1.8709 -2.7008
 3839SOL     OW22978   1.088   2.363   5.310  0.1350  0.3099 -0.3307
 3839SOL    HW122979   1.134   2.409   5.380 -1.3371  0.7460  0.3483
 3839SOL    HW222980   1.061   2.281   5.350  0.2817  1.6724  2.5938
 3840SOL     OW22981   4.544   4.353  11.368 -0.1012 -0.0354  0.2901
 3840SOL    HW122982   4.488   4.430  11.376  1.5022  1.1713 -0.1460
 3840SOL    HW222983   4.539   4.310  11.454 -2.2386 -1.3154 -0.4908
 3841SOL     OW22984   1.316   3.110  14.049 -0.2577 -0.4161 -0.0606
 3841SOL    HW122985   1.231   3.151  14.063  2.0142  4.6432 -1.1496
 3841SOL    HW222986   1.313   3.030  14.101  0.0518 -0.0622  0.5084
 3842SOL     OW22987   1.384   2.645  12.547  0.2207 -0.7637 -0.4764
 3842SOL    HW122988   1.339   2.706  12.606  1.7439  2.9709 -3.1636
 3842SOL    HW222989   1.364   2.685  12.462  1.5406  0.7322 -0.0876
 3843SOL     OW22990   0.329   3.578   4.560 -0.3642 -0.0186  0.5351
 3843SOL    HW122991   0.237   3.562   4.583 -0.5324 -1.6696 -1.3012
 3843SOL    HW222992   0.368   3.600   4.645 -0.0789 -1.4436  0.7868
 3844SOL     OW22993   0.281   4.541   1.861  0.2523 -0.4883  0.3489
 3844SOL    HW122994   0.297   4.448   1.842 -0.4320  0.1936 -3.5188
 3844SOL    HW222995   0.348   4.557   1.928 -0.2990 -1.0597  1.0389
 3845SOL     OW22996   3.328   0.638   8.223 -0.2051 -0.6869 -0.6022
 3845SOL    HW122997   3.244   0.683   8.217  0.2100 -0.0294 -1.3878
 3845SOL    HW222998   3.294   0.564   8.273  1.5467 -1.3161 -0.3257
 3846SOL     OW22999   3.578   3.538  10.343 -0.3315 -0.1725  0.5546
 3846SOL    HW123000   3.506   3.498  10.294 -0.6490  1.0951 -0.0234
 3846SOL    HW223001   3.580   3.627  10.307  1.6015  0.7530  3.0142
 3847SOL     OW23002   1.259   4.269  12.162 -0.0250  0.2783  0.4723
 3847SOL    HW123003   1.238   4.333  12.095 -0.8973  0.8175  1.2578
 3847SOL    HW223004   1.355   4.265  12.157 -0.0655  2.3213 -1.7195
 3848SOL     OW23005   2.241   0.104  16.108 -0.2793 -0.3281 -0.1235
 3848SOL    HW123006   2.211   0.149  16.187 -1.8816 -0.1851 -0.8208
 3848SOL    HW223007   2.226   0.171  16.042  0.5105 -1.8752 -1.8748
 3849SOL     OW23008   2.825   2.840   8.531  0.7979 -0.3655  0.7509
 3849SOL    HW123009   2.895   2.876   8.478  0.5628 -0.5574  0.3146
 3849SOL    HW223010   2.866   2.761   8.565  1.1690 -0.1855  0.7153
 3850SOL     OW23011   4.420   3.649   8.264  0.0855 -0.1026  0.1471
 3850SOL    HW123012   4.363   3.677   8.192  1.9604  0.8336 -0.9756
 3850SOL    HW223013   4.430   3.556   8.244  1.1705  0.0524 -0.0619
 3851SOL     OW23014   1.537   1.576   5.477 -0.2505  0.0938 -0.2287
 3851SOL    HW123015   1.567   1.495   5.518  0.2904  0.2222 -0.3758
 3851SOL    HW223016   1.569   1.555   5.389  1.1343 -1.8111  0.7430
 3852SOL     OW23017   3.278   0.622   4.750  0.2653 -0.1487  0.7275
 3852SOL    HW123018   3.248   0.659   4.833  1.9653 -2.2426  2.2801
 3852SOL    HW223019   3.362   0.667   4.749 -1.3860  2.9051 -2.5999
 3853SOL     OW23020   0.422   0.843   2.153  0.6602 -0.5668 -0.1200
 3853SOL    HW123021   0.441   0.878   2.240 -3.7698  2.6345 -0.4290
 3853SOL    HW223022   0.513   0.825   2.130 -0.1381 -4.9768  0.0634
 3854SOL     OW23023   0.298   2.950   6.126  0.4873  0.1976 -0.5399
 3854SOL    HW123024   0.220   2.990   6.165  1.4491  0.4314  1.1161
 3854SOL    HW223025   0.260   2.908   6.049  0.1256  2.1080 -1.3950
 3855SOL     OW23026   0.250   3.149   3.590 -0.2291 -0.2078  0.2124
 3855SOL    HW123027   0.331   3.193   3.618 -0.0601 -0.4057  0.0343
 3855SOL    HW223028   0.182   3.208   3.623 -0.3330 -0.4059  0.3574
 3856SOL     OW23029   1.541   1.600   3.312 -0.2294  0.0785  0.1483
 3856SOL    HW123030   1.451   1.599   3.344 -0.0244 -0.2391  0.7161
 3856SOL    HW223031   1.538   1.667   3.244  1.0362  0.0214  0.0357
 3857SOL     OW23032   0.464   3.327   1.661  0.3565  0.2552  0.6113
 3857SOL    HW123033   0.559   3.317   1.662  0.6004  2.3191 -0.9238
 3857SOL    HW223034   0.427   3.242   1.635  0.3750  1.0810 -2.1398
 3858SOL     OW23035   1.127   0.564   4.740 -0.1360 -0.3455  0.3504
 3858SOL    HW123036   1.109   0.471   4.750 -0.2330 -0.5646 -1.9528
 3858SOL    HW223037   1.042   0.599   4.717  0.2636  0.4159  0.0475
 3859SOL     OW23038   3.668   3.852   4.601 -0.1676 -0.1759 -0.4891
 3859SOL    HW123039   3.594   3.845   4.540 -1.0597 -1.2893  0.7569
 3859SOL    HW223040   3.635   3.924   4.655 -3.9196 -1.0570 -1.5860
 3860SOL     OW23041   2.036   1.374   1.442 -0.0774  0.6198 -0.6691
 3860SOL    HW123042   1.956   1.376   1.388 -1.5538  2.8205  1.6163
 3860SOL    HW223043   2.108   1.353   1.382  0.1886 -0.7771  0.1631
 3861SOL     OW23044   1.657   2.119   7.077  0.2553  0.4676 -0.2226
 3861SOL    HW123045   1.743   2.082   7.058  0.1646  0.4103 -0.5289
 3861SOL    HW223046   1.598   2.045   7.086  1.7882 -0.4966  1.9427
 3862SOL     OW23047   1.134   4.377   4.877 -0.1625 -0.2001 -0.0544
 3862SOL    HW123048   1.162   4.308   4.816  0.4890 -0.9285  1.0585
 3862SOL    HW223049   1.117   4.439   4.807  0.0502 -0.0010  0.0734
 3863SOL     OW23050   3.475   0.087   5.018 -0.0544  0.1064 -0.0753
 3863SOL    HW123051   3.476   0.176   5.055 -0.1461 -0.0802  0.3765
 3863SOL    HW223052   3.509   0.042   5.095 -1.0901 -0.5189  0.0138
 3864SOL     OW23053   3.314   2.617   6.331 -0.4180 -0.1006 -0.1637
 3864SOL    HW123054   3.227   2.583   6.311 -0.2841 -2.1157  2.7898
 3864SOL    HW223055   3.323   2.702   6.288 -0.4366  0.6507  1.3170
 3865SOL     OW23056   1.771   3.705  16.821 -0.3167 -0.0244 -0.3243
 3865SOL    HW123057   1.812   3.762  16.756 -1.1136  2.6881  1.5473
 3865SOL    HW223058   1.827   3.724  16.896 -0.8224  2.8988 -0.6952
 3866SOL     OW23059   0.889   1.057  15.636 -0.4122 -0.1376 -0.2818
 3866SOL    HW123060   0.828   0.985  15.619 -1.9829  0.9221  0.7890
 3866SOL    HW223061   0.964   1.024  15.588  0.1789  0.2513  0.3819
 3867SOL     OW23062   4.130   3.309   2.677 -0.0480 -0.1502 -0.3924
 3867SOL    HW123063   4.196   3.257   2.631 -1.0032  0.3784 -2.3419
 3867SOL    HW223064   4.186   3.335   2.751 -2.0071 -1.3757  1.5104
 3868SOL     OW23065   3.947   3.752   4.618  0.2449  0.8285  0.1293
 3868SOL    HW123066   3.895   3.832   4.614  0.1056  0.6604 -1.4502
 3868SOL    HW223067   4.032   3.784   4.648 -0.1351  1.6553  0.3162
 3869SOL     OW23068   0.807   2.838   3.403 -0.4341  0.7729  0.2677
 3869SOL    HW123069   0.827   2.902   3.471 -0.0808  0.6113  0.3145
 3869SOL    HW223070   0.758   2.891   3.339  1.1494  1.4769 -0.3658
 3870SOL     OW23071   3.390   4.709   8.658 -0.2039 -0.2720 -0.1129
 3870SOL    HW123072   3.463   0.050   8.670 -0.3023  0.1572 -1.6406
 3870SOL    HW223073   3.372   4.709   8.564  0.9181  0.4086 -0.3245
 3871SOL     OW23074   3.569   4.381   6.742  0.5272 -0.1627  0.0633
 3871SOL    HW123075   3.513   4.309   6.710  0.2085 -0.2909  0.9184
 3871SOL    HW223076   3.514   4.454   6.772 -1.1375 -2.0978  1.7362
 3872SOL     OW23077   4.291   1.782   5.074  0.1130  0.2328 -0.6152
 3872SOL    HW123078   4.372   1.781   5.123 -0.9862  1.9500  1.2384
 3872SOL    HW223079   4.327   1.800   4.987  0.6027 -1.2525 -0.7163
 3873SOL     OW23080   2.100   2.151   7.202  0.0189 -0.0819  0.0333
 3873SOL    HW123081   2.015   2.144   7.245  0.3497 -0.4862  0.6254
 3873SOL    HW223082   2.093   2.087   7.132  0.4434 -0.9674  0.7976
 3874SOL     OW23083   0.224   2.886   3.677  0.6457 -0.9121 -0.0104
 3874SOL    HW123084   0.250   2.977   3.662  0.1152 -0.1751  3.6670
 3874SOL    HW223085   0.261   2.840   3.601  1.4072 -1.3788  0.6503
 3875SOL     OW23086   2.101   1.167  13.658  0.2568  0.2236  0.1537
 3875SOL    HW123087   2.069   1.237  13.715  0.4217  0.3090  0.1403
 3875SOL    HW223088   2.177   1.204  13.613  1.0300 -0.6771  0.7118
 3876SOL     OW23089   3.435   3.016  10.442 -0.1041  0.1208  0.5071
 3876SOL    HW123090   3.507   3.065  10.482 -0.7820  2.8077 -1.5587
 3876SOL    HW223091   3.362   3.022  10.503  0.0660 -0.6267  0.7923
 3877SOL     OW23092   1.389   2.479  14.088  0.0401  0.2568 -0.9056
 3877SOL    HW123093   1.481   2.504  14.078  1.2985 -2.9305  2.6418
 3877SOL    HW223094   1.363   2.428  14.011  0.2227 -0.8429 -0.2381
 3878SOL     OW23095   4.354   3.285   6.964 -0.2882  0.2439  0.5842
 3878SOL    HW123096   4.376   3.192   6.955  0.6941  0.8198 -2.7422
 3878SOL    HW223097   4.397   3.312   7.045 -0.9179  0.6642  0.7774
 3879SOL     OW23098   0.542   3.425   5.002  0.4430  0.1285 -0.5261
 3879SOL    HW123099   0.571   3.445   5.091 -0.1939  1.3050 -0.5843
 3879SOL    HW223100   0.551   3.329   5.007 -0.6300  0.1060  1.0426
 3880SOL     OW23101   1.232   2.034  14.299 -0.1436 -0.0596 -0.4535
 3880SOL    HW123102   1.173   2.070  14.232 -2.4404  1.3914  2.3611
 3880SOL    HW223103   1.313   2.079  14.273  0.1512 -0.3732 -0.0675
 3881SOL     OW23104   2.378   0.708   5.272 -0.3420  0.6657 -0.1853
 3881SOL    HW123105   2.436   0.679   5.342 -0.3319  0.1468 -0.4057
 3881SOL    HW223106   2.297   0.730   5.319  0.8519  1.9409  1.2559
 3882SOL     OW23107   2.174   0.757   8.063 -0.4753 -0.0311 -0.0921
 3882SOL    HW123108   2.181   0.730   8.154 -0.2192 -1.1676 -0.4467
 3882SOL    HW223109   2.100   0.703   8.035 -0.6862 -0.6797  1.6974
 3883SOL     OW23110   4.564   1.058   2.249 -0.0238 -0.1025  0.3299
 3883SOL    HW123111   4.608   1.085   2.168  0.9937 -0.2543  0.8238
 3883SOL    HW223112   4.504   0.992   2.215 -0.1316  0.2474 -0.1514
 3884SOL     OW23113   2.251   4.030   8.088  0.3254  0.2265 -0.0489
 3884SOL    HW123114   2.184   4.094   8.112 -0.0906  0.6889 -2.4793
 3884SOL    HW223115   2.199   3.964   8.042 -0.3121 -0.3323  1.4667
 3885SOL     OW23116   2.914   4.125   1.684  0.3555  0.4662 -0.8071
 3885SOL    HW123117   2.857   4.060   1.725  0.4802  1.7669  1.4317
 3885SOL    HW223118   2.994   4.078   1.708 -0.0677 -1.0398 -2.3976
 3886SOL     OW23119   0.723   1.908   5.740  0.7428  0.4110  0.0225
 3886SOL    HW123120   0.789   1.893   5.672  2.3883 -0.7651  1.9134
 3886SOL    HW223121   0.751   1.837   5.797 -0.0861  0.6002  0.6724
 3887SOL     OW23122   0.204   3.173   1.800  0.1938 -0.0062  0.2884
 3887SOL    HW123123   0.295   3.164   1.831  0.5568  1.2209 -0.3982
 3887SOL    HW223124   0.167   3.193   1.886 -1.1101 -0.3246 -0.2044
 3888SOL     OW23125   2.282   4.056   2.660 -0.2951  0.1707  0.3660
 3888SOL    HW123126   2.200   4.099   2.685  0.1522  1.7192 -0.8203
 3888SOL    HW223127   2.350   4.121   2.676  0.3244  0.0598 -1.7718
 3889SOL     OW23128   3.290   0.989   7.015  0.2145  0.2825 -0.2984
 3889SOL    HW123129   3.265   0.932   6.942  0.5023  0.3053 -0.4168
 3889SOL    HW223130   3.272   1.074   6.974  1.8265  0.9981  0.4600
 3890SOL     OW23131   1.248   3.547   3.465 -0.1859 -0.3665  0.5020
 3890SOL    HW123132   1.292   3.462   3.461  0.2056 -0.0206 -2.1614
 3890SOL    HW223133   1.223   3.558   3.557 -0.5406  0.6165  0.2778
 3891SOL     OW23134   0.117   1.242   7.065  0.0276 -0.4778  0.1967
 3891SOL    HW123135   0.058   1.225   7.139  0.1040 -2.3547 -0.1685
 3891SOL    HW223136   0.195   1.197   7.099 -1.7771 -2.2129  2.0793
 3892SOL     OW23137   3.449   0.043   2.196 -0.3438  0.5896  0.7268
 3892SOL    HW123138   3.374   0.021   2.251 -0.2366 -0.1471  0.5728
 3892SOL    HW223139   3.525   0.031   2.254 -1.5994  1.2570  2.5048
 3893SOL     OW23140   3.981   3.858   1.278  0.1252 -0.3148 -0.0751
 3893SOL    HW123141   4.046   3.880   1.212  2.0741 -2.9404  0.9530
 3893SOL    HW223142   3.898   3.869   1.232  0.1341 -0.0717 -0.0280
 3894SOL     OW23143   2.415   1.831  16.397  0.0318 -0.3279 -0.0034
 3894SOL    HW123144   2.422   1.910  16.344 -0.6777  0.9503  1.8021
 3894SOL    HW223145   2.441   1.767  16.331 -0.0305 -0.9151  0.5394
 3895SOL     OW23146   2.187   4.274   6.444  0.3090  0.3759 -1.0733
 3895SOL    HW123147   2.116   4.334   6.422  0.0418 -0.0470 -1.3620
 3895SOL    HW223148   2.172   4.210   6.374  0.1558 -1.1680  0.3692
 3896SOL     OW23149   3.005   0.791   1.653  0.7768 -0.1088  0.2621
 3896SOL    HW123150   2.936   0.816   1.713 -0.0423 -0.5944 -0.4748
 3896SOL    HW223151   2.980   0.847   1.580  0.2928  0.1247  0.6129
 3897SOL     OW23152   2.301   0.511   4.218 -0.0612 -0.2824 -0.1932
 3897SOL    HW123153   2.312   0.434   4.274 -1.4925  0.0168  0.5099
 3897SOL    HW223154   2.225   0.478   4.170 -0.0919 -1.4123  0.6136
 3898SOL     OW23155   4.071   2.820  12.557  0.4490  0.1889  0.7011
 3898SOL    HW123156   3.983   2.825  12.518  0.6865 -2.0435 -0.1268
 3898SOL    HW223157   4.135   2.848  12.492  0.2043 -1.9095 -0.4421
 3899SOL     OW23158   0.632   3.577   3.848  0.4502  0.0229 -0.0862
 3899SOL    HW123159   0.588   3.659   3.867  0.9527 -0.2140  2.0460
 3899SOL    HW223160   0.649   3.582   3.754  4.1385 -0.6126  0.5527
 3900SOL     OW23161   3.605   1.564  12.247  0.7220  0.3800  0.7110
 3900SOL    HW123162   3.693   1.585  12.217  0.9966 -0.0681  1.2166
 3900SOL    HW223163   3.580   1.490  12.191 -0.6151  1.4142 -0.0597
 3901SOL     OW23164   0.057   2.215   6.930  0.4489  0.5642  0.4915
 3901SOL    HW123165   0.027   2.126   6.949  1.1542 -0.1669 -1.7425
 3901SOL    HW223166   4.703   2.268   6.961 -0.9529  0.4314 -2.5564
 3902SOL     OW23167   1.125   2.281   2.435  0.1203  0.2316  0.7216
 3902SOL    HW123168   1.181   2.226   2.381 -1.0101 -0.8734  0.6806
 3902SOL    HW223169   1.118   2.351   2.370  1.5022  1.0802  1.4656
 3903SOL     OW23170   3.772   2.605   3.049 -0.1953 -0.2953 -0.0094
 3903SOL    HW123171   3.851   2.645   3.087  0.4759 -2.4924  0.9105
 3903SOL    HW223172   3.707   2.648   3.105  0.8940  1.7270 -0.2761
 3904SOL     OW23173   3.282   4.600   4.973  0.3572  0.3130 -0.2728
 3904SOL    HW123174   3.192   4.619   4.946 -0.4573 -0.9632  1.5134
 3904SOL    HW223175   3.319   4.688   4.983  0.1003  0.4912 -0.8880
 3905SOL     OW23176   2.130   3.067   3.238  0.1072 -0.5454 -0.5836
 3905SOL    HW123177   2.185   3.140   3.267  0.4039 -0.7374 -0.6566
 3905SOL    HW223178   2.091   3.036   3.320 -0.4953  0.3705 -0.5355
 3906SOL     OW23179   0.504   2.801   3.997 -0.2812 -0.5642  0.2150
 3906SOL    HW123180   0.462   2.887   4.008  1.4921  0.2135  0.9026
 3906SOL    HW223181   0.519   2.774   4.088 -1.6523 -0.8231  0.3744
 3907SOL     OW23182   1.446   0.286  10.758  0.3191  0.0396  0.0299
 3907SOL    HW123183   1.381   0.327  10.701 -1.7355 -0.1188  2.2600
 3907SOL    HW223184   1.417   0.195  10.750 -0.4566  0.5852 -3.1859
 3908SOL     OW23185   3.133   0.053  12.936  0.9003  0.9144 -0.6749
 3908SOL    HW123186   3.197   0.064  13.007 -0.3113 -0.8948  0.6898
 3908SOL    HW223187   3.058   0.022  12.987 -0.5911  3.0195 -1.6139
 3909SOL     OW23188   1.002   3.111  16.123 -0.2199 -0.5864 -0.8165
 3909SOL    HW123189   1.058   3.041  16.090 -2.6322 -3.5371  1.4131
 3909SOL    HW223190   1.052   3.123  16.204 -1.4831 -0.1878 -0.0957
 3910SOL     OW23191   0.728   4.566   9.330  0.6440  0.4202  0.9737
 3910SOL    HW123192   0.649   4.524   9.296  0.5203 -0.8432  2.8017
 3910SOL    HW223193   0.702   4.596   9.418  2.7828  1.1917  1.3337
 3911SOL     OW23194   2.749   3.134  14.184 -0.1521  0.0679 -0.7162
 3911SOL    HW123195   2.699   3.054  14.170  0.7018 -0.6311  0.3385
 3911SOL    HW223196   2.721   3.179  14.104 -1.5885 -0.8579 -0.7427
 3912SOL     OW23197   3.150   1.490   7.581  0.2141  0.0679  0.0629
 3912SOL    HW123198   3.189   1.412   7.542  0.1613 -0.3445  0.8198
 3912SOL    HW223199   3.103   1.460   7.659  0.9619  0.1560  0.5504
 3913SOL     OW23200   0.365   1.624   7.634 -0.0604 -0.0066 -0.6158
 3913SOL    HW123201   0.348   1.651   7.544 -1.0746 -1.6402 -0.9106
 3913SOL    HW223202   0.420   1.696   7.665  1.2318 -1.8022  1.3598
 3914SOL     OW23203   4.334   2.708   1.836 -0.1410  0.4608 -0.4453
 3914SOL    HW123204   4.306   2.646   1.769  0.5812 -1.1607  0.7697
 3914SOL    HW223205   4.400   2.656   1.882 -1.0125  0.1042  0.3951
 3915SOL     OW23206   0.219   4.031   5.930  0.7049 -0.4380  0.4046
 3915SOL    HW123207   0.186   3.944   5.908  2.7687 -0.4341 -2.7676
 3915SOL    HW223208   0.166   4.044   6.009  1.7093  0.8741  0.8553
 3916SOL     OW23209   4.342   0.961   6.817  0.0568  0.3998 -0.1377
 3916SOL    HW123210   4.368   0.899   6.749  1.5580  1.4679 -0.5360
 3916SOL    HW223211   4.327   0.897   6.886  0.2670  2.9262  2.2341
 3917SOL     OW23212   0.621   1.327   3.209 -0.3955 -0.2227  0.3190
 3917SOL    HW123213   0.627   1.408   3.260  1.5597  0.8570 -1.6429
 3917SOL    HW223214   0.646   1.345   3.118 -2.7537 -0.6336 -0.4146
 3918SOL     OW23215   0.692   2.790   4.592  0.4072 -0.2636  0.1298
 3918SOL    HW123216   0.753   2.855   4.558 -0.6418  1.2271  1.0605
 3918SOL    HW223217   0.748   2.752   4.660  0.0982  0.8212  0.9891
 3919SOL     OW23218   3.448   0.523   7.697 -0.2749 -0.9111 -0.1417
 3919SOL    HW123219   3.445   0.565   7.783 -0.3355 -1.0605 -0.0711
 3919SOL    HW223220   3.422   0.433   7.715  1.2254 -1.0951  1.0948
 3920SOL     OW23221   0.780   2.900   5.002 -0.4842  0.1301  0.1166
 3920SOL    HW123222   0.846   2.888   5.071  0.1935  0.6251 -0.4441
 3920SOL    HW223223   0.821   2.838   4.942  2.8472  1.8809  0.5250
 3921SOL     OW23224   2.260   0.355   2.437  0.3023 -0.1724 -0.4083
 3921SOL    HW123225   2.180   0.317   2.474  0.0477  0.3433 -0.4229
 3921SOL    HW223226   2.267   0.304   2.357 -2.4977  2.2018 -2.1662
 3922SOL     OW23227   4.670   0.464   2.546  0.3072 -0.0113  0.3436
 3922SOL    HW123228   4.594   0.487   2.599 -1.1293  0.0378 -1.7460
 3922SOL    HW223229   4.657   0.370   2.535  0.8266 -0.1573  1.0051
 3923SOL     OW23230   0.132   0.264  11.698  0.4509 -0.1578 -0.1229
 3923SOL    HW123231   0.210   0.318  11.684  1.3975 -1.9225 -1.7114
 3923SOL    HW223232   0.154   0.188  11.644 -0.5355 -0.4670 -0.0695
 3924SOL     OW23233   0.480   3.916   1.306  0.5861  0.6400 -0.3494
 3924SOL    HW123234   0.505   3.895   1.396 -1.1253 -1.6002 -0.4049
 3924SOL    HW223235   0.490   4.010   1.291  3.9712  0.1464 -1.0989
 3925SOL     OW23236   0.615   4.607   3.244  0.5796 -0.1106  0.2000
 3925SOL    HW123237   0.629   4.526   3.292  0.8175 -0.7757 -0.9731
 3925SOL    HW223238   0.633   4.663   3.319 -0.8981  1.1331 -0.3746
 3926SOL     OW23239   3.846   0.682   2.107  0.2301 -0.1948  0.1698
 3926SOL    HW123240   3.814   0.693   2.017  0.6791  0.7191  0.1248
 3926SOL    HW223241   3.910   0.613   2.091  0.6721  0.3240 -0.3165
 3927SOL     OW23242   1.651   4.351   1.595 -0.1543  0.8507 -0.4327
 3927SOL    HW123243   1.659   4.399   1.513  0.7540  0.8205 -0.3630
 3927SOL    HW223244   1.669   4.258   1.580 -0.5146  0.7743 -0.3901
 3928SOL     OW23245   0.266   3.371   7.076  0.2962 -0.3000  0.0187
 3928SOL    HW123246   0.289   3.283   7.045 -2.4462 -0.2329 -2.2152
 3928SOL    HW223247   0.250   3.419   6.994  2.6586  0.8928  0.2452
 3929SOL     OW23248   4.636   2.674   6.492 -0.4967 -0.1617  0.0853
 3929SOL    HW123249   4.707   2.624   6.452  1.2774  0.6852  2.2064
 3929SOL    HW223250   4.599   2.714   6.412  0.2034 -1.9333 -1.1208
 3930SOL     OW23251   0.719   1.219  16.917 -0.4751 -0.2883  0.4971
 3930SOL    HW123252   0.691   1.307  16.892  2.3743  1.3263  2.9878
 3930SOL    HW223253   0.751   1.186  16.833 -0.5424  1.0434 -0.0404
 3931SOL     OW23254   2.478   3.227   9.242  0.0097  0.0506 -0.2618
 3931SOL    HW123255   2.449   3.148   9.289 -0.8059 -0.2709 -1.3037
 3931SOL    HW223256   2.420   3.221   9.166  0.7967 -2.0654 -0.6854
 3932SOL     OW23257   2.075   1.632   4.217  0.3009  0.4459 -0.6445
 3932SOL    HW123258   2.094   1.538   4.210 -0.5353  0.3852 -2.0848
 3932SOL    HW223259   1.980   1.643   4.213  0.4465  1.8859 -0.0735
 3933SOL     OW23260   1.061   2.579   5.139 -0.7820 -0.4094 -0.2658
 3933SOL    HW123261   1.114   2.537   5.072  1.1763  0.1227  0.9736
 3933SOL    HW223262   1.051   2.506   5.200  1.3729 -0.0180  0.5302
 3934SOL     OW23263   4.513   0.863   2.564  0.2107  0.4431 -0.4609
 3934SOL    HW123264   4.446   0.822   2.620  0.1907 -0.4070 -1.1112
 3934SOL    HW223265   4.460   0.900   2.494 -0.2409  1.8732  0.6332
 3935SOL     OW23266   3.882   1.946   8.664 -0.0361  0.4946 -0.3686
 3935SOL    HW123267   3.881   1.855   8.692 -1.9677  0.2789 -1.1282
 3935SOL    HW223268   3.801   1.981   8.701 -1.4650 -3.9897  0.7140
 3936SOL     OW23269   1.568   3.374   3.572  0.1020 -0.5857 -0.2572
 3936SOL    HW123270   1.480   3.342   3.552 -1.2090  2.1324  1.1549
 3936SOL    HW223271   1.566   3.466   3.546  2.8568 -0.1095  1.1826
 3937SOL     OW23272   0.539   0.442   2.040  0.0274  0.3442 -0.1209
 3937SOL    HW123273   0.529   0.463   1.948 -1.0757  0.9455  0.1320
 3937SOL    HW223274   0.632   0.455   2.056 -0.3331  0.8577  1.6305
 3938SOL     OW23275   0.265   0.285   1.621 -0.0409 -0.0916 -0.2770
 3938SOL    HW123276   0.288   0.238   1.541  0.4018  0.9501 -0.7512
 3938SOL    HW223277   0.241   0.210   1.676  4.7364 -0.7069  0.9338
 3939SOL     OW23278   2.968   1.764   9.223  0.5800 -0.4443  0.3073
 3939SOL    HW123279   3.016   1.722   9.152  0.5586 -1.2861  0.7881
 3939SOL    HW223280   2.885   1.717   9.218  2.4612 -3.7996  0.8374
 3940SOL     OW23281   3.044   3.118  14.764 -0.6624 -0.3107  0.0368
 3940SOL    HW123282   3.029   3.027  14.792  2.5716 -0.7506  0.3237
 3940SOL    HW223283   3.104   3.162  14.825  0.2565 -0.4565 -0.7584
 3941SOL     OW23284   2.698   3.149   9.126  0.1106  0.1793  0.0213
 3941SOL    HW123285   2.692   3.240   9.097 -1.1324  0.0909  0.0020
 3941SOL    HW223286   2.620   3.145   9.181  0.8135  1.0661  1.0821
 3942SOL     OW23287   3.752   3.524   5.098 -0.8130 -0.2891  0.6793
 3942SOL    HW123288   3.682   3.589   5.106 -0.7885 -0.1280 -0.4575
 3942SOL    HW223289   3.810   3.551   5.027 -2.0569  0.1786 -0.1607
 3943SOL     OW23290   4.676   4.417   2.501  0.3929  0.1092 -0.8865
 3943SOL    HW123291   4.693   4.497   2.451  1.6186  0.7218  0.5110
 3943SOL    HW223292   0.035   4.423   2.556 -0.3477  1.4136  0.0315
 3944SOL     OW23293   1.260   4.232   7.128  0.3273 -0.6326 -0.2822
 3944SOL    HW123294   1.307   4.311   7.155 -2.0599  0.1563  1.5977
 3944SOL    HW223295   1.336   4.192   7.085 -1.3222 -1.8919 -1.9985
 3945SOL     OW23296   1.342   0.312   4.662 -0.1315 -0.7672  0.4118
 3945SOL    HW123297   1.251   0.284   4.649 -0.5204  0.6957 -0.0371
 3945SOL    HW223298   1.367   0.323   4.570 -2.5909 -1.4128 -0.3517
 3946SOL     OW23299   0.491   2.174   3.925 -0.0109  0.5752  0.3846
 3946SOL    HW123300   0.542   2.096   3.902 -0.2807  0.9724 -1.6036
 3946SOL    HW223301   0.447   2.129   3.997 -0.7200  0.3857 -0.1681
 3947SOL     OW23302   2.934   3.178   4.411  0.1795  0.2478  0.0468
 3947SOL    HW123303   3.009   3.119   4.419 -0.0985 -0.4183 -2.2070
 3947SOL    HW223304   2.864   3.119   4.385  0.5322 -0.0019 -0.3477
 3948SOL     OW23305   2.588   3.943   9.150 -0.3688  0.3908  0.2056
 3948SOL    HW123306   2.508   3.910   9.189 -0.2290 -3.5433 -2.7818
 3948SOL    HW223307   2.644   3.866   9.137 -0.6976 -0.0098  1.1634
 3949SOL     OW23308   3.957   0.658   5.903 -0.2923 -0.1572  0.5338
 3949SOL    HW123309   3.905   0.735   5.879 -2.4493 -2.3845 -1.9581
 3949SOL    HW223310   4.005   0.657   5.820  1.3137  0.6290  1.4552
 3950SOL     OW23311   3.075   2.146   7.512  0.6538  0.3515 -0.1567
 3950SOL    HW123312   3.005   2.177   7.570 -1.7480 -1.3821 -2.1301
 3950SOL    HW223313   3.062   2.191   7.429  1.6858  1.2720  0.1780
 3951SOL     OW23314   1.952   0.654   8.844  0.3789 -0.2741 -0.2190
 3951SOL    HW123315   1.902   0.605   8.909 -0.9253 -0.0040 -0.9977
 3951SOL    HW223316   1.896   0.636   8.768  0.8338  1.9136 -1.0770
 3952SOL     OW23317   0.678   1.997  10.353 -0.3554 -0.6995  0.0804
 3952SOL    HW123318   0.599   1.990  10.300  0.5415 -0.6519 -1.2793
 3952SOL    HW223319   0.702   2.088  10.339 -3.1390  0.1724  1.0666
 3953SOL     OW23320   2.971   2.960   0.749 -0.3667  0.1243  0.4070
 3953SOL    HW123321   2.903   2.920   0.804 -1.3939 -0.1816 -1.0603
 3953SOL    HW223322   2.927   2.982   0.667  0.4573  1.8117  0.4157
 3954SOL     OW23323   1.262   3.950  12.662  0.4579  0.0073  0.3259
 3954SOL    HW123324   1.336   3.897  12.691  1.0447 -0.2999 -1.7048
 3954SOL    HW223325   1.304   4.029  12.627 -0.3167  0.1672 -0.2530
 3955SOL     OW23326   3.368   1.566  16.030  0.1527 -0.4779 -0.1325
 3955SOL    HW123327   3.327   1.627  15.968  0.4356  0.6386  0.7803
 3955SOL    HW223328   3.374   1.491  15.970 -0.0231  0.2401 -1.0574
 3956SOL     OW23329   3.554   0.569   8.461 -0.2905 -0.1924  0.1407
 3956SOL    HW123330   3.480   0.597   8.515 -0.7438  0.6808 -0.9387
 3956SOL    HW223331   3.528   0.601   8.375  0.9572 -1.4160 -0.6802
 3957SOL     OW23332   1.155   3.750   0.800  0.2598  0.2041 -0.8337
 3957SOL    HW123333   1.208   3.681   0.838 -3.0468 -2.2202 -0.6457
 3957SOL    HW223334   1.151   3.724   0.708 -0.0314  2.1253 -1.3750
 3958SOL     OW23335   0.056   4.096   8.641  0.7776 -0.4437 -0.1084
 3958SOL    HW123336   0.117   4.169   8.652  2.1190 -1.4274 -1.1093
 3958SOL    HW223337   4.712   4.110   8.711 -0.2002 -0.4955 -0.9747
 3959SOL     OW23338   3.058   0.865  12.853  0.1335  0.0658 -0.1949
 3959SOL    HW123339   2.968   0.846  12.827  0.0021  1.2494 -0.6145
 3959SOL    HW223340   3.062   0.814  12.934 -0.6334 -3.0380 -2.0985
 3960SOL     OW23341   1.033   4.205  13.505  0.0859 -0.4129  0.0711
 3960SOL    HW123342   0.980   4.210  13.426 -1.4973 -2.9602  0.9850
 3960SOL    HW223343   1.074   4.291  13.512  0.3334 -0.6492  1.6394
 3961SOL     OW23344   4.681   3.950   3.568  0.0536  0.3789 -0.1835
 3961SOL    HW123345   4.693   3.861   3.599 -1.6887 -0.7086 -2.6608
 3961SOL    HW223346   4.697   4.010   3.642 -1.2504 -2.0282  2.0396
 3962SOL     OW23347   1.033   2.598   6.052  0.1268 -0.8559 -0.1229
 3962SOL    HW123348   0.949   2.563   6.022  0.4849 -0.9368 -1.0300
 3962SOL    HW223349   1.074   2.613   5.966  1.3581 -1.3278  0.3858
 3963SOL     OW23350   3.668   4.629   6.484  0.0165 -0.1976 -0.2391
 3963SOL    HW123351   3.662   0.005   6.475  0.1799 -0.0131  1.5038
 3963SOL    HW223352   3.716   4.622   6.567 -0.2609 -3.0474 -0.3286
 3964SOL     OW23353   2.871   2.300  10.782 -0.2092  0.0748 -1.1963
 3964SOL    HW123354   2.916   2.275  10.702 -0.0111  0.6614 -1.2709
 3964SOL    HW223355   2.942   2.286  10.845  0.0045  0.6144 -1.3162
 3965SOL     OW23356   3.662   4.659   7.785  0.1099  0.2286  0.0799
 3965SOL    HW123357   3.642   0.026   7.821 -1.1640  0.6749 -1.7303
 3965SOL    HW223358   3.580   4.640   7.739  0.4748  0.2637 -0.5816
 3966SOL     OW23359   0.368   1.069   8.665  0.4753 -0.2253  0.1687
 3966SOL    HW123360   0.312   1.107   8.597 -0.7095 -0.5795  0.9443
 3966SOL    HW223361   0.324   1.085   8.748  0.0714 -3.2949  0.5492
 3967SOL     OW23362   4.130   3.026   5.955  0.1959 -0.0181 -0.1792
 3967SOL    HW123363   4.043   3.061   5.934 -0.2766 -0.2444  1.3959
 3967SOL    HW223364   4.138   3.041   6.049  1.0132 -0.0683 -0.2464
 3968SOL     OW23365   3.738   1.811   2.846 -0.0386  0.7675  0.1500
 3968SOL    HW123366   3.795   1.771   2.911 -1.5862 -2.3687 -0.4457
 3968SOL    HW223367   3.741   1.897   2.888 -0.0014  0.0829  1.5642
 3969SOL     OW23368   0.154   1.577   2.062 -0.6163  0.0245  0.0934
 3969SOL    HW123369   0.244   1.573   2.094 -0.8521  0.1531  0.7681
 3969SOL    HW223370   0.174   1.548   1.973 -1.0478  0.8351 -0.2651
 3970SOL     OW23371   1.676   1.743   6.661  0.0535 -0.1116  0.4143
 3970SOL    HW123372   1.606   1.803   6.687 -2.2567 -1.5059 -2.6248
 3970SOL    HW223373   1.740   1.752   6.732  0.8630  3.5495 -0.7994
 3971SOL     OW23374   1.138   4.300   0.414  0.2016  0.1128 -0.0390
 3971SOL    HW123375   1.077   4.322   0.344  0.6100 -0.0258 -0.4383
 3971SOL    HW223376   1.200   4.248   0.363  0.4747  0.4304 -0.0283
 3972SOL     OW23377   0.785   4.226  13.682  0.1333 -0.0571 -0.1351
 3972SOL    HW123378   0.860   4.205  13.627  1.5799  1.2517  1.3409
 3972SOL    HW223379   0.717   4.204  13.618  1.7648 -0.8460 -1.6057
 3973SOL     OW23380   0.287   0.530   3.097 -0.5831  0.2151 -0.5244
 3973SOL    HW123381   0.356   0.593   3.078 -1.8670  0.9689 -2.6434
 3973SOL    HW223382   0.250   0.553   3.183  0.0611 -0.5063 -0.0499
 3974SOL     OW23383   0.735   3.328   5.456 -0.7732  0.4909  0.2269
 3974SOL    HW123384   0.681   3.407   5.453  1.2146  2.0033  3.0693
 3974SOL    HW223385   0.791   3.343   5.380 -0.0603  1.6947  0.9755
 3975SOL     OW23386   3.153   0.785   2.372  0.0485 -0.0584  0.3663
 3975SOL    HW123387   3.160   0.742   2.287 -0.7524 -1.9771  1.2739
 3975SOL    HW223388   3.239   0.759   2.403 -0.4978  1.0151  2.7424
 3976SOL     OW23389   0.631   0.973   3.580 -0.6487  0.4658 -0.1835
 3976SOL    HW123390   0.694   0.932   3.521  1.1311  1.1207  1.2626
 3976SOL    HW223391   0.652   1.066   3.572  0.7577  0.1059 -0.6277
 3977SOL     OW23392   0.261   4.496  15.766  0.0589  0.3696  0.1765
 3977SOL    HW123393   0.298   4.514  15.852 -0.6311 -0.7165  0.6937
 3977SOL    HW223394   0.186   4.442  15.791  0.9150 -0.5950  0.6431
 3978SOL     OW23395   2.925   1.031   7.693  0.0157  0.3179 -0.3076
 3978SOL    HW123396   2.936   1.057   7.785  1.7507  0.6560 -0.5980
 3978SOL    HW223397   3.010   0.987   7.686 -0.5357 -0.3857 -2.5659
 3979SOL     OW23398   4.400   3.942   7.969  0.1661 -0.2800 -0.4642
 3979SOL    HW123399   4.349   3.995   8.031  1.3086 -0.6066  0.7629
 3979SOL    HW223400   4.426   4.017   7.916  0.3857 -2.1416 -3.0086
 3980SOL     OW23401   2.843   1.083   2.640 -0.1534  0.0850 -0.0507
 3980SOL    HW123402   2.923   1.072   2.589  0.4100 -0.7715  1.0151
 3980SOL    HW223403   2.845   1.178   2.647  0.9781  0.3300 -3.5366
 3981SOL     OW23404   2.158   2.808   1.832 -0.5921  0.1126 -0.3737
 3981SOL    HW123405   2.193   2.868   1.897 -0.4769 -1.6397  1.1757
 3981SOL    HW223406   2.233   2.761   1.797  1.1278  1.6121  1.3565
 3982SOL     OW23407   1.481   3.250   5.745 -0.9013  0.8247  0.2095
 3982SOL    HW123408   1.466   3.300   5.826 -1.1106 -1.1517  1.4016
 3982SOL    HW223409   1.461   3.318   5.681 -1.6708  1.2183  0.8510
 3983SOL     OW23410   2.288   1.750   4.102  0.4798  0.0396 -0.1145
 3983SOL    HW123411   2.247   1.827   4.061  2.8966  1.6346  0.4560
 3983SOL    HW223412   2.211   1.714   4.146  0.0692  1.5128  0.3636
 3984SOL     OW23413   0.714   4.187   2.960 -0.5669  0.2936 -0.0719
 3984SOL    HW123414   0.655   4.189   2.884  1.5898 -0.1236 -1.7494
 3984SOL    HW223415   0.802   4.169   2.926 -1.0962  0.7104 -1.6721
 3985SOL     OW23416   1.123   0.093   7.882 -0.8679 -0.2232  0.2224
 3985SOL    HW123417   1.123   0.063   7.973 -0.6616  0.3263  0.4041
 3985SOL    HW223418   1.152   0.184   7.886 -1.4615 -0.1091  1.7551
 3986SOL     OW23419   1.996   2.379   7.047 -0.0448  0.4093  0.7617
 3986SOL    HW123420   2.068   2.425   7.004  0.4474 -0.5521  0.5550
 3986SOL    HW223421   2.030   2.291   7.062 -0.8397  0.2980  1.9449
 3987SOL     OW23422   2.208   3.037   4.435 -0.1234 -0.5807  0.3340
 3987SOL    HW123423   2.229   2.970   4.370 -1.6440 -0.2177 -0.5347
 3987SOL    HW223424   2.267   3.113   4.433 -1.2625  0.2888 -0.5848
 3988SOL     OW23425   4.671   3.127   2.913 -0.0282  0.2844  0.2706
 3988SOL    HW123426   4.613   3.202   2.925  0.8670  0.9766  0.2776
 3988SOL    HW223427   4.620   3.051   2.940 -1.1189  1.1935  0.7735
 3989SOL     OW23428   0.093   3.018   5.506  0.2343  0.5423  0.1683
 3989SOL    HW123429   0.170   2.965   5.485 -0.8981 -1.7157  1.7238
 3989SOL    HW223430   0.035   3.019   5.430  0.7488 -1.9777 -0.2560
 3990SOL     OW23431   3.402   0.083   6.169  0.2971  0.4484  0.2468
 3990SOL    HW123432   3.384   0.045   6.255  3.0217 -0.3276  0.4568
 3990SOL    HW223433   3.441   0.167   6.193 -1.6424  1.2663  0.5188
 3991SOL     OW23434   0.458   0.795  11.196  0.2063  0.0378  0.3393
 3991SOL    HW123435   0.385   0.750  11.154  0.2494  0.7128 -0.4670
 3991SOL    HW223436   0.420   0.883  11.204 -0.2840  0.0263 -1.9514
 3992SOL     OW23437   4.020   0.715  14.280 -0.0404 -0.0605 -0.6892
 3992SOL    HW123438   3.975   0.631  14.276 -3.5032  1.7177  1.2009
 3992SOL    HW223439   4.112   0.691  14.267  0.0360 -0.1067 -0.0500
 3993SOL     OW23440   4.661   2.192   5.459  0.0474 -0.3237  0.4851
 3993SOL    HW123441   4.634   2.159   5.373 -0.6951  0.3619  0.4600
 3993SOL    HW223442   4.685   2.106   5.494  0.4494 -0.4084  0.0038
 3994SOL     OW23443   2.465   0.724   3.392 -0.0960 -0.1301  0.0781
 3994SOL    HW123444   2.517   0.672   3.331  0.7698  1.5598 -0.6281
 3994SOL    HW223445   2.465   0.664   3.467 -0.1612 -0.4277 -0.1592
 3995SOL     OW23446   0.460   2.482   8.408 -0.6563  0.3223  0.6846
 3995SOL    HW123447   0.471   2.424   8.483 -0.3989 -0.2224  0.2199
 3995SOL    HW223448   0.533   2.466   8.349 -0.0494  1.2467  1.1799
 3996SOL     OW23449   3.370   2.442   3.800  0.0226 -0.1750  0.4482
 3996SOL    HW123450   3.408   2.457   3.887  0.3779  0.6582  0.1458
 3996SOL    HW223451   3.280   2.435   3.831  0.5022 -2.4456  1.3329
 3997SOL     OW23452   2.053   0.338   9.995  0.4837 -0.0720  0.3548
 3997SOL    HW123453   1.978   0.358  10.050  1.7940  2.1163  1.3335
 3997SOL    HW223454   2.017   0.256   9.960 -0.0761  0.8416 -1.1951
 3998SOL     OW23455   2.585   2.651  15.229  0.2421  0.0987 -0.3082
 3998SOL    HW123456   2.679   2.669  15.234  0.3460 -0.5855  0.1755
 3998SOL    HW223457   2.562   2.616  15.315 -1.3912 -1.3155 -1.3019
 3999SOL     OW23458   1.493   3.378   9.051 -0.1450 -0.1620 -0.0869
 3999SOL    HW123459   1.575   3.426   9.063 -1.5857  2.2283  0.1862
 3999SOL    HW223460   1.446   3.390   9.134 -0.0752 -1.0819  0.0873
 4000SOL     OW23461   2.556   0.651  10.943  0.1320 -0.0205 -0.0201
 4000SOL    HW123462   2.498   0.720  10.911  0.4214 -0.3076 -1.1876
 4000SOL    HW223463   2.640   0.694  10.926  0.9671 -1.1763  1.1727
 4001SOL     OW23464   3.135   1.261   1.786  0.2153 -0.6746  1.0755
 4001SOL    HW123465   3.060   1.300   1.740  0.6533 -0.1496  0.8037
 4001SOL    HW223466   3.090   1.206   1.851 -1.2061  1.7477  2.1219
 4002SOL     OW23467   3.963   4.261   7.227 -0.1395 -0.7624  0.1816
 4002SOL    HW123468   3.886   4.220   7.267 -0.6426  0.2853  0.2867
 4002SOL    HW223469   3.925   4.334   7.178 -1.5723  0.0104  2.4211
 4003SOL     OW23470   4.546   0.970  13.324 -0.2468 -0.0665  0.3998
 4003SOL    HW123471   4.616   0.981  13.388 -0.4825  0.4530  0.5673
 4003SOL    HW223472   4.502   1.054  13.335 -2.0494 -0.9082 -0.3878
 4004SOL     OW23473   2.526   4.175  13.729 -0.9236  0.5447  0.2309
 4004SOL    HW123474   2.583   4.210  13.797  0.1012 -0.5391 -0.0635
 4004SOL    HW223475   2.583   4.218  13.665 -0.8891  1.0058  0.5758
 4005SOL     OW23476   3.334   2.709   3.460  0.2904 -0.1035 -0.3431
 4005SOL    HW123477   3.425   2.716   3.490 -0.3335  2.0022  1.0449
 4005SOL    HW223478   3.313   2.802   3.460 -1.1354 -0.4256 -0.7642
 4006SOL     OW23479   3.130   1.236   9.263 -0.1741 -0.7566  0.7279
 4006SOL    HW123480   3.172   1.152   9.277 -0.7650 -1.1814 -0.0898
 4006SOL    HW223481   3.061   1.223   9.328 -1.9587  3.5078 -0.2711
 4007SOL     OW23482   1.785   1.651   2.596 -0.2311 -0.7731 -0.7124
 4007SOL    HW123483   1.763   1.736   2.559 -2.0854 -2.2691 -2.9767
 4007SOL    HW223484   1.718   1.588   2.571  0.9513 -2.0051 -0.8007
 4008SOL     OW23485   3.930   0.399  12.429  0.3627  0.1986 -0.5104
 4008SOL    HW123486   4.013   0.351  12.428 -0.4174 -1.1511 -0.1883
 4008SOL    HW223487   3.877   0.363  12.500  0.3779  0.3357 -0.4295
 4009SOL     OW23488   2.463   2.562   0.981  0.3337 -0.8298 -0.1359
 4009SOL    HW123489   2.482   2.651   0.952 -1.7210  0.3036  2.0179
 4009SOL    HW223490   2.547   2.522   1.004  0.2988  0.1958  1.7728
 4010SOL     OW23491   2.075   1.767   8.383  0.5734  0.1860 -0.6589
 4010SOL    HW123492   2.143   1.722   8.432  0.6867  0.8518 -0.1968
 4010SOL    HW223493   2.106   1.857   8.376  2.6839 -0.5224 -0.2311
 4011SOL     OW23494   0.972   0.056   3.914  0.6448  0.6975 -0.9221
 4011SOL    HW123495   0.906   0.014   3.969  1.2192  1.9378  0.7315
 4011SOL    HW223496   0.920   0.129   3.879  0.8977  1.6745  0.7487
 4012SOL     OW23497   0.641   0.248   3.066 -0.1804 -0.0019  0.7557
 4012SOL    HW123498   0.545   0.249   3.064 -0.1427  1.8297  0.0934
 4012SOL    HW223499   0.646   0.233   3.161 -1.3794  1.7706  1.1074
 4013SOL     OW23500   0.076   1.304   2.767 -0.3779 -0.1184 -0.1385
 4013SOL    HW123501   0.025   1.225   2.751 -0.7701  0.5777 -2.3231
 4013SOL    HW223502   0.084   1.297   2.862 -1.0529 -0.0383 -0.0785
 4014SOL     OW23503   3.720   1.753  15.099 -0.0815  0.1512  0.3247
 4014SOL    HW123504   3.650   1.715  15.044 -2.1189  3.1074  0.9020
 4014SOL    HW223505   3.669   1.805  15.161 -1.2940  0.7876 -1.1934
 4015SOL     OW23506   0.740   3.843   5.358 -0.1286 -0.3655 -0.0619
 4015SOL    HW123507   0.834   3.861   5.355 -0.3741  0.9111  0.0044
 4015SOL    HW223508   0.712   3.930   5.328  0.5591 -0.8497 -2.1157
 4016SOL     OW23509   3.717   2.729   0.372 -0.1077  0.0391  0.3609
 4016SOL    HW123510   3.787   2.756   0.313 -1.1163 -0.0300 -0.8529
 4016SOL    HW223511   3.765   2.684   0.442  1.8138  0.8196 -0.4630
 4017SOL     OW23512   0.728   4.239   7.557  0.0478  0.1753  0.1207
 4017SOL    HW123513   0.806   4.200   7.517  2.3356  1.0555  3.6997
 4017SOL    HW223514   0.756   4.284   7.636  0.1621  2.0999 -1.0240
 4018SOL     OW23515   4.643   2.743   2.683 -0.3291 -0.3423  0.3449
 4018SOL    HW123516   4.687   2.794   2.615 -0.7708 -2.0668 -1.2533
 4018SOL    HW223517   4.712   2.680   2.704  0.2241  0.9386  2.2524
 4019SOL     OW23518   2.730   3.014   5.835 -0.0843 -0.2097 -0.1222
 4019SOL    HW123519   2.814   2.971   5.820  1.3887  2.1175  1.5191
 4019SOL    HW223520   2.761   3.101   5.812  2.4034 -0.7092  1.3014
 4020SOL     OW23521   0.906   3.164   8.099  0.2900  0.1737  0.1400
 4020SOL    HW123522   0.949   3.089   8.060 -0.4512  0.2268 -0.7778
 4020SOL    HW223523   0.957   3.167   8.180 -0.5901 -1.8807  0.7786
 4021SOL     OW23524   4.682   4.042  10.142  0.1687 -0.0244  0.1924
 4021SOL    HW123525   4.683   4.052  10.047 -2.0591 -0.3763  0.1366
 4021SOL    HW223526   0.036   3.983  10.157  1.7844  2.2171  1.2199
 4022SOL     OW23527   3.273   0.859   6.265 -0.1568  0.1423 -0.1731
 4022SOL    HW123528   3.333   0.785   6.277 -1.7488 -0.9334  1.0781
 4022SOL    HW223529   3.259   0.852   6.171  2.2777 -1.6785 -0.4121
 4023SOL     OW23530   0.961   3.026   6.911 -0.1447 -0.1339  0.2815
 4023SOL    HW123531   0.976   2.992   7.000  0.7950 -0.2511  0.0838
 4023SOL    HW223532   0.867   3.041   6.914 -0.3309 -1.2311 -0.1859
 4024SOL     OW23533   0.924   1.310  17.072 -0.7620 -0.0239  0.3526
 4024SOL    HW123534   0.854   1.271  17.019 -0.6217 -0.7846  0.7189
 4024SOL    HW223535   1.001   1.281  17.023 -1.0860  0.6720 -0.5578
 4025SOL     OW23536   3.665   0.354   6.848 -0.2609 -0.1614  0.2256
 4025SOL    HW123537   3.648   0.358   6.942 -0.2143  0.5966  0.1972
 4025SOL    HW223538   3.751   0.397   6.846 -0.3622 -0.0277 -0.8961
 4026SOL     OW23539   1.235   3.146   5.714 -0.0486 -0.2139  0.4301
 4026SOL    HW123540   1.326   3.176   5.711 -0.2131  0.3211  0.6716
 4026SOL    HW223541   1.233   3.056   5.744 -1.2550 -1.0572 -2.1995
 4027SOL     OW23542   3.319   0.388   6.408  0.0038 -0.0205  0.0979
 4027SOL    HW123543   3.275   0.473   6.415 -0.7429 -0.6627  3.5876
 4027SOL    HW223544   3.244   0.330   6.395  1.9852 -2.7085  0.7982
 4028SOL     OW23545   2.132   2.946   8.367 -0.7481  0.3584 -0.2023
 4028SOL    HW123546   2.193   3.003   8.319  0.4142 -1.5739 -1.0084
 4028SOL    HW223547   2.055   2.998   8.346 -1.4126  0.7055  3.0034
 4029SOL     OW23548   0.557   3.296  16.133  0.0749 -0.5440 -0.2484
 4029SOL    HW123549   0.533   3.388  16.121  0.2844 -0.5372 -0.6076
 4029SOL    HW223550   0.652   3.300  16.119  0.3527  2.0366  2.2288
 4030SOL     OW23551   3.811   1.462   1.927  0.1727  0.1402  0.3408
 4030SOL    HW123552   3.883   1.449   1.865 -0.9811 -1.4137 -0.6728
 4030SOL    HW223553   3.742   1.473   1.861 -0.7201 -3.1109  0.7295
 4031SOL     OW23554   2.626   4.227  11.249 -0.2575 -0.9503  1.0504
 4031SOL    HW123555   2.607   4.216  11.156 -2.3516 -0.7167  1.4545
 4031SOL    HW223556   2.631   4.142  11.293 -0.7763 -1.8486 -0.6282
 4032SOL     OW23557   0.967   4.347   6.378 -0.9308 -0.2543  0.0210
 4032SOL    HW123558   0.912   4.377   6.305 -1.9618  0.5161  1.1202
 4032SOL    HW223559   1.029   4.420   6.386 -3.1170  1.1900  3.3412
 4033SOL     OW23560   0.670   3.081  13.655  0.5536  0.0606  0.3406
 4033SOL    HW123561   0.693   3.057  13.745 -1.2369  0.1500  0.8144
 4033SOL    HW223562   0.658   3.175  13.667  2.6446  0.3934 -0.0818
 4034SOL     OW23563   2.659   1.302   7.404 -0.2255  0.0943  0.5268
 4034SOL    HW123564   2.629   1.213   7.423 -0.8250  0.4891  1.4092
 4034SOL    HW223565   2.750   1.298   7.433  1.0284  1.4017 -3.2698
 4035SOL     OW23566   2.954   4.467   8.389  0.8214  0.6274  0.1722
 4035SOL    HW123567   2.981   4.378   8.365 -3.2287 -1.1965  2.3180
 4035SOL    HW223568   2.933   4.496   8.300  0.7428  1.5634  0.4934
 4036SOL     OW23569   2.748   2.183  16.265 -0.2918  1.0867 -0.2809
 4036SOL    HW123570   2.745   2.269  16.307 -2.3684  0.6850  0.4092
 4036SOL    HW223571   2.679   2.135  16.310  0.1855  1.4525  0.8571
 4037SOL     OW23572   0.234   1.932   2.977 -0.1731 -0.9311  0.1986
 4037SOL    HW123573   0.200   1.843   2.972  1.4781 -1.4823 -1.4031
 4037SOL    HW223574   0.167   1.966   3.036 -0.0875 -0.0512 -0.2012
 4038SOL     OW23575   1.931   2.648   8.530 -0.5032  0.0940  0.4676
 4038SOL    HW123576   1.944   2.647   8.625  0.9676 -1.4598  0.2562
 4038SOL    HW223577   1.983   2.725   8.507 -0.4957  0.0829  0.4475
 4039SOL     OW23578   3.440   1.142  10.420 -0.2910  0.2599  0.1386
 4039SOL    HW123579   3.533   1.126  10.435  0.1798  1.4160 -1.5828
 4039SOL    HW223580   3.430   1.222  10.471  1.4978  0.2232  0.5600
 4040SOL     OW23581   1.417   4.629   0.994 -0.0044 -0.0688 -0.2390
 4040SOL    HW123582   1.367   4.581   0.928  3.8138  0.7839 -3.6779
 4040SOL    HW223583   1.413   4.716   0.957  3.7288  0.0957 -0.2683
 4041SOL     OW23584   1.549   2.264   5.013 -0.3173 -0.4193  0.5524
 4041SOL    HW123585   1.474   2.223   5.055 -1.1428  0.7644  0.2215
 4041SOL    HW223586   1.518   2.352   5.032  1.5843  0.3647  0.1017
 4042SOL     OW23587   4.719   3.569   6.832  0.2683 -0.0127  0.5362
 4042SOL    HW123588   4.697   3.580   6.924 -2.2102  0.8852 -0.1839
 4042SOL    HW223589   0.091   3.596   6.843  1.4278 -3.4563 -0.5431
 4043SOL     OW23590   2.421   2.117  14.501 -0.1762 -0.4054  0.0621
 4043SOL    HW123591   2.502   2.065  14.502 -0.4392 -0.8716 -1.6199
 4043SOL    HW223592   2.440   2.177  14.428 -0.2663  0.3477  0.6565
 4044SOL     OW23593   1.961   0.899  13.293  0.0936 -0.3085  0.3014
 4044SOL    HW123594   1.941   0.852  13.213  1.3453 -1.8629  0.8903
 4044SOL    HW223595   1.984   0.984  13.255 -2.3908  0.4548  0.4881
 4045SOL     OW23596   1.380   4.443  12.803  0.1780  1.2019  0.3202
 4045SOL    HW123597   1.469   4.452  12.769 -0.1142 -0.4767 -0.8905
 4045SOL    HW223598   1.351   4.534  12.809 -3.1688  0.2061 -0.2837
 4046SOL     OW23599   2.863   0.823   6.135  0.3054 -0.5939 -0.5556
 4046SOL    HW123600   2.914   0.743   6.147 -2.7038 -2.4914 -0.4006
 4046SOL    HW223601   2.835   0.843   6.225  0.8891 -0.0188 -0.5000
 4047SOL     OW23602   4.524   1.337   4.736  0.5366 -0.5149 -0.3924
 4047SOL    HW123603   4.436   1.370   4.719  1.3905  1.2031 -1.6120
 4047SOL    HW223604   4.569   1.417   4.708  0.8111 -0.7251 -0.5517
 4048SOL     OW23605   1.423   3.286  13.855 -0.8490  0.0088 -0.0738
 4048SOL    HW123606   1.476   3.337  13.915 -0.3805 -0.9424  0.3215
 4048SOL    HW223607   1.409   3.213  13.915 -0.0860  1.4150  1.7790
 4049SOL     OW23608   3.495   2.082   4.312  0.4672  0.5721  0.1987
 4049SOL    HW123609   3.586   2.102   4.293 -0.1447  2.9729 -0.1665
 4049SOL    HW223610   3.487   2.152   4.377 -2.3612  1.0809 -0.6900
 4050SOL     OW23611   1.390   0.673   6.494 -0.1935  0.1891 -0.4097
 4050SOL    HW123612   1.326   0.743   6.504  0.4883  0.8451 -0.6508
 4050SOL    HW223613   1.410   0.681   6.401  0.1565 -0.3285 -0.3799
 4051SOL     OW23614   4.561   1.680   2.613 -0.4144 -0.1262 -0.1215
 4051SOL    HW123615   4.471   1.675   2.647 -0.1157 -1.0819  0.5297
 4051SOL    HW223616   4.560   1.603   2.556 -0.4393 -0.3881  0.2309
 4052SOL     OW23617   4.693   1.545   4.696 -0.5016  0.0283 -0.0774
 4052SOL    HW123618   0.035   1.551   4.769 -2.9423  0.5644  1.9512
 4052SOL    HW223619   4.687   1.639   4.679 -0.3394 -0.3054 -1.9498
 4053SOL     OW23620   1.072   1.893  13.963 -0.0236  0.6040 -0.1174
 4053SOL    HW123621   1.160   1.893  14.001 -0.4715  0.5778  0.9275
 4053SOL    HW223622   1.041   1.805  13.986 -1.2699  1.4848  1.5967
 4054SOL     OW23623   2.959   2.750   6.193 -0.2457  0.0463  0.1742
 4054SOL    HW123624   2.966   2.823   6.255  0.6560  0.9807 -1.0222
 4054SOL    HW223625   2.888   2.784   6.137 -0.7770  2.1315  2.1278
 4055SOL     OW23626   2.915   1.563   1.598 -0.8570  0.3475  0.2087
 4055SOL    HW123627   2.858   1.538   1.671 -1.9502  0.5104 -0.5888
 4055SOL    HW223628   2.948   1.476   1.578 -0.7887  0.3311  0.3892
 4056SOL     OW23629   3.255   0.103   9.431 -0.2235 -0.0681  0.3771
 4056SOL    HW123630   3.233   0.022   9.385  0.0194  0.2504 -0.2933
 4056SOL    HW223631   3.268   0.076   9.522 -0.2017  1.4875  0.8344
 4057SOL     OW23632   0.071   2.219   7.313  0.9376  0.4487  0.3693
 4057SOL    HW123633   4.698   2.238   7.299  0.4942 -1.8638  0.2194
 4057SOL    HW223634   0.091   2.283   7.382  0.9422 -0.9636  1.6964
 4058SOL     OW23635   1.849   4.566   1.692  0.6791 -0.1128  0.2258
 4058SOL    HW123636   1.878   4.480   1.661  2.3679  0.6441 -0.3120
 4058SOL    HW223637   1.777   4.547   1.752  0.8121 -1.1859  0.0489
 4059SOL     OW23638   1.785   2.418   8.113  0.2571 -0.0734 -1.0717
 4059SOL    HW123639   1.868   2.408   8.066  1.1065  0.7895  0.2360
 4059SOL    HW223640   1.805   2.512   8.118 -1.2335  0.1774  0.4084
 4060SOL     OW23641   3.929   3.858   8.524  0.1482 -0.0985  0.0673
 4060SOL    HW123642   3.882   3.792   8.473  0.5319 -0.2325 -0.1168
 4060SOL    HW223643   4.021   3.830   8.520 -1.1244 -4.1946  0.3041
 4061SOL     OW23644   2.355   0.984  14.940  0.1026 -0.4379 -0.1164
 4061SOL    HW123645   2.425   0.921  14.923 -0.1738 -1.5474  2.7908
 4061SOL    HW223646   2.377   1.054  14.879 -4.8102  0.7497 -0.5253
 4062SOL     OW23647   4.061   2.493   6.095 -0.4230  0.1093 -0.2821
 4062SOL    HW123648   4.138   2.438   6.081  0.7421  1.0704  2.4163
 4062SOL    HW223649   4.090   2.585   6.095  1.2372 -0.4042 -1.9995
 4063SOL     OW23650   2.891   3.972   4.373 -0.2712 -0.3076  0.1810
 4063SOL    HW123651   2.800   3.989   4.397 -0.2013  0.6280 -0.2179
 4063SOL    HW223652   2.892   3.878   4.354 -3.9989  0.1154 -2.1797
 4064SOL     OW23653   3.389   1.798   7.940 -0.1846  0.2117 -0.5622
 4064SOL    HW123654   3.441   1.718   7.932  1.3712  1.1163  0.3946
 4064SOL    HW223655   3.324   1.766   8.003 -0.3340  2.9866  0.6872
 4065SOL     OW23656   1.405   0.130   8.514 -0.2736  0.2076  0.1478
 4065SOL    HW123657   1.316   0.132   8.548 -1.7601  0.1204 -3.6988
 4065SOL    HW223658   1.443   0.050   8.550 -0.2839  0.7773  1.3972
 4066SOL     OW23659   4.271   1.870   6.044 -0.7321  0.4846  0.2885
 4066SOL    HW123660   4.241   1.848   6.132 -0.5314 -0.4207  0.1329
 4066SOL    HW223661   4.357   1.912   6.053 -0.6703  1.0352 -2.8291
 4067SOL     OW23662   2.456   1.437   2.077 -0.0678 -0.1919  0.0159
 4067SOL    HW123663   2.408   1.489   2.142 -0.6841 -1.7559  0.7971
 4067SOL    HW223664   2.446   1.496   2.003 -1.7897 -1.4103 -0.7161
 4068SOL     OW23665   2.989   3.797   7.279  0.1058 -0.5233 -0.3530
 4068SOL    HW123666   3.017   3.884   7.306  1.9398 -1.1626 -0.2163
 4068SOL    HW223667   2.902   3.816   7.244  0.1153  0.5841  0.2375
 4069SOL     OW23668   1.514   4.401  13.996 -0.5103 -0.7359 -0.8003
 4069SOL    HW123669   1.444   4.467  13.995  1.0772  0.9478 -2.0613
 4069SOL    HW223670   1.543   4.391  14.087 -2.6645 -3.3465 -0.3919
 4070SOL     OW23671   2.581   2.279   2.690 -0.0054 -0.6434  0.1461
 4070SOL    HW123672   2.500   2.327   2.704  0.6336  1.4847 -3.1753
 4070SOL    HW223673   2.614   2.349   2.634 -0.5575  0.2531  0.9571
 4071SOL     OW23674   2.549   0.365   9.787 -0.0569  0.4438  0.8256
 4071SOL    HW123675   2.581   0.448   9.753  0.7129 -0.2335 -0.0989
 4071SOL    HW223676   2.541   0.395   9.877 -2.5978  0.8368  0.4677
 4072SOL     OW23677   3.746   3.886   2.945  0.1393 -0.4903  0.1261
 4072SOL    HW123678   3.818   3.930   2.898  0.7965  0.3532  1.9170
 4072SOL    HW223679   3.706   3.956   2.996  0.3315 -0.2449 -0.0536
 4073SOL     OW23680   3.648   3.561  13.051  0.8979 -0.3505  0.2783
 4073SOL    HW123681   3.667   3.648  13.086  0.2731  0.5032 -1.4757
 4073SOL    HW223682   3.566   3.590  13.010  1.4567 -1.2658 -1.5027
 4074SOL     OW23683   0.107   2.509   7.404 -0.1832  0.2281 -0.0333
 4074SOL    HW123684   0.139   2.590   7.445  0.0824 -0.5861  1.3557
 4074SOL    HW223685   0.123   2.526   7.311  0.5649 -0.9647 -0.1214
 4075SOL     OW23686   0.677   0.500   0.725  0.2387 -0.4377 -0.2248
 4075SOL    HW123687   0.694   0.593   0.738  1.7119 -1.0287  2.0747
 4075SOL    HW223688   0.751   0.479   0.667  0.1037 -0.2606 -0.4600
 4076SOL     OW23689   3.098   2.144  10.735 -0.5814 -0.1931 -0.0413
 4076SOL    HW123690   3.099   2.058  10.776  0.7507  0.6175  1.6278
 4076SOL    HW223691   3.180   2.134  10.686 -1.3636  0.2702 -1.4421
 4077SOL     OW23692   4.508   4.711   7.736 -0.3375  0.3097 -0.1693
 4077SOL    HW123693   4.592   0.008   7.693  0.0579  0.4854  0.6676
 4077SOL    HW223694   4.444   0.021   7.671 -1.5697 -1.5935  0.1810
 4078SOL     OW23695   3.888   0.459  15.049  0.0516 -0.2165  0.1202
 4078SOL    HW123696   3.827   0.392  15.079  1.0398 -1.2790 -0.2237
 4078SOL    HW223697   3.931   0.481  15.131 -0.4395  4.0819 -0.7662
 4079SOL     OW23698   0.226   1.982   4.652  0.1941  0.0642 -0.2069
 4079SOL    HW123699   0.268   1.934   4.581 -0.3998 -2.7096  1.3141
 4079SOL    HW223700   0.287   2.053   4.671  0.0718  0.3615 -0.9197
 4080SOL     OW23701   4.388   1.195  10.021 -0.0815 -0.0425  0.8204
 4080SOL    HW123702   4.366   1.172  10.111 -0.3812 -1.5669  0.3609
 4080SOL    HW223703   4.353   1.284  10.021  2.4454  0.9534 -0.4224
 4081SOL     OW23704   0.987   0.885   4.558 -0.3269  0.7114  0.0410
 4081SOL    HW123705   0.999   0.904   4.651 -1.7001  1.1807  0.1198
 4081SOL    HW223706   1.059   0.928   4.512 -1.3246 -0.4202 -2.5888
 4082SOL     OW23707   3.822   0.949   7.872  0.2355  0.0055 -0.0055
 4082SOL    HW123708   3.906   0.988   7.893  1.0771 -3.4674  3.1017
 4082SOL    HW223709   3.803   0.928   7.964 -2.5137 -0.4367 -0.6585
 4083SOL     OW23710   0.951   1.211  13.213 -0.8500  0.1302 -0.1420
 4083SOL    HW123711   0.960   1.234  13.121  1.0210  0.3591  0.1118
 4083SOL    HW223712   0.895   1.287  13.233 -0.4215  0.7750 -1.4461
 4084SOL     OW23713   0.373   1.405  15.864 -0.2432 -0.1377 -0.3623
 4084SOL    HW123714   0.446   1.435  15.809  1.4805  1.3458  2.7088
 4084SOL    HW223715   0.331   1.482  15.901 -1.3573 -0.2400 -1.4306
 4085SOL     OW23716   2.595   0.499   7.585  0.6776  0.4443 -0.1983
 4085SOL    HW123717   2.605   0.406   7.564  1.1281  0.5948 -0.6339
 4085SOL    HW223718   2.664   0.546   7.540  1.3871  0.8804  1.3460
 4086SOL     OW23719   1.076   3.680   6.306  0.3073  0.6737  0.1702
 4086SOL    HW123720   1.072   3.585   6.296  1.7921  0.5503  0.6708
 4086SOL    HW223721   1.046   3.698   6.217  0.4691  0.6940  0.1190
 4087SOL     OW23722   3.377   4.479   6.422  0.3707 -0.5835 -0.7517
 4087SOL    HW123723   3.430   4.558   6.432 -0.5592  0.1421 -1.5066
 4087SOL    HW223724   3.384   4.467   6.328 -1.0643  3.7836 -1.4460
 4088SOL     OW23725   0.775   1.746   7.142 -0.2525  0.1271  0.0210
 4088SOL    HW123726   0.764   1.657   7.175  0.7725 -0.2056 -0.5351
 4088SOL    HW223727   0.738   1.799   7.213  0.5452 -0.4914  0.8911
 4089SOL     OW23728   1.241   0.641  13.183  0.0926  0.6483  0.1855
 4089SOL    HW123729   1.330   0.609  13.175 -0.4642 -0.5646 -1.2241
 4089SOL    HW223730   1.221   0.637  13.276 -2.1909 -0.0522 -0.3325
 4090SOL     OW23731   2.127   1.357   1.988 -0.6013  0.4575  0.1710
 4090SOL    HW123732   2.075   1.438   1.992 -0.3592  0.6754 -1.1396
 4090SOL    HW223733   2.063   1.310   1.934 -3.9733  3.2843  1.6936
 4091SOL     OW23734   4.088   0.756   2.484  0.7045  0.5927  0.6937
 4091SOL    HW123735   4.067   0.715   2.399  1.5742  1.0481  0.2631
 4091SOL    HW223736   4.142   0.685   2.519 -0.3631 -0.0113  1.1378
 4092SOL     OW23737   1.897   0.594   2.042 -0.1078  0.8470  0.0770
 4092SOL    HW123738   1.846   0.529   1.993 -0.7163  1.0274  0.4652
 4092SOL    HW223739   1.884   0.568   2.133 -0.4196 -1.9776 -0.7712
 4093SOL     OW23740   2.359   2.185   7.896  0.5584 -0.3318 -0.2698
 4093SOL    HW123741   2.285   2.225   7.850 -0.4874 -0.2757  1.4298
 4093SOL    HW223742   2.434   2.212   7.843 -0.0601 -0.3594 -1.1682
 4094SOL     OW23743   1.303   3.435   4.400 -0.4221  0.5997  0.0072
 4094SOL    HW123744   1.300   3.399   4.311 -0.5392  0.8649 -0.0945
 4094SOL    HW223745   1.270   3.362   4.453  1.5753 -1.4666 -1.5970
 4095SOL     OW23746   2.902   0.184   7.447 -0.1270  0.1836 -0.7103
 4095SOL    HW123747   2.973   0.198   7.383  0.7405 -0.4540  0.1206
 4095SOL    HW223748   2.835   0.171   7.380 -1.1325 -1.2325  0.5664
 4096SOL     OW23749   3.386   2.461   2.533  0.3702 -0.0879 -0.6913
 4096SOL    HW123750   3.347   2.546   2.513 -1.5372 -0.5272  1.2147
 4096SOL    HW223751   3.472   2.474   2.492 -0.2280  1.0809 -1.5485
 4097SOL     OW23752   0.303   3.991   4.074 -0.0037  0.4729  0.2103
 4097SOL    HW123753   0.251   4.049   4.018  0.3340 -1.5027 -2.1195
 4097SOL    HW223754   0.335   3.929   4.009 -0.2844 -0.1091  0.6265
 4098SOL     OW23755   2.154   2.479   6.443  0.5263  0.0758 -0.4098
 4098SOL    HW123756   2.116   2.409   6.390  1.7599 -1.9215  1.3563
 4098SOL    HW223757   2.124   2.557   6.395 -1.0280 -1.2180 -1.5342
 4099SOL     OW23758   4.347   3.304   7.671  0.4686 -0.3442 -0.2621
 4099SOL    HW123759   4.337   3.398   7.685  0.1861 -0.3244 -0.5972
 4099SOL    HW223760   4.271   3.279   7.723  0.4079 -2.2309 -1.2549
 4100SOL     OW23761   3.149   4.458   8.053  0.3006 -0.4397  0.1398
 4100SOL    HW123762   3.159   4.528   7.989  0.5473 -0.2980  0.3326
 4100SOL    HW223763   3.054   4.458   8.061  0.2244 -1.5113 -0.7187
 4101SOL     OW23764   0.041   4.014  16.705 -0.5687 -0.0395 -0.5506
 4101SOL    HW123765   0.114   3.957  16.729  0.5041  1.3404 -0.5139
 4101SOL    HW223766   0.084   4.062  16.634 -0.8579  1.7496  0.4629
 4102SOL     OW23767   4.235   2.181   3.694  0.1059  0.3272  0.6767
 4102SOL    HW123768   4.159   2.180   3.637 -0.0729 -0.0007  0.9154
 4102SOL    HW223769   4.305   2.206   3.634 -0.1677  0.4471  0.4136
 4103SOL     OW23770   0.898   2.122   0.091 -0.4054 -0.5190 -0.9396
 4103SOL    HW123771   0.922   2.041   0.136  2.0682  0.8730  0.2517
 4103SOL    HW223772   0.811   2.135   0.129 -0.6133 -0.2600 -1.5187
 4104SOL     OW23773   0.200   0.278  13.453  0.6388 -0.2150 -0.2628
 4104SOL    HW123774   0.270   0.282  13.518 -0.0019  2.2606  0.2461
 4104SOL    HW223775   0.131   0.231  13.499  0.8905  0.7930  1.1184
 4105SOL     OW23776   0.202   4.427   7.189  1.1614 -0.2640 -0.1565
 4105SOL    HW123777   0.277   4.384   7.147  1.0019  0.2864 -1.0062
 4105SOL    HW223778   0.214   4.405   7.281  0.5325  1.0919  0.2458
 4106SOL     OW23779   4.435   2.758  17.635  0.2901  0.8515  0.5112
 4106SOL    HW123780   4.376   2.690  17.666  1.1015  0.7024  1.7276
 4106SOL    HW223781   4.382   2.779  17.558 -1.3464 -2.3992  0.7704
 4107SOL     OW23782   2.584   0.300   6.188 -0.0788 -0.0622  0.4916
 4107SOL    HW123783   2.622   0.352   6.258  1.9858 -1.8425  0.6808
 4107SOL    HW223784   2.499   0.280   6.227 -0.1380 -0.9496 -0.0890
 4108SOL     OW23785   1.755   0.183   7.161  0.3670 -0.3738  0.3840
 4108SOL    HW123786   1.828   0.120   7.160 -0.8847 -1.8758  2.3565
 4108SOL    HW223787   1.753   0.225   7.075 -1.2006  0.8707  1.0318
 4109SOL     OW23788   1.054   2.623   0.184  0.2209  0.1085 -0.1906
 4109SOL    HW123789   0.965   2.596   0.162  0.2017  0.3001 -0.3514
 4109SOL    HW223790   1.097   2.627   0.099 -0.0523  2.1338 -0.2526
 4110SOL     OW23791   1.254   0.320   7.905 -0.2448 -0.1790  0.0659
 4110SOL    HW123792   1.326   0.290   7.960 -2.0030 -0.9520  1.9314
 4110SOL    HW223793   1.299   0.321   7.820  1.6180 -3.3055  1.0038
 4111SOL     OW23794   1.923   4.677   7.881  0.0041  0.3746 -0.5420
 4111SOL    HW123795   1.897   4.603   7.936 -1.7067  1.0722 -0.3880
 4111SOL    HW223796   1.875   0.028   7.925 -0.4437 -0.8701  0.9617
 4112SOL     OW23797   0.511   1.601   5.095  0.4521  0.1880  0.6228
 4112SOL    HW123798   0.475   1.631   5.012  2.3305 -0.3309 -0.3625
 4112SOL    HW223799   0.571   1.537   5.057 -1.2200 -0.6925 -0.5455
 4113SOL     OW23800   3.527   4.499   0.224  0.0649  0.3619  0.2740
 4113SOL    HW123801   3.483   4.505   0.139 -0.2048 -0.6563  0.3408
 4113SOL    HW223802   3.479   4.558   0.282  0.2389  0.8389 -0.0580
 4114SOL     OW23803   0.455   3.471   7.273 -0.2710 -0.5447 -0.4865
 4114SOL    HW123804   0.499   3.514   7.200  0.3491 -0.5315 -0.1041
 4114SOL    HW223805   0.390   3.424   7.221 -1.2376 -2.0581  2.0536
 4115SOL     OW23806   0.285   2.546  17.641  0.3832  0.1404 -0.5883
 4115SOL    HW123807   0.276   2.453  17.619 -0.7385 -0.3826  2.1154
 4115SOL    HW223808   0.264   2.587  17.557 -1.5908  1.2234  0.4348
 4116SOL     OW23809   0.323   1.024  11.144 -0.2296  0.0446  0.1490
 4116SOL    HW123810   0.309   1.048  11.053 -0.8386  1.0446  0.4995
 4116SOL    HW223811   0.272   1.086  11.196 -0.3850  0.1708 -0.1546
 4117SOL     OW23812   0.560   2.972   7.521  0.4392 -0.3710  0.6467
 4117SOL    HW123813   0.490   3.029   7.554  1.7757  1.3743  0.4425
 4117SOL    HW223814   0.539   2.965   7.428  0.1307 -0.5843  0.7320
 4118SOL     OW23815   2.842   3.551   7.870  0.3779  0.0816 -0.8663
 4118SOL    HW123816   2.937   3.562   7.867  0.4566  0.1068  2.1133
 4118SOL    HW223817   2.839   3.456   7.881  1.1308  0.2852  1.1157
 4119SOL     OW23818   3.804   3.996   6.009  0.1652  0.0944 -0.0391
 4119SOL    HW123819   3.796   3.937   6.084 -1.3267  0.1387 -0.1543
 4119SOL    HW223820   3.834   4.079   6.045  0.8017 -0.3445  0.4249
 4120SOL     OW23821   4.609   3.404   7.422 -0.7245 -0.4279 -0.7461
 4120SOL    HW123822   4.657   3.322   7.429 -1.7397 -1.0449 -0.9226
 4120SOL    HW223823   4.685   3.461   7.423 -1.4106  0.4868 -0.5003
 4121SOL     OW23824   4.634   0.190   2.379  0.6964 -0.3814  0.6623
 4121SOL    HW123825   4.633   0.190   2.284  1.1005  0.9174  0.6642
 4121SOL    HW223826   4.543   0.173   2.403  0.3094  0.5162 -0.1988
 4122SOL     OW23827   3.034   3.313   1.932  0.6822  0.3172  0.6030
 4122SOL    HW123828   2.984   3.270   1.863 -0.8392  0.8712  1.3626
 4122SOL    HW223829   3.076   3.390   1.892  3.2136 -0.8593  1.0025
 4123SOL     OW23830   4.096   2.676   7.460  0.1802  0.2322  0.1360
 4123SOL    HW123831   4.068   2.693   7.370  1.7619 -2.7581 -0.9386
 4123SOL    HW223832   4.170   2.736   7.467  1.3897 -0.9988 -2.0049
 4124SOL     OW23833   1.612   3.580   3.383 -0.2861 -1.0157 -0.5258
 4124SOL    HW123834   1.563   3.578   3.300 -1.6946  2.1547  0.2281
 4124SOL    HW223835   1.698   3.617   3.362 -0.4017 -1.3263 -1.5563
 4125SOL     OW23836   2.719   3.687  12.878  0.1028  0.5268 -0.1816
 4125SOL    HW123837   2.645   3.654  12.929 -0.9378  1.5975 -1.0059
 4125SOL    HW223838   2.770   3.606  12.876 -0.2510  0.3261 -0.8824
 4126SOL     OW23839   0.615   4.697  16.969 -0.1847 -0.1574 -0.1485
 4126SOL    HW123840   0.616   0.048  17.034  1.4434  0.0415 -0.3698
 4126SOL    HW223841   0.706   4.667  16.964 -0.1057  0.0392  0.0521
 4127SOL     OW23842   3.619   0.404  11.880  0.0135 -0.2181  0.3434
 4127SOL    HW123843   3.540   0.362  11.846 -0.0359 -0.2372  0.4844
 4127SOL    HW223844   3.642   0.353  11.958 -1.9042  0.0357  1.0591
 4128SOL     OW23845   0.666   1.989   9.025  0.3667  0.3094 -0.4799
 4128SOL    HW123846   0.656   2.025   9.114 -0.5697 -1.1051 -0.0103
 4128SOL    HW223847   0.757   1.962   9.029  1.0465  2.7465  0.8902
 4129SOL     OW23848   1.256   3.233   3.083  0.1333  0.1837 -0.0520
 4129SOL    HW123849   1.345   3.263   3.104  0.1234 -0.6052  1.1209
 4129SOL    HW223850   1.241   3.280   3.001 -2.2592  1.2974  1.0065
 4130SOL     OW23851   0.969   1.895  17.050 -0.0300 -0.5100 -0.2117
 4130SOL    HW123852   0.999   1.809  17.080 -1.4458 -1.1462 -0.6326
 4130SOL    HW223853   1.033   1.914  16.981  1.2472 -0.7160  0.8974
 4131SOL     OW23854   0.580   2.411   6.337 -0.1526  0.2253 -0.5719
 4131SOL    HW123855   0.531   2.441   6.413 -1.1387 -2.3319 -0.1865
 4131SOL    HW223856   0.657   2.468   6.328 -1.1200  1.3938 -1.4212
 4132SOL     OW23857   0.817   4.518   2.112 -0.3316 -0.7575 -0.0740
 4132SOL    HW123858   0.849   4.539   2.024 -0.0374 -0.2019  0.1675
 4132SOL    HW223859   0.752   4.450   2.095 -1.6899  0.3464  0.7719
 4133SOL     OW23860   0.431   1.601   2.872  0.1764  0.0675  1.2219
 4133SOL    HW123861   0.443   1.652   2.792 -0.0173 -0.2344  0.9994
 4133SOL    HW223862   0.421   1.517   2.828 -0.0554  0.4017  0.6457
 4134SOL     OW23863   0.284   1.067   9.245 -0.8555 -0.2993  0.1620
 4134SOL    HW123864   0.239   1.108   9.319 -1.4182 -1.3165  0.3828
 4134SOL    HW223865   0.240   0.983   9.251 -1.0737 -0.4672 -3.7829
 4135SOL     OW23866   2.948   0.407  16.623 -0.1896  0.0501  0.3471
 4135SOL    HW123867   2.965   0.451  16.539 -1.2233  0.7780  0.5148
 4135SOL    HW223868   3.034   0.398  16.663 -0.2746  1.8695  0.9200
 4136SOL     OW23869   0.634   3.569   2.874  0.4805  0.4170  0.2834
 4136SOL    HW123870   0.569   3.557   2.944 -0.8098 -2.4244 -1.4015
 4136SOL    HW223871   0.713   3.527   2.909 -1.7721 -1.9061  2.5722
 4137SOL     OW23872   4.587   2.385   6.967 -0.2048  0.1034  0.6531
 4137SOL    HW123873   4.573   2.477   6.988  0.4519 -0.0803  1.8918
 4137SOL    HW223874   4.522   2.379   6.897 -0.4868 -0.8271  0.9875
 4138SOL     OW23875   3.714   3.234   5.805 -0.7650  0.1980 -0.2881
 4138SOL    HW123876   3.801   3.252   5.841 -0.6086 -0.7092 -0.2296
 4138SOL    HW223877   3.735   3.238   5.712  2.1678  0.9233  0.4219
 4139SOL     OW23878   2.309   0.569   7.033 -0.8094 -0.2354  0.0570
 4139SOL    HW123879   2.358   0.647   7.058  0.5125 -0.4934 -1.6635
 4139SOL    HW223880   2.365   0.502   7.071  0.2352  1.3509  1.3070
 4140SOL     OW23881   2.274   3.478   5.151 -0.2289  0.4036  0.5167
 4140SOL    HW123882   2.238   3.433   5.074 -0.7616 -0.4577  1.2609
 4140SOL    HW223883   2.311   3.553   5.104  0.3989 -0.7494 -0.8299
 4141SOL     OW23884   3.880   2.568  17.279  0.0283 -0.1560 -0.1146
 4141SOL    HW123885   3.844   2.569  17.191  2.4026  0.3580 -1.0711
 4141SOL    HW223886   3.951   2.506  17.260 -1.0554 -0.3546 -3.4491
 4142SOL     OW23887   2.272   3.022   5.664 -0.3708  0.0922  0.1443
 4142SOL    HW123888   2.256   2.935   5.700 -1.1061 -0.1193 -0.6888
 4142SOL    HW223889   2.227   3.073   5.731 -0.1212 -0.2131  0.5510
 4143SOL     OW23890   4.498   3.356  10.249  0.1723  0.1931  0.3415
 4143SOL    HW123891   4.497   3.327  10.158  0.6839 -0.7625  0.6391
 4143SOL    HW223892   4.472   3.277  10.296 -2.7210  1.5906  1.0993
 4144SOL     OW23893   0.264   0.209   5.119 -0.5092  0.7795 -0.0509
 4144SOL    HW123894   0.183   0.253   5.141 -1.2264 -0.4689 -0.2058
 4144SOL    HW223895   0.238   0.118   5.136  1.2261  0.4211  0.7474
 4145SOL     OW23896   1.171   2.885   8.534 -0.2302  0.2634  0.3274
 4145SOL    HW123897   1.204   2.972   8.559  0.6366 -0.0122  0.1676
 4145SOL    HW223898   1.233   2.833   8.585  0.8488  0.6795 -0.5308
 4146SOL     OW23899   3.291   0.691   3.313  0.3814 -0.0533 -0.0268
 4146SOL    HW123900   3.364   0.732   3.266  0.2368  1.2656  0.9163
 4146SOL    HW223901   3.333   0.667   3.395  1.0168 -1.0857 -0.6492
 4147SOL     OW23902   3.319   1.134   6.631 -0.0746  0.1745  0.2504
 4147SOL    HW123903   3.336   1.114   6.539  1.9811  0.0496  0.6574
 4147SOL    HW223904   3.225   1.152   6.636  0.0894 -0.3084  4.6629
 4148SOL     OW23905   1.763   4.341   6.634 -0.1361 -0.3357 -0.3577
 4148SOL    HW123906   1.796   4.381   6.554  0.4077 -1.8676 -0.9076
 4148SOL    HW223907   1.791   4.398   6.705  0.6879  0.8458 -1.6259
 4149SOL     OW23908   2.337   4.029   8.780 -0.3801 -0.3683 -0.0543
 4149SOL    HW123909   2.328   3.982   8.697 -1.5117  0.6156 -0.4988
 4149SOL    HW223910   2.273   4.099   8.766 -0.9424 -0.9214 -0.2100
 4150SOL     OW23911   1.248   3.233   3.962 -0.7693  0.2186 -0.6836
 4150SOL    HW123912   1.214   3.163   4.019 -1.5329  0.3574 -0.9707
 4150SOL    HW223913   1.333   3.190   3.949 -1.4011 -0.6138 -2.0172
 4151SOL     OW23914   3.908   4.011   7.906 -0.6299  0.0063 -0.3923
 4151SOL    HW123915   3.822   3.977   7.879 -0.4995  0.3364 -1.1971
 4151SOL    HW223916   3.890   4.104   7.914  0.0806  0.2848 -2.0925
 4152SOL     OW23917   2.248   4.028   7.649 -0.2833 -0.2577 -0.1320
 4152SOL    HW123918   2.257   3.991   7.561  2.9024 -1.0889  0.5345
 4152SOL    HW223919   2.221   4.119   7.640 -0.8415 -0.1388  2.9078
 4153SOL     OW23920   2.902   4.675  16.298 -0.1910 -0.4760  0.3528
 4153SOL    HW123921   2.884   0.014  16.373 -0.6345 -1.3279  0.9116
 4153SOL    HW223922   2.993   4.690  16.271 -0.8088  1.7981 -0.4749
 4154SOL     OW23923   1.041   2.391   0.694 -0.6459 -0.1167 -0.1420
 4154SOL    HW123924   1.068   2.470   0.742  1.6650 -1.2018  0.3265
 4154SOL    HW223925   0.995   2.430   0.619 -0.6425 -0.0892 -0.1300
 4155SOL     OW23926   3.993   3.929   2.751  0.0124  0.0531  0.3780
 4155SOL    HW123927   4.033   3.862   2.696 -0.2232 -1.5464  2.1746
 4155SOL    HW223928   4.019   4.000   2.692 -0.2845  1.5722  2.0631
 4156SOL     OW23929   3.842   3.686   3.981  0.0317  0.0426 -0.1376
 4156SOL    HW123930   3.834   3.627   4.057  0.7313 -0.6503 -0.6058
 4156SOL    HW223931   3.843   3.772   4.022 -0.4199  0.7944 -1.7167
 4157SOL     OW23932   1.372   0.309   4.405  0.3222 -0.1842  0.1547
 4157SOL    HW123933   1.283   0.317   4.372 -0.9737 -2.7865  2.9653
 4157SOL    HW223934   1.395   0.400   4.420 -1.6520 -0.1889  3.2019
 4158SOL     OW23935   2.432   4.585  16.769 -0.0208  0.1908  0.3935
 4158SOL    HW123936   2.405   4.654  16.829 -0.8947 -0.0902  0.3259
 4158SOL    HW223937   2.449   4.637  16.691  0.8857 -1.4301 -0.5002
 4159SOL     OW23938   4.563   1.112   4.178  0.1820 -0.0877 -0.1218
 4159SOL    HW123939   4.638   1.073   4.223  2.3667  1.6382 -2.3279
 4159SOL    HW223940   4.598   1.141   4.094 -0.8253 -1.5274 -1.0410
 4160SOL     OW23941   1.862   0.729  10.359 -0.4383 -0.6016  0.1468
 4160SOL    HW123942   1.851   0.694  10.447 -1.5570  3.2622  1.5534
 4160SOL    HW223943   1.789   0.791  10.357  0.4301  0.4619  1.2490
 4161SOL     OW23944   1.595   3.146   1.261  0.0332  0.0049 -0.2796
 4161SOL    HW123945   1.666   3.138   1.326  0.4944  0.3274 -0.7437
 4161SOL    HW223946   1.520   3.144   1.321  1.9219 -1.2710  2.0647
 4162SOL     OW23947   2.318   0.934   1.676  0.0570 -0.9223 -0.0022
 4162SOL    HW123948   2.384   0.911   1.741  1.6635 -0.6503 -1.5443
 4162SOL    HW223949   2.320   0.861   1.614 -0.6177  0.4214 -1.5941
 4163SOL     OW23950   2.278   3.572   5.617 -0.7106 -0.6266  0.1334
 4163SOL    HW123951   2.278   3.500   5.554  0.0787  1.4385 -2.2542
 4163SOL    HW223952   2.213   3.633   5.581 -0.6937 -0.6863 -0.0007
 4164SOL     OW23953   4.313   0.763   8.406  0.0740  0.1565 -0.1130
 4164SOL    HW123954   4.338   0.698   8.471 -0.1049 -0.3248 -0.5189
 4164SOL    HW223955   4.225   0.732   8.387 -0.3294  2.1253 -1.4688
 4165SOL     OW23956   1.510   2.890   3.694  0.0356  0.2279 -0.1417
 4165SOL    HW123957   1.466   2.809   3.719 -0.3097  0.3454 -0.3568
 4165SOL    HW223958   1.578   2.859   3.634  0.7939 -0.8342  1.2874
 4166SOL     OW23959   1.289   1.321   7.991  0.7816 -0.4282  0.1268
 4166SOL    HW123960   1.304   1.369   7.910 -0.5136  0.1210  0.2221
 4166SOL    HW223961   1.351   1.249   7.985  0.6554 -0.7277  2.3557
 4167SOL     OW23962   1.685   2.789  11.318 -0.1504 -0.2638 -0.2626
 4167SOL    HW123963   1.734   2.811  11.239  1.5082 -0.3087  0.7530
 4167SOL    HW223964   1.726   2.704  11.333  0.4197 -0.1451 -1.2149
 4168SOL     OW23965   2.445   3.458   0.611  0.1328 -0.2496 -0.0925
 4168SOL    HW123966   2.535   3.439   0.637  0.6734 -1.2953 -2.6313
 4168SOL    HW223967   2.447   3.549   0.640  1.2403  0.1917 -1.5396
 4169SOL     OW23968   4.313   4.694  10.826  0.3434 -0.3478 -0.9101
 4169SOL    HW123969   4.373   0.008  10.893  0.6497 -4.5952  0.9786
 4169SOL    HW223970   4.358   4.611  10.806  1.2916 -1.0184  3.9372
 4170SOL     OW23971   2.331   0.881   1.197 -0.3151 -0.0866  0.5228
 4170SOL    HW123972   2.260   0.818   1.201 -0.2103 -0.3116 -1.2341
 4170SOL    HW223973   2.274   0.949   1.161 -0.0207 -0.5468 -0.7925
 4171SOL     OW23974   2.907   3.348  10.531 -0.1648  0.1875  0.7744
 4171SOL    HW123975   2.854   3.336  10.452  2.8468 -2.7114 -0.7841
 4171SOL    HW223976   2.860   3.423  10.567 -2.6115 -0.3128 -1.3410
 4172SOL     OW23977   2.244   2.719   2.911  0.2263  0.1045 -0.1448
 4172SOL    HW123978   2.260   2.625   2.918  0.5840  0.3161  2.1124
 4172SOL    HW223979   2.186   2.724   2.835 -1.3715 -1.8438  0.9390
 4173SOL     OW23980   2.598   3.777   9.568 -0.8552 -0.0713  0.3859
 4173SOL    HW123981   2.552   3.847   9.521 -2.3537 -1.0308  0.4522
 4173SOL    HW223982   2.639   3.727   9.498 -0.5097 -1.6733  1.7364
 4174SOL     OW23983   2.296   4.292   0.871 -0.2786  0.0909  0.3133
 4174SOL    HW123984   2.310   4.216   0.814 -0.2985 -0.8641  1.5830
 4174SOL    HW223985   2.381   4.336   0.867  0.0957 -0.3363  3.4388
 4175SOL     OW23986   1.490   3.098   3.917  0.2769  0.2271 -0.1961
 4175SOL    HW123987   1.564   3.037   3.922 -0.7056 -0.8672  0.8664
 4175SOL    HW223988   1.462   3.096   3.825 -1.0330  2.2572  0.1647
 4176SOL     OW23989   4.409   0.579   3.902 -0.2771  0.4563 -0.4954
 4176SOL    HW123990   4.341   0.576   3.969  1.5214 -0.6522  1.3021
 4176SOL    HW223991   4.486   0.541   3.946 -1.1661  0.3501  0.9719
 4177SOL     OW23992   2.814   0.459   2.260  0.8484  0.3334  0.1122
 4177SOL    HW123993   2.780   0.538   2.218  0.7188 -0.0609 -0.5090
 4177SOL    HW223994   2.892   0.430   2.213 -1.2389 -1.9739 -1.8607
 4178SOL     OW23995   0.252   2.784   2.049 -0.1456  0.5665 -0.7070
 4178SOL    HW123996   0.232   2.703   2.095  3.4366 -0.1449 -0.4047
 4178SOL    HW223997   0.190   2.787   1.976 -1.0016  2.9432  0.0939
 4179SOL     OW23998   3.171   3.307   9.248 -0.3656 -0.9050 -0.3225
 4179SOL    HW123999   3.236   3.241   9.272 -0.5815 -1.3581 -0.9875
 4179SOL    HW224000   3.084   3.274   9.271 -1.0481 -1.0257 -3.0187
 4180SOL     OW24001   2.177   4.549   9.141 -0.0735 -0.2632 -0.5292
 4180SOL    HW124002   2.211   4.614   9.080  1.0147  0.0600  0.4217
 4180SOL    HW224003   2.178   4.594   9.225 -3.0443 -0.4434 -0.4117
 4181SOL     OW24004   1.859   2.898  15.195  0.1136  0.8527 -0.1563
 4181SOL    HW124005   1.947   2.901  15.230 -1.0610  0.5354  2.8027
 4181SOL    HW224006   1.873   2.819  15.144 -0.5578  0.6439 -0.0249
 4182SOL     OW24007   4.333   3.777  12.536 -0.1941  0.6444  0.0752
 4182SOL    HW124008   4.338   3.823  12.620 -0.3634  0.1118  0.3758
 4182SOL    HW224009   4.342   3.688  12.569  0.7519  1.0449  0.9164
 4183SOL     OW24010   4.202   0.520   1.084 -0.1349  0.0609  0.1001
 4183SOL    HW124011   4.221   0.505   0.991 -1.8100  1.4491 -0.4686
 4183SOL    HW224012   4.112   0.549   1.069 -0.8457 -1.9728  0.4848
 4184SOL     OW24013   1.082   1.366   8.574  0.4839 -0.0066 -0.4586
 4184SOL    HW124014   1.031   1.377   8.493 -0.4426 -0.3247  0.0910
 4184SOL    HW224015   1.070   1.451   8.615  0.3161 -0.3321  0.1556
 4185SOL     OW24016   2.474   0.572  15.277  0.0590  0.3816 -0.1543
 4185SOL    HW124017   2.529   0.577  15.199  1.5775 -0.0365  0.8813
 4185SOL    HW224018   2.491   0.658  15.316 -1.1413  0.6233 -0.1707
 4186SOL     OW24019   0.016   3.298   6.459 -0.2035 -0.2433 -0.5480
 4186SOL    HW124020   0.093   3.340   6.497 -0.5427 -1.3361  1.3361
 4186SOL    HW224021   4.702   3.259   6.540 -0.7786  2.4461  0.4853
 4187SOL     OW24022   2.346   3.115   8.256 -0.0893  0.4738 -0.2633
 4187SOL    HW124023   2.382   3.034   8.221 -1.2243 -0.2210  0.2182
 4187SOL    HW224024   2.429   3.140   8.298  0.0381 -0.0121 -0.2311
 4188SOL     OW24025   2.862   2.610   2.391  0.1399  0.3248  0.1156
 4188SOL    HW124026   2.901   2.691   2.422 -0.4706  0.6590  0.0151
 4188SOL    HW224027   2.817   2.570   2.465  0.0435  0.0050 -0.1127
 4189SOL     OW24028   0.212   2.657   0.229 -0.3651 -0.2790  0.1009
 4189SOL    HW124029   0.123   2.624   0.244  0.5281 -2.7960 -0.1020
 4189SOL    HW224030   0.230   2.608   0.149 -0.2383 -2.3311  1.3954
 4190SOL     OW24031   1.793   1.933   3.941 -0.4467 -0.2366 -0.1442
 4190SOL    HW124032   1.724   1.880   3.980 -1.2749  1.0196  0.1086
 4190SOL    HW224033   1.764   2.023   3.952 -1.1453 -0.2499 -1.9005
 4191SOL     OW24034   4.699   1.047   3.341 -1.0042 -0.7139 -0.2582
 4191SOL    HW124035   4.624   1.021   3.287  0.1778  0.8437 -2.6782
 4191SOL    HW224036   4.699   1.140   3.320  0.9286 -0.3881  1.1683
 4192SOL     OW24037   1.096   3.450   4.668 -0.8237 -0.3582 -0.3781
 4192SOL    HW124038   1.135   3.369   4.635 -1.3519 -0.2209 -1.3194
 4192SOL    HW224039   1.140   3.475   4.750  1.7179 -0.9044 -1.5641
 4193SOL     OW24040   1.454   0.148   5.889  0.6576 -0.3069 -0.7554
 4193SOL    HW124041   1.373   0.100   5.875  1.2708 -0.8489 -2.4672
 4193SOL    HW224042   1.431   0.223   5.835 -0.8264 -0.3420 -0.1700
 4194SOL     OW24043   3.658   0.375   7.126 -0.3453 -0.3140 -0.0755
 4194SOL    HW124044   3.590   0.314   7.155  0.1316 -0.2272  1.2146
 4194SOL    HW224045   3.612   0.459   7.138  0.9288  0.4804 -0.8059
 4195SOL     OW24046   0.072   3.237   5.633  0.2040  0.4502 -0.1805
 4195SOL    HW124047   4.706   3.215   5.671  0.9014 -0.6956  0.6878
 4195SOL    HW224048   0.078   3.160   5.577 -1.7863  0.3996 -0.3362
 4196SOL     OW24049   0.743   4.577   7.632 -0.4099 -0.8549  0.2368
 4196SOL    HW124050   0.748   4.535   7.718  1.1878  0.5925  0.8460
 4196SOL    HW224051   0.832   4.556   7.604 -0.1234  0.3967  0.2226
 4197SOL     OW24052   1.737   4.140  12.625  0.0656 -0.1983 -0.7757
 4197SOL    HW124053   1.696   4.057  12.603 -1.3770  0.2755  0.1666
 4197SOL    HW224054   1.832   4.128  12.633 -0.0546  0.2127  1.2291
 4198SOL     OW24055   2.046   1.210   3.364  0.0274  0.4410 -0.2701
 4198SOL    HW124056   2.033   1.116   3.347 -0.3576  0.5784 -0.7224
 4198SOL    HW224057   2.005   1.224   3.449  0.3310  3.9775 -0.7005
 4199SOL     OW24058   0.033   0.416   6.425 -0.1886 -0.1407  0.5104
 4199SOL    HW124059   0.100   0.485   6.423 -0.8067  0.4590  0.7673
 4199SOL    HW224060   0.064   0.350   6.486 -1.4189  0.0560  1.3473
 4200SOL     OW24061   1.250   3.090   7.104  0.3201 -0.0698 -0.1616
 4200SOL    HW124062   1.188   3.021   7.078 -1.8336  2.4618 -1.6967
 4200SOL    HW224063   1.255   3.064   7.196  2.0686 -0.4793 -0.3732
 4201SOL     OW24064   2.629   1.424   2.439  0.2126 -0.4439 -0.2266
 4201SOL    HW124065   2.669   1.417   2.352  2.1408 -0.5750  0.6861
 4201SOL    HW224066   2.580   1.505   2.424  1.2774  0.3531  0.5678
 4202SOL     OW24067   4.412   4.409   9.251 -0.0117  0.7620 -0.1955
 4202SOL    HW124068   4.430   4.365   9.334 -1.3024 -0.9658 -0.8421
 4202SOL    HW224069   4.319   4.428   9.240 -0.1111 -0.4265 -1.3397
 4203SOL     OW24070   2.714   3.141   8.012 -0.7851  0.0126  0.4506
 4203SOL    HW124071   2.745   3.093   8.088  0.7604 -0.1995 -0.3128
 4203SOL    HW224072   2.701   3.065   7.956 -1.5774  1.4581 -1.3519
 4204SOL     OW24073   0.515   2.735   5.766  0.3036 -0.7503  0.6422
 4204SOL    HW124074   0.420   2.739   5.752  0.5225  0.8116 -0.3727
 4204SOL    HW224075   0.532   2.663   5.827 -0.4138 -2.6970 -1.4853
 4205SOL     OW24076   0.009   1.643   9.549 -0.0535  0.3030  0.4770
 4205SOL    HW124077   4.711   1.678   9.636 -0.2719  0.2328  0.4624
 4205SOL    HW224078   0.101   1.618   9.558  0.5034  1.1583 -2.9795
 4206SOL     OW24079   1.937   0.533  14.058  0.1307  0.2278  0.4032
 4206SOL    HW124080   1.923   0.440  14.039 -2.4072  0.5196  0.8994
 4206SOL    HW224081   1.884   0.553  14.135 -1.1919 -1.2860 -0.1160
 4207SOL     OW24082   3.701   4.148   3.011 -0.5161 -0.6553 -0.0512
 4207SOL    HW124083   3.633   4.196   3.058 -0.3229  0.5921 -1.0533
 4207SOL    HW224084   3.689   4.182   2.923  0.6060 -1.2405 -0.4295
 4208SOL     OW24085   3.369   0.084   3.652  0.1032 -0.2573  0.3770
 4208SOL    HW124086   3.462   0.105   3.644  0.5908 -1.5186  2.9339
 4208SOL    HW224087   3.348   0.107   3.742  2.5216 -1.8315  1.3129
 4209SOL     OW24088   4.454   0.906   3.878  0.2220  0.2694  0.2212
 4209SOL    HW124089   4.412   0.949   3.952  3.6195  2.1864  1.0631
 4209SOL    HW224090   4.391   0.836   3.861  0.8437  0.2349 -1.8859
 4210SOL     OW24091   1.041   1.929   6.841  0.7058 -0.5359 -0.1211
 4210SOL    HW124092   0.991   1.889   6.770 -1.4706 -0.2622  1.2652
 4210SOL    HW224093   0.973   1.976   6.890  0.6596  0.2548 -0.9445
 4211SOL     OW24094   2.542   2.561  10.627 -0.5470  0.0665  0.5420
 4211SOL    HW124095   2.623   2.576  10.577 -0.6308  1.8355  0.9513
 4211SOL    HW224096   2.528   2.652  10.652 -0.9564  0.6306 -1.8074
 4212SOL     OW24097   3.560   0.988   4.854  0.2653  0.6619 -0.1978
 4212SOL    HW124098   3.562   1.049   4.780  1.6619  1.5669  0.5830
 4212SOL    HW224099   3.472   0.996   4.890  0.2816  0.7411 -0.1744
 4213SOL     OW24100   0.004   4.367   3.965 -0.4337 -0.3566 -0.6410
 4213SOL    HW124101   4.637   4.361   4.006  0.3447  1.4174  1.2508
 4213SOL    HW224102   0.044   4.428   4.027  0.1172  0.0290 -1.3874
 4214SOL     OW24103   2.022   3.740  12.430  0.2463  0.5954 -0.3369
 4214SOL    HW124104   1.979   3.824  12.414  0.8807  1.4298  2.2826
 4214SOL    HW224105   1.963   3.699  12.494  0.4281 -0.5493 -0.9033
 4215SOL     OW24106   3.235   1.233   7.659 -0.0711  0.1742 -0.7762
 4215SOL    HW124107   3.259   1.150   7.701 -1.0085 -0.2780 -1.1183
 4215SOL    HW224108   3.221   1.283   7.739 -0.6103  1.7350 -1.8336
 4216SOL     OW24109   1.812   1.047  10.185  0.4913 -0.0099 -0.2442
 4216SOL    HW124110   1.802   1.110  10.257 -2.8136  1.1146 -1.6760
 4216SOL    HW224111   1.724   1.015  10.166  1.5402 -2.1494 -1.4425
 4217SOL     OW24112   1.910   0.152   4.458 -0.3752  0.3934 -0.6717
 4217SOL    HW124113   1.878   0.161   4.548 -1.3344 -0.7964 -0.8933
 4217SOL    HW224114   1.828   0.134   4.411 -1.1001 -2.1975  1.5844
 4218SOL     OW24115   1.196   0.371  11.167  0.4927 -0.0789  0.2527
 4218SOL    HW124116   1.182   0.321  11.087 -0.7933  1.1074 -0.2652
 4218SOL    HW224117   1.291   0.380  11.169  0.5589 -0.5258 -1.6841
 4219SOL     OW24118   0.199   1.832   7.933  0.1219  0.2752  0.0211
 4219SOL    HW124119   0.175   1.906   7.989 -0.1882 -1.0656  1.6209
 4219SOL    HW224120   0.255   1.876   7.868  0.4540  0.1672  0.2352
 4220SOL     OW24121   4.013   0.616   4.016  0.0443 -0.3643 -0.0556
 4220SOL    HW124122   4.094   0.565   4.024 -0.6236 -0.9808  2.9482
 4220SOL    HW224123   4.032   0.701   4.056  0.0370 -0.6105  0.4764
 4221SOL     OW24124   3.947   4.600   6.716  0.3856  0.3334 -0.3374
 4221SOL    HW124125   3.971   4.532   6.653 -2.3551 -1.0887  0.1349
 4221SOL    HW224126   3.900   4.546   6.780 -1.6580  1.0306 -1.2258
 4222SOL     OW24127   4.354   4.423  14.012 -0.0814 -0.1656  0.0744
 4222SOL    HW124128   4.432   4.410  13.958 -0.3525  0.8050 -0.5606
 4222SOL    HW224129   4.356   4.367  14.089  1.7010  0.4723  0.4820
 4223SOL     OW24130   2.636   3.955   1.378  0.6017  0.4678  0.5669
 4223SOL    HW124131   2.644   4.016   1.451 -1.8455  1.4554  0.0137
 4223SOL    HW224132   2.713   3.979   1.327 -0.4350  1.8428 -0.3447
 4224SOL     OW24133   1.410   2.028   1.664 -0.1379  0.6576  0.1239
 4224SOL    HW124134   1.441   1.950   1.617  0.2256  0.7029  0.2842
 4224SOL    HW224135   1.354   1.994   1.735  0.4421 -0.0435  0.2458
 4225SOL     OW24136   2.213   4.305   8.791 -0.4319  0.5545  0.0009
 4225SOL    HW124137   2.140   4.326   8.850 -0.2549 -0.8451  0.7427
 4225SOL    HW224138   2.275   4.372   8.820  0.3809 -0.4632  0.6057
 4226SOL     OW24139   1.925   3.673  17.644  0.3416 -0.2107  1.0630
 4226SOL    HW124140   1.862   3.707   0.027 -1.0483 -0.3504 -0.2154
 4226SOL    HW224141   2.004   3.721  17.664  1.0843 -0.7397 -0.6054
 4227SOL     OW24142   2.364   2.024   7.118 -0.5404 -0.6424  0.0956
 4227SOL    HW124143   2.448   2.050   7.156  1.4544 -2.6896 -2.9763
 4227SOL    HW224144   2.313   2.103   7.134  1.5330  0.7659 -0.2639
 4228SOL     OW24145   1.549   2.810   0.129 -0.2160 -1.3296  0.0354
 4228SOL    HW124146   1.534   2.723   0.166 -2.1237  0.0268  2.4321
 4228SOL    HW224147   1.477   2.832   0.070  1.2674 -1.1331 -1.7315
 4229SOL     OW24148   3.097   3.622   7.818  0.3351  0.6187 -0.3677
 4229SOL    HW124149   3.105   3.681   7.743  0.8797  0.6167 -0.3101
 4229SOL    HW224150   3.150   3.550   7.784 -1.1369  0.0486 -1.4315
 4230SOL     OW24151   4.453   1.988   7.697 -0.1587  0.1226 -0.7391
 4230SOL    HW124152   4.423   2.018   7.611  0.7450  0.9264 -0.7797
 4230SOL    HW224153   4.467   2.070   7.745  1.2204  0.4944 -1.7419
 4231SOL     OW24154   2.603   3.603   7.006 -0.3520  0.3167 -0.6308
 4231SOL    HW124155   2.531   3.550   6.972 -0.4042 -0.3308  0.4901
 4231SOL    HW224156   2.666   3.621   6.936 -0.8092  4.4358  0.0116
 4232SOL     OW24157   0.688   0.798   8.327 -0.0330 -0.3428 -0.7579
 4232SOL    HW124158   0.602   0.833   8.351  0.4644  0.2725  0.1261
 4232SOL    HW224159   0.756   0.861   8.351  0.4492 -1.4120  0.7062
 4233SOL     OW24160   3.895   0.135   6.913  0.7443  0.1901 -0.0763
 4233SOL    HW124161   3.918   0.105   6.825  1.6963  0.4851  0.0746
 4233SOL    HW224162   3.956   0.074   6.954  0.0997 -0.4532 -0.0832
 4234SOL     OW24163   1.225   4.460  11.911  0.4265  0.1858 -0.9833
 4234SOL    HW124164   1.262   4.545  11.885 -0.2780  0.7966 -0.0090
 4234SOL    HW224165   1.135   4.458  11.880  1.1361  1.7976 -3.1508
 4235SOL     OW24166   2.398   3.519   8.279  0.0255 -0.0837  0.4260
 4235SOL    HW124167   2.481   3.471   8.281  0.4224  0.5473 -0.9477
 4235SOL    HW224168   2.331   3.458   8.311 -0.0698  2.2782  4.7523
 4236SOL     OW24169   1.475   3.192   8.553  0.1367 -0.1538  0.5733
 4236SOL    HW124170   1.387   3.194   8.592  1.2209  0.5215  3.0058
 4236SOL    HW224171   1.524   3.172   8.633 -0.3005 -0.6697  0.7171
 4237SOL     OW24172   0.546   4.660  14.102  0.2753  0.5076  0.7192
 4237SOL    HW124173   0.621   4.616  14.062 -0.7876 -1.7564  1.1834
 4237SOL    HW224174   0.474   4.598  14.090  2.5235 -1.8691 -0.6573
 4238SOL     OW24175   4.107   4.166   5.124  0.6171 -0.2860  0.0345
 4238SOL    HW124176   4.098   4.075   5.098 -0.1923 -0.3852  0.6462
 4238SOL    HW224177   4.093   4.169   5.219 -1.6425 -1.5492 -0.2618
 4239SOL     OW24178   4.689   4.142   6.796  0.3984 -0.0475  0.2941
 4239SOL    HW124179   0.026   4.216   6.772 -0.1664 -0.4870 -2.3828
 4239SOL    HW224180   4.600   4.177   6.788  0.0172 -0.7894  1.3436
 4240SOL     OW24181   3.585   4.074   4.887 -0.1323 -0.7322 -0.5388
 4240SOL    HW124182   3.551   3.986   4.904  0.9557 -0.8510  1.0710
 4240SOL    HW224183   3.555   4.092   4.798 -0.0064  0.6708 -0.2990
 4241SOL     OW24184   4.409   1.599   1.626  0.2663  0.2855  0.5939
 4241SOL    HW124185   4.441   1.663   1.562 -0.9461  0.2271 -0.0770
 4241SOL    HW224186   4.483   1.539   1.622 -0.5088 -0.8884  3.6436
 4242SOL     OW24187   2.794   2.045   2.245  0.3526 -0.5309  0.0577
 4242SOL    HW124188   2.758   2.086   2.166  1.7713  1.6942  0.5597
 4242SOL    HW224189   2.708   2.015   2.276  0.9793 -2.1198  0.2518
 4243SOL     OW24190   2.948   2.179   8.268  0.1572 -0.5770  0.2802
 4243SOL    HW124191   2.945   2.083   8.275 -1.4563 -0.7023 -1.9125
 4243SOL    HW224192   2.952   2.211   8.358  0.8697 -1.6405  0.6261
 4244SOL     OW24193   2.446   4.444   7.457 -0.6472 -0.1958  0.1963
 4244SOL    HW124194   2.481   4.468   7.543 -2.1234  2.1683  0.1266
 4244SOL    HW224195   2.354   4.454   7.481  0.4428  0.6327  4.0381
 4245SOL     OW24196   2.188   2.242   7.476 -0.5368  0.1465  0.2684
 4245SOL    HW124197   2.130   2.238   7.400 -0.1921  1.4807 -0.0763
 4245SOL    HW224198   2.242   2.165   7.457  0.0225  0.7177 -0.4657
 4246SOL     OW24199   1.708   3.661   5.386  0.4467 -0.1083  0.2558
 4246SOL    HW124200   1.623   3.638   5.424  1.0586 -0.6489  1.2598
 4246SOL    HW224201   1.717   3.754   5.407 -0.3438 -0.2587  1.2629
 4247SOL     OW24202   2.789   0.609   7.441  0.5792 -0.3799 -0.7443
 4247SOL    HW124203   2.883   0.596   7.453  0.6988  2.0688  0.8730
 4247SOL    HW224204   2.787   0.649   7.354  1.0137  3.1148  0.8768
 4248SOL     OW24205   2.125   3.782  16.285  0.4127 -0.4674 -0.0298
 4248SOL    HW124206   2.037   3.763  16.317  0.6059 -1.4355 -0.0960
 4248SOL    HW224207   2.149   3.724  16.213  0.7915  0.7368 -0.8827
 4249SOL     OW24208   0.784   2.240   6.518 -0.4630 -0.2458  0.7478
 4249SOL    HW124209   0.853   2.194   6.469  0.5594  0.3970  1.5836
 4249SOL    HW224210   0.737   2.177   6.571 -1.1696 -0.1677  0.2137
 4250SOL     OW24211   3.580   2.242  11.755 -0.1710 -0.4290 -0.1438
 4250SOL    HW124212   3.625   2.321  11.724  1.8080 -0.7199  2.0074
 4250SOL    HW224213   3.521   2.223  11.682 -1.2821  0.6225  0.4812
 4251SOL     OW24214   4.575   1.719  17.173  0.0352 -0.1894  0.2265
 4251SOL    HW124215   4.660   1.718  17.215  0.2902 -3.3116 -0.3643
 4251SOL    HW224216   4.580   1.799  17.119 -2.7927 -0.2367 -0.1477
 4252SOL     OW24217   2.856   2.642   3.031 -0.5040 -0.3425 -1.0381
 4252SOL    HW124218   2.947   2.615   3.023 -0.3159  0.3860 -1.2937
 4252SOL    HW224219   2.807   2.560   3.040  2.0934 -1.5432  1.8787
 4253SOL     OW24220   2.441   3.752   0.970  0.4781  0.0563  0.4910
 4253SOL    HW124221   2.522   3.753   1.022 -0.4198  2.2950  1.8645
 4253SOL    HW224222   2.382   3.716   1.036 -0.8446 -0.5005 -1.0010
 4254SOL     OW24223   0.880   0.279   6.345  0.6089  0.0775  0.2491
 4254SOL    HW124224   0.908   0.368   6.368 -1.8896  1.0891 -0.5821
 4254SOL    HW224225   0.809   0.264   6.407 -0.4095 -0.3600 -1.0222
 4255SOL     OW24226   2.554   2.863   6.270 -0.1321 -0.2225  0.3877
 4255SOL    HW124227   2.486   2.816   6.319  0.4423 -0.5656  0.8646
 4255SOL    HW224228   2.597   2.908   6.343 -0.8940 -0.8489  1.2342
 4256SOL     OW24229   4.073   2.380   8.969  0.6622  0.0932 -0.0579
 4256SOL    HW124230   3.996   2.434   8.953 -0.8856 -1.5973  1.6327
 4256SOL    HW224231   4.064   2.312   8.902  0.2447  1.0832 -1.0070
 4257SOL     OW24232   3.674   0.518  10.748  0.2612  0.1848  0.4806
 4257SOL    HW124233   3.756   0.546  10.706  0.2270  0.1295  0.3784
 4257SOL    HW224234   3.626   0.494  10.669  1.3978 -2.5378  0.5891
 4258SOL     OW24235   2.178   0.448   2.945 -0.1118  0.4831  0.0411
 4258SOL    HW124236   2.229   0.510   2.996 -1.4566  0.4323  1.4295
 4258SOL    HW224237   2.139   0.391   3.012 -1.3506  2.6415  1.1276
 4259SOL     OW24238   1.102   2.336   1.083  0.0131 -0.1576 -0.0707
 4259SOL    HW124239   1.103   2.255   1.135  0.6424 -1.1187 -1.5735
 4259SOL    HW224240   1.062   2.390   1.150 -0.6086 -2.3841  1.3628
 4260SOL     OW24241   2.495   1.658   1.243  0.4776  0.0697 -0.6632
 4260SOL    HW124242   2.423   1.652   1.180 -1.7581 -2.5824  2.2046
 4260SOL    HW224243   2.537   1.743   1.230  1.7482 -0.5452 -0.6599
 4261SOL     OW24244   2.186   2.751  13.094  0.2714 -0.0816  0.0289
 4261SOL    HW124245   2.098   2.713  13.102  0.6100 -0.7061  0.7832
 4261SOL    HW224246   2.219   2.753  13.184  2.4864  0.3789 -0.8106
 4262SOL     OW24247   1.926   2.047   6.968  0.0735 -0.2359 -0.3653
 4262SOL    HW124248   1.877   1.973   6.931 -0.8180 -0.2548  0.8317
 4262SOL    HW224249   1.927   2.114   6.900  2.9424  0.3046  0.2286
 4263SOL     OW24250   3.585   3.417   1.281 -0.1082  0.1877 -0.6127
 4263SOL    HW124251   3.681   3.411   1.281 -0.0514  0.9511  1.4764
 4263SOL    HW224252   3.577   3.390   1.190  0.1072  0.4321 -0.7018
 4264SOL     OW24253   2.203   4.462   7.956 -0.1608 -0.1515  0.0299
 4264SOL    HW124254   2.139   4.392   7.970 -0.2839 -0.0709 -0.1380
 4264SOL    HW224255   2.149   4.519   7.901 -0.8522 -0.5180  0.3281
 4265SOL     OW24256   4.408   1.878  10.092 -0.3712  0.0710  0.2891
 4265SOL    HW124257   4.425   1.783  10.096 -0.5403  0.0437  0.3702
 4265SOL    HW224258   4.319   1.879  10.058 -0.5786 -0.5764  0.8044
 4266SOL     OW24259   2.258   1.890   3.262  0.1239  0.5933  0.0967
 4266SOL    HW124260   2.222   1.970   3.300 -2.2178 -0.5409  0.2215
 4266SOL    HW224261   2.184   1.832   3.251  1.9268 -1.5265 -0.8476
 4267SOL     OW24262   2.113   0.103   3.876  0.0064  0.1239 -0.1844
 4267SOL    HW124263   2.106   0.008   3.884 -4.0810  0.7347  2.9873
 4267SOL    HW224264   2.206   0.124   3.884  0.1306 -0.9546  1.1176
 4268SOL     OW24265   0.799   1.800   6.516  0.1425  0.1754  0.2217
 4268SOL    HW124266   0.736   1.843   6.457 -0.1184  0.8061  0.9640
 4268SOL    HW224267   0.768   1.834   6.600  0.6160 -1.0825  0.8997
 4269SOL     OW24268   3.084   3.411  14.475 -0.2735  0.3835 -0.0968
 4269SOL    HW124269   3.115   3.489  14.430 -2.4093  2.0714  1.3682
 4269SOL    HW224270   3.161   3.354  14.482 -1.2004 -0.6880  1.3344
 4270SOL     OW24271   3.001   3.500  12.481 -0.2657  0.3367  0.2157
 4270SOL    HW124272   3.076   3.492  12.422  0.8651  2.8188  1.3369
 4270SOL    HW224273   3.021   3.580  12.529  0.2379 -0.4903  1.3863
 4271SOL     OW24274   3.538   0.417  15.289  0.2479  0.8229  0.0069
 4271SOL    HW124275   3.509   0.367  15.366  0.2629 -1.7329 -1.6541
 4271SOL    HW224276   3.477   0.490  15.297 -0.1533  0.5900 -1.0087
 4272SOL     OW24277   3.143   1.567  12.725 -0.6873 -0.0537 -0.1743
 4272SOL    HW124278   3.142   1.527  12.812 -0.6080  0.0071 -0.1454
 4272SOL    HW224279   3.172   1.654  12.752 -0.3303  0.0633 -0.9579
 4273SOL     OW24280   4.021   4.411  12.345  0.3131  0.5385  0.2348
 4273SOL    HW124281   4.106   4.427  12.304  0.6884  1.0369  1.2201
 4273SOL    HW224282   4.038   4.332  12.396  0.4376 -0.6740 -1.6756
 4274SOL     OW24283   3.703   1.144  11.919  0.3170  0.8357  0.6094
 4274SOL    HW124284   3.781   1.190  11.889 -0.1983  1.3164  0.0219
 4274SOL    HW224285   3.665   1.206  11.981  2.6608  1.6354  1.2324
 4275SOL     OW24286   0.883   2.033  11.393 -0.2869 -0.2194 -0.1751
 4275SOL    HW124287   0.824   2.102  11.426  1.2745  1.3423 -0.6489
 4275SOL    HW224288   0.826   1.960  11.416 -0.6805 -0.4647 -1.9575
 4276SOL     OW24289   3.853   3.905   5.184  0.1387 -0.0456  0.3186
 4276SOL    HW124290   3.841   3.903   5.089  3.2952  0.5255 -0.0977
 4276SOL    HW224291   3.764   3.927   5.210 -0.0600 -0.3333 -0.1000
 4277SOL     OW24292   0.496   3.524   0.859  0.0819  0.1302 -0.4565
 4277SOL    HW124293   0.481   3.502   0.767 -0.8833  1.8743 -0.7246
 4277SOL    HW224294   0.522   3.436   0.887  1.3251  0.3316 -0.9988
 4278SOL     OW24295   4.183   2.833   2.491 -0.3629  0.1811 -0.4137
 4278SOL    HW124296   4.114   2.823   2.425 -1.2107  1.5824  0.2658
 4278SOL    HW224297   4.176   2.754   2.543  1.8204  0.6163  0.5281
 4279SOL     OW24298   4.053   3.756   6.198  0.5541  0.1628 -0.1082
 4279SOL    HW124299   4.023   3.844   6.220  0.1260  1.0347 -4.0974
 4279SOL    HW224300   4.122   3.745   6.263  0.6607  0.0040 -0.2482
 4280SOL     OW24301   4.473   0.185   9.814 -0.4299  0.2197 -0.2865
 4280SOL    HW124302   4.413   0.168   9.742 -2.1389 -2.0174  1.6506
 4280SOL    HW224303   4.555   0.210   9.772  0.5500 -0.4837  1.2014
 4281SOL     OW24304   4.488   4.276  16.077  0.2241  0.2936  0.4432
 4281SOL    HW124305   4.578   4.301  16.097  0.1646 -0.3027  1.4455
 4281SOL    HW224306   4.451   4.333  16.145 -1.7456  0.8304 -1.0876
 4282SOL     OW24307   3.274   1.528   7.238 -0.5383 -0.1833  0.4980
 4282SOL    HW124308   3.189   1.526   7.283 -1.0851  0.2013 -0.5114
 4282SOL    HW224309   3.294   1.439   7.267 -2.1436 -1.6185 -2.7701
 4283SOL     OW24310   0.777   1.441   7.408 -0.3169  0.4255  0.2042
 4283SOL    HW124311   0.850   1.414   7.463 -0.7163  0.1613  0.6064
 4283SOL    HW224312   0.765   1.530   7.443  0.2158 -0.0748  1.6387
 4284SOL     OW24313   0.786   2.603   0.120 -0.1860 -0.1861 -0.2042
 4284SOL    HW124314   0.711   2.544   0.109  0.1960 -1.3342  3.6944
 4284SOL    HW224315   0.775   2.661   0.044  0.1952  1.5856  1.0735
 4285SOL     OW24316   2.256   1.678   1.448 -0.0494  0.5567  0.3059
 4285SOL    HW124317   2.165   1.694   1.471 -0.1846  1.4330 -0.8120
 4285SOL    HW224318   2.247   1.654   1.356  0.2515  0.4983  0.2910
 4286SOL     OW24319   2.105   2.152   2.891 -0.0017  0.6341 -0.1084
 4286SOL    HW124320   2.195   2.121   2.902 -0.1006  0.1841 -0.6000
 4286SOL    HW224321   2.090   2.175   2.799 -0.5176 -0.1253 -0.2095
 4287SOL     OW24322   4.101   3.640   3.918  0.3198 -0.2105 -0.2363
 4287SOL    HW124323   4.097   3.681   3.832  1.0869  0.9655  0.2755
 4287SOL    HW224324   4.012   3.667   3.944  0.3534  0.3021 -0.6525
 4288SOL     OW24325   1.866   3.468   3.081  0.2808  0.1407  0.0603
 4288SOL    HW124326   1.918   3.546   3.064  0.5788 -0.2564 -0.8467
 4288SOL    HW224327   1.865   3.452   3.176 -0.7867 -2.9020 -0.4651
 4289SOL     OW24328   1.598   4.092  16.863  0.2973  0.3087  0.2408
 4289SOL    HW124329   1.623   4.048  16.781 -0.8219  1.0754 -0.5137
 4289SOL    HW224330   1.539   4.031  16.908  2.0456 -0.7165  1.1277
 4290SOL     OW24331   0.293   0.642   3.333 -0.0418 -0.4321  0.1842
 4290SOL    HW124332   0.260   0.723   3.371  1.8005  0.7377 -0.6933
 4290SOL    HW224333   0.343   0.611   3.408  0.0914 -0.8841 -0.0863
 4291SOL     OW24334   3.052   0.702   7.712 -0.6773 -0.1869  0.0634
 4291SOL    HW124335   3.049   0.775   7.651 -1.9035  0.4350  0.8661
 4291SOL    HW224336   3.112   0.735   7.779 -1.1649 -1.5157  1.1621
 4292SOL     OW24337   4.188   3.592  15.419 -0.0939 -0.1712  0.4204
 4292SOL    HW124338   4.104   3.637  15.408 -0.4934 -1.1952 -0.7162
 4292SOL    HW224339   4.165   3.501  15.436  0.8086 -0.3782  0.5308
 4293SOL     OW24340   4.360   3.981   6.917  0.1403  0.8257 -0.5121
 4293SOL    HW124341   4.439   4.008   6.963 -0.9790  0.8961  1.3790
 4293SOL    HW224342   4.282   4.020   6.957  0.0049  0.0293 -0.0146
 4294SOL     OW24343   4.454   2.086   4.930  0.4555  0.4845 -0.3003
 4294SOL    HW124344   4.415   2.008   4.890  0.9668 -0.1339  0.4172
 4294SOL    HW224345   4.457   2.133   4.846  3.2844  1.3341  0.2706
 4295SOL     OW24346   2.211   1.698   6.099 -0.3250 -0.9453 -0.0959
 4295SOL    HW124347   2.272   1.655   6.159 -1.0518 -1.1085  0.5327
 4295SOL    HW224348   2.206   1.634   6.028 -0.3834  0.4469 -1.3358
 4296SOL     OW24349   0.202   4.467  10.502 -0.1877 -0.3624  0.1067
 4296SOL    HW124350   0.176   4.559  10.491 -2.0367 -0.5656  2.8238
 4296SOL    HW224351   0.173   4.447  10.591  1.3693  0.6520  0.8338
 4297SOL     OW24352   3.107   3.215   8.929 -0.1100  0.1154 -0.1143
 4297SOL    HW124353   3.183   3.179   8.973 -0.9094 -1.7947 -0.2940
 4297SOL    HW224354   3.044   3.144   8.946 -1.2808  0.8207 -1.4966
 4298SOL     OW24355   2.016   4.652   5.942 -0.1704  0.3275 -0.1180
 4298SOL    HW124356   1.978   0.011   5.902 -1.8969 -0.3539  0.1840
 4298SOL    HW224357   2.008   4.578   5.882  2.1061 -1.4312  1.7657
 4299SOL     OW24358   1.907   2.127   2.194  0.2692 -0.3643  0.8322
 4299SOL    HW124359   1.960   2.179   2.133  0.1590 -1.3405 -0.0935
 4299SOL    HW224360   1.950   2.140   2.278  0.0835  0.5238  0.7945
 4300SOL     OW24361   0.834   3.679   7.242  0.2269 -0.3133 -0.0629
 4300SOL    HW124362   0.820   3.758   7.294  0.4114 -1.2205  1.3674
 4300SOL    HW224363   0.744   3.663   7.213 -0.0226  0.3177  0.3580
 4301SOL     OW24364   0.517   1.885   2.971 -0.1771 -0.0406 -0.7133
 4301SOL    HW124365   0.509   1.864   2.878 -1.6205 -1.5673 -0.2384
 4301SOL    HW224366   0.427   1.909   2.995  0.3540  1.1241  0.1182
 4302SOL     OW24367   1.159   1.898   4.082 -0.0099  0.0560 -0.0631
 4302SOL    HW124368   1.159   1.957   4.157  0.1980 -0.7193  0.5450
 4302SOL    HW224369   1.153   1.960   4.010  3.2030 -1.1413 -1.3670
 4303SOL     OW24370   2.717   0.939   2.919  0.1775 -0.6707  0.3320
 4303SOL    HW124371   2.666   1.020   2.926  0.5893 -0.2332 -1.6517
 4303SOL    HW224372   2.804   0.978   2.924  0.1228 -0.5599  0.4212
 4304SOL     OW24373   0.017   2.992   9.320  0.5722 -0.5550  0.6753
 4304SOL    HW124374   0.014   3.065   9.258  2.4863  0.0900  1.3485
 4304SOL    HW224375   0.111   2.975   9.324  0.4693 -1.1509  0.5617
 4305SOL     OW24376   2.280   0.925   5.772  0.0697  0.8045 -0.3900
 4305SOL    HW124377   2.309   0.834   5.762 -0.6775  0.1904  2.9331
 4305SOL    HW224378   2.364   0.966   5.795  0.1000  1.2733 -1.3312
 4306SOL     OW24379   0.457   1.212   9.097 -0.3013 -0.7707  0.3093
 4306SOL    HW124380   0.417   1.266   9.028 -1.8091 -1.3863  0.6961
 4306SOL    HW224381   0.385   1.153   9.118  0.6038 -1.3235  1.8296
 4307SOL     OW24382   3.640   2.986  14.605 -0.0749  0.9641 -0.0642
 4307SOL    HW124383   3.676   2.990  14.517  2.6654  0.7593  1.0274
 4307SOL    HW224384   3.712   2.986  14.669  0.7937  2.2948 -1.0337
 4308SOL     OW24385   3.181   0.727   6.606 -0.5872 -0.3844  0.3121
 4308SOL    HW124386   3.120   0.654   6.616  1.0452 -1.7313  0.3112
 4308SOL    HW224387   3.209   0.730   6.697 -3.4112 -1.3835  1.2033
 4309SOL     OW24388   3.274   2.805  12.441  0.9008 -0.1310 -0.5803
 4309SOL    HW124389   3.347   2.808  12.380  1.7122  2.3688  0.4842
 4309SOL    HW224390   3.330   2.823  12.517  1.2756 -0.9939 -0.6517
 4310SOL     OW24391   4.490   1.931   8.288  0.2246  0.2348 -0.5698
 4310SOL    HW124392   4.481   1.936   8.193 -1.2803 -1.6021 -0.5325
 4310SOL    HW224393   4.574   1.885   8.292  0.4583  0.6811 -0.4083
 4311SOL     OW24394   4.238   2.007   4.247  0.3714  0.2386 -0.0422
 4311SOL    HW124395   4.332   2.005   4.226 -0.0788 -0.7554 -1.9679
 4311SOL    HW224396   4.224   2.036   4.337  0.7419 -3.4896  1.1970
 4312SOL     OW24397   0.662   3.894   8.440  0.1877  0.2982  0.7615
 4312SOL    HW124398   0.623   3.982   8.437  1.6399  0.8806 -0.8690
 4312SOL    HW224399   0.616   3.856   8.514 -0.6656 -0.8918 -0.3843
 4313SOL     OW24400   4.553   4.632  12.167 -0.0561  0.9928 -0.2671
 4313SOL    HW124401   4.635   4.587  12.187 -0.3815  0.2138 -0.6960
 4313SOL    HW224402   4.560   4.640  12.072 -1.0657  4.5546 -0.0655
 4314SOL     OW24403   3.831   2.272  14.754  0.3842 -0.5308  0.4871
 4314SOL    HW124404   3.913   2.226  14.770  0.5258 -0.3311  0.3420
 4314SOL    HW224405   3.845   2.309  14.666 -0.6532 -0.1961  0.4599
 4315SOL     OW24406   4.101   4.100   3.676  0.0650 -0.4104  0.5290
 4315SOL    HW124407   4.166   4.168   3.658  0.8910 -0.8742  1.7419
 4315SOL    HW224408   4.030   4.125   3.617  1.7001  0.0592 -1.2459
 4316SOL     OW24409   2.411   2.935   4.913  0.1643  0.4200  0.1197
 4316SOL    HW124410   2.326   2.919   4.954  0.4684 -1.3423  0.0411
 4316SOL    HW224411   2.385   2.981   4.834  0.8187  0.5204 -0.0299
 4317SOL     OW24412   0.707   0.508   3.059  0.6568 -0.3088 -0.8294
 4317SOL    HW124413   0.763   0.523   2.983  1.5304  1.0060  0.0589
 4317SOL    HW224414   0.674   0.420   3.042 -0.1534  0.2433 -2.1414
 4318SOL     OW24415   3.923   3.832   9.019  0.1759 -0.4801 -0.6696
 4318SOL    HW124416   3.936   3.890   8.944  0.1873  0.4372  0.0436
 4318SOL    HW224417   3.830   3.812   9.014  0.0424 -0.0348  0.0028
 4319SOL     OW24418   0.717   0.164   2.834 -0.0030  0.3201 -0.0819
 4319SOL    HW124419   0.649   0.212   2.787  0.6876  0.8653 -0.5199
 4319SOL    HW224420   0.697   0.183   2.926  1.3739 -1.7640  0.6557
 4320SOL     OW24421   0.593   0.164   8.275 -0.5411  0.1480 -0.0108
 4320SOL    HW124422   0.519   0.190   8.220  1.0680  1.7759 -1.3603
 4320SOL    HW224423   0.561   0.182   8.364 -0.4128  0.0645  0.0520
 4321SOL     OW24424   1.039   0.887   6.116 -0.3420  0.5987  0.2025
 4321SOL    HW124425   1.026   0.982   6.112  1.0153  0.7330 -1.2501
 4321SOL    HW224426   1.135   0.879   6.113 -0.2371  1.6000  0.8797
 4322SOL     OW24427   3.940   0.103   4.711 -0.7643 -0.1286 -0.8116
 4322SOL    HW124428   3.850   0.081   4.737  0.4253 -2.8502  0.8856
 4322SOL    HW224429   3.954   0.181   4.765  0.6944  0.1698 -1.6375
 4323SOL     OW24430   3.267   4.134  11.763  0.2279 -0.6535  0.9562
 4323SOL    HW124431   3.245   4.070  11.695 -0.3308  0.8818 -0.3025
 4323SOL    HW224432   3.197   4.140  11.827 -0.5564  1.2113 -0.0815
 4324SOL     OW24433   4.293   3.023   5.732  0.2494 -0.5409 -0.4771
 4324SOL    HW124434   4.218   3.034   5.674  0.2442  0.1226 -0.3456
 4324SOL    HW224435   4.245   3.034   5.814  2.2085 -1.0558  0.7328
 4325SOL     OW24436   0.272   1.515   3.891 -0.5261 -0.2657 -0.2774
 4325SOL    HW124437   0.243   1.562   3.813  0.7620  0.1379 -0.5181
 4325SOL    HW224438   0.244   1.425   3.877  1.0078 -0.9801  1.2333
 4326SOL     OW24439   0.200   2.497  17.354  0.2683 -0.5100 -0.1250
 4326SOL    HW124440   0.228   2.407  17.373  0.9634 -0.0448  1.0449
 4326SOL    HW224441   0.105   2.486  17.352  0.4332 -1.9030 -1.0154
 4327SOL     OW24442   2.397   4.658   6.720 -0.4151 -0.2543  0.0664
 4327SOL    HW124443   2.331   0.007   6.721  1.5818  1.6589 -0.1755
 4327SOL    HW224444   2.369   4.589   6.660 -0.7637 -0.4839  0.4883
 4328SOL     OW24445   1.032   1.691   8.459  0.9416 -0.7882 -0.1726
 4328SOL    HW124446   0.948   1.660   8.425  1.4209 -2.3875  0.0862
 4328SOL    HW224447   1.029   1.778   8.419  1.3657  0.0780  1.6901
 4329SOL     OW24448   1.039   3.012   3.892  0.0849  0.4049 -0.5419
 4329SOL    HW124449   1.105   2.944   3.876  0.2080  0.4590 -0.2740
 4329SOL    HW224450   0.963   2.968   3.932  0.1096  0.6570 -0.2148
 4330SOL     OW24451   1.051   2.131  14.116  0.4183 -0.4023  0.6061
 4330SOL    HW124452   1.017   2.060  14.062  0.6896 -1.6779  2.1106
 4330SOL    HW224453   0.969   2.139  14.165 -0.0460 -0.5497 -0.1597
 4331SOL     OW24454   4.642   3.525   8.957  0.0881  0.1144  0.6781
 4331SOL    HW124455   4.591   3.444   8.951  0.6677 -0.2360  0.4656
 4331SOL    HW224456   4.611   3.575   8.882  1.8551 -1.5346 -1.1303
 4332SOL     OW24457   3.684   2.056   1.762  0.2586  0.3772  0.2586
 4332SOL    HW124458   3.759   2.029   1.814  1.1305 -0.0339 -1.2439
 4332SOL    HW224459   3.709   2.149   1.763 -1.4747  0.8523  0.9076
 4333SOL     OW24460   3.935   3.067  14.971 -0.0998  0.0743  0.0993
 4333SOL    HW124461   3.933   3.028  14.884  0.8883  2.3842 -0.9388
 4333SOL    HW224462   3.936   2.989  15.027 -1.9647 -1.4928 -2.0160
 4334SOL     OW24463   4.177   4.195   7.858 -0.3272 -0.4538 -0.2076
 4334SOL    HW124464   4.092   4.153   7.854 -0.3733 -0.4429  0.6767
 4334SOL    HW224465   4.228   4.125   7.817 -0.6293 -0.6234 -0.2918
 4335SOL     OW24466   3.742   2.328   4.020  0.1243 -0.2272  0.0723
 4335SOL    HW124467   3.804   2.387   4.063 -1.0134 -1.5158  3.4514
 4335SOL    HW224468   3.776   2.316   3.932  0.1877  3.7984 -0.4652
 4336SOL     OW24469   4.080   2.844   1.560 -0.1827 -0.0897  0.1658
 4336SOL    HW124470   4.116   2.926   1.592  0.8040 -0.9979  1.3330
 4336SOL    HW224471   4.051   2.784   1.628  0.7424  0.6765  1.2138
 4337SOL     OW24472   1.928   2.897   5.940 -0.1969  0.2186 -0.0102
 4337SOL    HW124473   1.867   2.890   6.013 -1.5854 -1.4239 -1.3093
 4337SOL    HW224474   1.864   2.890   5.870 -0.1147 -4.6623  0.3426
 4338SOL     OW24475   3.175   0.521   1.207 -0.1460 -0.1423 -0.7307
 4338SOL    HW124476   3.125   0.475   1.275 -0.2058 -1.7631 -1.8682
 4338SOL    HW224477   3.140   0.486   1.125 -0.8076  1.8838 -1.3253
 4339SOL     OW24478   4.283   2.336   1.922  0.0657 -0.0101 -0.4006
 4339SOL    HW124479   4.358   2.302   1.872  0.4814 -0.0417  0.2347
 4339SOL    HW224480   4.318   2.381   1.999  1.1289 -0.7472 -0.4355
 4340SOL     OW24481   2.359   2.618   1.794  0.0242  0.8170 -0.3275
 4340SOL    HW124482   2.347   2.529   1.827  0.0196  1.6953  2.0541
 4340SOL    HW224483   2.429   2.597   1.733 -2.2218 -1.8681 -2.0091
 4341SOL     OW24484   0.798   4.282   3.191 -0.1404 -0.1920 -0.2649
 4341SOL    HW124485   0.891   4.304   3.182 -0.1633  1.1243  2.7254
 4341SOL    HW224486   0.769   4.251   3.105 -1.5038 -3.8911  1.5238
 4342SOL     OW24487   3.243   2.992  14.169 -0.2996 -0.2335  0.5520
 4342SOL    HW124488   3.148   2.991  14.166 -0.2991  1.3506  0.2653
 4342SOL    HW224489   3.244   3.087  14.178  0.1634 -0.2160  0.3684
 4343SOL     OW24490   3.398   2.005  15.909  0.0964 -0.5035  0.2271
 4343SOL    HW124491   3.319   2.055  15.930  0.9993  0.7147  0.7380
 4343SOL    HW224492   3.457   2.054  15.966  1.1818 -2.0681  0.4493
 4344SOL     OW24493   1.193   0.946   2.714 -0.0969 -0.0861 -0.7984
 4344SOL    HW124494   1.176   0.875   2.653 -0.8425 -0.6735  0.1076
 4344SOL    HW224495   1.287   0.929   2.717  0.0178  0.7508  0.5857
 4345SOL     OW24496   0.685   4.348  13.216  0.1394 -0.2792  0.1033
 4345SOL    HW124497   0.759   4.377  13.163  1.8748 -2.3516  1.3815
 4345SOL    HW224498   0.612   4.408  13.200  1.5823  0.7582 -2.6673
 4346SOL     OW24499   2.231   0.109   3.439  0.3465 -0.5998 -0.3437
 4346SOL    HW124500   2.143   0.081   3.465  0.3166 -2.3190 -2.2876
 4346SOL    HW224501   2.287   0.046   3.484  0.8248  0.4182  0.4825
 4347SOL     OW24502   4.051   2.351  17.235  0.1227 -0.1853 -0.2716
 4347SOL    HW124503   4.134   2.303  17.236 -0.8458 -1.8612 -1.5629
 4347SOL    HW224504   3.989   2.293  17.192 -0.5989 -0.1419  0.7041
 4348SOL     OW24505   4.298   3.753   7.387  0.2176  0.2826 -0.5328
 4348SOL    HW124506   4.336   3.756   7.475  0.3876 -1.6138 -0.5265
 4348SOL    HW224507   4.374   3.746   7.329 -0.2756  2.0131 -1.3766
 4349SOL     OW24508   1.934   3.290   6.478  0.5061 -0.3136  0.1436
 4349SOL    HW124509   1.919   3.195   6.472 -0.7422 -0.2192  1.6513
 4349SOL    HW224510   2.028   3.295   6.491  0.3412 -0.1529  1.3413
 4350SOL     OW24511   3.517   1.314  12.080  0.3062  0.0682  0.0920
 4350SOL    HW124512   3.466   1.273  12.150  0.4752 -0.7711 -0.2852
 4350SOL    HW224513   3.451   1.345  12.019  1.2915  2.7884  0.3811
 4351SOL     OW24514   4.592   3.871   5.008 -0.2725  0.4858 -0.3977
 4351SOL    HW124515   4.643   3.937   4.961  0.4824  0.3464  0.2439
 4351SOL    HW224516   4.506   3.900   4.977 -1.5040 -0.9795  1.6405
 4352SOL     OW24517   1.337   2.226   7.577  0.3623 -0.4987 -0.3006
 4352SOL    HW124518   1.417   2.177   7.593  0.5126  0.4991  2.0982
 4352SOL    HW224519   1.291   2.227   7.661  2.5842  1.4619  0.8916
 4353SOL     OW24520   3.321   1.930   0.658  0.2822 -0.4257  0.2468
 4353SOL    HW124521   3.229   1.931   0.685 -0.1514 -1.0405 -1.2701
 4353SOL    HW224522   3.327   1.872   0.582 -1.8048 -2.1980  1.4148
 4354SOL     OW24523   2.257   1.990   2.523 -0.0496 -0.1904 -0.7815
 4354SOL    HW124524   2.193   2.004   2.592  0.8576 -0.4410  0.1105
 4354SOL    HW224525   2.287   2.078   2.497  0.3030 -0.0290  0.1870
 4355SOL     OW24526   4.305   3.346   1.518  0.0227  0.0514 -0.3818
 4355SOL    HW124527   4.218   3.307   1.508 -0.1726  0.2048  0.6840
 4355SOL    HW224528   4.363   3.270   1.515 -0.0124 -0.0295  1.2165
 4356SOL     OW24529   3.455   4.595  12.864 -0.9996  0.4794  0.3474
 4356SOL    HW124530   3.515   4.633  12.927  0.7235 -0.3853 -0.7475
 4356SOL    HW224531   3.417   4.669  12.817 -1.3559 -0.7585 -1.3194
 4357SOL     OW24532   2.886   1.144   8.412 -0.4154 -0.0097  0.0250
 4357SOL    HW124533   2.962   1.195   8.439 -1.5702  0.2558  2.7988
 4357SOL    HW224534   2.823   1.216   8.420 -0.2521  0.2290 -0.7751
 4358SOL     OW24535   3.553   3.299   7.317 -0.1753 -0.0625  0.7300
 4358SOL    HW124536   3.553   3.206   7.292  0.5894  0.2201 -0.2995
 4358SOL    HW224537   3.630   3.334   7.274 -0.7671  1.3265  0.8185
 4359SOL     OW24538   2.159   2.270   8.288 -0.6649  1.0338 -0.9242
 4359SOL    HW124539   2.211   2.342   8.253 -0.6097  1.7930  0.7058
 4359SOL    HW224540   2.096   2.250   8.219  0.2984 -0.4957 -1.3568
 4360SOL     OW24541   2.410   0.665   5.840  0.1194 -0.0720  0.2948
 4360SOL    HW124542   2.477   0.662   5.908  0.4109 -1.5249 -0.0657
 4360SOL    HW224543   2.357   0.587   5.858 -1.0238  0.5210 -0.4831
 4361SOL     OW24544   4.042   4.351   2.999 -0.0458  0.1254  0.3145
 4361SOL    HW124545   3.948   4.362   3.011  0.2717  2.4707  0.6245
 4361SOL    HW224546   4.042   4.332   2.905 -2.4324 -0.6107  0.4620
 4362SOL     OW24547   2.109   0.799   9.449 -0.4260  0.0626 -0.0993
 4362SOL    HW124548   2.066   0.808   9.534 -2.1832  2.7710 -1.2791
 4362SOL    HW224549   2.044   0.773   9.383 -1.3022 -1.1509  1.2233
 4363SOL     OW24550   1.513   4.060   4.251 -0.6227 -0.0370  0.1286
 4363SOL    HW124551   1.477   3.987   4.200 -1.7630  1.0381 -0.6092
 4363SOL    HW224552   1.533   4.020   4.335  1.6559 -1.2150 -0.9675
 4364SOL     OW24553   3.141   1.492  15.725 -0.1164 -0.5847  0.0736
 4364SOL    HW124554   3.124   1.586  15.729 -0.6947 -0.6051 -1.9619
 4364SOL    HW224555   3.138   1.471  15.631 -0.1595 -2.0106  0.3847
 4365SOL     OW24556   4.053   1.489   6.446  0.7001  0.2079 -0.4347
 4365SOL    HW124557   3.990   1.561   6.458 -0.8578 -1.1726 -0.3602
 4365SOL    HW224558   3.997   1.415   6.469  3.3192 -1.2904  0.9458
 4366SOL     OW24559   1.244   4.122   4.426  0.2765 -0.4604  0.1983
 4366SOL    HW124560   1.159   4.115   4.382  1.2398  0.5460 -1.8471
 4366SOL    HW224561   1.259   4.213   4.399  2.8964 -0.2146  2.5368
 4367SOL     OW24562   4.623   4.581  10.674  0.1796  0.6837 -0.4141
 4367SOL    HW124563   4.701   4.546  10.718  0.1112  2.1132  0.8562
 4367SOL    HW224564   4.625   4.668  10.714  1.3377 -0.8936  3.0294
 4368SOL     OW24565   3.551   2.622   1.655 -0.1543  0.2319  0.7283
 4368SOL    HW124566   3.639   2.626   1.694  0.2997 -1.0841 -0.1735
 4368SOL    HW224567   3.519   2.712   1.653  1.1395  0.7272  2.1634
 4369SOL     OW24568   2.943   2.799  14.046  0.4504 -0.2495 -0.3256
 4369SOL    HW124569   2.853   2.798  14.079 -0.3895  1.0241 -2.5588
 4369SOL    HW224570   2.980   2.739  14.110 -1.4452 -0.5940  0.4485
 4370SOL     OW24571   3.224   0.798  16.196 -0.2106  0.0241  0.3215
 4370SOL    HW124572   3.141   0.821  16.238  0.1258  1.3286  0.2717
 4370SOL    HW224573   3.282   0.800  16.272 -0.1472 -1.2931  0.3133
 4371SOL     OW24574   0.752   2.276   2.437 -0.2525 -0.2483  0.2784
 4371SOL    HW124575   0.805   2.311   2.365 -0.9761 -0.1560 -0.2142
 4371SOL    HW224576   0.758   2.349   2.499 -1.0341 -0.7494  0.9402
 4372SOL     OW24577   3.122   1.466  17.665 -0.4140 -0.1227 -0.3423
 4372SOL    HW124578   3.110   1.554   0.020 -0.2568 -0.3233  0.2094
 4372SOL    HW224579   3.217   1.471  17.654 -0.1759  0.2522  1.9018
 4373SOL     OW24580   2.906   3.184   3.393 -0.3907 -0.4929  0.1287
 4373SOL    HW124581   2.879   3.093   3.378  0.2617 -0.5097 -0.9427
 4373SOL    HW224582   2.839   3.211   3.456  0.1987  1.6232 -0.1711
 4374SOL     OW24583   0.710   0.005   6.870 -0.1515 -0.3435  0.1147
 4374SOL    HW124584   0.795   0.018   6.912  0.0437 -2.3973  0.3658
 4374SOL    HW224585   0.689   0.096   6.851  0.2874 -0.0407  1.0551
 4375SOL     OW24586   3.535   3.091   1.054 -0.0893 -0.2088  0.0712
 4375SOL    HW124587   3.622   3.126   1.074  0.3230 -1.1629 -0.0416
 4375SOL    HW224588   3.562   3.004   1.083  1.2683  1.1932  2.9984
 4376SOL     OW24589   2.805   2.570   5.828 -0.7816 -0.1737  0.5412
 4376SOL    HW124590   2.886   2.619   5.845 -2.1701  1.3941  2.6839
 4376SOL    HW224591   2.844   2.483   5.831 -3.1592 -1.2410 -0.4878
 4377SOL     OW24592   0.901   2.014   4.295 -0.1381 -1.1982  0.0355
 4377SOL    HW124593   0.848   2.088   4.321 -0.6932 -1.4909 -0.2635
 4377SOL    HW224594   0.982   2.061   4.274 -1.2384  1.6692  2.2633
 4378SOL     OW24595   1.575   1.555   3.744  0.2111  0.2329  0.0946
 4378SOL    HW124596   1.620   1.628   3.702  1.0884  0.0737  0.7424
 4378SOL    HW224597   1.486   1.575   3.716  0.0823 -0.2331  0.1623
 4379SOL     OW24598   3.476   1.532  13.915 -0.0974 -0.1368 -0.3052
 4379SOL    HW124599   3.388   1.567  13.928  0.7777  1.7143  0.6351
 4379SOL    HW224600   3.532   1.601  13.950 -1.1597  1.0433 -0.9445
 4380SOL     OW24601   0.953   0.555   6.545 -0.0041  0.1297 -0.0884
 4380SOL    HW124602   0.909   0.577   6.627  2.0687  0.8511  0.8123
 4380SOL    HW224603   0.903   0.597   6.474  0.7508  1.5321  0.2162
 4381SOL     OW24604   2.688   0.979  12.616 -0.1966 -0.2547  0.5200
 4381SOL    HW124605   2.625   0.949  12.682 -0.8811  1.7583  0.7724
 4381SOL    HW224606   2.771   0.960  12.659  0.1845  0.6912  0.2036
 4382SOL     OW24607   2.938   1.241   4.610  0.6872 -0.0390  0.0873
 4382SOL    HW124608   3.016   1.247   4.554 -1.4184 -1.4555 -3.0005
 4382SOL    HW224609   2.924   1.335   4.620 -0.8092 -0.0409 -2.0423
 4383SOL     OW24610   2.078   0.082   0.476  0.2398  0.1209 -0.3732
 4383SOL    HW124611   2.122   0.028   0.541 -0.2099  0.9772  0.6423
 4383SOL    HW224612   2.077   0.169   0.517 -1.0909 -0.2555  0.3992
 4384SOL     OW24613   3.236   3.599   9.242  0.0922  0.3957 -0.5217
 4384SOL    HW124614   3.191   3.515   9.251  2.1474 -0.7434 -0.9205
 4384SOL    HW224615   3.200   3.644   9.318 -2.3512 -0.5035 -1.1341
 4385SOL     OW24616   2.746   2.296   5.136 -0.0864 -0.4429 -0.2804
 4385SOL    HW124617   2.837   2.277   5.159  0.1358 -0.2805 -1.0014
 4385SOL    HW224618   2.715   2.340   5.215 -2.7428  1.0568 -2.1560
 4386SOL     OW24619   2.586   0.251   4.328 -0.4069  0.6445  0.2361
 4386SOL    HW124620   2.551   0.326   4.280  0.2537  0.9721  0.2612
 4386SOL    HW224621   2.676   0.245   4.295  0.0772  0.2045  1.6497
 4387SOL     OW24622   2.848   4.651   3.367  0.3113 -0.2043  0.0914
 4387SOL    HW124623   2.852   4.591   3.293  1.9771  0.0416  0.0001
 4387SOL    HW224624   2.758   4.639   3.397  0.4597  0.5058  0.8364
 4388SOL     OW24625   4.370   3.131   8.002  0.0814 -0.3995 -0.7918
 4388SOL    HW124626   4.276   3.144   8.018  0.7226  1.9134  1.2004
 4388SOL    HW224627   4.404   3.185   8.073 -1.2871 -0.9954  0.3221
 4389SOL     OW24628   3.128   0.497  14.368  0.0489 -0.5087  0.1280
 4389SOL    HW124629   3.036   0.504  14.390  0.0036 -1.3011  0.1844
 4389SOL    HW224630   3.122   0.407  14.336  1.7115  0.1252 -2.0048
 4390SOL     OW24631   1.553   1.372  11.872  0.4353 -0.4105 -0.2454
 4390SOL    HW124632   1.497   1.337  11.941 -0.2237  0.5214 -0.3112
 4390SOL    HW224633   1.637   1.337  11.904 -1.4286 -2.0740  2.8387
 4391SOL     OW24634   1.621   3.980   6.268  0.3075  0.0645  0.0554
 4391SOL    HW124635   1.674   4.057   6.249 -1.3831  1.3188  0.4153
 4391SOL    HW224636   1.535   4.015   6.244  0.2730  1.7579  2.7017
 4392SOL     OW24637   0.150   0.673  13.985  0.2461 -0.6827 -0.1956
 4392SOL    HW124638   0.134   0.602  14.047  0.0985 -0.2262  0.2831
 4392SOL    HW224639   0.120   0.637  13.901 -0.7106 -2.5781  0.9587
 4393SOL     OW24640   2.622   1.558   6.361 -0.2492  0.2870 -0.0327
 4393SOL    HW124641   2.529   1.555   6.384 -0.9639  0.6765 -2.8969
 4393SOL    HW224642   2.657   1.523   6.443 -0.3141  2.0354  0.7388
 4394SOL     OW24643   1.279   2.274  14.757 -0.5515 -0.2328 -0.0583
 4394SOL    HW124644   1.280   2.331  14.834  0.3478  2.2484 -1.8858
 4394SOL    HW224645   1.200   2.224  14.779 -0.5743 -0.0307  0.3097
 4395SOL     OW24646   3.350   1.260  12.293 -0.0905  0.1941 -0.0711
 4395SOL    HW124647   3.398   1.219  12.365 -0.4536  4.6549  2.6499
 4395SOL    HW224648   3.277   1.200  12.280 -0.2156  0.4620 -0.5875
 4396SOL     OW24649   2.695   4.236   9.769 -0.4074  0.1527  0.0880
 4396SOL    HW124650   2.645   4.264   9.846 -0.3510 -1.4945  0.7240
 4396SOL    HW224651   2.691   4.141   9.779 -2.8832  0.3036  0.6601
 4397SOL     OW24652   3.913   1.246  11.775  0.3254  0.4115 -0.0107
 4397SOL    HW124653   3.891   1.339  11.784  0.4407  0.7505 -2.9139
 4397SOL    HW224654   4.007   1.245  11.790  0.4503  2.3360 -0.6362
 4398SOL     OW24655   0.561   4.229   7.322 -0.3737  0.1375 -0.2728
 4398SOL    HW124656   0.613   4.195   7.395 -1.4490 -1.1344 -0.0992
 4398SOL    HW224657   0.575   4.170   7.248  0.8360 -1.8244  1.5289
 4399SOL     OW24658   1.497   3.974   0.222  0.1297 -0.0774  0.4893
 4399SOL    HW124659   1.479   3.930   0.305 -1.4542 -1.7158 -0.7103
 4399SOL    HW224660   1.417   3.950   0.174  0.6530 -1.3592  0.2494
 4400SOL     OW24661   0.517   2.074   3.314 -0.1998 -0.6666  0.3895
 4400SOL    HW124662   0.509   1.979   3.318 -2.3743 -0.4342  1.5620
 4400SOL    HW224663   0.612   2.082   3.308  0.1003 -3.5154  1.4250
 4401SOL     OW24664   1.534   2.242  13.472  0.1741 -0.2881 -0.4641
 4401SOL    HW124665   1.578   2.327  13.472  1.8972 -1.1882  0.0190
 4401SOL    HW224666   1.547   2.223  13.565 -2.3049 -1.9804 -0.4588
 4402SOL     OW24667   1.005   2.021   6.300  0.3054  0.2210 -0.0264
 4402SOL    HW124668   0.954   1.943   6.321  1.4787 -0.7132 -0.6801
 4402SOL    HW224669   1.090   1.983   6.277  0.4307 -0.4838  1.5607
 4403SOL     OW24670   0.066   0.712  14.268  0.2142  0.5290  0.0682
 4403SOL    HW124671   4.709   0.685  14.318 -0.6808  0.0952 -1.5174
 4403SOL    HW224672   0.023   0.695  14.184  0.5148  0.5245 -0.0848
 4404SOL     OW24673   2.620   3.832   3.669  0.7128  0.1798  0.1996
 4404SOL    HW124674   2.595   3.799   3.583  2.6471  1.9080 -1.0455
 4404SOL    HW224675   2.537   3.818   3.713  2.6167  0.6719  3.9907
 4405SOL     OW24676   4.660   1.252   1.985  0.3990 -0.0669 -0.4846
 4405SOL    HW124677   4.662   1.321   2.051 -2.4837 -1.3600  0.9486
 4405SOL    HW224678   0.031   1.264   1.957 -0.3133  1.7961 -1.9606
 4406SOL     OW24679   3.186   1.381   5.080 -0.7211  0.0858 -0.3311
 4406SOL    HW124680   3.165   1.435   5.004  2.5370 -0.1099 -1.3614
 4406SOL    HW224681   3.114   1.406   5.139 -0.9009  1.4767 -1.1326
 4407SOL     OW24682   3.339   1.097   6.368 -0.2596  0.3116 -0.4051
 4407SOL    HW124683   3.337   1.008   6.333  0.1115  0.1156  0.0713
 4407SOL    HW224684   3.420   1.121   6.323  0.1650 -2.0259 -0.8875
 4408SOL     OW24685   1.271   1.586   5.150 -0.8069 -0.1738  0.2641
 4408SOL    HW124686   1.346   1.533   5.180  1.7020  1.8744 -2.4082
 4408SOL    HW224687   1.320   1.668   5.156  2.5674 -2.1338 -0.2560
 4409SOL     OW24688   0.514   1.285  11.016 -0.3293  0.0145  0.3986
 4409SOL    HW124689   0.456   1.215  10.988  0.7367 -0.3783 -0.8618
 4409SOL    HW224690   0.555   1.245  11.092  0.7623 -1.4360 -0.9458
 4410SOL     OW24691   3.664   4.628  11.387 -0.1034  0.0871 -0.0332
 4410SOL    HW124692   3.663   4.645  11.293  0.2157  0.0659 -0.0404
 4410SOL    HW224693   3.759   4.628  11.404 -0.5098 -3.8377  2.2724
 4411SOL     OW24694   1.497   4.183  12.411  0.4022 -0.6943  0.3222
 4411SOL    HW124695   1.536   4.097  12.424 -2.6381 -1.9229  1.2103
 4411SOL    HW224696   1.439   4.199  12.485 -1.4389  2.4083 -1.7774
 4412SOL     OW24697   3.570   3.535  16.071  0.7024  0.0286  0.7900
 4412SOL    HW124698   3.548   3.571  15.985 -1.0945  2.3874  2.2597
 4412SOL    HW224699   3.538   3.445  16.059  0.4409  0.4013 -1.3977
 4413SOL     OW24700   1.743   3.701  12.239 -0.0663  0.2184  0.3844
 4413SOL    HW124701   1.656   3.666  12.255 -1.2840  2.4050 -1.3027
 4413SOL    HW224702   1.726   3.784  12.193  3.6328  1.1195  0.6400
 4414SOL     OW24703   1.855   0.148  15.335 -0.0600 -0.1222  0.6553
 4414SOL    HW124704   1.875   0.151  15.241  0.3305  0.9921  0.7755
 4414SOL    HW224705   1.947   0.149  15.359 -0.1178 -2.7901  1.0036
 4415SOL     OW24706   4.096   4.167   4.128 -0.2648 -0.3669  0.1299
 4415SOL    HW124707   4.148   4.119   4.064 -0.7725  0.4493 -0.8861
 4415SOL    HW224708   4.150   4.234   4.169 -2.2637  0.5831  1.2194
 4416SOL     OW24709   2.563   3.579   5.641 -0.0757 -0.3452  0.3394
 4416SOL    HW124710   2.591   3.620   5.559  0.3810 -0.3110  0.5147
 4416SOL    HW224711   2.469   3.598   5.643 -0.0773 -0.1176 -1.8301
 4417SOL     OW24712   0.945   4.374   9.087 -0.1212 -0.2139 -0.4785
 4417SOL    HW124713   0.895   4.301   9.124 -0.0922  0.9597  1.8764
 4417SOL    HW224714   0.876   4.428   9.047 -2.9813 -1.4688  2.7590
 4418SOL     OW24715   1.108   4.540   2.968 -0.0117  0.2198  1.1124
 4418SOL    HW124716   1.068   4.470   2.916  3.1267 -1.2029  0.6446
 4418SOL    HW224717   1.074   4.614   2.918 -1.3298  1.5753  4.0186
 4419SOL     OW24718   0.447   2.215   2.609 -0.1221 -0.5701 -0.3477
 4419SOL    HW124719   0.473   2.126   2.586 -1.0201 -1.3397  1.6750
 4419SOL    HW224720   0.469   2.214   2.702  1.9714 -0.3339 -0.8468
 4420SOL     OW24721   4.388   2.229   4.718  1.0314  0.4504  0.0352
 4420SOL    HW124722   4.303   2.272   4.707  1.2094  1.1343  1.3626
 4420SOL    HW224723   4.413   2.208   4.628 -2.5161 -3.5885 -0.0199
 4421SOL     OW24724   2.550   1.215   8.913 -0.2609  0.3628  0.3890
 4421SOL    HW124725   2.598   1.282   8.960  3.3215 -2.0089  0.0622
 4421SOL    HW224726   2.591   1.135   8.944 -0.5777  0.5903  1.3820
 4422SOL     OW24727   4.117   4.033   5.368  0.1502  0.3290 -0.1537
 4422SOL    HW124728   4.099   3.939   5.359  1.8235 -0.2610  2.3434
 4422SOL    HW224729   4.136   4.027   5.462 -0.4039 -2.3808 -0.2013
 4423SOL     OW24730   1.130   4.635   9.078 -0.3826  0.6025 -0.4999
 4423SOL    HW124731   1.066   4.691   9.121 -3.2110 -3.0216  0.0782
 4423SOL    HW224732   1.094   4.549   9.099  0.0876  0.6274  0.4611
 4424SOL     OW24733   0.726   0.995   1.296  0.6547 -0.4429 -0.3095
 4424SOL    HW124734   0.718   0.921   1.235  0.0234 -0.1942 -0.5220
 4424SOL    HW224735   0.763   0.945   1.369 -1.7362  0.8953  1.8201
 4425SOL     OW24736   1.148   0.345   7.613  0.4309  0.1704 -0.4262
 4425SOL    HW124737   1.229   0.295   7.612  1.1214  1.2778  0.5741
 4425SOL    HW224738   1.084   0.278   7.637  0.1562  0.8207  0.6631
 4426SOL     OW24739   4.665   1.043   2.745 -0.5222 -0.6574  0.2586
 4426SOL    HW124740   0.023   1.029   2.691 -1.0878  1.3359 -1.0750
 4426SOL    HW224741   4.610   0.972   2.712  1.3189 -1.0108 -2.0221
 4427SOL     OW24742   3.634   2.552   2.463 -0.2844  0.0493  0.9526
 4427SOL    HW124743   3.645   2.635   2.510  2.4737  1.3867 -2.0527
 4427SOL    HW224744   3.721   2.544   2.425 -1.4054 -0.6347 -1.4983
 4428SOL     OW24745   1.640   4.507   7.096 -0.5276 -0.1486 -0.5260
 4428SOL    HW124746   1.574   4.534   7.032  0.5765  2.7441 -0.4488
 4428SOL    HW224747   1.593   4.457   7.162 -2.7174  0.8288 -1.3422
 4429SOL     OW24748   3.388   0.113  11.954 -0.0159  0.5082  0.1206
 4429SOL    HW124749   3.414   0.096  11.863  0.8500 -1.5670  0.7613
 4429SOL    HW224750   3.471   0.097  12.000 -1.7917 -1.2911  2.6279
 4430SOL     OW24751   3.874   0.504   1.772  0.4263  0.5667 -1.0050
 4430SOL    HW124752   3.841   0.594   1.771 -0.3556  0.2625 -2.2991
 4430SOL    HW224753   3.806   0.455   1.727  1.3120 -0.7738 -0.9026
 4431SOL     OW24754   3.095   4.041  12.923  0.2822 -0.2357 -0.1650
 4431SOL    HW124755   3.114   4.043  13.016  1.3460  1.1005 -0.4133
 4431SOL    HW224756   3.171   3.997  12.884  1.8806  1.0430  1.5857
 4432SOL     OW24757   3.418   1.436   6.922  0.1366 -0.2692 -0.1605
 4432SOL    HW124758   3.442   1.482   7.002  0.8153 -0.8414 -0.0367
 4432SOL    HW224759   3.358   1.371   6.959 -1.2487  0.9755 -0.1938
 4433SOL     OW24760   0.516   1.512   4.249  0.2905 -0.4037 -0.1828
 4433SOL    HW124761   0.598   1.536   4.293 -0.0192 -1.0051  0.7154
 4433SOL    HW224762   0.470   1.595   4.240  0.0356 -0.4675  0.5993
 4434SOL     OW24763   2.591   3.386   2.638  0.3158 -0.4769  0.5029
 4434SOL    HW124764   2.660   3.411   2.698  0.0349 -0.7350  0.9344
 4434SOL    HW224765   2.563   3.298   2.663 -2.5868 -0.3901 -2.3698
 4435SOL     OW24766   4.273   2.915   4.187 -0.2663 -0.2691 -0.0964
 4435SOL    HW124767   4.363   2.947   4.178 -0.0642 -0.4457  1.2878
 4435SOL    HW224768   4.281   2.840   4.246 -0.5247 -0.9319 -0.9093
 4436SOL     OW24769   0.576   3.570  16.122  0.0356 -0.4886 -0.1684
 4436SOL    HW124770   0.494   3.576  16.171 -0.3506  1.1241 -1.0228
 4436SOL    HW224771   0.557   3.626  16.047 -0.4809 -0.3065  0.0989
 4437SOL     OW24772   1.733   3.793   6.412 -0.4094 -0.6116 -0.7595
 4437SOL    HW124773   1.701   3.871   6.367 -0.8468 -0.3471 -0.0062
 4437SOL    HW224774   1.826   3.813   6.422 -0.5669 -1.4838  2.5993
 4438SOL     OW24775   3.213   1.142   4.220 -0.4759 -0.4047 -0.1731
 4438SOL    HW124776   3.273   1.084   4.172 -0.1593 -0.5811  0.4368
 4438SOL    HW224777   3.232   1.219   4.167  1.2444  0.0254  1.0780
 4439SOL     OW24778   0.330   4.539   2.275 -0.7816  0.1548  0.6372
 4439SOL    HW124779   0.329   4.562   2.368  1.3183 -1.3281  1.0367
 4439SOL    HW224780   0.300   4.448   2.279  0.0612 -0.1766 -0.6466
 4440SOL     OW24781   2.655   4.306   1.040 -0.0058 -0.1664 -0.0006
 4440SOL    HW124782   2.595   4.232   1.035 -0.4875  0.2465 -0.2009
 4440SOL    HW224783   2.611   4.371   0.987  1.5612 -0.2297 -1.3793
 4441SOL     OW24784   3.232   1.682  13.979 -0.0579 -0.0763 -0.1405
 4441SOL    HW124785   3.155   1.673  13.923 -1.1876  0.1190  1.3827
 4441SOL    HW224786   3.204   1.707  14.067 -1.1278 -0.4070 -0.3852
 4442SOL     OW24787   2.512   2.501   8.122 -0.0660 -0.0036  0.4437
 4442SOL    HW124788   2.427   2.461   8.102 -0.8320  2.8035 -1.8427
 4442SOL    HW224789   2.567   2.423   8.129  1.9753  1.4413  0.3262
 4443SOL     OW24790   4.496   3.267  13.206  0.1561 -0.4148  0.4337
 4443SOL    HW124791   4.568   3.317  13.168  1.7474 -2.0637  1.2513
 4443SOL    HW224792   4.524   3.283  13.296  4.0729 -0.7572 -0.7361
 4444SOL     OW24793   1.740   3.629   7.569 -0.7210  0.2966  0.6290
 4444SOL    HW124794   1.773   3.552   7.524  2.4392  1.9641  0.1264
 4444SOL    HW224795   1.791   3.700   7.530  1.3927 -0.5964  1.7706
 4445SOL     OW24796   4.099   3.833   3.716 -0.0042  0.1748 -0.0559
 4445SOL    HW124797   4.101   3.927   3.732 -2.5219  0.2046  0.0995
 4445SOL    HW224798   4.014   3.835   3.672  0.3179  1.7156 -0.6189
 4446SOL     OW24799   0.339   3.455   2.080 -0.1590 -0.1844  0.1120
 4446SOL    HW124800   0.359   3.511   2.005 -0.0062 -2.2274 -1.3771
 4446SOL    HW224801   0.403   3.485   2.144  0.6264  0.6170 -1.0629
 4447SOL     OW24802   3.242   4.206   0.443  0.3372 -0.0217 -0.1837
 4447SOL    HW124803   3.176   4.270   0.416  0.9060  0.8056  0.3824
 4447SOL    HW224804   3.318   4.224   0.388  0.2071  1.2784  0.0641
 4448SOL     OW24805   4.398   4.444  10.755 -0.3804 -0.0968  0.1698
 4448SOL    HW124806   4.395   4.363  10.705  3.0936  0.3689 -0.7434
 4448SOL    HW224807   4.479   4.488  10.730 -1.1427  0.4920 -1.2276
 4449SOL     OW24808   4.248   0.891   7.311 -0.5865 -0.7332  0.4697
 4449SOL    HW124809   4.325   0.893   7.254 -1.2162  1.6515 -0.2788
 4449SOL    HW224810   4.198   0.963   7.273  1.7777 -1.0106 -3.2203
 4450SOL     OW24811   3.427   1.813   7.474 -0.2405 -0.4071 -0.1075
 4450SOL    HW124812   3.475   1.841   7.396 -0.8370 -3.2320 -1.4767
 4450SOL    HW224813   3.485   1.843   7.544 -0.5174 -3.4218  1.4348
 4451SOL     OW24814   4.487   1.590   0.889  0.0195 -0.0951  0.4733
 4451SOL    HW124815   4.494   1.682   0.862  0.8748 -0.1913  0.3764
 4451SOL    HW224816   4.457   1.608   0.978  0.3418 -0.6530  0.6893
 4452SOL     OW24817   4.693   3.253   8.556  0.5235  0.0978  0.7993
 4452SOL    HW124818   4.613   3.286   8.597 -1.3993 -0.9916 -2.0584
 4452SOL    HW224819   0.009   3.189   8.617  1.9460 -0.7747 -0.9367
 4453SOL     OW24820   4.316   0.142   2.953 -0.5158 -0.1127 -0.5790
 4453SOL    HW124821   4.267   0.065   2.924 -0.6547  0.5436 -2.1358
 4453SOL    HW224822   4.374   0.098   3.014 -0.3361  0.6414 -0.2051
 4454SOL     OW24823   0.199   3.665   5.788 -0.1625 -0.5933  0.6189
 4454SOL    HW124824   0.123   3.707   5.827 -0.6720  0.4994 -1.5334
 4454SOL    HW224825   0.148   3.616   5.724  1.1823  2.2518 -2.6281
 4455SOL     OW24826   3.318   3.081   4.941 -0.1547 -0.2860  0.1473
 4455SOL    HW124827   3.391   3.107   4.885 -0.7202  0.5889 -0.1816
 4455SOL    HW224828   3.245   3.127   4.899 -1.2525 -2.1591 -0.0026
 4456SOL     OW24829   4.011   1.565   9.171  0.0079  0.4088 -0.4495
 4456SOL    HW124830   4.083   1.501   9.179 -1.8091 -1.1853  3.1460
 4456SOL    HW224831   3.942   1.517   9.217 -1.5686  2.2988 -0.8647
 4457SOL     OW24832   3.753   1.850   4.921 -0.2548 -0.2828 -0.2857
 4457SOL    HW124833   3.712   1.804   4.994 -1.1612 -0.8718 -1.1609
 4457SOL    HW224834   3.675   1.883   4.877 -0.3264 -1.1942 -0.8489
 4458SOL     OW24835   0.230   3.070  17.169 -0.1934 -0.0338 -0.1391
 4458SOL    HW124836   0.282   3.028  17.238  0.5239  0.4575 -0.3766
 4458SOL    HW224837   0.166   3.122  17.217  0.8569  2.4392 -1.4048
 4459SOL     OW24838   0.717   3.830   5.971 -0.2613 -0.0440 -0.1418
 4459SOL    HW124839   0.738   3.910   6.020  3.1981 -0.4248 -1.0670
 4459SOL    HW224840   0.660   3.874   5.907  0.1264 -0.2798 -0.6519
 4460SOL     OW24841   1.721   1.504  13.702 -0.2628  0.4613  0.3009
 4460SOL    HW124842   1.698   1.427  13.650  0.4992  1.8852 -2.1522
 4460SOL    HW224843   1.640   1.512  13.753 -1.7239  0.2285 -1.9761
 4461SOL     OW24844   1.838   3.876   8.486 -0.2745 -0.2992  0.0709
 4461SOL    HW124845   1.917   3.918   8.453  0.1831 -0.0333  1.5004
 4461SOL    HW224846   1.774   3.947   8.478 -0.1572  0.0231  1.8166
 4462SOL     OW24847   2.751   4.181   6.710 -0.1366 -0.0954 -0.2160
 4462SOL    HW124848   2.692   4.256   6.699 -0.6690 -0.1757  1.9964
 4462SOL    HW224849   2.693   4.110   6.739 -0.7104  0.6266  0.3828
 4463SOL     OW24850   1.249   1.900   3.757  0.7167 -0.1517 -0.4996
 4463SOL    HW124851   1.160   1.929   3.738  1.3976  1.1608 -1.6808
 4463SOL    HW224852   1.278   1.990   3.774  0.6339 -0.1381 -0.4272
 4464SOL     OW24853   4.395   4.662   3.640  0.5332  0.4741  0.0401
 4464SOL    HW124854   4.464   4.615   3.687 -0.4759  0.2815  1.3621
 4464SOL    HW224855   4.426   4.668   3.550  1.1573  2.3802  0.3804
 4465SOL     OW24856   3.577   1.883   7.687  0.1596  0.7952 -0.4098
 4465SOL    HW124857   3.627   1.962   7.708 -0.2705  0.1728  3.0163
 4465SOL    HW224858   3.539   1.858   7.772  0.1905  0.7607 -0.4063
 4466SOL     OW24859   3.670   3.727   8.896 -0.3125  0.0586 -0.5417
 4466SOL    HW124860   3.651   3.818   8.872  4.2463  1.3879  0.7977
 4466SOL    HW224861   3.593   3.699   8.945 -1.0008  0.4919 -1.3638
 4467SOL     OW24862   1.028   3.840  12.773  0.0443  0.2535  0.0725
 4467SOL    HW124863   1.109   3.886  12.748 -0.8405  0.3313 -2.6119
 4467SOL    HW224864   1.066   3.784  12.840 -0.1272 -3.1955 -2.7375
 4468SOL     OW24865   2.412   1.498  15.633 -0.0292  0.4831  0.1064
 4468SOL    HW124866   2.423   1.453  15.549 -1.1978 -0.5323  0.4991
 4468SOL    HW224867   2.321   1.527  15.625  0.5252  2.2378  0.1197
 4469SOL     OW24868   0.329   3.599   4.102  0.2136 -0.3746 -0.1355
 4469SOL    HW124869   0.310   3.653   4.025  0.7649  2.9220  2.0195
 4469SOL    HW224870   0.328   3.514   4.058 -0.4290 -0.8488  0.7975
 4470SOL     OW24871   3.652   3.450   3.650 -0.0771  0.8996  0.2499
 4470SOL    HW124872   3.655   3.360   3.681  0.9695  0.8206 -0.0918
 4470SOL    HW224873   3.743   3.479   3.652 -0.4274  2.0429 -0.3078
 4471SOL     OW24874   3.747   2.010   8.037  0.1716  0.4573 -0.0867
 4471SOL    HW124875   3.694   2.069   7.983  1.5822  1.6666 -0.1437
 4471SOL    HW224876   3.683   1.978   8.100 -0.5029  2.2469  0.1509
 4472SOL     OW24877   4.532   3.410   1.912  0.4000  0.4977 -0.3601
 4472SOL    HW124878   4.528   3.321   1.946  0.0419  0.2738 -0.9801
 4472SOL    HW224879   4.441   3.424   1.885 -0.3263  0.4756  2.1041
 4473SOL     OW24880   1.017   1.347  17.676 -0.4651 -0.3181 -0.1464
 4473SOL    HW124881   0.985   1.333  17.586 -1.0483  2.9820 -0.4514
 4473SOL    HW224882   1.019   1.259   0.033 -2.1396  0.4643  1.7743
 4474SOL     OW24883   4.421   2.192   0.534 -0.1076 -0.0176  0.4043
 4474SOL    HW124884   4.377   2.184   0.450 -1.5285  0.5045  1.1011
 4474SOL    HW224885   4.444   2.103   0.559 -1.5037 -0.7091 -0.8037
 4475SOL     OW24886   2.760   0.175   3.481 -0.0795  0.0506  0.0513
 4475SOL    HW124887   2.701   0.145   3.413 -0.9385  1.2234  0.2782
 4475SOL    HW224888   2.811   0.095   3.493 -0.3696 -0.0050  0.9240
 4476SOL     OW24889   1.230   0.829   2.224 -0.0239 -0.0567 -0.2508
 4476SOL    HW124890   1.137   0.842   2.202  0.2785  3.3806  0.5193
 4476SOL    HW224891   1.267   0.913   2.250 -0.3780  0.1986 -0.5680
 4477SOL     OW24892   3.597   2.093   4.888  0.3931 -0.4715  0.6228
 4477SOL    HW124893   3.648   2.115   4.811  0.8772  0.8771  1.3199
 4477SOL    HW224894   3.540   2.169   4.896  1.7827  0.7029 -0.8846
 4478SOL     OW24895   3.044   1.841   6.636 -0.0534  0.5045  0.5475
 4478SOL    HW124896   3.092   1.760   6.619 -0.5293  0.6115 -1.3281
 4478SOL    HW224897   3.042   1.844   6.731 -1.9580 -4.4286  0.6382
 4479SOL     OW24898   0.444   3.351   6.388  0.4167  0.0402  0.3233
 4479SOL    HW124899   0.405   3.289   6.326  1.2943 -0.6131  0.4377
 4479SOL    HW224900   0.501   3.289   6.433  0.8350 -0.5003 -0.9481
 4480SOL     OW24901   3.296   2.037   2.475 -0.7637 -0.1231 -0.1153
 4480SOL    HW124902   3.359   2.019   2.405 -2.2169  0.4093 -1.5659
 4480SOL    HW224903   3.237   2.092   2.423 -1.2174 -1.0886 -0.6232
 4481SOL     OW24904   3.447   0.797   6.533 -0.1900  0.0152  0.0557
 4481SOL    HW124905   3.459   0.704   6.555 -1.2669  0.2870  1.7439
 4481SOL    HW224906   3.352   0.793   6.519 -0.3106 -0.1741  0.9162
 4482SOL     OW24907   3.061   0.566   3.458  0.4661  0.0117 -0.2375
 4482SOL    HW124908   3.145   0.607   3.436  0.1865  0.5475 -0.3032
 4482SOL    HW224909   3.082   0.473   3.453  0.3883 -0.0829  1.1664
 4483SOL     OW24910   1.004   2.479  14.877  0.8520 -0.3081  0.0934
 4483SOL    HW124911   1.057   2.503  14.801 -0.0711 -0.1164 -0.4951
 4483SOL    HW224912   0.922   2.511  14.841  2.6587 -0.7033 -4.3427
 4484SOL     OW24913   4.067   0.290   8.704  0.8782  0.4336 -0.1118
 4484SOL    HW124914   4.068   0.354   8.633  2.2045  2.0943  1.3831
 4484SOL    HW224915   4.160   0.269   8.709  0.7630 -0.1699 -0.5378
 4485SOL     OW24916   2.414   4.419   9.171  0.1826 -0.0217  0.0224
 4485SOL    HW124917   2.424   4.428   9.076 -0.6924 -0.0034 -0.0658
 4485SOL    HW224918   2.326   4.458   9.169 -0.3250 -1.1679  0.1749
 4486SOL     OW24919   4.521   1.647  11.728 -0.4539 -0.3668 -0.2175
 4486SOL    HW124920   4.451   1.684  11.781 -0.6669 -0.3576 -0.5039
 4486SOL    HW224921   4.580   1.615  11.796  0.0931 -1.9381 -1.4213
 4487SOL     OW24922   1.582   3.141   8.321 -0.4119 -0.0113  0.0430
 4487SOL    HW124923   1.631   3.222   8.310 -0.0966 -0.0215  1.4445
 4487SOL    HW224924   1.532   3.157   8.401 -0.0511 -1.1246  0.4758
 4488SOL     OW24925   0.502   1.576   3.139  1.1856  0.5847 -0.0702
 4488SOL    HW124926   0.463   1.493   3.112  2.1998  0.8599 -2.3863
 4488SOL    HW224927   0.455   1.647   3.094 -2.1078 -1.8982 -0.5871
 4489SOL     OW24928   0.603   3.549   9.988  0.6668 -0.1413  0.5772
 4489SOL    HW124929   0.516   3.576   9.959  0.9432 -0.0495 -0.1681
 4489SOL    HW224930   0.594   3.455   9.999  4.2438 -0.4150  1.4057
 4490SOL     OW24931   0.445   1.096   2.650 -0.0996  0.2724  0.8668
 4490SOL    HW124932   0.485   1.167   2.600 -0.1931  1.2347  2.1363
 4490SOL    HW224933   0.361   1.132   2.679 -1.1597 -0.4304 -1.3580
 4491SOL     OW24934   2.410   1.004   9.269  0.4246 -0.0545 -0.0898
 4491SOL    HW124935   2.324   1.007   9.227  0.3696  0.2479  0.0455
 4491SOL    HW224936   2.447   1.090   9.249 -0.2412  0.3178  0.2798
 4492SOL     OW24937   3.907   3.310   2.849 -0.1736 -0.3521  0.2691
 4492SOL    HW124938   3.938   3.400   2.852 -0.9590 -0.0810  0.1468
 4492SOL    HW224939   3.973   3.281   2.787 -1.1000  1.3589 -1.5026
 4493SOL     OW24940   4.407   1.969   7.184  0.4782  0.0860  0.4801
 4493SOL    HW124941   4.403   1.882   7.224 -0.1980 -0.7996 -1.4894
 4493SOL    HW224942   4.408   2.027   7.260  0.4444  0.7328 -0.0128
 4494SOL     OW24943   2.943   1.803   3.248  0.1966 -0.5681 -0.5188
 4494SOL    HW124944   2.870   1.810   3.310 -1.3204  2.1541 -2.5646
 4494SOL    HW224945   3.012   1.860   3.282 -1.1244  0.3819  0.5861
 4495SOL     OW24946   2.513   1.031   3.291  0.2873  0.2720 -0.0411
 4495SOL    HW124947   2.489   0.943   3.320  0.1070  0.6013  0.8111
 4495SOL    HW224948   2.608   1.021   3.284  0.4606  2.8992 -1.6408
 4496SOL     OW24949   1.569   4.140   1.292 -0.8243 -0.1562 -0.4834
 4496SOL    HW124950   1.503   4.142   1.361 -0.2665  0.5768  0.0277
 4496SOL    HW224951   1.528   4.134   1.206 -0.8938  0.8875 -0.5240
 4497SOL     OW24952   0.423   1.554   5.399 -0.0785 -0.1567  0.3910
 4497SOL    HW124953   0.504   1.558   5.449 -0.6231  1.7488  1.1432
 4497SOL    HW224954   0.451   1.554   5.307 -0.3848  0.2561  0.2983
 4498SOL     OW24955   3.880   2.883  11.623  0.5267 -0.7691 -0.0115
 4498SOL    HW124956   3.889   2.968  11.580 -0.4791 -0.6471  0.0208
 4498SOL    HW224957   3.812   2.906  11.686  0.3767 -0.8611 -0.1406
 4499SOL     OW24958   3.442   1.613  16.490 -0.0003  0.1670 -0.3090
 4499SOL    HW124959   3.368   1.667  16.519 -2.4218 -2.9035 -0.7666
 4499SOL    HW224960   3.417   1.538  16.544  1.1633  1.0843  1.4952
 4500SOL     OW24961   1.405   4.180   0.799 -0.4928 -0.2216  0.0010
 4500SOL    HW124962   1.447   4.152   0.717  0.9313  0.1328  0.6137
 4500SOL    HW224963   1.322   4.132   0.799 -1.2716  1.1450  0.7555
 4501SOL     OW24964   2.719   1.084  11.877 -0.3413  0.0640 -0.1078
 4501SOL    HW124965   2.787   1.093  11.810 -3.2432  0.8305 -2.9761
 4501SOL    HW224966   2.649   1.039  11.829 -1.1105 -0.8782  1.9413
 4502SOL     OW24967   2.024   3.113   8.567 -0.2923  0.4819  0.2390
 4502SOL    HW124968   2.084   3.184   8.542 -0.5933  0.1075 -1.5646
 4502SOL    HW224969   2.027   3.112   8.662 -0.3493 -1.4065  0.2189
 4503SOL     OW24970   2.934   3.224  11.355 -0.2871 -0.4330  0.2860
 4503SOL    HW124971   2.981   3.229  11.438 -0.9922  2.5685  0.4964
 4503SOL    HW224972   2.887   3.307  11.350  1.8125  0.8370  1.7476
 4504SOL     OW24973   1.926   2.314  11.731  0.1782  0.0452  0.1463
 4504SOL    HW124974   1.894   2.391  11.684 -1.4867  0.9869  2.8288
 4504SOL    HW224975   1.875   2.242  11.694 -3.0477  1.6275  1.5022
 4505SOL     OW24976   0.603   2.100   6.331  0.7872 -0.5674  0.3334
 4505SOL    HW124977   0.582   2.128   6.420  1.4596  0.3594  0.2065
 4505SOL    HW224978   0.644   2.176   6.288 -0.4900  0.7471  1.4516
 4506SOL     OW24979   3.862   1.638  13.276  0.5244  0.1778  0.1556
 4506SOL    HW124980   3.779   1.676  13.302  1.9710  1.5594  2.6935
 4506SOL    HW224981   3.928   1.693  13.318 -1.3299  1.4074  1.4258
 4507SOL     OW24982   4.371   3.784   5.540 -0.3418  0.3741  0.3265
 4507SOL    HW124983   4.443   3.726   5.564 -0.1160  0.0618 -1.1159
 4507SOL    HW224984   4.383   3.777   5.446 -0.2469 -2.5239  0.5623
 4508SOL     OW24985   0.289   3.885   3.615 -0.8523 -0.1152  0.4460
 4508SOL    HW124986   0.262   3.881   3.524  0.4992 -1.1097  0.0892
 4508SOL    HW224987   0.383   3.901   3.606 -0.9383  1.2057  1.7118
 4509SOL     OW24988   1.103   4.014  15.814 -0.1921  0.1974 -0.1367
 4509SOL    HW124989   1.158   4.035  15.739 -0.5159 -0.8528 -0.6647
 4509SOL    HW224990   1.096   4.102  15.853 -1.4021  0.6114 -1.2764
 4510SOL     OW24991   1.317   3.277   3.439  0.1124 -0.7562  0.1041
 4510SOL    HW124992   1.307   3.237   3.353 -1.6941 -1.4277  0.6321
 4510SOL    HW224993   1.333   3.204   3.500  2.6830 -0.2620  0.0044
 4511SOL     OW24994   2.065   3.592   2.513 -0.1209  0.2990 -0.2963
 4511SOL    HW124995   2.131   3.650   2.476  2.1715 -1.6170  0.7770
 4511SOL    HW224996   2.101   3.517   2.467 -0.4780 -0.9027  1.3814
 4512SOL     OW24997   1.759   0.097   4.961  0.7845  0.4912 -0.1016
 4512SOL    HW124998   1.690   0.031   4.953  0.5353  0.4662  2.1535
 4512SOL    HW224999   1.777   0.120   4.870  1.4676  1.2454  0.2207
 4513SOL     OW25000   2.461   0.114   7.065 -0.6916 -0.7140  0.2717
 4513SOL    HW125001   2.435   0.029   7.100 -3.3856 -0.3608 -0.8278
 4513SOL    HW225002   2.500   0.090   6.982 -0.8353  0.2588 -0.0781
 4514SOL     OW25003   1.587   3.737   4.397 -0.0692 -0.5784 -0.1004
 4514SOL    HW125004   1.536   3.667   4.438  1.1926  1.5144  5.1216
 4514SOL    HW225005   1.537   3.809   4.438 -1.0743 -1.0513 -0.4953
 4515SOL     OW25006   1.269   1.712   5.628  0.0269  0.0558 -0.2892
 4515SOL    HW125007   1.362   1.729   5.622  0.6688 -2.2985  2.7139
 4515SOL    HW225008   1.259   1.713   5.533  2.0189  2.0012 -0.4829
 4516SOL     OW25009   2.294   0.653  11.466  0.2897  0.6946  0.7117
 4516SOL    HW125010   2.324   0.577  11.516 -0.4238 -0.2680 -0.3272
 4516SOL    HW225011   2.368   0.713  11.470  2.3211 -1.7308 -0.5365
 4517SOL     OW25012   3.072   4.343   5.136  0.2870 -0.1399 -0.4071
 4517SOL    HW125013   3.154   4.347   5.087 -0.4111  0.7458 -1.4641
 4517SOL    HW225014   3.006   4.352   5.068 -0.3469 -2.9867 -0.1821
 4518SOL     OW25015   4.202   1.617   3.307  0.0396  0.1916 -0.2041
 4518SOL    HW125016   4.181   1.543   3.364  0.0753  1.1343  1.0244
 4518SOL    HW225017   4.115   1.638   3.273  0.3499  0.8291 -0.5944
 4519SOL     OW25018   1.654   4.415   1.317  0.0766  0.1909 -0.1101
 4519SOL    HW125019   1.625   4.325   1.300  0.3621  0.3365 -1.4014
 4519SOL    HW225020   1.684   4.460   1.238  1.1932  1.1747  0.8670
 4520SOL     OW25021   0.367   3.799   4.383  0.4903 -0.3381  0.2005
 4520SOL    HW125022   0.336   3.727   4.438  1.1723 -1.0236 -0.3052
 4520SOL    HW225023   0.307   3.792   4.309 -2.7481 -0.1159  2.8283
 4521SOL     OW25024   1.344   0.345   1.700 -0.3029 -0.1648  0.5701
 4521SOL    HW125025   1.341   0.300   1.784  0.3968  0.2004  0.7859
 4521SOL    HW225026   1.320   0.435   1.721  2.1775  1.0137 -1.5302
 4522SOL     OW25027   0.282   0.513   1.796  0.1719  0.2617  0.2285
 4522SOL    HW125028   0.374   0.523   1.819 -0.3177  1.6164  1.6158
 4522SOL    HW225029   0.290   0.449   1.726 -0.4576  1.5462 -1.0156
 4523SOL     OW25030   0.188   4.001   9.097 -0.2001  0.0632 -0.2644
 4523SOL    HW125031   0.259   4.012   9.160  0.1712 -2.0837 -0.3043
 4523SOL    HW225032   0.127   4.067   9.131  0.9225  0.2775  1.3130
 4524SOL     OW25033   0.337   1.546   3.610 -0.7777  0.1822  0.5571
 4524SOL    HW125034   0.420   1.532   3.654 -1.1457 -2.1420  0.5276
 4524SOL    HW225035   0.335   1.641   3.606  1.1087  0.1490 -0.7644
 4525SOL     OW25036   3.185   0.425   1.716  0.0488  0.0307 -0.1856
 4525SOL    HW125037   3.248   0.412   1.787 -0.1250  0.6283  0.0754
 4525SOL    HW225038   3.106   0.411   1.767  0.2181  1.7193  0.5174
 4526SOL     OW25039   2.725   2.822   6.061 -0.4918  0.3703 -0.3836
 4526SOL    HW125040   2.661   2.834   6.130  0.0378  1.6344 -0.1244
 4526SOL    HW225041   2.680   2.849   5.981 -1.9970 -1.2245 -0.0826
 4527SOL     OW25042   0.962   4.708   2.822  0.6097  0.4006  0.1564
 4527SOL    HW125043   0.948   4.658   2.741 -0.1548 -1.0541  1.1831
 4527SOL    HW225044   0.893   0.053   2.802 -0.3518 -0.7907 -0.3651
 4528SOL     OW25045   3.867   3.127  17.612  0.3463 -0.5755  0.1323
 4528SOL    HW125046   3.798   3.068  17.643  1.1328 -1.7837 -0.4027
 4528SOL    HW225047   3.841   3.175  17.534 -2.9599 -0.6964  1.1730
 4529SOL     OW25048   2.321   4.331   1.357 -0.0157 -0.3405 -0.0964
 4529SOL    HW125049   2.226   4.338   1.359 -0.0533 -0.0006 -2.6804
 4529SOL    HW225050   2.340   4.393   1.286 -1.9885 -0.0529 -0.3799
 4530SOL     OW25051   2.175   2.276   5.526 -0.1475  0.4539 -0.1905
 4530SOL    HW125052   2.235   2.329   5.576 -2.1658  1.9479  0.6456
 4530SOL    HW225053   2.227   2.197   5.509 -2.3000 -0.9896 -0.1943
 4531SOL     OW25054   0.856   0.715   0.921 -0.2274  0.1003 -0.1967
 4531SOL    HW125055   0.862   0.732   0.827 -2.1990 -1.9093 -0.6766
 4531SOL    HW225056   0.883   0.623   0.924 -2.0226 -0.4470 -0.8234
 4532SOL     OW25057   2.546   4.515  12.138 -0.4252  0.1172  0.3512
 4532SOL    HW125058   2.597   4.458  12.195  1.3030  3.0933  1.7980
 4532SOL    HW225059   2.543   4.598  12.186 -0.3058  0.2684  0.0989
 4533SOL     OW25060   0.504   1.964  10.721  0.2420 -0.4739 -0.6776
 4533SOL    HW125061   0.425   1.911  10.731 -0.9195  1.5538  0.8952
 4533SOL    HW225062   0.462   2.037  10.676  0.2739 -0.1857 -0.2472
 4534SOL     OW25063   0.065   3.026  16.921  0.2741 -0.6993  0.4233
 4534SOL    HW125064   0.120   3.037  16.999 -1.4284 -0.8273  1.6460
 4534SOL    HW225065   4.699   3.019  16.965  0.4105  0.1724  0.8411
 4535SOL     OW25066   1.626   3.764   7.267 -0.2685 -0.7488 -0.9284
 4535SOL    HW125067   1.608   3.808   7.184 -2.3591  1.4429  0.6927
 4535SOL    HW225068   1.659   3.832   7.326 -0.1906 -0.3483 -1.4343
 4536SOL     OW25069   3.516   2.368   0.362  0.2875  0.1865 -0.3717
 4536SOL    HW125070   3.542   2.288   0.408  0.3395  0.2980 -0.2046
 4536SOL    HW225071   3.527   2.341   0.271 -0.6395 -2.3147  0.2578
 4537SOL     OW25072   0.427   3.296  15.822 -0.3402 -0.4312  0.4416
 4537SOL    HW125073   0.359   3.268  15.761 -0.7262 -1.8253  1.5012
 4537SOL    HW225074   0.382   3.364  15.873  1.5783 -0.2954  1.9454
 4538SOL     OW25075   2.888   0.495   3.824  0.1714 -0.4225 -0.4056
 4538SOL    HW125076   2.823   0.453   3.768  1.3557 -2.0468 -0.5690
 4538SOL    HW225077   2.825   0.531   3.887  0.1860 -1.1418  0.0233
 4539SOL     OW25078   0.662   4.440  15.011  0.1030  0.1977  0.0571
 4539SOL    HW125079   0.577   4.444  14.967 -0.1714  1.3094  0.6908
 4539SOL    HW225080   0.653   4.355  15.053 -0.5338  0.3631  0.2545
 4540SOL     OW25081   3.170   1.487   6.234 -0.1146 -0.3283  0.0800
 4540SOL    HW125082   3.133   1.399   6.241 -0.2608 -0.3766 -1.3617
 4540SOL    HW225083   3.101   1.535   6.189  2.1089  2.5127 -0.3112
 4541SOL     OW25084   1.785   1.694   9.786 -0.1550 -0.4750  0.1548
 4541SOL    HW125085   1.870   1.665   9.821  0.0959 -1.8853 -1.6496
 4541SOL    HW225086   1.801   1.787   9.772 -0.9208 -0.3802 -0.0897
 4542SOL     OW25087   3.667   4.311   8.866 -0.0507  0.0612 -0.3095
 4542SOL    HW125088   3.607   4.269   8.928 -1.3275  1.1845 -0.7787
 4542SOL    HW225089   3.604   4.348   8.805 -0.1466  0.5142  0.0606
 4543SOL     OW25090   2.999   3.339   7.260  0.2592  0.6704  0.0942
 4543SOL    HW125091   2.978   3.317   7.170 -1.6857 -0.1836  0.7662
 4543SOL    HW225092   3.094   3.349   7.257  0.4616 -0.5214  2.5801
 4544SOL     OW25093   1.649   4.258  15.847  0.2936  0.2673 -0.2191
 4544SOL    HW125094   1.637   4.344  15.888  0.0505 -0.4466  1.2353
 4544SOL    HW225095   1.688   4.278  15.762  1.2781  0.3774  0.2537
 4545SOL     OW25096   0.064   2.271   6.639  0.0044  0.8173  0.1242
 4545SOL    HW125097   0.007   2.340   6.673 -0.6361  0.7226 -0.7556
 4545SOL    HW225098   0.066   2.215   6.716 -0.9958 -0.5341 -0.8366
 4546SOL     OW25099   2.123   4.638  11.003 -0.0100 -0.1719 -1.1587
 4546SOL    HW125100   2.106   4.591  10.921 -0.9075  0.6911 -1.4696
 4546SOL    HW225101   2.116   4.568  11.068 -0.2191  0.2261 -0.7552
 4547SOL     OW25102   4.075   2.657   5.174 -0.2329  0.2876 -0.1049
 4547SOL    HW125103   4.135   2.647   5.099 -0.8014  2.0801 -0.7872
 4547SOL    HW225104   4.120   2.725   5.224 -0.8672  1.6165 -1.3714
 4548SOL     OW25105   3.489   2.039   6.926  0.0235 -0.7106 -0.5131
 4548SOL    HW125106   3.496   1.943   6.931  1.6553 -0.7464 -3.3933
 4548SOL    HW225107   3.578   2.072   6.929 -0.2300  0.1305 -2.0050
 4549SOL     OW25108   0.137   3.121   3.910 -0.0875  0.1689 -0.1157
 4549SOL    HW125109   0.051   3.079   3.912  0.6079 -1.3236 -2.6037
 4549SOL    HW225110   0.125   3.185   3.840  1.8224 -1.7631 -2.2200
 4550SOL     OW25111   2.028   3.518  12.231 -0.4970 -0.3015 -0.0591
 4550SOL    HW125112   1.973   3.579  12.279 -1.4429  0.5842 -2.2538
 4550SOL    HW225113   2.001   3.540  12.142 -1.5238  0.4927  0.4529
 4551SOL     OW25114   3.212   2.184  13.200  0.2938 -0.0856 -0.6094
 4551SOL    HW125115   3.219   2.274  13.168 -1.3176  0.5899  0.9652
 4551SOL    HW225116   3.195   2.200  13.293 -4.1655 -2.1990 -1.0685
 4552SOL     OW25117   2.177   0.303   5.623 -0.0473 -0.0319 -0.4504
 4552SOL    HW125118   2.163   0.325   5.530 -1.3420 -0.8210 -0.4400
 4552SOL    HW225119   2.271   0.321   5.631 -0.4006  2.1893 -1.2341
 4553SOL     OW25120   0.827   3.339  16.084  0.1803  0.2112  0.3168
 4553SOL    HW125121   0.866   3.426  16.096  0.3099  0.6199 -3.1844
 4553SOL    HW225122   0.905   3.286  16.066 -0.0125  0.2906 -0.7266
 4554SOL     OW25123   3.338   0.977   3.424 -0.5906  0.0684 -0.3995
 4554SOL    HW125124   3.409   1.022   3.378  0.2335 -0.1418  0.6691
 4554SOL    HW225125   3.279   0.939   3.359  0.6079 -3.0085  0.2742
 4555SOL     OW25126   0.417   0.538   3.565  0.0617  0.9275  0.1421
 4555SOL    HW125127   0.497   0.489   3.544 -1.2832 -0.9453 -0.6145
 4555SOL    HW225128   0.457   0.599   3.628  1.8807  1.6395 -1.6979
 4556SOL     OW25129   0.687   3.036   4.205  0.0904 -0.4326 -0.0229
 4556SOL    HW125130   0.623   2.970   4.230 -1.9290  1.1353 -1.0587
 4556SOL    HW225131   0.762   3.004   4.255  1.8103  2.4254 -0.7427
 4557SOL     OW25132   4.225   1.572   0.159  0.2882 -0.7290 -0.0696
 4557SOL    HW125133   4.282   1.544   0.230 -1.2028 -2.5035  0.4316
 4557SOL    HW225134   4.260   1.522   0.085 -0.7801 -0.5434 -0.6980
 4558SOL     OW25135   0.552   0.182   5.914  0.1013  0.7983 -0.2050
 4558SOL    HW125136   0.582   0.228   5.836  0.8966  0.6622  0.0226
 4558SOL    HW225137   0.610   0.211   5.984  0.6918 -0.7167 -0.0755
 4559SOL     OW25138   2.312   3.930   1.656 -0.0507 -0.2346  0.2687
 4559SOL    HW125139   2.248   3.861   1.675 -0.2428  0.0645  0.7218
 4559SOL    HW225140   2.275   3.953   1.570  0.6216 -0.3295 -0.0482
 4560SOL     OW25141   1.518   3.819   4.098  0.3188 -0.1593  0.4633
 4560SOL    HW125142   1.537   3.787   4.010 -1.1572 -0.6594  0.3398
 4560SOL    HW225143   1.436   3.778   4.123 -0.0975 -0.0707 -0.7464
 4561SOL     OW25144   3.457   0.041  11.655  0.1091  0.0005 -0.0640
 4561SOL    HW125145   3.516   0.087  11.595  0.6059 -0.8460 -0.2355
 4561SOL    HW225146   3.511   4.682  11.667 -2.3437 -1.8539 -1.2953
 4562SOL     OW25147   1.714   0.065   4.123 -0.2104  0.2520 -0.4801
 4562SOL    HW125148   1.746   0.135   4.066  0.9294  0.9805  1.0592
 4562SOL    HW225149   1.692   0.117   4.200 -1.2377  0.9938 -1.2765
 4563SOL     OW25150   1.140   0.619   7.617  0.1001  0.1724 -0.1004
 4563SOL    HW125151   1.233   0.596   7.607 -0.2140 -2.0986  2.1941
 4563SOL    HW225152   1.117   0.542   7.669  1.9487 -1.4321 -1.6341
 4564SOL     OW25153   0.796   1.102   0.877 -0.1811 -0.1250  0.3339
 4564SOL    HW125154   0.788   1.197   0.863  0.4892  0.2657  2.6437
 4564SOL    HW225155   0.759   1.066   0.796 -0.0544  1.5709 -0.4855
 4565SOL     OW25156   3.988   0.927   0.163  0.1754  0.1528  0.3204
 4565SOL    HW125157   4.013   0.837   0.143  2.9901  1.1814 -0.8578
 4565SOL    HW225158   3.908   0.944   0.113  1.6823  0.4687 -1.9901
 4566SOL     OW25159   3.409   3.738   0.293 -0.3908 -0.7675  0.3067
 4566SOL    HW125160   3.410   3.651   0.333 -1.3303  0.2324  2.4921
 4566SOL    HW225161   3.467   3.785   0.354 -0.9440 -1.6065  1.4775
 4567SOL     OW25162   0.706   2.263   7.175  0.1808 -0.0964 -0.1038
 4567SOL    HW125163   0.756   2.299   7.248 -0.4524 -0.7279  0.6314
 4567SOL    HW225164   0.641   2.210   7.220  0.6181  0.6572  1.4412
 4568SOL     OW25165   3.580   3.095   6.999 -0.1600 -0.5960 -0.0595
 4568SOL    HW125166   3.515   3.027   6.977  0.8736 -2.7943  3.6202
 4568SOL    HW225167   3.633   3.046   7.062  0.2672  0.5926  0.4961
 4569SOL     OW25168   1.073   2.990   7.987  0.0108 -0.3572  1.2501
 4569SOL    HW125169   1.070   2.898   8.011  3.5489 -0.3134  1.9598
 4569SOL    HW225170   1.161   2.985   7.949 -1.4265 -0.7175 -2.1002
 4570SOL     OW25171   1.851   3.309  10.054  0.6094  1.0441  0.0235
 4570SOL    HW125172   1.936   3.266  10.067 -0.0055 -0.2325 -0.2300
 4570SOL    HW225173   1.894   3.389  10.025  3.3971 -0.0601  1.0825
 4571SOL     OW25174   2.111   4.303   7.095  0.0262 -0.0959 -0.3495
 4571SOL    HW125175   2.127   4.383   7.145  0.6654 -1.5123  1.7012
 4571SOL    HW225176   2.023   4.324   7.064 -0.4461 -0.5086  0.7278
 4572SOL     OW25177   4.591   3.946   0.247 -0.1095 -0.1521 -0.1336
 4572SOL    HW125178   4.577   4.008   0.319  0.2856  1.7260 -1.6893
 4572SOL    HW225179   4.684   3.952   0.229 -0.3691  0.3857 -1.2639
 4573SOL     OW25180   3.336   1.331  15.880  0.0560 -0.6025  0.5382
 4573SOL    HW125181   3.250   1.329  15.837  0.3747 -1.1261 -0.0764
 4573SOL    HW225182   3.332   1.264  15.948 -0.6652 -0.6700  0.4229
 4574SOL     OW25183   0.837   0.559   8.389  0.3035  0.4884 -0.0639
 4574SOL    HW125184   0.767   0.624   8.391  0.4520  0.6444  0.0454
 4574SOL    HW225185   0.837   0.534   8.297  0.0067  0.5981 -0.0934
 4575SOL     OW25186   4.156   4.601   1.075 -0.3935  0.8994 -0.6768
 4575SOL    HW125187   4.249   4.623   1.087  0.2484 -2.1406 -0.1517
 4575SOL    HW225188   4.129   4.667   1.011 -0.7948 -1.6154 -3.1095
 4576SOL     OW25189   3.691   4.068  12.716  0.3081 -0.2260  0.2318
 4576SOL    HW125190   3.703   4.087  12.623  0.0504 -0.0518  0.2338
 4576SOL    HW225191   3.607   4.107  12.739 -0.3485 -0.2114 -2.1857
 4577SOL     OW25192   3.008   2.320   6.952 -0.1489  0.6345 -0.7344
 4577SOL    HW125193   3.093   2.297   6.990 -0.8807 -5.0419 -2.5854
 4577SOL    HW225194   3.030   2.409   6.924  1.0124  0.5030 -0.2352
 4578SOL     OW25195   4.152   3.173   8.344 -0.0238  0.5586  0.5663
 4578SOL    HW125196   4.160   3.201   8.435  0.2826  2.0641  0.0716
 4578SOL    HW225197   4.071   3.216   8.317 -0.7233 -0.3892  1.1984
 4579SOL     OW25198   1.644   1.242  15.614  0.2962  0.1948  0.1963
 4579SOL    HW125199   1.672   1.332  15.598  1.0561 -0.1541 -0.4603
 4579SOL    HW225200   1.549   1.244  15.625  0.1343 -0.9479 -1.0064
 4580SOL     OW25201   4.521   4.591  16.330  0.0404 -0.4991 -0.6142
 4580SOL    HW125202   4.538   4.640  16.249  1.2330 -0.5305 -0.3836
 4580SOL    HW225203   4.532   4.498  16.309 -2.1130 -1.3299  1.9840
 4581SOL     OW25204   3.191   1.371   4.062 -0.0402 -0.6586 -0.6131
 4581SOL    HW125205   3.256   1.336   4.002  0.3747  2.1690 -1.8544
 4581SOL    HW225206   3.109   1.366   4.013 -0.4978  1.1666 -0.0736
 4582SOL     OW25207   3.877   4.125   9.976  0.0098  0.0937  0.4549
 4582SOL    HW125208   3.849   4.216   9.971 -1.1280 -0.3301 -0.9518
 4582SOL    HW225209   3.795   4.077   9.964  0.2178 -0.2739  0.4831
 4583SOL     OW25210   2.308   2.267  11.946 -0.0716  0.1596  0.2535
 4583SOL    HW125211   2.336   2.357  11.960 -1.0462  0.4545  0.3208
 4583SOL    HW225212   2.218   2.279  11.978 -0.4449  1.1966 -1.2042
 4584SOL     OW25213   2.446   4.696  15.243 -0.3990 -0.0455  0.3219
 4584SOL    HW125214   2.453   0.071  15.258  0.2190 -0.2770  1.4899
 4584SOL    HW225215   2.518   4.649  15.285 -0.3275  1.1330  1.5051
 4585SOL     OW25216   2.027   1.510   2.685  0.2814  0.0371 -0.2781
 4585SOL    HW125217   1.950   1.538   2.635  1.3890  1.9853 -0.9064
 4585SOL    HW225218   2.006   1.547   2.771  0.7890  2.0496 -1.0145
 4586SOL     OW25219   2.647   0.909   1.587 -0.2062 -0.1376  0.6450
 4586SOL    HW125220   2.639   0.834   1.528 -0.1207  1.8729 -1.9057
 4586SOL    HW225221   2.690   0.872   1.665  1.4889 -0.8727 -0.6407
 4587SOL     OW25222   2.903   3.693   4.316 -0.5424 -0.0428 -0.3863
 4587SOL    HW125223   2.873   3.606   4.343  3.1537 -1.0653  0.3680
 4587SOL    HW225224   2.919   3.678   4.223  1.5522  0.3609 -0.0790
 4588SOL     OW25225   4.499   2.546   8.537  0.4834  0.0907  0.3027
 4588SOL    HW125226   4.447   2.491   8.478  0.8321 -0.8947  0.9106
 4588SOL    HW225227   4.465   2.503   8.615  1.6223  1.0255  1.3086
 4589SOL     OW25228   0.674   1.359   2.875  0.1537  0.0734 -0.6021
 4589SOL    HW125229   0.711   1.442   2.903 -0.4840  0.6697 -1.5259
 4589SOL    HW225230   0.677   1.376   2.780 -0.6562  0.8373 -0.4883
 4590SOL     OW25231   2.954   2.963   1.472  0.5324 -0.7588 -0.5642
 4590SOL    HW125232   2.914   2.993   1.390 -0.0653 -1.0061 -0.3587
 4590SOL    HW225233   2.891   2.947   1.542  1.0340 -1.0697 -0.1928
 4591SOL     OW25234   0.823   3.876   1.235 -0.3458  0.5714 -0.1421
 4591SOL    HW125235   0.839   3.935   1.161  0.8984  2.1754  1.4006
 4591SOL    HW225236   0.745   3.830   1.205  2.0257 -3.2130 -0.4964
 4592SOL     OW25237   2.550   1.623  10.582  0.5713  0.2595 -0.2105
 4592SOL    HW125238   2.474   1.671  10.615  0.6783  0.9124 -0.8919
 4592SOL    HW225239   2.523   1.533  10.597 -1.2319  0.8401  0.0521
 4593SOL     OW25240   4.121   0.399  13.106  0.2379  0.0864 -0.2126
 4593SOL    HW125241   4.038   0.377  13.064  0.2594  1.2561 -0.9015
 4593SOL    HW225242   4.145   0.488  13.078 -0.1420 -0.3746 -1.9889
 4594SOL     OW25243   2.592   2.178   6.579 -0.2396  0.7646 -0.4425
 4594SOL    HW125244   2.571   2.115   6.649  0.0744 -0.8584 -1.8016
 4594SOL    HW225245   2.687   2.175   6.591 -0.4016 -0.9780  0.4694
 4595SOL     OW25246   0.680   4.369   8.353  0.3542 -0.1533 -0.3224
 4595SOL    HW125247   0.745   4.434   8.327 -0.5289  0.9341  0.2004
 4595SOL    HW225248   0.600   4.421   8.345  0.3316 -0.1392 -0.0126
 4596SOL     OW25249   1.084   0.789   6.773  0.2492 -0.0110  0.1521
 4596SOL    HW125250   1.005   0.836   6.747  1.3634  1.6471 -0.2271
 4596SOL    HW225251   1.135   0.801   6.693 -2.0125 -0.7908 -1.4156
 4597SOL     OW25252   3.675   0.365  12.239 -0.3555 -0.0222 -0.8616
 4597SOL    HW125253   3.642   0.333  12.323  3.6306 -1.2073  0.2106
 4597SOL    HW225254   3.755   0.314  12.228 -1.0919 -1.8560  2.2468
 4598SOL     OW25255   3.228   1.134   4.986 -0.3644 -0.1940  0.3496
 4598SOL    HW125256   3.263   1.179   4.910  0.6528 -2.3369 -0.4523
 4598SOL    HW225257   3.236   1.208   5.046 -0.9310  1.2374 -1.3575
 4599SOL     OW25258   0.609   4.403  14.392  0.1824 -0.5849  0.3610
 4599SOL    HW125259   0.648   4.331  14.442 -0.5327  0.1156  1.9142
 4599SOL    HW225260   0.592   4.474  14.453  0.4581  1.3121 -1.7579
 4600SOL     OW25261   1.859   0.692   3.124  0.8266  0.0937  0.2338
 4600SOL    HW125262   1.883   0.623   3.061  1.5520 -0.9837  1.6768
 4600SOL    HW225263   1.773   0.724   3.098  0.0783 -1.6751  0.5337
 4601SOL     OW25264   0.012   0.231  14.721  0.0654 -0.0415  0.4695
 4601SOL    HW125265   0.105   0.210  14.720  0.1821  0.4705  0.8577
 4601SOL    HW225266   0.011   0.312  14.772 -1.2386 -0.4406  1.0679
 4602SOL     OW25267   2.774   0.146   1.442 -0.4066  0.4922 -0.8148
 4602SOL    HW125268   2.852   0.105   1.405 -0.1451  0.0878  0.1910
 4602SOL    HW225269   2.787   0.124   1.534  1.7226 -3.5924 -2.0855
 4603SOL     OW25270   0.800   2.895   3.997 -0.0337  0.7543  0.1501
 4603SOL    HW125271   0.719   2.863   3.959  1.2234 -0.7163 -1.3126
 4603SOL    HW225272   0.773   2.935   4.080 -0.3229 -0.5164  0.6640
 4604SOL     OW25273   3.494   2.583   8.713 -0.2832  0.1953 -0.8487
 4604SOL    HW125274   3.477   2.624   8.628  0.9857 -0.6899 -1.5348
 4604SOL    HW225275   3.412   2.537   8.730 -0.7868  1.5806  0.3824
 4605SOL     OW25276   0.707   0.663  11.382  0.0610  0.8051  0.4489
 4605SOL    HW125277   0.778   0.720  11.411  0.5038  0.5218 -0.0829
 4605SOL    HW225278   0.746   0.580  11.407 -0.5985  0.5758  0.7263
 4606SOL     OW25279   3.629   3.447  15.582  0.0833  0.1438 -0.5606
 4606SOL    HW125280   3.605   3.479  15.669 -0.9100  1.7559 -1.4323
 4606SOL    HW225281   3.650   3.525  15.532  1.0526  0.0796 -0.2674
 4607SOL     OW25282   0.598   1.169   8.793 -0.1725  0.2011 -0.3440
 4607SOL    HW125283   0.589   1.141   8.702 -0.4414  0.9947 -0.5562
 4607SOL    HW225284   0.506   1.160   8.817  0.8121 -1.1213  2.9177
 4608SOL     OW25285   4.323   3.015   8.975 -0.4203 -0.4614  0.6822
 4608SOL    HW125286   4.243   2.972   8.943 -0.1573 -0.1701 -0.3574
 4608SOL    HW225287   4.302   3.039   9.065 -0.1473  0.3664  0.5278
 4609SOL     OW25288   4.696   1.841  12.738  0.5765 -0.2463 -0.2085
 4609SOL    HW125289   4.642   1.920  12.733 -0.4783 -0.9994 -0.7215
 4609SOL    HW225290   4.636   1.769  12.718  1.8316 -1.4216  0.1918
 4610SOL     OW25291   1.959   3.169   5.090  0.1568  0.4396 -0.0272
 4610SOL    HW125292   1.959   3.217   5.173  2.6265 -1.0217  0.8452
 4610SOL    HW225293   2.022   3.098   5.101 -1.7987 -1.1234  1.0076
 4611SOL     OW25294   1.025   2.528  17.033  0.4737  0.2745  0.2688
 4611SOL    HW125295   1.029   2.595  16.965 -0.2212  1.1130  1.0497
 4611SOL    HW225296   0.932   2.531  17.055 -0.2288 -0.7565 -2.6514
 4612SOL     OW25297   2.775   3.522   0.389  0.1266  0.3023  0.2891
 4612SOL    HW125298   2.846   3.479   0.436 -0.4618 -0.2097  0.7029
 4612SOL    HW225299   2.707   3.457   0.405 -0.4019  0.9519  0.7095
 4613SOL     OW25300   0.344   3.317   0.599  0.5697 -0.0997  0.2198
 4613SOL    HW125301   0.337   3.280   0.511 -0.7576 -2.2380  1.2344
 4613SOL    HW225302   0.353   3.233   0.643 -0.1731 -0.1530  0.2697
 4614SOL     OW25303   3.762   2.307   1.807 -0.2138  0.5208 -0.3321
 4614SOL    HW125304   3.858   2.314   1.814 -0.0941 -2.4242  1.1379
 4614SOL    HW225305   3.736   2.320   1.899  0.7607  0.2887 -0.0159
 4615SOL     OW25306   4.284   3.062  17.433 -0.1258  0.0544 -0.0878
 4615SOL    HW125307   4.307   3.154  17.423  2.6083 -0.8936 -2.4449
 4615SOL    HW225308   4.275   3.033  17.342  2.3372 -1.5534  0.2043
 4616SOL     OW25309   3.700   2.746   2.628 -0.8683  0.2574 -0.0702
 4616SOL    HW125310   3.739   2.679   2.684 -1.7060  1.5677  2.0723
 4616SOL    HW225311   3.684   2.806   2.701  2.3551 -0.6429  1.3725
 4617SOL     OW25312   0.294   4.332  15.149  0.0309 -0.5539 -0.3140
 4617SOL    HW125313   0.207   4.293  15.154 -0.4804  1.0325  3.6677
 4617SOL    HW225314   0.296   4.371  15.062  4.2455  0.7418  0.3313
 4618SOL     OW25315   1.787   1.050   5.647 -0.1037 -0.1634  0.0184
 4618SOL    HW125316   1.819   1.023   5.733 -0.7333 -0.2582  0.2276
 4618SOL    HW225317   1.707   0.998   5.640  0.5153 -1.3944  1.9657
 4619SOL     OW25318   2.774   0.254   6.951 -0.0929 -0.0030  0.3261
 4619SOL    HW125319   2.701   0.225   6.897 -1.2794 -1.0028  2.4637
 4619SOL    HW225320   2.840   0.185   6.956 -1.2171 -1.1178 -0.4508
 4620SOL     OW25321   2.145   2.560   6.896 -0.1671  0.1210 -0.2815
 4620SOL    HW125322   2.139   2.603   6.810  2.5402 -2.6046 -1.8236
 4620SOL    HW225323   2.234   2.529   6.910 -0.5603 -1.7244 -1.8255
 4621SOL     OW25324   1.595   3.348  16.511 -0.4820  0.5963  0.2851
 4621SOL    HW125325   1.666   3.378  16.568  1.5294 -2.0685 -0.7795
 4621SOL    HW225326   1.545   3.428  16.497 -0.8130  0.6059  1.5788
 4622SOL     OW25327   3.507   4.316   5.889 -0.0957 -0.4125  0.3636
 4622SOL    HW125328   3.421   4.287   5.858 -0.4497  0.2966  0.6970
 4622SOL    HW225329   3.559   4.260   5.832  1.7014  0.8429  0.7759
 4623SOL     OW25330   1.938   2.769   6.933 -0.1567 -0.5161  0.9740
 4623SOL    HW125331   1.875   2.790   7.002  0.9274 -0.7088  2.0021
 4623SOL    HW225332   1.926   2.677   6.909 -2.9993 -0.1355  0.8584
 4624SOL     OW25333   1.953   3.181   7.425 -0.4220  0.5105 -0.3732
 4624SOL    HW125334   1.879   3.239   7.438 -1.3110 -0.7134  0.0850
 4624SOL    HW225335   1.952   3.184   7.330 -0.3672 -1.6339 -0.4581
 4625SOL     OW25336   4.700   3.873   9.414  0.8489  0.3147 -0.2419
 4625SOL    HW125337   0.058   3.827   9.382 -0.0987 -3.5227  2.9562
 4625SOL    HW225338   4.634   3.804   9.421 -0.1260  1.4905  2.1668
 4626SOL     OW25339   2.324   1.027  12.028  0.1829  0.0302 -0.6748
 4626SOL    HW125340   2.238   1.002  11.992 -0.8359  1.2866  0.8948
 4626SOL    HW225341   2.332   1.119  12.004  0.4669  0.0412 -0.5283
 4627SOL     OW25342   3.776   2.396   3.353 -0.3755  0.2809  0.1763
 4627SOL    HW125343   3.732   2.375   3.272  2.0905  1.9615 -1.6191
 4627SOL    HW225344   3.853   2.446   3.324 -1.7787  1.0122 -2.2177
 4628SOL     OW25345   2.952   1.305   1.527  0.4265  0.3496  0.0558
 4628SOL    HW125346   2.945   1.210   1.539 -3.3957  0.4483 -1.3810
 4628SOL    HW225347   2.864   1.325   1.495  0.1218 -2.1589 -0.6497
 4629SOL     OW25348   2.295   1.982   8.061  0.0840 -0.2481  0.1678
 4629SOL    HW125349   2.210   2.014   8.090 -0.2575 -0.4139 -0.6630
 4629SOL    HW225350   2.320   2.059   8.010 -0.0154  0.4277  1.1377
 4630SOL     OW25351   2.708   0.467  13.800 -0.3476 -0.0520  0.0543
 4630SOL    HW125352   2.768   0.409  13.848 -0.9004 -0.2246  0.5322
 4630SOL    HW225353   2.722   0.550  13.846 -1.5024 -0.7064  1.5504
 4631SOL     OW25354   1.960   1.604   2.085  0.7193 -0.2026  0.6177
 4631SOL    HW125355   1.940   1.693   2.114  0.3548 -0.8795  2.4559
 4631SOL    HW225356   1.977   1.565   2.171 -0.7668 -1.0145  0.5526
 4632SOL     OW25357   0.102   3.556  16.402 -0.3535  0.4577  0.2698
 4632SOL    HW125358   0.142   3.585  16.484 -1.3450  0.6314  0.6934
 4632SOL    HW225359   0.028   3.509  16.442  1.2918 -0.6259  2.0791
 4633SOL     OW25360   1.048   4.101   7.242  0.2781  0.0949  0.1057
 4633SOL    HW125361   1.054   4.025   7.185 -1.0374 -0.1392  0.2706
 4633SOL    HW225362   1.116   4.158   7.207  0.1524 -0.3556 -0.8689
 4634SOL     OW25363   2.904   3.263   8.755  0.4592  0.4633  0.1488
 4634SOL    HW125364   2.826   3.269   8.811  0.5620  0.1206  0.3301
 4634SOL    HW225365   2.971   3.272   8.823  3.0010 -0.8109 -2.1701
 4635SOL     OW25366   3.796   2.143  13.505  0.3715  0.6350  0.0961
 4635SOL    HW125367   3.762   2.118  13.419  0.0278 -0.9013  0.6743
 4635SOL    HW225368   3.890   2.138  13.486  0.2455  1.2447 -0.7000
 4636SOL     OW25369   3.517   3.803   4.881  0.7316 -0.4848  0.2145
 4636SOL    HW125370   3.498   3.781   4.972 -0.6500  2.6441  0.7252
 4636SOL    HW225371   3.488   3.725   4.834 -1.3563  0.5102 -0.1691
 4637SOL     OW25372   0.573   3.676   4.158  0.1594 -0.6467 -0.6284
 4637SOL    HW125373   0.593   3.667   4.251  1.5073  0.7390 -0.7788
 4637SOL    HW225374   0.478   3.677   4.151  0.1072  0.0269  0.1459
 4638SOL     OW25375   0.541   1.914   5.505 -0.1513 -0.1426 -0.1344
 4638SOL    HW125376   0.464   1.918   5.561  0.3340 -1.7015  0.6435
 4638SOL    HW225377   0.608   1.911   5.573 -1.3628  1.6321  1.1538
 4639SOL     OW25378   2.616   3.442  14.569 -0.0249  0.0807 -0.0141
 4639SOL    HW125379   2.593   3.527  14.607 -0.2737 -0.4474  1.0199
 4639SOL    HW225380   2.560   3.427  14.493 -1.1841  0.9115  0.6755
 4640SOL     OW25381   4.705   3.820  11.962  0.2443 -0.2705  0.1007
 4640SOL    HW125382   0.072   3.840  11.925  1.0279 -1.8746  1.0504
 4640SOL    HW225383   0.002   3.762  12.037  4.1099  0.1604 -0.4107
 4641SOL     OW25384   1.995   1.082  12.395  0.2887  0.0474 -0.3428
 4641SOL    HW125385   1.945   1.041  12.465 -1.5622  3.0237  0.0889
 4641SOL    HW225386   2.045   1.006  12.365 -1.5708 -1.8295  1.3067
 4642SOL     OW25387   3.863   3.384   1.306  0.0962  0.1772  0.0914
 4642SOL    HW125388   3.901   3.472   1.306  1.1021 -0.2496 -0.5969
 4642SOL    HW225389   3.909   3.338   1.377  0.2865  2.9857  1.7788
 4643SOL     OW25390   1.300   0.543  15.233  0.3367  0.1745  0.4814
 4643SOL    HW125391   1.277   0.496  15.153  0.4312  1.4373 -0.2893
 4643SOL    HW225392   1.281   0.471  15.293  0.5539  1.8662  2.5943
 4644SOL     OW25393   0.611   1.342   6.046 -0.1037  0.1552  0.4834
 4644SOL    HW125394   0.689   1.289   6.060  0.9246  1.2246 -1.1464
 4644SOL    HW225395   0.566   1.297   5.974 -1.0559  2.1985 -0.2227
 4645SOL     OW25396   0.104   1.226   4.122  0.3376  0.6419 -0.3494
 4645SOL    HW125397   0.159   1.242   4.045 -0.3928  0.5740 -0.8811
 4645SOL    HW225398   0.103   1.318   4.150  3.3237  0.5048  0.3169
 4646SOL     OW25399   1.189   1.668   7.583 -0.0707  0.4783 -0.5647
 4646SOL    HW125400   1.280   1.699   7.584  0.0278  0.2629 -2.5094
 4646SOL    HW225401   1.163   1.661   7.491 -0.7706  0.0978 -0.3336
 4647SOL     OW25402   0.730   1.399   8.802 -0.0177  0.5573 -0.1292
 4647SOL    HW125403   0.671   1.461   8.759 -0.8160  0.0747  0.2864
 4647SOL    HW225404   0.690   1.314   8.789  1.2676  0.0657 -0.9302
 4648SOL     OW25405   3.532   0.334   5.529  0.9462  0.1919 -0.4961
 4648SOL    HW125406   3.604   0.291   5.575 -0.0319  0.1565  0.9925
 4648SOL    HW225407   3.474   0.264   5.499 -0.7106  1.0982  0.6215
 4649SOL     OW25408   1.926   3.318   6.189 -0.1942 -0.8745  0.2143
 4649SOL    HW125409   1.920   3.312   6.284 -2.2761 -2.3411  0.0058
 4649SOL    HW225410   2.015   3.347   6.171 -0.3320 -1.7483 -1.9277
 4650SOL     OW25411   0.214   2.260   8.193 -0.0098 -0.1095 -1.3314
 4650SOL    HW125412   0.173   2.294   8.272 -0.8317 -0.3768 -1.6431
 4650SOL    HW225413   0.256   2.342   8.167 -0.8237  0.3644 -1.1103
 4651SOL     OW25414   0.238   2.116  11.030 -0.2961 -0.0472 -0.2158
 4651SOL    HW125415   0.169   2.177  11.007  0.1288  0.4540 -0.1663
 4651SOL    HW225416   0.314   2.172  11.014  0.7604 -1.1280  0.9562
 4652SOL     OW25417   4.649   3.305   2.559 -0.2388  0.2655 -0.0852
 4652SOL    HW125418   4.624   3.299   2.467 -0.0389 -0.4641 -0.0964
 4652SOL    HW225419   4.687   3.392   2.564  2.5611 -1.0097  1.1331
 4653SOL     OW25420   4.383   1.048   5.233  0.0604  0.4033 -0.0742
 4653SOL    HW125421   4.367   0.955   5.216 -2.2584  0.5276  1.4391
 4653SOL    HW225422   4.425   1.074   5.150  0.4103 -1.9022 -0.6150
 4654SOL     OW25423   3.202   0.289   8.654 -0.0393  0.5719  0.1119
 4654SOL    HW125424   3.191   0.251   8.741  0.6298  1.8909  0.7715
 4654SOL    HW225425   3.294   0.276   8.631  0.2179  2.4169  0.0786
 4655SOL     OW25426   3.216   1.921   2.734  0.1692 -0.4324 -0.3115
 4655SOL    HW125427   3.124   1.899   2.717  0.3483 -0.4569 -1.2909
 4655SOL    HW225428   3.252   1.949   2.650 -0.6796  0.2017 -0.4722
 4656SOL     OW25429   2.557   1.432   2.889 -0.0932 -0.2781 -0.3781
 4656SOL    HW125430   2.481   1.436   2.948  0.8802 -0.3673  0.8929
 4656SOL    HW225431   2.537   1.506   2.832  0.3011  0.1699  0.0566
 4657SOL     OW25432   2.669   1.353   5.816 -0.1391  0.1829  0.3567
 4657SOL    HW125433   2.711   1.304   5.887  1.6362  0.4205 -0.5358
 4657SOL    HW225434   2.614   1.419   5.858 -2.1195 -1.2725  0.0565
 4658SOL     OW25435   2.851   3.910   8.170  0.1469 -0.4576  0.0440
 4658SOL    HW125436   2.775   3.880   8.119  0.5602  2.1345 -2.0953
 4658SOL    HW225437   2.919   3.918   8.104 -2.2825  0.6742 -2.3100
 4659SOL     OW25438   2.478   2.823   0.886  0.3557 -0.2000  0.3654
 4659SOL    HW125439   2.391   2.835   0.925 -0.2977 -0.3302 -1.0582
 4659SOL    HW225440   2.517   2.910   0.894 -1.1368  0.4089  1.0433
 4660SOL     OW25441   4.565   3.338   6.250  0.0121 -0.1815 -0.4393
 4660SOL    HW125442   4.481   3.344   6.296  0.0007  0.8302 -0.5890
 4660SOL    HW225443   4.631   3.345   6.318  0.3086 -1.3644 -0.5999
 4661SOL     OW25444   1.104   1.003   4.787  0.0914  0.5439 -0.1696
 4661SOL    HW125445   1.103   1.066   4.860 -1.3773  0.6817 -0.3036
 4661SOL    HW225446   1.155   1.047   4.720 -2.0111  0.3423 -1.9159
 4662SOL     OW25447   2.160   0.895   2.769  0.4040  0.5646 -0.0125
 4662SOL    HW125448   2.116   0.822   2.725  1.9281  0.5959 -1.5984
 4662SOL    HW225449   2.097   0.967   2.765  0.3969  0.5608  0.0363
 4663SOL     OW25450   2.236   2.883  13.761 -0.2135  0.2836 -0.4580
 4663SOL    HW125451   2.266   2.845  13.844 -0.9214  0.7311  0.0105
 4663SOL    HW225452   2.164   2.940  13.789 -0.8350 -1.1016  0.7561
 4664SOL     OW25453   3.557   2.797  14.354 -0.0637  0.5456  0.2119
 4664SOL    HW125454   3.485   2.826  14.410  0.2207  1.1902  0.2423
 4664SOL    HW225455   3.558   2.871  14.292  0.7703 -0.7403 -1.3175
 4665SOL     OW25456   3.870   4.671   2.750 -0.3237 -0.0145 -0.2438
 4665SOL    HW125457   3.890   4.695   2.659  0.8359  3.5729  0.9613
 4665SOL    HW225458   3.807   0.018   2.777 -2.4932 -1.1625 -2.4515
 4666SOL     OW25459   4.532   2.054   6.107 -0.4502  0.3158  0.2103
 4666SOL    HW125460   4.490   2.120   6.162 -1.4320 -1.6002  1.7755
 4666SOL    HW225461   4.598   2.104   6.058  2.7769 -2.8424  1.3149
 4667SOL     OW25462   1.541   3.539   5.068 -0.1889  0.0602 -0.7131
 4667SOL    HW125463   1.508   3.526   5.157 -0.7710  0.4668 -0.8710
 4667SOL    HW225464   1.519   3.454   5.030 -0.6841  0.2083 -0.7565
 4668SOL     OW25465   1.436   1.738   2.316 -0.3261 -0.3934 -0.1468
 4668SOL    HW125466   1.432   1.771   2.226  0.5766  1.0793  0.3707
 4668SOL    HW225467   1.349   1.761   2.351 -1.0507 -1.2458 -1.3744
 4669SOL     OW25468   2.562   2.376   3.826 -0.0653 -0.4386 -0.2130
 4669SOL    HW125469   2.547   2.373   3.732 -1.1398 -3.3713  0.0581
 4669SOL    HW225470   2.500   2.446   3.847  0.4501 -0.4477  1.3454
 4670SOL     OW25471   2.186   2.290   3.747  0.4699  0.0599  0.8122
 4670SOL    HW125472   2.228   2.205   3.759  1.2338  0.0828 -1.7645
 4670SOL    HW225473   2.207   2.330   3.831 -1.1487 -1.6462  2.0294
 4671SOL     OW25474   1.372   1.127   2.921 -0.5019  0.1231  0.3060
 4671SOL    HW125475   1.431   1.195   2.888  0.4947 -1.1654 -0.5455
 4671SOL    HW225476   1.357   1.058   2.856  1.9423 -0.5471  0.4680
 4672SOL     OW25477   2.630   4.403   4.957 -0.0590 -0.2324 -0.1825
 4672SOL    HW125478   2.537   4.418   4.976 -0.3437 -1.7254 -0.3899
 4672SOL    HW225479   2.642   4.329   5.017 -1.4603 -1.6333 -1.5991
 4673SOL     OW25480   0.726   3.596   6.242 -0.6925 -0.2278  0.3929
 4673SOL    HW125481   0.765   3.620   6.158  2.5136  1.0956  2.2413
 4673SOL    HW225482   0.801   3.551   6.283  0.1868  0.2584 -0.6850
 4674SOL     OW25483   3.863   4.213   5.388  0.3412  0.0294 -0.0793
 4674SOL    HW125484   3.788   4.154   5.401 -0.4942  0.5784 -2.4866
 4674SOL    HW225485   3.939   4.158   5.407 -0.3183 -1.1118 -0.7383
 4675SOL     OW25486   2.056   4.653   0.730 -0.1540 -0.1836  0.5747
 4675SOL    HW125487   1.966   4.629   0.709 -0.0441 -0.2683  0.1976
 4675SOL    HW225488   2.068   4.601   0.810 -2.4951 -0.0835  0.9803
 4676SOL     OW25489   1.937   0.884  11.687 -0.6304  0.4816  0.5091
 4676SOL    HW125490   1.882   0.832  11.744 -2.3342  0.8822 -0.7678
 4676SOL    HW225491   1.885   0.881  11.606 -0.1375  0.2576  0.1991
 4677SOL     OW25492   1.924   0.074   6.935  0.1026  0.5612  0.2794
 4677SOL    HW125493   2.019   0.064   6.943 -0.0533 -0.4333  0.9893
 4677SOL    HW225494   1.916   0.167   6.956  0.4652 -0.0374  3.1209
 4678SOL     OW25495   3.092   3.988   8.355 -0.4200  0.3930 -0.4124
 4678SOL    HW125496   3.129   3.992   8.443 -0.8015 -0.1887 -0.2256
 4678SOL    HW225497   2.998   4.002   8.368 -0.3686 -1.5358  1.9357
 4679SOL     OW25498   3.549   0.745  16.355 -0.1607  0.0885  1.1101
 4679SOL    HW125499   3.519   0.720  16.268 -0.3759  1.0512  0.9122
 4679SOL    HW225500   3.473   0.711  16.402 -1.8537  0.1811 -1.5741
 4680SOL     OW25501   4.353   0.293  13.977  0.2635  0.0481  0.3697
 4680SOL    HW125502   4.387   0.329  13.895  0.2735  0.8806  0.7452
 4680SOL    HW225503   4.259   0.306  13.968  0.8654  3.4614 -0.8282
 4681SOL     OW25504   1.275   1.714   3.379  0.4473  0.2416 -0.1942
 4681SOL    HW125505   1.232   1.641   3.334  0.2911  0.8692 -1.0438
 4681SOL    HW225506   1.297   1.778   3.311  0.2835  0.9612  0.4358
 4682SOL     OW25507   4.366   0.504  12.958 -0.0523  0.3542  0.0783
 4682SOL    HW125508   4.391   0.555  13.035 -1.3615  0.4455  0.4336
 4682SOL    HW225509   4.452   0.466  12.941  1.0219  3.1666 -0.8179
 4683SOL     OW25510   0.045   1.323  11.459  0.0554  1.3906  0.2214
 4683SOL    HW125511   4.697   1.294  11.520  1.2365  1.5986  1.6495
 4683SOL    HW225512   0.072   1.406  11.499  0.7144  0.5410  1.5764
 4684SOL     OW25513   1.410   3.465  16.228  0.0951 -0.1289  0.3005
 4684SOL    HW125514   1.437   3.375  16.209 -0.4226 -0.3517  0.6235
 4684SOL    HW225515   1.493   3.512  16.237 -0.4259  0.7663  0.4127
 4685SOL     OW25516   3.095   0.634   3.036  0.2977 -0.5634 -0.2159
 4685SOL    HW125517   3.040   0.681   2.974  1.6140  1.0775 -0.1475
 4685SOL    HW225518   3.043   0.642   3.116  2.1047  0.4567  0.8560
 4686SOL     OW25519   3.165   4.290   4.627 -1.0821 -0.0391 -0.3413
 4686SOL    HW125520   3.087   4.273   4.679 -1.8464  1.3861 -1.0143
 4686SOL    HW225521   3.126   4.305   4.541 -0.6247  0.0077 -0.5424
 4687SOL     OW25522   1.468   1.660  11.359 -0.1655 -0.6292 -0.0112
 4687SOL    HW125523   1.421   1.580  11.381 -0.2802 -0.6448 -0.3216
 4687SOL    HW225524   1.492   1.641  11.269  0.9504  0.1941  0.1052
 4688SOL     OW25525   4.062   3.775   5.293  0.1925 -0.0426  0.3033
 4688SOL    HW125526   4.064   3.685   5.261 -3.6587  0.7646 -2.2230
 4688SOL    HW225527   3.988   3.812   5.245 -1.0679 -0.8384  1.6559
 4689SOL     OW25528   3.049   1.221   2.261 -0.2188 -0.1759  0.3677
 4689SOL    HW125529   3.050   1.311   2.227 -0.8287 -0.1694  0.3786
 4689SOL    HW225530   3.144   1.213   2.255 -0.0840  0.4855  1.7934
 4690SOL     OW25531   1.237   2.287   3.032 -0.0030 -0.2330 -0.2651
 4690SOL    HW125532   1.220   2.294   2.938  1.4928 -0.8122 -0.5769
 4690SOL    HW225533   1.186   2.207   3.041  0.2498 -0.2082  1.3710
 4691SOL     OW25534   2.095   2.274   6.280  0.1540  0.1318  0.2125
 4691SOL    HW125535   2.025   2.260   6.216  1.6525 -0.1181 -1.3737
 4691SOL    HW225536   2.164   2.279   6.214  2.0661  1.6614  2.3083
 4692SOL     OW25537   2.704   2.214   0.405 -0.2982  0.2238  0.3788
 4692SOL    HW125538   2.641   2.174   0.465  0.4278  0.7534  1.4728
 4692SOL    HW225539   2.710   2.150   0.334 -0.4605  0.0931  0.4831
 4693SOL     OW25540   0.682   4.256   2.570 -0.3673  0.1039  0.0935
 4693SOL    HW125541   0.771   4.263   2.537 -0.1990  1.3389  0.8499
 4693SOL    HW225542   0.668   4.334   2.624 -0.7062  1.8938 -2.6074
 4694SOL     OW25543   0.940   0.813   4.934  0.2102  0.3129 -0.5563
 4694SOL    HW125544   0.996   0.873   4.984 -2.6049  1.8396  0.7466
 4694SOL    HW225545   0.996   0.821   4.856  2.0866  0.2239  0.8001
 4695SOL     OW25546   1.274   2.040   7.351 -0.1481  1.0428  0.0789
 4695SOL    HW125547   1.196   1.990   7.375  0.2211  1.5889  2.4295
 4695SOL    HW225548   1.308   2.055   7.439  2.4557 -0.2707 -0.7137
 4696SOL     OW25549   1.703   1.781   5.572  0.0506  0.2405 -0.0491
 4696SOL    HW125550   1.663   1.713   5.517 -0.1731 -0.5235  1.0483
 4696SOL    HW225551   1.666   1.857   5.528 -0.9904  0.3999  1.1273
 4697SOL     OW25552   0.865   2.435  11.832  0.7826  0.5741 -0.0929
 4697SOL    HW125553   0.890   2.524  11.857 -0.3712  1.3343 -1.6750
 4697SOL    HW225554   0.834   2.384  11.907 -0.8691  1.1042 -0.4106
 4698SOL     OW25555   1.137   2.835   3.545  0.2846  0.2353  0.2815
 4698SOL    HW125556   1.136   2.785   3.463 -1.7574  0.0486  0.4433
 4698SOL    HW225557   1.058   2.888   3.542 -0.1161 -0.3128  1.0127
 4699SOL     OW25558   2.833   2.016   6.575  0.3962 -0.3963 -0.1791
 4699SOL    HW125559   2.865   2.105   6.590  1.5619 -0.3307 -3.1172
 4699SOL    HW225560   2.912   1.965   6.557  0.9074  0.0846  0.6965
 4700SOL     OW25561   1.296   3.619   6.982  0.1282  0.3161 -0.4132
 4700SOL    HW125562   1.279   3.525   6.990 -0.1942  0.3729 -0.4222
 4700SOL    HW225563   1.238   3.646   7.054  0.1812 -3.2410  0.9302
 4701SOL     OW25564   0.572   4.633   5.906  0.3399  0.0078 -0.0514
 4701SOL    HW125565   0.594   0.006   5.920  1.8323 -0.1840 -1.1960
 4701SOL    HW225566   0.519   4.638   5.827 -0.2213  1.0318  0.3786
 4702SOL     OW25567   0.568   3.077   6.664 -0.1530  0.4676 -0.1328
 4702SOL    HW125568   0.620   3.098   6.741 -0.3689 -2.1003  0.7130
 4702SOL    HW225569   0.636   3.079   6.597 -0.5873  1.5242 -0.5451
 4703SOL     OW25570   1.055   2.278   0.314  0.5054 -0.0224 -0.1439
 4703SOL    HW125571   1.002   2.348   0.353  1.6967  1.3631 -0.9644
 4703SOL    HW225572   1.017   2.270   0.227 -1.0690  1.0909  0.4467
 4704SOL     OW25573   2.116   2.971   7.616 -0.3147  0.1637  0.5854
 4704SOL    HW125574   2.191   2.961   7.558 -0.8334  2.4020 -0.4613
 4704SOL    HW225575   2.066   3.034   7.564 -0.1511 -0.1403  0.0512
 4705SOL     OW25576   2.809   0.223   7.690  0.4387  0.1926  0.6049
 4705SOL    HW125577   2.884   0.256   7.740  1.3938 -0.0561 -0.6663
 4705SOL    HW225578   2.854   0.213   7.606  1.0231 -0.4435  0.9918
 4706SOL     OW25579   4.310   0.544  14.137 -0.0759  0.1895  0.8505
 4706SOL    HW125580   4.338   0.470  14.083 -0.7791  1.5817 -1.4134
 4706SOL    HW225581   4.247   0.585  14.077 -0.8715 -0.7962  1.0188
 4707SOL     OW25582   2.774   2.540   4.309  0.2359  0.0913  0.3254
 4707SOL    HW125583   2.748   2.515   4.398 -0.3346  0.6514  0.3109
 4707SOL    HW225584   2.772   2.458   4.261  1.5993  0.1847  0.0882
 4708SOL     OW25585   3.340   0.765  15.072 -0.0336  0.4880 -0.0167
 4708SOL    HW125586   3.323   0.685  15.023 -1.7930  1.8569 -1.6481
 4708SOL    HW225587   3.435   0.777  15.066 -0.2056  1.3741 -0.8958
 4709SOL     OW25588   3.395   0.706  11.676  0.2531  0.3224  0.6400
 4709SOL    HW125589   3.426   0.760  11.603 -2.0994  0.4868 -0.2229
 4709SOL    HW225590   3.475   0.699  11.730 -0.4527 -0.2170  1.6202
 4710SOL     OW25591   2.195   1.654   1.781  0.2830 -0.5625 -0.1081
 4710SOL    HW125592   2.286   1.673   1.805 -0.2000  1.5593  0.0659
 4710SOL    HW225593   2.157   1.647   1.868  0.3854 -1.0498 -0.1074
 4711SOL     OW25594   1.157   4.584  17.487 -0.1962 -0.1051 -0.2814
 4711SOL    HW125595   1.227   4.606  17.426 -0.2466  1.3919  0.1843
 4711SOL    HW225596   1.184   4.644  17.556 -0.5492  0.5247 -0.6826
 4712SOL     OW25597   4.298   3.674   8.811  0.4394 -0.6903 -0.1803
 4712SOL    HW125598   4.279   3.717   8.895  2.0569  0.7803 -0.5821
 4712SOL    HW225599   4.391   3.691   8.800  0.6697 -2.2414 -0.6198
 4713SOL     OW25600   3.872   3.000  11.263  0.0835 -0.3037 -0.1794
 4713SOL    HW125601   3.903   3.026  11.176  1.1136  1.8275  0.8375
 4713SOL    HW225602   3.786   2.968  11.238 -1.2798  0.3215  3.7383
 4714SOL     OW25603   3.392   2.646   3.163  0.4301  0.6647 -0.4503
 4714SOL    HW125604   3.343   2.638   3.245  4.1083 -2.7894  1.4126
 4714SOL    HW225605   3.471   2.689   3.194 -0.5001  0.6117  1.9914
 4715SOL     OW25606   0.898   0.219  12.182  0.7938 -0.6302 -0.3789
 4715SOL    HW125607   0.923   0.180  12.098 -0.9008 -0.7754 -0.8093
 4715SOL    HW225608   0.984   0.238  12.220 -0.2094 -1.1888  2.2125
 4716SOL     OW25609   0.400   4.449  13.915 -0.1700 -0.3714  0.0506
 4716SOL    HW125610   0.485   4.406  13.901  1.6094  2.5611  1.6795
 4716SOL    HW225611   0.372   4.399  13.991 -0.1659 -0.1429  0.2026
 4717SOL     OW25612   2.651   0.334  15.515  0.5795  0.3243  0.1535
 4717SOL    HW125613   2.607   0.417  15.494 -1.6011 -1.1930 -1.3121
 4717SOL    HW225614   2.612   0.278  15.448 -0.2767  0.3614  0.6201
 4718SOL     OW25615   3.954   0.984   5.954  0.1028  0.1503 -0.2945
 4718SOL    HW125616   3.937   1.061   6.008 -1.2140 -0.3831  0.0353
 4718SOL    HW225617   3.866   0.964   5.923  0.9617 -2.5874 -1.0079
 4719SOL     OW25618   3.921   1.107   0.880  0.4918 -0.3588 -0.1860
 4719SOL    HW125619   3.937   1.172   0.948 -0.2136  1.0224 -1.3391
 4719SOL    HW225620   3.900   1.166   0.807 -1.1660  0.2570  0.7692
 4720SOL     OW25621   3.091   2.515   5.351  0.1602 -0.3712  0.3650
 4720SOL    HW125622   3.038   2.439   5.376  1.3196 -1.2839  0.0363
 4720SOL    HW225623   3.053   2.530   5.264 -1.2228  0.2365  1.0704
 4721SOL     OW25624   2.699   0.555   9.693  0.0930 -0.4865  0.4129
 4721SOL    HW125625   2.775   0.592   9.738  0.8921 -0.4947 -0.9456
 4721SOL    HW225626   2.683   0.626   9.632  0.0024  0.2399  1.2810
 4722SOL     OW25627   0.659   2.143  11.527 -0.0625 -0.4174  0.2814
 4722SOL    HW125628   0.564   2.144  11.539 -0.3077  2.0772 -2.0012
 4722SOL    HW225629   0.678   2.072  11.588 -0.1923  0.1975  1.0429
 4723SOL     OW25630   2.721   2.341  12.045  0.5197  0.4480  0.0060
 4723SOL    HW125631   2.650   2.347  12.109 -0.5118 -1.4105 -0.9558
 4723SOL    HW225632   2.776   2.274  12.087  0.2016  0.1036 -0.1262
 4724SOL     OW25633   2.073   0.403   3.779  0.4661 -0.0369 -0.2077
 4724SOL    HW125634   1.996   0.455   3.757 -1.2979 -2.7184 -0.4223
 4724SOL    HW225635   2.033   0.320   3.805  0.5211 -0.0958 -0.3147
 4725SOL     OW25636   1.371   3.931   4.842  0.5328 -0.3985 -0.4852
 4725SOL    HW125637   1.312   3.881   4.786  0.7740  0.0033 -1.0921
 4725SOL    HW225638   1.443   3.869   4.835  0.1522 -0.8007 -0.8491
 4726SOL     OW25639   3.734   3.275   4.184  0.5834  0.3511 -0.5460
 4726SOL    HW125640   3.821   3.276   4.146  1.1227 -0.5528  0.6784
 4726SOL    HW225641   3.713   3.181   4.182  1.5194  0.1354  0.2244
 4727SOL     OW25642   2.022   2.623   4.968  0.0660 -0.9661 -0.0179
 4727SOL    HW125643   2.060   2.556   4.911  0.1027  1.1256 -2.4702
 4727SOL    HW225644   1.928   2.608   4.960 -0.1845  0.9268 -0.7036
 4728SOL     OW25645   2.148   0.630  15.741  0.2914 -0.3459 -0.0810
 4728SOL    HW125646   2.054   0.620  15.758  0.2123 -0.3570 -0.5210
 4728SOL    HW225647   2.174   0.541  15.716 -2.1697 -1.1905  0.3607
 4729SOL     OW25648   1.640   3.587  16.233  0.1985 -0.2310 -0.1771
 4729SOL    HW125649   1.681   3.628  16.309 -1.8549  1.0890  0.2213
 4729SOL    HW225650   1.627   3.668  16.185 -1.0952  0.0215  0.5736
 4730SOL     OW25651   2.437   3.894   2.314  0.1364 -0.0560 -0.3965
 4730SOL    HW125652   2.451   3.843   2.394 -3.9212  2.6357  2.0473
 4730SOL    HW225653   2.479   3.976   2.339 -0.8690 -0.0394  1.2871
 4731SOL     OW25654   0.933   3.368   7.011  0.2924 -0.6647  0.1178
 4731SOL    HW125655   1.026   3.390   7.016 -0.2415  1.7973 -0.9013
 4731SOL    HW225656   0.935   3.338   6.920  0.3524 -0.4104  0.0356
 4732SOL     OW25657   4.550   4.185   2.538  0.5216  0.1112 -0.3691
 4732SOL    HW125658   4.498   4.168   2.617 -0.5184  2.2590 -0.5989
 4732SOL    HW225659   4.592   4.270   2.549 -2.4765  1.3677  1.4035
 4733SOL     OW25660   3.618   1.227  12.435 -0.8224  0.1989 -0.4318
 4733SOL    HW125661   3.556   1.213  12.507  0.1518  0.5602  0.4755
 4733SOL    HW225662   3.674   1.299  12.462  0.0255 -0.8529  0.6257
 4734SOL     OW25663   2.764   0.844  11.583  0.1399 -0.1091 -0.1341
 4734SOL    HW125664   2.751   0.937  11.597  1.3408 -0.0985  0.9802
 4734SOL    HW225665   2.845   0.839  11.532  1.1314 -1.0766  1.5111
 4735SOL     OW25666   4.285   2.323   8.122  0.4978  0.1961 -0.1263
 4735SOL    HW125667   4.336   2.388   8.074  0.0823 -0.2155 -1.1447
 4735SOL    HW225668   4.278   2.249   8.061  0.0226  0.9219 -0.9517
 4736SOL     OW25669   3.697   2.114   7.725  0.2162 -0.0556  0.4220
 4736SOL    HW125670   3.631   2.135   7.791 -0.1566  0.3026 -0.0594
 4736SOL    HW225671   3.703   2.202   7.687 -2.0405  0.0577  0.2951
 4737SOL     OW25672   0.075   4.433   8.652 -0.2942 -0.3919  0.4856
 4737SOL    HW125673   0.066   4.416   8.558 -1.9288 -3.4026  1.1795
 4737SOL    HW225674   4.709   4.474   8.657 -0.2102 -0.1565 -0.0296
 4738SOL     OW25675   4.668   2.549   0.267 -0.0068 -0.7083  0.3617
 4738SOL    HW125676   4.697   2.522   0.355  0.1181 -1.7692 -0.0063
 4738SOL    HW225677   4.577   2.576   0.281 -0.8958 -3.0405 -1.0082
 4739SOL     OW25678   2.109   1.660   9.603 -0.1000  0.2840  0.0956
 4739SOL    HW125679   2.199   1.637   9.579 -0.9695 -0.9767 -1.9000
 4739SOL    HW225680   2.108   1.647   9.698 -1.2825 -0.5226 -0.0330
 4740SOL     OW25681   3.590   2.850   4.950 -0.3747  0.1090  0.9937
 4740SOL    HW125682   3.618   2.827   5.038  0.2890 -0.3405  0.6682
 4740SOL    HW225683   3.499   2.872   4.970  0.2102  2.8790  0.6011
 4741SOL     OW25684   2.999   3.571   0.145 -0.1613 -0.2581 -0.2579
 4741SOL    HW125685   3.089   3.588   0.172 -0.9729 -0.5009  2.6606
 4741SOL    HW225686   2.997   3.475   0.137 -0.5841 -0.2947  0.2276
 4742SOL     OW25687   4.175   3.463  13.387  0.2096  0.0331 -0.5446
 4742SOL    HW125688   4.115   3.389  13.386  0.7332 -0.4391  2.8004
 4742SOL    HW225689   4.182   3.469  13.482 -0.6540 -0.1994 -0.4627
 4743SOL     OW25690   1.172   0.759   2.517 -0.0055 -0.1142  0.4304
 4743SOL    HW125691   1.144   0.668   2.511  0.5875 -0.3841  1.6601
 4743SOL    HW225692   1.153   0.797   2.431 -3.4844 -2.9835 -0.0219
 4744SOL     OW25693   2.741   0.297  10.812 -0.5179  0.1323 -0.1785
 4744SOL    HW125694   2.708   0.325  10.726 -0.8232 -1.7426 -0.6627
 4744SOL    HW225695   2.824   0.343  10.821 -1.1062  1.2014 -0.2230
 4745SOL     OW25696   2.068   2.732  12.504  0.4372 -0.1864 -0.3260
 4745SOL    HW125697   2.052   2.771  12.418 -0.7858  0.6529  0.2743
 4745SOL    HW225698   2.001   2.768  12.564 -0.7900  0.2729 -1.9782
 4746SOL     OW25699   2.320   0.994  11.635 -0.2242 -0.3416 -0.0493
 4746SOL    HW125700   2.257   1.045  11.583  0.1652 -1.3353 -1.4884
 4746SOL    HW225701   2.369   0.945  11.570 -2.0607 -1.6032 -0.4959
 4747SOL     OW25702   4.454   4.648   6.708  0.5397 -0.1337  0.5362
 4747SOL    HW125703   4.513   4.656   6.782  1.7260 -1.3881 -0.2880
 4747SOL    HW225704   4.406   4.570   6.736  1.2608 -0.9939 -0.6330
 4748SOL     OW25705   3.236   3.919   2.779  0.0258 -0.6584 -0.0369
 4748SOL    HW125706   3.254   4.010   2.803  0.2537 -0.4413 -1.0612
 4748SOL    HW225707   3.318   3.897   2.734  0.3264  2.4498 -1.0146
 4749SOL     OW25708   0.162   3.615   7.700  0.2635  0.3286 -0.6118
 4749SOL    HW125709   0.211   3.538   7.670  2.3258  1.8144 -1.0450
 4749SOL    HW225710   0.127   3.652   7.619  0.8885 -1.4634 -1.7005
 4750SOL     OW25711   3.283   4.254  10.177 -0.7434 -0.4295 -0.5954
 4750SOL    HW125712   3.311   4.338  10.214 -1.3855  0.3847 -1.9193
 4750SOL    HW225713   3.357   4.220  10.126 -0.2676  0.1532 -0.3005
 4751SOL     OW25714   3.096   3.487   8.156  0.1457 -0.5898  0.3755
 4751SOL    HW125715   3.113   3.579   8.134 -1.0939 -0.9521 -2.0332
 4751SOL    HW225716   3.146   3.445   8.086 -0.1513  0.4934 -0.4877
 4752SOL     OW25717   1.288   3.672  10.310 -0.3340 -0.2346  0.0847
 4752SOL    HW125718   1.259   3.638  10.225  0.3007  1.4517 -0.8154
 4752SOL    HW225719   1.297   3.764  10.285 -0.1489 -0.7105 -1.6089
 4753SOL     OW25720   2.604   0.273  10.221  0.1519 -0.3055  0.1959
 4753SOL    HW125721   2.693   0.277  10.256 -0.5984 -0.1539  2.1396
 4753SOL    HW225722   2.560   0.273  10.306 -2.6029  1.8351 -1.2374
 4754SOL     OW25723   3.590   1.756   0.557  0.6269  0.3757 -0.1775
 4754SOL    HW125724   3.526   1.825   0.542 -0.9440 -1.0837 -0.1269
 4754SOL    HW225725   3.665   1.791   0.508  2.0246 -1.8458  0.3336
 4755SOL     OW25726   3.881   2.640   4.852 -0.5806 -0.7771 -0.2335
 4755SOL    HW125727   3.957   2.698   4.859 -1.4532  0.4515 -0.7971
 4755SOL    HW225728   3.833   2.652   4.934  2.2131  1.6110  1.0275
 4756SOL     OW25729   2.288   2.886   4.241  0.8906  1.0393 -0.0181
 4756SOL    HW125730   2.382   2.902   4.250  0.8031  1.5311  0.0019
 4756SOL    HW225731   2.279   2.910   4.149  0.4436  0.0869 -0.2304
 4757SOL     OW25732   3.531   0.865  12.141 -0.4951  0.0998  0.1018
 4757SOL    HW125733   3.563   0.776  12.157  0.8312  0.7581  1.0974
 4757SOL    HW225734   3.594   0.905  12.081  0.9647  0.0266  1.5806
 4758SOL     OW25735   0.263   3.904   9.863  0.1452  0.1645  0.7222
 4758SOL    HW125736   0.336   3.898   9.803  0.2149 -1.5947  0.9977
 4758SOL    HW225737   0.186   3.899   9.806  1.0839 -1.9492 -0.3503
 4759SOL     OW25738   0.833   2.298   3.336 -0.1057  0.0129  0.0212
 4759SOL    HW125739   0.924   2.322   3.313 -0.2954  0.1559 -0.5862
 4759SOL    HW225740   0.812   2.246   3.259 -0.1830  0.9034 -0.5657
 4760SOL     OW25741   4.204   2.600   2.140  0.3990  0.0455 -0.8247
 4760SOL    HW125742   4.257   2.669   2.180 -4.6437  0.8711  4.3489
 4760SOL    HW225743   4.139   2.648   2.089  1.1903  2.4608  0.4373
 4761SOL     OW25744   4.569   0.999   1.820 -0.5850  0.0199 -0.3210
 4761SOL    HW125745   4.479   1.028   1.834 -0.6737 -1.3842  2.0689
 4761SOL    HW225746   4.621   1.079   1.833 -1.0045  0.1328  0.6406
 4762SOL     OW25747   3.314   0.030   6.425 -0.4182 -0.4237  0.4280
 4762SOL    HW125748   3.252   4.716   6.490 -0.8133 -2.1582 -0.8407
 4762SOL    HW225749   3.356   0.099   6.476 -0.9749  0.3172 -0.1088
 4763SOL     OW25750   1.454   2.698   2.904 -0.5018  0.1579  0.2923
 4763SOL    HW125751   1.499   2.642   2.968  0.8937 -1.2658 -1.9442
 4763SOL    HW225752   1.393   2.636   2.864 -0.5895  1.9752 -2.3783
 4764SOL     OW25753   4.027   0.329   7.637 -0.7827 -0.2517  0.3078
 4764SOL    HW125754   4.080   0.318   7.558 -2.4885 -0.9411 -0.7561
 4764SOL    HW225755   4.070   0.260   7.686  0.3486 -1.0442 -1.7809
 4765SOL     OW25756   2.873   4.644   5.776  0.2796  0.3878 -0.0467
 4765SOL    HW125757   2.799   4.621   5.719 -0.7848 -0.9121  1.8631
 4765SOL    HW225758   2.933   4.577   5.744 -0.0651 -0.1640  0.4435
 4766SOL     OW25759   0.582   1.814   8.290  0.4074  0.4558 -0.3131
 4766SOL    HW125760   0.589   1.843   8.199 -0.4575  1.7629  0.0418
 4766SOL    HW225761   0.500   1.765   8.295  1.0367 -0.6222 -0.4570
 4767SOL     OW25762   2.639   1.145   9.741 -0.0938 -0.7006  0.4201
 4767SOL    HW125763   2.620   1.095   9.662  0.4744 -1.1473  0.5607
 4767SOL    HW225764   2.702   1.213   9.716 -0.5100 -0.6942 -0.6167
 4768SOL     OW25765   2.964   4.281   0.816 -0.2364  0.3140 -0.0022
 4768SOL    HW125766   2.894   4.301   0.877  1.6811  5.5611  0.4388
 4768SOL    HW225767   3.033   4.254   0.877  0.3060 -3.0442 -2.0547
 4769SOL     OW25768   2.830   3.535  15.357  0.2895  0.1332 -0.0688
 4769SOL    HW125769   2.876   3.593  15.417 -2.3672  2.2418 -0.0925
 4769SOL    HW225770   2.906   3.499  15.311  0.8750 -0.4830  1.3861
 4770SOL     OW25771   4.449   2.320   3.508 -0.5637  0.0829  0.3484
 4770SOL    HW125772   4.359   2.332   3.477  0.1731 -1.6877 -2.4525
 4770SOL    HW225773   4.482   2.247   3.457  1.3128  0.0177  1.6508
 4771SOL     OW25774   0.843   1.888  16.075 -0.6044 -0.7933 -0.0153
 4771SOL    HW125775   0.786   1.963  16.094  1.1606 -0.2081  3.0766
 4771SOL    HW225776   0.847   1.897  15.980  1.0563  3.9198  0.5124
 4772SOL     OW25777   3.489   3.287   8.538 -0.3800  0.4391  0.0623
 4772SOL    HW125778   3.438   3.206   8.547  1.0181 -0.3180  1.1688
 4772SOL    HW225779   3.451   3.334   8.613 -0.3186  0.8353 -0.1560
 4773SOL     OW25780   2.791   4.419   3.260 -0.2418 -0.2678 -0.0222
 4773SOL    HW125781   2.750   4.431   3.174 -0.1353 -0.2550 -0.0702
 4773SOL    HW225782   2.721   4.367   3.299 -0.3016  0.2647  0.5755
 4774SOL     OW25783   1.006   1.717  14.976  0.2249  0.4750  0.0096
 4774SOL    HW125784   1.009   1.780  15.048 -0.2139  1.1503 -0.5659
 4774SOL    HW225785   0.912   1.703  14.963  0.5462 -0.1492 -1.7061
 4775SOL     OW25786   1.845   3.117   2.469  0.2612 -0.5639 -0.3105
 4775SOL    HW125787   1.831   3.208   2.497 -0.9353 -1.1768  1.0699
 4775SOL    HW225788   1.880   3.075   2.547 -0.2865 -1.2814 -0.4508
 4776SOL     OW25789   0.054   3.502   5.615 -0.0502  0.4049  0.3052
 4776SOL    HW125790   0.078   3.518   5.524  0.1512  0.4491  0.3655
 4776SOL    HW225791   0.061   3.406   5.619  2.8853  0.5106 -2.1781
 4777SOL     OW25792   1.162   2.686   0.454  0.3848 -0.1568  1.1199
 4777SOL    HW125793   1.086   2.742   0.470  0.4550  0.4171 -0.5647
 4777SOL    HW225794   1.131   2.629   0.384 -0.8919 -1.5843  2.8545
 4778SOL     OW25795   4.704   2.497   3.357 -0.0536 -0.9271 -0.1798
 4778SOL    HW125796   4.633   2.459   3.409 -0.4035  0.1454  0.1319
 4778SOL    HW225797   4.658   2.536   3.283  1.1895  2.9853  1.1407
 4779SOL     OW25798   1.047   4.294   1.363 -0.2468  0.0821  0.2867
 4779SOL    HW125799   1.025   4.346   1.441 -0.2388 -0.8002  0.8825
 4779SOL    HW225800   1.135   4.324   1.343 -1.2904  2.6162 -0.4836
 4780SOL     OW25801   3.172   1.161   8.147  0.2696  0.3012 -0.5275
 4780SOL    HW125802   3.211   1.173   8.234 -0.9250 -0.8164  0.1610
 4780SOL    HW225803   3.248   1.180   8.092 -0.2827 -0.9208 -1.7260
 4781SOL     OW25804   0.414   1.475   7.849 -0.4839 -0.0697  0.1496
 4781SOL    HW125805   0.409   1.533   7.773 -0.2838  2.1220  1.8297
 4781SOL    HW225806   0.487   1.415   7.835 -1.0410 -0.1801 -2.3093
 4782SOL     OW25807   0.077   0.893  17.050 -0.2942 -0.1391 -0.1247
 4782SOL    HW125808   0.102   0.801  17.041 -0.3793 -0.4481  3.0150
 4782SOL    HW225809   0.151   0.941  17.085 -2.3046  1.2760  2.1358
 4783SOL     OW25810   0.480   3.546   8.648  0.0332 -0.1567 -0.5711
 4783SOL    HW125811   0.418   3.476   8.667 -0.3779  0.0525 -1.1420
 4783SOL    HW225812   0.544   3.539   8.719 -0.2703 -0.1063 -0.2875
 4784SOL     OW25813   2.099   2.244   2.362  0.4261  0.3075 -0.4117
 4784SOL    HW125814   2.070   2.331   2.388  1.8131  1.2054 -1.9004
 4784SOL    HW225815   2.192   2.240   2.385  0.0786  1.6753  1.2192
 4785SOL     OW25816   0.066   4.273   0.666 -0.3344 -0.2337 -0.5545
 4785SOL    HW125817   0.081   4.194   0.615 -0.9965 -0.1506 -0.8792
 4785SOL    HW225818   0.150   4.278   0.713  0.1619 -1.8471 -1.2955
 4786SOL     OW25819   1.475   2.545   6.867 -0.2537  0.8880  0.4211
 4786SOL    HW125820   1.570   2.548   6.858 -0.2624 -0.1507 -0.1122
 4786SOL    HW225821   1.455   2.458   6.902  0.8626  0.5302  0.1762
 4787SOL     OW25822   2.275   2.323   9.744  0.5423  0.1384 -0.3063
 4787SOL    HW125823   2.273   2.315   9.840  2.8083  0.3006 -0.2581
 4787SOL    HW225824   2.180   2.330   9.732  0.6907 -1.6434 -2.3254
 4788SOL     OW25825   1.059   2.348  11.539 -0.0159 -0.3816 -0.1788
 4788SOL    HW125826   1.023   2.274  11.589  0.3411  0.3126  1.0981
 4788SOL    HW225827   1.023   2.413  11.599 -0.0605  0.6044 -1.2728
 4789SOL     OW25828   1.395   3.222   4.976 -0.2644 -0.0105 -0.0886
 4789SOL    HW125829   1.403   3.287   4.906  1.6576  0.0164  0.1498
 4789SOL    HW225830   1.488   3.207   4.995 -0.0974  0.4073 -0.5631
 4790SOL     OW25831   1.778   1.397   4.239 -0.3451 -0.2372 -0.4758
 4790SOL    HW125832   1.863   1.398   4.195 -0.4499 -0.0011 -0.6750
 4790SOL    HW225833   1.783   1.478   4.290 -1.3783 -0.0795 -0.6284
 4791SOL     OW25834   1.190   1.525   3.205  0.0688  0.1468  0.2815
 4791SOL    HW125835   1.255   1.471   3.161  1.1184  1.6435  0.0015
 4791SOL    HW225836   1.109   1.473   3.200  0.4831 -0.1617 -3.1390
 4792SOL     OW25837   3.875   4.276   7.950  0.1438 -0.1525  0.3171
 4792SOL    HW125838   3.924   4.357   7.937  0.3851 -0.4138 -0.4018
 4792SOL    HW225839   3.789   4.303   7.982  0.9007  2.1305  0.4256
 4793SOL     OW25840   3.301   1.654   1.806 -0.2785 -0.2675 -0.9923
 4793SOL    HW125841   3.378   1.615   1.767  0.0769  0.2193 -0.7747
 4793SOL    HW225842   3.334   1.744   1.808 -1.6858  0.1976  1.4018
 4794SOL     OW25843   0.357   3.579   9.885 -0.7070 -0.3838  0.0388
 4794SOL    HW125844   0.303   3.604   9.960 -0.9197 -2.6914  0.6560
 4794SOL    HW225845   0.314   3.494   9.872 -0.2475 -0.8857  1.8291
 4795SOL     OW25846   4.714   0.393   6.863 -1.1240 -0.3038 -0.0206
 4795SOL    HW125847   4.679   0.473   6.823 -2.5475 -1.5835 -1.2985
 4795SOL    HW225848   4.689   0.321   6.806 -1.4533 -0.0889 -0.1451
 4796SOL     OW25849   0.733   3.157   6.201  0.4068  0.0370 -0.2891
 4796SOL    HW125850   0.741   3.243   6.160 -3.0256  0.8078  0.6667
 4796SOL    HW225851   0.810   3.115   6.164  0.9982 -0.1112  1.0919
 4797SOL     OW25852   3.497   4.475   6.148 -0.6100  0.1710  0.0777
 4797SOL    HW125853   3.519   4.557   6.103 -1.7397 -0.2439 -1.2316
 4797SOL    HW225854   3.492   4.413   6.075  1.2486 -0.5244  0.5457
 4798SOL     OW25855   3.301   3.398   1.327  0.2940  0.3878 -0.2497
 4798SOL    HW125856   3.393   3.415   1.312 -0.1889  1.1616 -2.2609
 4798SOL    HW225857   3.300   3.302   1.331  1.8356  0.4315  1.5841
 4799SOL     OW25858   0.680   3.874   9.643  0.3628 -0.5626  0.2485
 4799SOL    HW125859   0.763   3.898   9.684  1.1055  0.4749 -1.8581
 4799SOL    HW225860   0.719   3.847   9.560  0.1992 -3.3472  1.0773
 4800SOL     OW25861   4.486   1.825   4.567  0.2939  0.0203  0.4259
 4800SOL    HW125862   4.445   1.745   4.533  1.4492 -0.3654 -0.0913
 4800SOL    HW225863   4.426   1.894   4.540  0.8692  1.6863  3.3908
 4801SOL     OW25864   3.288   3.498   5.013 -0.4719  0.1075  0.2092
 4801SOL    HW125865   3.310   3.503   4.920  1.4029 -1.1727  0.5750
 4801SOL    HW225866   3.373   3.500   5.057 -0.9645  2.4826  1.0718
 4802SOL     OW25867   0.483   1.680   3.964  0.5413 -0.2586  0.1788
 4802SOL    HW125868   0.418   1.611   3.947  0.2899  0.2526 -0.9161
 4802SOL    HW225869   0.452   1.713   4.049  0.0427 -0.3006  0.0134
 4803SOL     OW25870   0.835   2.644   5.875  0.3215  0.0369  0.4239
 4803SOL    HW125871   0.863   2.651   5.784 -1.1154 -0.2916 -0.0568
 4803SOL    HW225872   0.783   2.724   5.888  0.0983  0.0108 -0.3303
 4804SOL     OW25873   1.116   3.652   7.192 -0.5768 -0.2969  0.8321
 4804SOL    HW125874   1.170   3.592   7.244  0.7520  1.6598  1.7176
 4804SOL    HW225875   1.038   3.646   7.247 -0.8981  0.9468  0.5018
 4805SOL     OW25876   2.099   1.400  17.033 -0.2161 -0.9504 -0.7759
 4805SOL    HW125877   2.030   1.461  17.062  2.5291  1.2873  1.0838
 4805SOL    HW225878   2.181   1.450  17.033 -0.1255 -1.0987  1.2953
 4806SOL     OW25879   0.685   2.587  11.043  0.1382 -0.2003 -0.6704
 4806SOL    HW125880   0.765   2.636  11.022 -0.5991  0.9070 -0.9139
 4806SOL    HW225881   0.692   2.571  11.137 -1.5598  0.0714 -0.4904
 4807SOL     OW25882   2.070   1.431   6.172  0.1336  0.5194  0.6672
 4807SOL    HW125883   2.151   1.462   6.212  2.1551 -1.3994 -1.9336
 4807SOL    HW225884   2.059   1.351   6.223 -0.8514  0.2966  0.1136
 4808SOL     OW25885   4.425   2.467   8.788 -0.1778 -0.1121 -0.2745
 4808SOL    HW125886   4.404   2.529   8.857  1.0573  0.6517 -0.5844
 4808SOL    HW225887   4.459   2.392   8.837 -0.9188  0.0073  0.4151
 4809SOL     OW25888   4.037   1.268   5.390  0.4103  0.3392  0.2359
 4809SOL    HW125889   4.060   1.182   5.425 -0.2265 -0.3764 -1.0997
 4809SOL    HW225890   4.003   1.237   5.306  1.0915  0.2513 -0.0039
 4810SOL     OW25891   2.911   4.679   5.409  0.4014  0.2208 -0.1782
 4810SOL    HW125892   2.876   4.590   5.397 -0.0584  0.4164 -0.3092
 4810SOL    HW225893   2.879   4.702   5.497  0.6936  0.0071 -0.0152
 4811SOL     OW25894   1.380   1.305   6.154  0.2832  0.0345 -0.1195
 4811SOL    HW125895   1.439   1.236   6.123  1.5901  0.4784  1.3531
 4811SOL    HW225896   1.427   1.382   6.120  0.6664 -0.2795 -0.3083
 4812SOL     OW25897   4.562   2.887   5.096 -0.2572 -0.3512 -0.5943
 4812SOL    HW125898   4.537   2.919   5.009 -0.1792  3.0125  0.6160
 4812SOL    HW225899   4.532   2.796   5.096  1.7548 -1.0001  0.8012
 4813SOL     OW25900   2.978   1.259   3.632 -0.7620 -0.4076 -0.0004
 4813SOL    HW125901   2.982   1.182   3.576  2.2997  0.9912 -1.6900
 4813SOL    HW225902   2.910   1.303   3.580  1.4045  1.0065 -1.6298
 4814SOL     OW25903   0.299   1.409  12.702 -0.6829  0.2515 -0.1887
 4814SOL    HW125904   0.281   1.502  12.713  0.1285  0.0395  2.8197
 4814SOL    HW225905   0.321   1.414  12.609  1.7424 -0.8897  0.3406
 4815SOL     OW25906   1.031   4.479   1.582 -0.0163 -0.1016  0.2553
 4815SOL    HW125907   1.000   4.399   1.624 -2.8887  0.4290 -0.8382
 4815SOL    HW225908   1.094   4.507   1.649  0.8177 -0.1680 -0.5025
 4816SOL     OW25909   4.244   2.777   3.830  0.1817 -0.0864  0.3195
 4816SOL    HW125910   4.329   2.792   3.872  0.2393  1.4651 -0.3534
 4816SOL    HW225911   4.269   2.725   3.753 -1.5870 -0.0131 -0.3166
 4817SOL     OW25912   2.526   2.665   2.715 -0.2332  0.4792  0.2452
 4817SOL    HW125913   2.535   2.650   2.809 -1.6496 -1.1543  0.1189
 4817SOL    HW225914   2.494   2.753   2.729 -2.2682 -0.3594  0.8109
 4818SOL     OW25915   2.156   2.276   4.634  0.2672 -0.2119  0.6960
 4818SOL    HW125916   2.132   2.184   4.622 -0.3654  0.2675 -1.5977
 4818SOL    HW225917   2.100   2.304   4.706 -0.4370  0.6892 -0.2083
 4819SOL     OW25918   1.317   3.428  15.247 -0.3799  0.4183 -0.3958
 4819SOL    HW125919   1.358   3.342  15.239  2.7656  1.9689 -1.3047
 4819SOL    HW225920   1.365   3.482  15.185  0.4118 -1.2803 -1.2693
 4820SOL     OW25921   2.018   4.601  13.855 -0.7571 -0.2121  0.2189
 4820SOL    HW125922   1.933   4.596  13.899 -1.1134 -0.3074 -0.4752
 4820SOL    HW225923   1.995   4.654  13.779  0.6926  0.8324  0.5120
 4821SOL     OW25924   1.837   0.559  13.745 -0.2997  0.6075 -0.7651
 4821SOL    HW125925   1.838   0.492  13.677 -1.3100 -1.8747  1.6806
 4821SOL    HW225926   1.772   0.623  13.716 -0.8474 -0.3872 -1.7154
 4822SOL     OW25927   2.975   4.532   4.709 -0.2292  0.1808  0.0516
 4822SOL    HW125928   2.993   4.616   4.752 -0.1416 -1.2140  2.7546
 4822SOL    HW225929   3.044   4.547   4.644  1.5507 -1.8064  1.4659
 4823SOL     OW25930   0.389   2.885   2.780 -0.1755  0.1538  0.4791
 4823SOL    HW125931   0.424   2.813   2.833  2.2110  1.1108  0.2384
 4823SOL    HW225932   0.371   2.957   2.841 -1.5509 -0.1988  0.4688
 4824SOL     OW25933   2.162   2.155   1.821  0.9636  0.7558  0.1787
 4824SOL    HW125934   2.237   2.151   1.881  0.2909  0.7395  1.0192
 4824SOL    HW225935   2.204   2.154   1.735 -0.1239  1.4371 -0.3660
 4825SOL     OW25936   4.139   1.922   5.396  0.1912 -0.5842  0.7365
 4825SOL    HW125937   4.144   2.018   5.402 -1.6030 -0.6010  2.3260
 4825SOL    HW225938   4.230   1.913   5.370 -0.8993 -0.1007 -3.2688
 4826SOL     OW25939   2.654   3.012   1.741  0.1561 -0.3528 -0.1975
 4826SOL    HW125940   2.560   3.028   1.739  0.2766  0.3113 -0.6582
 4826SOL    HW225941   2.656   2.931   1.691 -2.8449 -0.7221  0.3204
 4827SOL     OW25942   2.919   0.679   3.227  0.2429  0.0354  0.1487
 4827SOL    HW125943   2.932   0.649   3.317 -2.4611  1.1972  0.9378
 4827SOL    HW225944   2.825   0.675   3.207 -0.0014  1.0424  1.0832
 4828SOL     OW25945   2.182   4.473  10.256 -0.6485 -0.3569 -0.1334
 4828SOL    HW125946   2.194   4.421  10.335  0.0672 -2.1708 -1.4304
 4828SOL    HW225947   2.086   4.471  10.257 -0.6204 -1.3326  0.6467
 4829SOL     OW25948   0.959   3.377   4.093 -0.2918 -0.9189  0.4935
 4829SOL    HW125949   0.939   3.317   4.021 -3.6772 -0.3722  0.9724
 4829SOL    HW225950   1.024   3.441   4.065  1.0265 -1.9704  1.1777
 4830SOL     OW25951   3.945   3.978   2.103  0.1937 -0.6208  0.5244
 4830SOL    HW125952   3.869   3.985   2.045  0.0787 -0.8406  0.6515
 4830SOL    HW225953   3.999   4.045   2.060 -1.5209  0.5228  0.1634
 4831SOL     OW25954   2.894   2.292  17.203 -0.3245  0.1673 -0.4690
 4831SOL    HW125955   2.841   2.333  17.134 -0.2624  0.6626 -0.2226
 4831SOL    HW225956   2.979   2.291  17.158  0.2416  0.1600  0.6103
 4832SOL     OW25957   3.733   1.966   5.710  0.4537  0.0058 -0.1786
 4832SOL    HW125958   3.694   2.028   5.771 -1.3748 -1.1343 -0.1821
 4832SOL    HW225959   3.760   1.900   5.774  2.3370  0.2826 -0.6708
 4833SOL     OW25960   3.799   3.863  10.145 -0.1836  0.1669  0.0524
 4833SOL    HW125961   3.867   3.843  10.209 -0.6953  0.6034  0.7439
 4833SOL    HW225962   3.810   3.792  10.082  2.1089 -0.1019  0.7644
 4834SOL     OW25963   2.754   2.011   0.243  0.5115  0.5373 -0.3330
 4834SOL    HW125964   2.817   1.941   0.261  2.2777  2.6909  1.8280
 4834SOL    HW225965   2.735   2.000   0.150  1.7318 -2.5333 -0.2222
 4835SOL     OW25966   3.974   3.360   4.070  0.4650 -0.0432  0.0629
 4835SOL    HW125967   4.000   3.422   4.138  2.9829 -0.2440 -0.6968
 4835SOL    HW225968   4.027   3.391   3.996 -0.3541 -0.4990 -0.7189
 4836SOL     OW25969   3.835   3.121   8.632  0.5457  0.0777  0.6273
 4836SOL    HW125970   3.897   3.049   8.622 -0.1171 -0.5933  1.4012
 4836SOL    HW225971   3.887   3.194   8.664 -1.2610  0.2395  3.1534
 4837SOL     OW25972   2.312   4.423   3.508 -0.1218 -0.3953  0.6333
 4837SOL    HW125973   2.321   4.512   3.542 -1.5963  0.3005 -0.7865
 4837SOL    HW225974   2.231   4.393   3.549 -2.8457  1.4293 -3.4512
 4838SOL     OW25975   2.484   2.320  10.456  0.1493 -0.4775 -0.3180
 4838SOL    HW125976   2.462   2.349  10.368 -0.8154 -0.1898  0.0157
 4838SOL    HW225977   2.552   2.376  10.492  0.6097 -1.5428  0.4507
 4839SOL     OW25978   0.553   1.343  10.289 -0.4207  0.1465 -0.3175
 4839SOL    HW125979   0.521   1.433  10.290 -0.1531  0.1879  2.8574
 4839SOL    HW225980   0.504   1.305  10.362  1.6990 -0.0674  0.9901
 4840SOL     OW25981   0.990   4.420   3.503  0.4095  0.1610  0.2228
 4840SOL    HW125982   1.028   4.337   3.472 -2.1116 -1.3958  1.2727
 4840SOL    HW225983   1.062   4.450   3.558  2.6700 -1.9213 -1.5603
 4841SOL     OW25984   3.364   2.026   5.981  0.1823  0.1569  0.7587
 4841SOL    HW125985   3.423   1.952   5.991 -2.4416 -2.2699 -1.5684
 4841SOL    HW225986   3.416   2.087   5.930  0.2854  0.5140  1.2920
 4842SOL     OW25987   1.340   0.101   6.202 -0.4085 -0.0214 -0.1459
 4842SOL    HW125988   1.405   0.083   6.134 -0.5486 -0.4739 -0.1620
 4842SOL    HW225989   1.402   0.129   6.269 -2.0737  1.0152  0.9445
 4843SOL     OW25990   2.680   3.498   3.345  0.6591 -0.0672  0.3193
 4843SOL    HW125991   2.728   3.484   3.427  2.6797  3.4724 -0.2568
 4843SOL    HW225992   2.751   3.529   3.288  0.8297  0.3629  0.7642
 4844SOL     OW25993   4.329   1.286   5.334  0.1623 -0.9328  0.3437
 4844SOL    HW125994   4.355   1.250   5.419 -0.0533 -0.9580  0.3994
 4844SOL    HW225995   4.351   1.202   5.293 -2.8566 -0.7648 -1.5742
 4845SOL     OW25996   2.441   4.249   8.200  0.5475 -0.2736 -0.0089
 4845SOL    HW125997   2.362   4.226   8.150  0.8546  3.5395 -2.1833
 4845SOL    HW225998   2.396   4.294   8.272  1.4292 -0.5390  0.7014
 4846SOL     OW25999   4.149   0.292   2.496  0.4546 -0.1800 -0.3478
 4846SOL    HW126000   4.123   0.381   2.471 -0.3374 -0.4572 -0.5182
 4846SOL    HW226001   4.206   0.302   2.572  1.2296  0.5206 -1.0040
 4847SOL     OW26002   4.593   2.879   3.453 -0.5048 -0.2217  0.2906
 4847SOL    HW126003   4.512   2.931   3.452 -1.4699 -1.7169 -0.0220
 4847SOL    HW226004   4.561   2.799   3.412  1.9317 -2.5799  2.9975
 4848SOL     OW26005   2.127   4.280  10.472  0.7007 -0.1648  0.4464
 4848SOL    HW126006   2.043   4.252  10.509 -0.7406  1.7716 -1.3474
 4848SOL    HW226007   2.164   4.307  10.555  1.9566 -1.1520  0.2160
 4849SOL     OW26008   0.870   4.189   5.875 -0.2661  0.0352  0.4953
 4849SOL    HW126009   0.840   4.119   5.933  1.0524 -1.9021 -1.1210
 4849SOL    HW226010   0.796   4.199   5.815  1.4803 -0.8169 -1.7965
 4850SOL     OW26011   4.468   0.805  14.029  0.3025  0.2289  0.4512
 4850SOL    HW126012   4.541   0.867  14.031 -0.0552  0.7363 -1.6422
 4850SOL    HW226013   4.512   0.721  14.037  1.6400  0.8372 -0.5054
 4851SOL     OW26014   1.896   4.226   3.794  1.0068  0.3100  0.4391
 4851SOL    HW126015   1.867   4.266   3.712 -0.9406  0.1882  1.0719
 4851SOL    HW226016   1.974   4.190   3.753  0.3719  0.7176 -1.1380
 4852SOL     OW26017   1.892   2.549   6.197 -0.4848 -0.0496  0.1138
 4852SOL    HW126018   1.889   2.453   6.192 -2.7624  0.0572 -0.7850
 4852SOL    HW226019   1.933   2.577   6.115 -1.6204  1.3589  0.0154
 4853SOL     OW26020   2.785   3.362   6.377  0.0472 -0.7378  0.3307
 4853SOL    HW126021   2.763   3.374   6.285  0.5805  0.4460  0.3626
 4853SOL    HW226022   2.796   3.268   6.390  1.1148 -0.6401  0.1023
 4854SOL     OW26023   0.476   4.076  13.877  0.3089  1.1409 -0.5220
 4854SOL    HW126024   0.470   4.048  13.968  0.6751  1.7674 -0.3123
 4854SOL    HW226025   0.494   4.169  13.884  0.8491  0.9895  0.1385
 4855SOL     OW26026   3.847   2.588   3.836  0.0666  0.0520  0.3283
 4855SOL    HW126027   3.889   2.642   3.769  0.3843 -0.7963 -0.1670
 4855SOL    HW226028   3.879   2.504   3.802  0.3532  0.6433 -0.8871
 4856SOL     OW26029   3.878   2.469   5.882  0.2179 -0.5792 -0.5279
 4856SOL    HW126030   3.940   2.498   5.950 -0.5811  1.2200 -0.5650
 4856SOL    HW226031   3.796   2.517   5.893 -0.6901 -2.1657 -0.4364
 4857SOL     OW26032   3.800   3.612   3.390  0.0089 -0.2421 -0.0880
 4857SOL    HW126033   3.815   3.600   3.296  1.0741  0.6066 -0.0211
 4857SOL    HW226034   3.811   3.524   3.427  0.0627 -0.5698 -0.8641
 4858SOL     OW26035   2.502   3.337  14.208 -0.3594 -0.4280 -0.1019
 4858SOL    HW126036   2.453   3.402  14.259  1.8924  1.6171 -0.5041
 4858SOL    HW226037   2.428   3.308  14.156 -0.6243  0.0907 -0.0094
 4859SOL     OW26038   3.814   2.867   6.074  0.1028 -0.0032  0.0222
 4859SOL    HW126039   3.740   2.923   6.049  2.0761  2.7825  0.3838
 4859SOL    HW226040   3.823   2.901   6.164 -0.8847 -0.6918  0.3823
 4860SOL     OW26041   4.299   1.033   3.400  0.2138  0.6067 -0.0958
 4860SOL    HW126042   4.281   1.034   3.494 -2.0073 -0.1167 -0.5142
 4860SOL    HW226043   4.212   1.012   3.368  0.9968 -1.5017 -0.8075
 4861SOL     OW26044   4.073   1.973   7.399 -0.1764  0.3578 -0.1482
 4861SOL    HW126045   4.079   1.966   7.303  2.1426 -3.1261  0.2389
 4861SOL    HW226046   4.130   2.047   7.416 -0.6214  0.6956 -0.1188
 4862SOL     OW26047   1.670   0.123   6.045  0.2523  0.1766 -0.4129
 4862SOL    HW126048   1.591   0.155   6.001  0.5155  1.3595 -0.0232
 4862SOL    HW226049   1.722   0.201   6.063 -1.4793  1.3003 -0.3370
 4863SOL     OW26050   4.343   4.026   7.706 -0.0411  0.8256 -0.0431
 4863SOL    HW126051   4.384   3.946   7.672 -1.8680 -0.8228  1.5877
 4863SOL    HW226052   4.327   4.064   7.620 -0.7656 -0.2515 -0.3815
 4864SOL     OW26053   2.365   0.502  16.005  0.6219 -0.2640  0.3671
 4864SOL    HW126054   2.339   0.593  15.986 -0.5901 -0.0996  2.9537
 4864SOL    HW226055   2.413   0.481  15.925 -1.2581  0.4699 -0.9538
 4865SOL     OW26056   1.119   4.149   6.299 -0.5803 -0.8640  0.0839
 4865SOL    HW126057   1.036   4.178   6.337 -0.4448 -0.7399  0.2795
 4865SOL    HW226058   1.109   4.171   6.206  0.8598 -2.9506 -0.5619
 4866SOL     OW26059   3.903   4.551   8.816  0.9673  0.7409  0.5831
 4866SOL    HW126060   3.839   4.483   8.839  0.8467  0.5103 -0.3947
 4866SOL    HW226061   3.928   4.592   8.898 -0.1137  1.5130  0.5409
 4867SOL     OW26062   2.277   3.807   4.980 -0.0537  0.2868 -0.5174
 4867SOL    HW126063   2.319   3.889   5.006  0.7283 -0.2517 -0.0772
 4867SOL    HW226064   2.349   3.745   4.991 -0.4406  0.1360  1.3184
 4868SOL     OW26065   1.102   2.305   7.420  0.0342  0.5385  0.6539
 4868SOL    HW126066   1.182   2.278   7.465 -0.0706 -0.8765 -0.0048
 4868SOL    HW226067   1.070   2.219   7.392  0.3421  0.5780  0.1828
 4869SOL     OW26068   3.682   2.261   7.180 -0.0668  0.0627  0.0773
 4869SOL    HW126069   3.726   2.281   7.262 -0.2680  1.7177 -0.2182
 4869SOL    HW226070   3.588   2.265   7.197  0.1712 -0.7996  1.5650
 4870SOL     OW26071   1.800   2.338   6.432  0.3801  0.0815  0.3555
 4870SOL    HW126072   1.827   2.265   6.376  1.1431  2.8763 -2.9237
 4870SOL    HW226073   1.767   2.294   6.511 -0.4509  0.1948  0.0694
 4871SOL     OW26074   2.000   3.000  13.800 -0.0933 -0.4786  0.1128
 4871SOL    HW126075   1.965   2.915  13.772 -0.6202 -0.2220  0.0029
 4871SOL    HW226076   1.931   3.026  13.861  0.5058  1.0835  0.1121
 4872SOL     OW26077   3.931   0.628   6.619  0.0132  0.1755 -0.0041
 4872SOL    HW126078   3.953   0.535   6.614  0.1522  0.1928  0.3113
 4872SOL    HW226079   3.875   0.633   6.541  0.9788  0.1979 -0.7056
 4873SOL     OW26080   0.160   3.348  16.019 -0.1204 -0.1099 -0.4990
 4873SOL    HW126081   0.100   3.345  15.944 -2.3469 -1.1077  1.3070
 4873SOL    HW226082   0.110   3.416  16.064 -0.7873 -0.7264 -0.3026
 4874SOL     OW26083   0.377   3.658  10.892 -0.3050 -0.0928  0.2998
 4874SOL    HW126084   0.424   3.672  10.810 -2.1073  1.2938 -0.4994
 4874SOL    HW226085   0.448   3.671  10.955 -1.5952 -0.7879  1.8852
 4875SOL     OW26086   0.427   4.266  12.971 -0.2267 -0.0028 -0.5212
 4875SOL    HW126087   0.445   4.302  12.884 -1.6152  2.2122  0.0907
 4875SOL    HW226088   0.461   4.338  13.024  0.9592 -0.5425 -0.5528
 4876SOL     OW26089   2.691   3.491   7.289  0.3596  0.0681  0.3875
 4876SOL    HW126090   2.664   3.559   7.227  1.9291  1.1527  0.9128
 4876SOL    HW226091   2.616   3.431   7.282 -0.8325  1.5328  0.7439
 4877SOL     OW26092   3.527   1.113   3.267 -0.0913 -0.0332 -0.8542
 4877SOL    HW126093   3.622   1.122   3.278 -0.1754  1.1452 -1.1132
 4877SOL    HW226094   3.513   1.109   3.172  0.9250  2.4106 -1.1139
 4878SOL     OW26095   1.147   3.668  17.605  0.1178 -0.2765  0.2951
 4878SOL    HW126096   1.104   3.626  17.530 -0.1879  0.7687 -0.1238
 4878SOL    HW226097   1.234   3.671  17.567  1.1312 -0.8564  2.6027
 4879SOL     OW26098   4.305   1.648   4.444 -0.1959  0.2542  0.4537
 4879SOL    HW126099   4.368   1.668   4.376 -1.3672 -0.8936 -0.9731
 4879SOL    HW226100   4.225   1.682   4.404 -0.4118 -2.9592 -1.8149
 4880SOL     OW26101   2.225   4.122   5.810  0.7483  0.0453  0.6736
 4880SOL    HW126102   2.212   4.056   5.742  0.6344  0.5144  0.2319
 4880SOL    HW226103   2.230   4.201   5.756  0.1506  0.4619  1.2279
 4881SOL     OW26104   4.338   2.316   9.319 -0.6340  0.4844 -0.4151
 4881SOL    HW126105   4.243   2.308   9.319 -0.5349 -0.6043 -0.8745
 4881SOL    HW226106   4.367   2.309   9.228  0.5420  0.1303 -0.0177
 4882SOL     OW26107   1.693   0.784   2.814 -0.1632 -0.0977 -0.3293
 4882SOL    HW126108   1.605   0.810   2.788  0.8841  1.7329 -2.0844
 4882SOL    HW226109   1.748   0.816   2.743  2.3192 -1.1819  1.1119
 4883SOL     OW26110   1.887   0.207   3.762 -0.0737  0.4944  0.7839
 4883SOL    HW126111   1.952   0.144   3.792 -0.2129  0.6197  1.3554
 4883SOL    HW226112   1.903   0.201   3.668 -0.2084 -1.4434  0.8857
 4884SOL     OW26113   2.029   3.762   7.290  0.5358  0.0718 -0.4405
 4884SOL    HW126114   2.089   3.688   7.281  1.1249  0.5814 -0.7359
 4884SOL    HW226115   1.978   3.736   7.366  0.4409  0.3505 -0.4081
 4885SOL     OW26116   0.945   3.757  10.950 -0.6877 -0.3701  0.3941
 4885SOL    HW126117   1.037   3.733  10.960 -0.5866  0.0629  0.5071
 4885SOL    HW226118   0.906   3.673  10.925  0.8324 -0.5505 -1.4102
 4886SOL     OW26119   1.419   3.025   1.784 -0.1367  0.3186 -0.3211
 4886SOL    HW126120   1.430   3.109   1.738  1.1875  1.0983  1.3816
 4886SOL    HW226121   1.330   3.003   1.758  0.4924 -2.5409 -0.0347
 4887SOL     OW26122   4.071   3.295   7.790 -0.4605  0.1092  0.6315
 4887SOL    HW126123   4.094   3.371   7.844 -0.4990  0.4566  0.1530
 4887SOL    HW226124   3.986   3.327   7.760  0.1692 -0.1620 -1.3951
 4888SOL     OW26125   1.286   4.361   1.459 -0.6505  0.0641 -0.0890
 4888SOL    HW126126   1.323   4.428   1.403  1.5926 -0.9365  0.1764
 4888SOL    HW226127   1.272   4.410   1.540 -0.2143  0.4505 -0.2448
 4889SOL     OW26128   0.870   0.724   0.664  0.6961 -0.0211 -0.3245
 4889SOL    HW126129   0.961   0.717   0.638  0.8024 -0.2984  0.1232
 4889SOL    HW226130   0.841   0.812   0.641 -0.0776 -0.3152 -0.4809
 4890SOL     OW26131   1.921   0.792   9.658 -0.3128  0.2719  0.6154
 4890SOL    HW126132   1.964   0.712   9.689 -0.6845 -0.1215  0.1245
 4890SOL    HW226133   1.879   0.811   9.742 -0.0393  0.9293  0.5978
 4891SOL     OW26134   3.145   2.510  15.547 -0.4746  0.6064 -0.2597
 4891SOL    HW126135   3.184   2.596  15.532  2.0984 -0.8101 -1.6448
 4891SOL    HW226136   3.193   2.473  15.621  1.5687 -0.7761 -2.2951
 4892SOL     OW26137   2.623   3.306   5.072  0.1036 -0.5715 -0.3276
 4892SOL    HW126138   2.534   3.278   5.048 -0.2368  0.5129 -0.3024
 4892SOL    HW226139   2.654   3.224   5.110  0.8932  0.3783  1.0426
 4893SOL     OW26140   1.888   0.465  10.284 -0.0107  0.6321  0.3751
 4893SOL    HW126141   1.861   0.555  10.298 -1.6765  0.2584 -0.3151
 4893SOL    HW226142   1.857   0.456  10.193  1.0092  2.9594 -0.1977
 4894SOL     OW26143   3.260   3.973   2.408 -0.4421  0.3903 -0.2854
 4894SOL    HW126144   3.244   3.882   2.383 -0.2667 -0.0830  1.3384
 4894SOL    HW226145   3.247   4.006   2.319 -1.3877  2.1172  0.5056
 4895SOL     OW26146   0.825   3.689   6.938 -0.1957  0.1605 -0.1013
 4895SOL    HW126147   0.882   3.683   7.016 -2.2526 -1.3866  1.2886
 4895SOL    HW226148   0.888   3.716   6.871  0.0188 -3.6029 -1.4321
 4896SOL     OW26149   1.027   0.247   2.297  0.2179  0.3637  0.0250
 4896SOL    HW126150   1.034   0.171   2.239  1.0865  1.5245 -1.3879
 4896SOL    HW226151   0.970   0.212   2.365  0.2168  0.7924  0.2379
 4897SOL     OW26152   4.555   0.600   1.147 -0.0141  0.2217  0.1087
 4897SOL    HW126153   4.579   0.668   1.209 -0.3239  0.4862 -0.0662
 4897SOL    HW226154   4.639   0.554   1.157  0.6236  1.0707 -1.4141
 4898SOL     OW26155   3.919   0.930  11.659 -0.4638  0.7386 -0.1346
 4898SOL    HW126156   3.853   0.874  11.618  0.9836 -0.4109 -0.9330
 4898SOL    HW226157   3.973   0.969  11.590 -0.7985  0.6376 -0.4541
 4899SOL     OW26158   4.682   2.611  15.901  0.3639 -1.0408  0.0818
 4899SOL    HW126159   0.011   2.549  15.846  0.1941 -1.5675  0.5272
 4899SOL    HW226160   0.009   2.694  15.892 -3.2503  0.9800  0.0511
 4900SOL     OW26161   3.089   0.417  11.045  0.1841 -0.2360  0.2308
 4900SOL    HW126162   3.073   0.374  11.129  1.5978 -1.4442 -0.1102
 4900SOL    HW226163   3.185   0.415  11.041  0.2449  1.1296  1.1926
 4901SOL     OW26164   0.785   0.936   3.032  0.4757 -0.1177  0.2123
 4901SOL    HW126165   0.785   0.994   3.108 -0.6108  1.7429 -1.2042
 4901SOL    HW226166   0.733   0.868   3.074 -2.3867  1.7270 -0.3619
 4902SOL     OW26167   2.528   1.778  17.025  0.3365 -0.5071  0.6014
 4902SOL    HW126168   2.563   1.787  16.936  1.9390  0.8700  1.3814
 4902SOL    HW226169   2.582   1.710  17.066 -0.1709 -1.0709  0.3340
 4903SOL     OW26170   2.518   0.678   5.023 -0.0741  0.0837  0.1840
 4903SOL    HW126171   2.471   0.596   5.005  0.7557 -0.8151  2.2282
 4903SOL    HW226172   2.467   0.695   5.101 -0.7003 -1.9127  0.2170
 4904SOL     OW26173   4.416   3.236   4.874 -0.7497  0.1902  0.2431
 4904SOL    HW126174   4.397   3.244   4.968  1.1893  1.4546  0.5458
 4904SOL    HW226175   4.339   3.196   4.835 -0.1679 -0.3425 -0.3598
 4905SOL     OW26176   0.631   0.085   2.044  0.1020 -0.0606  0.4378
 4905SOL    HW126177   0.605   4.718   2.012  0.9951  0.1741 -0.8819
 4905SOL    HW226178   0.623   0.074   2.139 -0.2839  2.6386  0.7127
 4906SOL     OW26179   0.151   2.544   5.592  0.0149 -0.2822 -0.0064
 4906SOL    HW126180   0.142   2.508   5.504  2.6054  0.1114 -0.4368
 4906SOL    HW226181   0.068   2.536   5.637 -0.5184 -0.8034 -1.0764
 4907SOL     OW26182   1.462   4.678  16.850  0.4444  0.0853  0.3572
 4907SOL    HW126183   1.446   0.027  16.786 -1.2028  1.4667  2.2608
 4907SOL    HW226184   1.381   4.627  16.846 -0.0123  1.0367 -2.7169
 4908SOL     OW26185   3.630   0.290  13.042 -0.3855  0.0182  0.1490
 4908SOL    HW126186   3.585   0.206  13.047 -2.1642  1.0466  1.5515
 4908SOL    HW226187   3.722   0.268  13.029 -0.4064 -0.8231  1.4329
 4909SOL     OW26188   0.821   3.116  15.382 -0.0792 -0.1844  0.2433
 4909SOL    HW126189   0.774   3.075  15.455  0.2111 -3.2882 -1.3388
 4909SOL    HW226190   0.899   3.147  15.429 -0.7354 -1.0754  1.9205
 4910SOL     OW26191   0.795   2.272   4.782  0.8883 -0.0932  0.1942
 4910SOL    HW126192   0.709   2.305   4.805 -0.8579 -2.4008 -2.9740
 4910SOL    HW226193   0.793   2.293   4.688 -1.5044  1.0047  0.5181
 4911SOL     OW26194   1.088   2.755   3.007 -0.1876 -0.1100  0.1209
 4911SOL    HW126195   1.070   2.745   2.913  0.7766 -0.7973  0.0189
 4911SOL    HW226196   1.130   2.841   3.017 -1.2834  0.5570 -0.8617
 4912SOL     OW26197   3.211   3.407   0.304 -0.5055  0.6310 -0.4619
 4912SOL    HW126198   3.244   3.323   0.273 -0.1589  0.2763  0.8594
 4912SOL    HW226199   3.281   3.455   0.348  1.7515 -0.7743 -2.5406
 4913SOL     OW26200   3.686   2.508   3.586  0.1887 -0.0212 -0.5274
 4913SOL    HW126201   3.699   2.483   3.494  2.4118 -0.4132 -0.0990
 4913SOL    HW226202   3.646   2.428   3.622 -0.8943  0.3408 -0.9135
 4914SOL     OW26203   2.231   3.245   3.818  0.4011  0.3121 -0.3305
 4914SOL    HW126204   2.159   3.279   3.871  1.6499  3.9823 -0.9624
 4914SOL    HW226205   2.214   3.287   3.733  1.6832  0.0193 -0.7393
 4915SOL     OW26206   1.146   2.696   4.769  0.3172  0.0593  0.1073
 4915SOL    HW126207   1.198   2.645   4.831  0.3102 -0.7945 -0.5886
 4915SOL    HW226208   1.159   2.784   4.805 -2.1396  0.4343  0.0474
 4916SOL     OW26209   1.749   4.656   3.655  0.3221  0.0122 -0.0176
 4916SOL    HW126210   1.679   4.712   3.621 -1.4119 -1.2668  1.3780
 4916SOL    HW226211   1.795   4.715   3.714 -0.6959  0.2203  0.5684
 4917SOL     OW26212   3.499   2.379  15.975 -0.0123 -0.0662  0.8426
 4917SOL    HW126213   3.563   2.429  15.925  0.1568  0.0735  1.1959
 4917SOL    HW226214   3.424   2.385  15.916 -0.2144  0.4210  1.1502
 4918SOL     OW26215   3.568   1.950   7.288  0.2107  0.5873 -0.1539
 4918SOL    HW126216   3.619   1.951   7.207 -2.2913 -0.5163 -1.7491
 4918SOL    HW226217   3.630   1.996   7.344  1.0177 -0.1953 -0.4010
 4919SOL     OW26218   0.657   1.331   7.790  0.5280 -0.4194  0.4659
 4919SOL    HW126219   0.732   1.373   7.831  0.4857  1.2728 -1.1766
 4919SOL    HW226220   0.689   1.245   7.764  0.6516 -0.7613  1.7567
 4920SOL     OW26221   0.084   2.677   7.766  0.4307  0.1746 -0.4984
 4920SOL    HW126222   0.084   2.631   7.850 -0.0647 -0.0591 -0.6270
 4920SOL    HW226223   0.081   2.598   7.712 -1.1052  0.0352 -0.2242
 4921SOL     OW26224   3.502   3.315  11.828  0.4575  0.3107 -0.3814
 4921SOL    HW126225   3.439   3.348  11.892 -0.3150 -0.8438 -0.5383
 4921SOL    HW226226   3.538   3.242  11.878 -1.0096 -0.1211  0.0538
 4922SOL     OW26227   0.541   4.478  14.654  0.4852 -0.6671 -0.3650
 4922SOL    HW126228   0.506   4.470  14.743 -0.8267  0.1069 -0.8176
 4922SOL    HW226229   0.613   4.415  14.664  0.9559  0.1677  1.4264
 4923SOL     OW26230   2.990   1.629   6.085 -0.1059  0.0185  0.4022
 4923SOL    HW126231   3.047   1.648   6.010 -2.0211  1.2457 -0.7366
 4923SOL    HW226232   2.945   1.713   6.093  1.0059  0.8645 -2.3422
 4924SOL     OW26233   4.283   3.393   2.079 -0.0588 -0.1683  0.7247
 4924SOL    HW126234   4.266   3.477   2.121  1.8133  2.5567 -4.0606
 4924SOL    HW226235   4.267   3.332   2.152  0.3093 -0.0429  0.9052
 4925SOL     OW26236   1.659   3.356   6.474 -0.3805  0.1202  0.6878
 4925SOL    HW126237   1.748   3.358   6.510  0.1157 -2.7694 -0.4075
 4925SOL    HW226238   1.602   3.361   6.551 -0.6732  0.6618  0.4333
 4926SOL     OW26239   2.575   4.220  15.181 -0.8814 -0.2261  0.0378
 4926SOL    HW126240   2.521   4.195  15.256 -1.0335  1.8276  0.6190
 4926SOL    HW226241   2.526   4.200  15.101 -0.5152 -0.8684 -0.0252
 4927SOL     OW26242   4.565   4.089   8.851  0.2128 -0.3500 -0.4767
 4927SOL    HW126243   4.543   4.181   8.864  2.1124  0.0398  0.0559
 4927SOL    HW226244   4.478   4.053   8.839  0.2780  0.0573 -2.2764
 4928SOL     OW26245   0.150   1.757   5.653 -0.6588  0.4604  0.4529
 4928SOL    HW126246   0.203   1.807   5.715  0.4114 -0.1597  0.0323
 4928SOL    HW226247   0.129   1.681   5.706 -0.9506  0.5121  0.4121
 4929SOL     OW26248   3.502   1.294   3.500 -0.6760 -0.2531  0.4971
 4929SOL    HW126249   3.502   1.231   3.428  0.8424 -1.6468  1.7119
 4929SOL    HW226250   3.576   1.269   3.555 -0.3885 -2.0793 -0.7358
 4930SOL     OW26251   1.108   0.238  11.407 -0.3007 -0.2026 -0.2029
 4930SOL    HW126252   1.152   0.278  11.333  4.0595 -0.6200  2.1857
 4930SOL    HW226253   1.018   0.227  11.375 -0.5672  2.7110 -0.4641
 4931SOL     OW26254   0.483   0.799   2.877  0.2375 -0.0744 -0.3373
 4931SOL    HW126255   0.457   0.831   2.964 -0.2541  0.4249 -0.6701
 4931SOL    HW226256   0.401   0.765   2.844 -0.6015 -0.8959  2.5723
 4932SOL     OW26257   0.206   0.731   2.837  0.2632 -0.2425  0.0832
 4932SOL    HW126258   0.157   0.649   2.844 -0.6282  0.3663  1.0235
 4932SOL    HW226259   0.178   0.772   2.919  1.2205 -0.1254  0.3471
 4933SOL     OW26260   1.510   0.141  17.632  0.1188 -0.3524 -1.0779
 4933SOL    HW126261   1.510   0.214   0.013  1.6348  0.9348 -2.6351
 4933SOL    HW226262   1.600   0.144  17.601 -0.3345 -0.2067 -2.3621
 4934SOL     OW26263   3.014   0.149   2.332 -0.5321  0.3342  0.3602
 4934SOL    HW126264   2.949   0.085   2.306  0.8252  0.4474 -3.3499
 4934SOL    HW226265   2.977   0.233   2.306 -3.9790 -1.2977  0.1138
 4935SOL     OW26266   3.406   2.593   0.473  0.3451 -0.6762 -0.5907
 4935SOL    HW126267   3.311   2.583   0.466  0.3053 -1.0555  0.4751
 4935SOL    HW226268   3.445   2.509   0.449  1.0407 -0.5566  0.1057
 4936SOL     OW26269   3.231   3.155   8.097  0.3293 -0.2087  0.5384
 4936SOL    HW126270   3.323   3.139   8.075  0.9888  0.0511  3.1622
 4936SOL    HW226271   3.209   3.071   8.135  0.0594 -0.1488  0.5171
 4937SOL     OW26272   2.973   4.382   7.729 -0.1484 -0.4255 -0.4850
 4937SOL    HW126273   2.936   4.458   7.773  0.5489  1.2056 -2.7719
 4937SOL    HW226274   2.893   4.330   7.728 -0.4603  0.1104 -2.2702
 4938SOL     OW26275   3.324   1.876   4.028  0.3727 -0.3894 -0.0543
 4938SOL    HW126276   3.300   1.957   3.983  0.5150  0.0346  0.6302
 4938SOL    HW226277   3.248   1.819   4.023 -1.2784  1.6465  2.1227
 4939SOL     OW26278   1.530   2.477   4.120 -0.1690  0.5754  0.0045
 4939SOL    HW126279   1.615   2.434   4.115 -0.1575  0.3203  2.6997
 4939SOL    HW226280   1.497   2.444   4.036  2.1447 -1.3489 -0.1538
 4940SOL     OW26281   0.914   0.142   0.243 -0.7577 -0.2679  0.8356
 4940SOL    HW126282   1.003   0.112   0.260 -0.0871  0.7480 -0.8299
 4940SOL    HW226283   0.864   0.132   0.324 -2.0643 -1.2038 -0.0886
 4941SOL     OW26284   3.057   1.459  14.981  0.1293  0.5238 -0.3254
 4941SOL    HW126285   3.143   1.449  14.939 -0.4702 -1.2118 -1.1293
 4941SOL    HW226286   3.075   1.401  15.055  0.2857  1.9678  0.7698
 4942SOL     OW26287   0.071   0.555   4.481 -0.4350  0.0486  0.0587
 4942SOL    HW126288   0.076   0.631   4.423 -0.8371 -0.2825 -0.4055
 4942SOL    HW226289   0.093   0.597   4.564  2.2022  1.0452 -1.1303
 4943SOL     OW26290   0.600   3.876  16.069  0.0181 -0.0260  0.0854
 4943SOL    HW126291   0.693   3.854  16.063 -0.2327 -1.4183  1.1684
 4943SOL    HW226292   0.567   3.837  15.987  0.8683  0.2679 -0.3968
 4944SOL     OW26293   1.223   2.026   8.287  0.4243 -0.2323  0.3532
 4944SOL    HW126294   1.316   2.024   8.263 -0.0707  0.6230 -1.6111
 4944SOL    HW226295   1.213   2.109   8.333  2.3581  0.8545 -1.2043
 4945SOL     OW26296   3.431   0.180   6.624  0.8426  0.5766  0.0549
 4945SOL    HW126297   3.383   0.199   6.704  0.1301 -0.4311 -0.1275
 4945SOL    HW226298   3.513   0.228   6.630  1.0128  0.4150 -0.8780
 4946SOL     OW26299   0.215   3.984   5.344 -0.1998  0.5472  0.4961
 4946SOL    HW126300   0.292   3.966   5.398 -0.9577 -2.7251  0.4937
 4946SOL    HW226301   0.223   4.079   5.347 -1.7379  0.7036 -0.3683
 4947SOL     OW26302   2.853   3.233  13.363  0.1582 -0.1103 -0.3107
 4947SOL    HW126303   2.842   3.263  13.453 -2.2860 -0.4245 -0.5040
 4947SOL    HW226304   2.853   3.138  13.375  0.2167 -0.1962 -0.9899
 4948SOL     OW26305   3.575   4.678   5.975 -0.1920 -0.0896  0.0096
 4948SOL    HW126306   3.666   4.708   5.977 -0.9057  2.1230 -0.3023
 4948SOL    HW226307   3.535   0.029   6.025 -0.1021  0.5391 -0.7992
 4949SOL     OW26308   1.499   3.721   7.974 -0.2564 -0.4227  0.1531
 4949SOL    HW126309   1.433   3.652   7.970  0.4689 -1.1272  0.2942
 4949SOL    HW226310   1.578   3.674   8.001  0.7322  0.9171 -0.3881
 4950SOL     OW26311   2.434   3.445   2.000 -0.3132  0.3104  0.1438
 4950SOL    HW126312   2.453   3.477   2.088  0.7932  1.9774 -0.6995
 4950SOL    HW226313   2.339   3.438   2.013 -0.0801 -0.9037  1.1665
 4951SOL     OW26314   1.927   2.154   6.725 -0.7794 -0.1478 -0.2059
 4951SOL    HW126315   1.937   2.248   6.710 -0.7230  0.0280  0.9476
 4951SOL    HW226316   1.879   2.119   6.650 -0.0947  0.3143 -0.8593
 4952SOL     OW26317   0.066   0.755   5.569 -0.2071 -0.3481  0.1566
 4952SOL    HW126318   0.086   0.800   5.487  0.8695  0.3169  0.7870
 4952SOL    HW226319   0.146   0.703   5.582 -0.0104 -0.5049 -1.6226
 4953SOL     OW26320   3.886   0.233  12.148 -0.3136 -0.1308  0.3435
 4953SOL    HW126321   3.948   0.184  12.202  1.8677 -0.0042 -2.0854
 4953SOL    HW226322   3.954   0.265  12.089  1.0108 -1.7719  0.9915
 4954SOL     OW26323   0.591   1.976   6.983 -0.0896 -0.3966  0.0062
 4954SOL    HW126324   0.568   2.067   6.963 -1.1004 -0.9782 -1.4980
 4954SOL    HW226325   0.516   1.923   6.958 -1.1917  0.9934  0.3867
 4955SOL     OW26326   0.513   4.518   4.558  0.1138 -0.2452 -0.1356
 4955SOL    HW126327   0.459   4.556   4.489  0.6401  0.2327 -0.2849
 4955SOL    HW226328   0.443   4.469   4.601 -0.5883 -0.6676 -1.7648
 4956SOL     OW26329   2.057   0.194   7.467  0.4276  0.0446 -0.4212
 4956SOL    HW126330   2.098   0.170   7.383 -1.2248  2.3999 -1.9060
 4956SOL    HW226331   2.022   0.112   7.501 -0.0016 -0.1713 -1.3836
 4957SOL     OW26332   0.842   4.534   1.079  0.2645 -0.9443  0.1543
 4957SOL    HW126333   0.869   4.573   1.161 -2.7272  0.5670  0.4014
 4957SOL    HW226334   0.897   4.580   1.016 -1.6508  2.1855  0.7827
 4958SOL     OW26335   3.568   3.618   7.780 -0.2153 -0.3021 -1.1486
 4958SOL    HW126336   3.661   3.605   7.757  0.3048 -1.2627  1.4521
 4958SOL    HW226337   3.528   3.652   7.700 -0.9679  0.6113 -0.3785
 4959SOL     OW26338   0.075   1.650  17.296  0.4112 -0.1107  0.2861
 4959SOL    HW126339   0.145   1.714  17.284  1.1190 -1.1008 -0.7574
 4959SOL    HW226340   0.103   1.584  17.359 -0.3855  2.0709  2.9428
 4960SOL     OW26341   0.597   3.732  11.843 -0.2399 -0.6434  0.1440
 4960SOL    HW126342   0.575   3.679  11.919  0.6508  0.6325  1.2874
 4960SOL    HW226343   0.613   3.665  11.776  1.8989 -0.6519  0.6676
 4961SOL     OW26344   1.228   3.132   8.639 -0.3213 -0.4417  0.1201
 4961SOL    HW126345   1.203   3.221   8.613 -1.2787 -1.2008 -1.5013
 4961SOL    HW226346   1.222   3.147   8.734  1.7370  1.9564 -0.1239
 4962SOL     OW26347   3.809   2.569   5.107 -0.2390  0.7347 -0.1310
 4962SOL    HW126348   3.774   2.636   5.166 -1.1490  0.0114  0.1516
 4962SOL    HW226349   3.899   2.586   5.137  0.0972  1.0223 -1.3083
 4963SOL     OW26350   4.674   1.231   6.868  0.4132 -0.1787 -0.2629
 4963SOL    HW126351   0.013   1.251   6.940  0.9422  2.0295 -1.3173
 4963SOL    HW226352   4.719   1.268   6.792  1.0934 -0.6923 -0.1131
 4964SOL     OW26353   0.762   1.932   2.698  0.0208  0.5243 -0.3158
 4964SOL    HW126354   0.800   1.922   2.611 -0.1002 -1.1439 -0.1773
 4964SOL    HW226355   0.669   1.941   2.675 -0.4476 -0.7992  1.0137
 4965SOL     OW26356   2.705   1.329   6.823 -0.3589  0.0976 -0.3742
 4965SOL    HW126357   2.656   1.291   6.897 -0.8491 -0.3713 -0.9418
 4965SOL    HW226358   2.793   1.295   6.840 -0.1852  0.2709 -0.9265
 4966SOL     OW26359   3.948   4.156   3.420  0.2595  0.2992 -0.4113
 4966SOL    HW126360   4.006   4.221   3.381  1.8506  0.2420  1.8213
 4966SOL    HW226361   3.943   4.085   3.357 -1.7099  0.5030 -0.4686
 4967SOL     OW26362   3.978   3.225   1.491  0.3292 -0.0976 -0.1422
 4967SOL    HW126363   4.031   3.179   1.556 -0.6032 -0.1399  0.5855
 4967SOL    HW226364   3.925   3.150   1.467 -0.6308  0.2653  0.8750
 4968SOL     OW26365   1.740   1.343   9.318  0.3994 -0.4925 -0.2640
 4968SOL    HW126366   1.662   1.395   9.334 -0.8156 -2.3034 -0.2509
 4968SOL    HW226367   1.783   1.360   9.401  1.6552  0.5853 -1.1477
 4969SOL     OW26368   4.508   3.099   9.831  0.9221 -0.3362 -0.0042
 4969SOL    HW126369   4.558   3.076   9.752  0.2078  1.8926 -1.1040
 4969SOL    HW226370   4.423   3.128   9.798 -0.0034 -2.5443  0.4169
 4970SOL     OW26371   0.176   1.868   4.022 -0.0020 -0.4299 -0.8176
 4970SOL    HW126372   0.217   1.848   3.938 -0.3991 -1.2392 -0.8180
 4970SOL    HW226373   0.091   1.905   3.998  0.5151  1.8119  0.7830
 4971SOL     OW26374   1.616   3.105   8.780  0.0487 -0.7755  0.2368
 4971SOL    HW126375   1.655   3.191   8.795 -1.6197  0.0455 -0.0091
 4971SOL    HW226376   1.609   3.078   8.871  0.8045 -0.8956  0.2534
 4972SOL     OW26377   2.698   1.758   2.039 -0.4699  0.4566 -0.0822
 4972SOL    HW126378   2.752   1.748   2.118  1.6050 -0.3400 -1.5945
 4972SOL    HW226379   2.764   1.781   1.973 -0.2225  0.2156  0.0815
 4973SOL     OW26380   4.157   4.374   7.346  0.0139  0.3600  0.2381
 4973SOL    HW126381   4.087   4.313   7.325 -0.4261  0.6079  1.0014
 4973SOL    HW226382   4.142   4.448   7.288 -0.1472  0.7921  0.8251
 4974SOL     OW26383   4.274   0.759   4.131 -0.0440 -0.4133 -0.1719
 4974SOL    HW126384   4.265   0.852   4.151  0.6512 -0.4116  0.1366
 4974SOL    HW226385   4.260   0.715   4.214 -0.1034 -1.2009 -0.6021
 4975SOL     OW26386   2.456   2.539   4.828  0.9212  0.1735 -0.1774
 4975SOL    HW126387   2.502   2.461   4.858 -0.3108 -0.4248  0.1627
 4975SOL    HW226388   2.474   2.605   4.895 -3.5929 -0.3612  1.5588
 4976SOL     OW26389   1.173   0.494   0.930 -0.3792  0.0290 -0.3148
 4976SOL    HW126390   1.079   0.478   0.919 -0.0422 -2.0321 -0.3265
 4976SOL    HW226391   1.211   0.479   0.843 -0.6779  1.4408 -0.6886
 4977SOL     OW26392   3.319   2.856   8.785  0.1474  0.3711 -0.7162
 4977SOL    HW126393   3.306   2.836   8.692 -1.1438  0.8912 -0.6507
 4977SOL    HW226394   3.228   2.836   8.804 -0.1811 -0.5934 -3.3111
 4978SOL     OW26395   2.565   3.055  13.361  0.2055  0.0661  0.1948
 4978SOL    HW126396   2.575   3.120  13.291  2.9682  0.3716  0.8770
 4978SOL    HW226397   2.653   3.022  13.377  0.7208  1.1031 -0.4835
 4979SOL     OW26398   3.795   4.122  12.449  0.2522  0.3805 -0.4038
 4979SOL    HW126399   3.757   4.081  12.371 -2.5751  0.3893  0.9510
 4979SOL    HW226400   3.887   4.109  12.426  0.1360  0.2617 -0.8117
 4980SOL     OW26401   3.128   2.078   1.555 -0.2253  0.6402  0.2430
 4980SOL    HW126402   3.203   2.088   1.496 -0.7897  3.8091  0.0967
 4980SOL    HW226403   3.134   1.982   1.560  2.0820  0.9462  3.6520
 4981SOL     OW26404   3.488   3.609   1.464  0.4549 -0.3622 -0.1956
 4981SOL    HW126405   3.525   3.535   1.416  2.4563  1.0280 -0.7867
 4981SOL    HW226406   3.448   3.648   1.386 -0.6459 -1.6880 -0.2903
 4982SOL     OW26407   0.388   0.359  12.490  0.0093 -0.4740 -0.4222
 4982SOL    HW126408   0.355   0.426  12.551  2.1795 -0.9187  1.2032
 4982SOL    HW226409   0.475   0.339  12.522  0.5288  1.4324 -0.6555
 4983SOL     OW26410   2.786   0.489   5.657 -0.6636 -0.3646  0.6898
 4983SOL    HW126411   2.865   0.539   5.680 -0.8032  0.3407 -0.3653
 4983SOL    HW226412   2.759   0.463   5.745 -0.2078  2.9604  1.8307
 4984SOL     OW26413   2.156   3.352   1.149  0.2218  0.3439 -0.4161
 4984SOL    HW126414   2.195   3.296   1.082  1.0567  1.4452 -0.8501
 4984SOL    HW226415   2.064   3.327   1.143  0.4654 -0.0673 -2.3979
 4985SOL     OW26416   3.651   2.040  16.550  0.1947  0.0553 -0.3194
 4985SOL    HW126417   3.707   2.117  16.555  1.1471 -0.6966  0.4956
 4985SOL    HW226418   3.592   2.048  16.625 -2.1301  0.2647 -2.1519
 4986SOL     OW26419   0.592   2.259   5.365 -0.5300 -0.7540  0.0354
 4986SOL    HW126420   0.639   2.178   5.347  0.4312  0.0709 -1.1633
 4986SOL    HW226421   0.637   2.269   5.449  1.4735  0.9685 -1.2598
 4987SOL     OW26422   2.513   2.669   2.271 -0.0080 -0.0541  0.2822
 4987SOL    HW126423   2.432   2.719   2.269  0.5461  0.8466  0.2898
 4987SOL    HW226424   2.574   2.742   2.278  1.3076 -1.0922 -0.2849
 4988SOL     OW26425   0.496   4.573   8.539 -0.0096 -0.1939 -0.5994
 4988SOL    HW126426   0.437   4.568   8.463  0.4564 -0.3491 -0.9539
 4988SOL    HW226427   0.455   4.505   8.592  0.2718  1.1619  1.3552
 4989SOL     OW26428   3.753   4.097   8.465  0.2766 -0.2522  0.1396
 4989SOL    HW126429   3.674   4.050   8.436 -1.0339  1.0909  1.5015
 4989SOL    HW226430   3.770   4.052   8.548  0.2473  0.6176  0.6131
 4990SOL     OW26431   3.560   1.441   5.322  0.4211 -0.1520 -0.1750
 4990SOL    HW126432   3.541   1.416   5.231  1.5617 -0.2708 -0.3859
 4990SOL    HW226433   3.655   1.457   5.323  0.5205 -0.5235 -2.3319
 4991SOL     OW26434   3.037   1.156   6.522  0.1349  0.4024  0.2548
 4991SOL    HW126435   3.031   1.069   6.484  3.1770  0.5445 -0.5122
 4991SOL    HW226436   3.061   1.202   6.441 -0.3546  2.2783  1.1633
 4992SOL     OW26437   2.180   0.243   8.861  0.2717 -0.1815 -0.3910
 4992SOL    HW126438   2.260   0.295   8.866 -0.4110  0.8071  0.3813
 4992SOL    HW226439   2.131   0.311   8.814 -0.4509 -0.1233  0.4456
 4993SOL     OW26440   3.454   3.026  10.778 -0.0955 -0.0790 -0.3796
 4993SOL    HW126441   3.497   2.967  10.840 -1.4734 -0.0593  0.5933
 4993SOL    HW226442   3.526   3.049  10.719  1.1774  0.9979  1.5803
 4994SOL     OW26443   1.662   1.503   7.522 -0.3332 -0.1539  0.6996
 4994SOL    HW126444   1.726   1.522   7.453 -1.5944 -0.2016 -0.5070
 4994SOL    HW226445   1.696   1.550   7.597  1.2313 -0.9622  0.5017
 4995SOL     OW26446   3.656   3.800   7.077  0.1485 -0.1940 -0.2200
 4995SOL    HW126447   3.750   3.816   7.068  0.0771  2.0060  2.8668
 4995SOL    HW226448   3.652   3.728   7.014 -0.0786  0.3971 -0.8841
 4996SOL     OW26449   2.873   3.328   1.403 -0.2044 -0.0657  0.4557
 4996SOL    HW126450   2.869   3.254   1.342 -1.2205 -0.9191  1.5652
 4996SOL    HW226451   2.837   3.280   1.478  0.9228  1.2096  1.8231
 4997SOL     OW26452   3.105   2.176  17.431  0.1325  0.5900  0.1847
 4997SOL    HW126453   3.014   2.148  17.444 -0.1107  1.4897  0.4287
 4997SOL    HW226454   3.133   2.133  17.350 -1.3262  0.3036 -0.1654
 4998SOL     OW26455   1.794   4.398   3.595  0.4911 -0.1857  0.0373
 4998SOL    HW126456   1.713   4.370   3.554  0.9293  0.4666 -1.2951
 4998SOL    HW226457   1.778   4.489   3.622 -0.5349 -0.1715 -0.6424
 4999SOL     OW26458   2.959   3.238  12.575 -0.0179  0.0639  0.0542
 4999SOL    HW126459   2.950   3.333  12.570  2.0802  0.2127 -0.8387
 4999SOL    HW226460   2.977   3.199  12.489  1.3337 -0.5875  0.6385
 5000SOL     OW26461   0.770   2.558  14.742 -0.0108 -0.2089  0.1615
 5000SOL    HW126462   0.728   2.633  14.783 -1.3483  0.8426 -3.1224
 5000SOL    HW226463   0.703   2.496  14.769  0.0083 -1.0118 -1.5635
 5001SOL     OW26464   1.484   0.957   8.836  0.0273  0.5767 -0.8080
 5001SOL    HW126465   1.543   1.030   8.813 -0.5139  0.1520 -3.4935
 5001SOL    HW226466   1.421   1.002   8.892  0.9840  0.3789  0.4426
 5002SOL     OW26467   3.900   1.447   6.780 -0.0706  0.0121 -0.4042
 5002SOL    HW126468   3.929   1.422   6.692 -3.4623 -3.2119 -0.6163
 5002SOL    HW226469   3.909   1.542   6.778  0.6462 -0.0638 -0.7889
 5003SOL     OW26470   4.076   3.733   6.906 -0.4038 -0.1123  0.0083
 5003SOL    HW126471   4.152   3.677   6.889  0.4949  0.6772  1.4875
 5003SOL    HW226472   4.064   3.771   6.819  0.2957  3.2134  1.3847
 5004SOL     OW26473   0.309   0.880   0.499  0.1197  0.2887  0.2172
 5004SOL    HW126474   0.321   0.968   0.462 -0.0752  0.2512  0.0643
 5004SOL    HW226475   0.285   0.905   0.589 -0.9371  0.6965 -0.1820
 5005SOL     OW26476   4.310   2.336  16.466 -0.5531  0.4882  0.9522
 5005SOL    HW126477   4.400   2.366  16.478 -0.2312 -0.0082 -0.1932
 5005SOL    HW226478   4.324   2.268  16.400  1.5869  1.2143  0.6404
 5006SOL     OW26479   1.294   0.909   0.495  0.5609 -0.8076 -0.1373
 5006SOL    HW126480   1.237   0.912   0.418  2.7103  1.4704 -1.6318
 5006SOL    HW226481   1.250   0.836   0.539  0.6634  0.4098  1.9813
 5007SOL     OW26482   2.822   0.559   7.889  0.6198  0.0952 -0.1614
 5007SOL    HW126483   2.825   0.470   7.925  1.8309 -0.9196 -2.7323
 5007SOL    HW226484   2.916   0.580   7.890  0.9553 -1.4070 -0.1486
 5008SOL     OW26485   0.895   4.031   4.814 -0.2531  0.4302  0.0958
 5008SOL    HW126486   0.941   3.997   4.738  0.8195 -2.1773  1.9052
 5008SOL    HW226487   0.806   4.005   4.791  0.0886 -0.3680 -0.3112
 5009SOL     OW26488   0.536   1.419   7.036 -0.1429 -0.1017  0.1537
 5009SOL    HW126489   0.464   1.358   7.052 -0.4236  0.0632 -0.4669
 5009SOL    HW226490   0.495   1.485   6.980 -1.9684 -1.7720 -0.4513
 5010SOL     OW26491   0.146   1.467   3.403  0.1416  0.0141 -0.5124
 5010SOL    HW126492   0.230   1.487   3.445 -0.5891  1.8178  0.0727
 5010SOL    HW226493   0.134   1.547   3.352  1.6630  0.5018 -0.0976
 5011SOL     OW26494   3.025   1.933   0.733  0.2745 -0.3835  0.1481
 5011SOL    HW126495   3.069   1.892   0.807 -1.3030 -0.5906  0.9833
 5011SOL    HW226496   2.936   1.905   0.756 -0.9425  1.5665 -2.1154
 5012SOL     OW26497   0.794   0.990  13.212  0.3183 -0.0640 -0.5187
 5012SOL    HW126498   0.772   1.011  13.121 -0.2300  0.3201 -0.3012
 5012SOL    HW226499   0.862   1.057  13.221  0.0074  0.1745  0.0941
 5013SOL     OW26500   3.762   3.052  14.355  0.4080 -0.0497 -0.1288
 5013SOL    HW126501   3.801   2.984  14.300  0.6188  0.9299 -1.1951
 5013SOL    HW226502   3.686   3.077  14.303  1.5213  0.1679 -1.6724
 5014SOL     OW26503   0.771   0.276   9.119 -0.3689  0.1827  0.6170
 5014SOL    HW126504   0.740   0.366   9.113  0.3304  0.2132 -2.4210
 5014SOL    HW226505   0.846   0.290   9.178 -0.0892  1.2759  0.0015
 5015SOL     OW26506   1.928   4.349  10.171 -0.3829 -0.7118 -0.0679
 5015SOL    HW126507   1.846   4.314  10.136 -1.3918  0.0403  1.5803
 5015SOL    HW226508   1.906   4.395  10.251 -2.1309 -3.4981  1.0700
 5016SOL     OW26509   2.829   4.185  15.091 -0.0594 -0.3538  0.6643
 5016SOL    HW126510   2.743   4.221  15.113 -0.3322  0.1566 -1.1542
 5016SOL    HW226511   2.875   4.265  15.064  0.0164 -0.3624  0.7682
 5017SOL     OW26512   3.299   1.679   6.587  0.1584  0.2606  0.1169
 5017SOL    HW126513   3.394   1.664   6.585 -0.1779 -1.6917 -2.1175
 5017SOL    HW226514   3.290   1.690   6.681  0.2739  0.3914  0.1121
 5018SOL     OW26515   4.244   4.050   8.835  0.3587  0.1653 -0.0238
 5018SOL    HW126516   4.262   4.033   8.743  1.2802  0.0178  0.1823
 5018SOL    HW226517   4.148   4.053   8.839  0.2132 -1.2170 -2.4821
 5019SOL     OW26518   4.093   3.411   4.365  0.8313 -0.0775 -0.5657
 5019SOL    HW126519   4.187   3.394   4.371  0.4450 -2.2932 -0.5512
 5019SOL    HW226520   4.070   3.406   4.458  3.7366  0.3847  0.1946
 5020SOL     OW26521   3.393   3.864   3.983  0.4549 -0.1351 -0.1040
 5020SOL    HW126522   3.431   3.942   4.024 -2.5143  0.7631  0.9764
 5020SOL    HW226523   3.447   3.800   4.029 -1.7184 -2.2089 -0.4499
 5021SOL     OW26524   1.268   4.516   1.718  0.7240 -0.1678 -0.0471
 5021SOL    HW126525   1.295   4.510   1.809  0.9675 -1.2662 -0.1983
 5021SOL    HW226526   1.288   4.608   1.699 -0.9282  0.5208  1.4828
 5022SOL     OW26527   2.590   3.884  12.043 -0.1990 -0.0239  0.3628
 5022SOL    HW126528   2.514   3.901  11.987 -0.2893  2.8581  1.3684
 5022SOL    HW226529   2.585   3.790  12.060  0.6678  0.4080  2.9750
 5023SOL     OW26530   4.422   2.234   6.347 -0.8848  0.0368 -0.6961
 5023SOL    HW126531   4.517   2.228   6.338 -0.9611 -1.5161 -0.4325
 5023SOL    HW226532   4.410   2.156   6.400  2.1474  0.4739  0.6377
 5024SOL     OW26533   0.286   1.851   7.175 -0.0773 -0.3524 -0.0112
 5024SOL    HW126534   0.300   1.933   7.128  2.4430 -0.8798 -0.1575
 5024SOL    HW226535   0.292   1.789   7.103 -2.7890 -0.3126 -0.2736
 5025SOL     OW26536   2.544   0.828  12.439 -0.2426  0.1426  0.8032
 5025SOL    HW126537   2.591   0.906  12.467  2.8945 -1.5851  0.4362
 5025SOL    HW226538   2.577   0.761  12.498 -0.8927 -0.1093  0.8827
 5026SOL     OW26539   3.177   4.008   2.142  1.0583  0.2691 -0.3885
 5026SOL    HW126540   3.227   3.955   2.080  1.8404  0.1952  0.2910
 5026SOL    HW226541   3.085   4.004   2.118  0.0808  1.1010  3.1740
 5027SOL     OW26542   3.857   4.535   4.938 -0.0905  0.1748 -0.0522
 5027SOL    HW126543   3.865   4.493   5.024  1.5688  0.4705 -0.0689
 5027SOL    HW226544   3.941   4.578   4.924 -0.9104  2.0512  0.8127
 5028SOL     OW26545   3.542   2.821   5.477  1.0251  0.1586 -0.4399
 5028SOL    HW126546   3.596   2.772   5.539  0.9759 -0.2287 -0.7016
 5028SOL    HW226547   3.546   2.897   5.534  0.3648 -2.1751  2.7284
 5029SOL     OW26548   4.621   2.822   1.019  0.1633 -0.2830 -0.0547
 5029SOL    HW126549   4.539   2.841   0.974  0.1859 -2.5855 -1.0897
 5029SOL    HW226550   4.681   2.838   0.945  0.4622  1.4195  0.5567
 5030SOL     OW26551   1.689   1.512   0.923  0.2536  0.2435 -0.2142
 5030SOL    HW126552   1.599   1.540   0.910 -0.0440 -0.8535 -0.5658
 5030SOL    HW226553   1.675   1.440   0.985  2.3041  0.0689  0.0404
 5031SOL     OW26554   0.194   3.737   5.287 -0.4846 -0.3407  0.1000
 5031SOL    HW126555   0.201   3.830   5.307  0.2266 -0.2704 -0.4934
 5031SOL    HW226556   0.285   3.714   5.270 -1.3063 -1.2833 -2.8528
 5032SOL     OW26557   1.119   0.787   3.170 -0.2958  0.2950 -0.3804
 5032SOL    HW126558   1.138   0.708   3.221 -0.6553  0.0682 -0.5951
 5032SOL    HW226559   1.057   0.748   3.108 -0.1493 -2.9574  1.5102
 5033SOL     OW26560   1.172   2.198   6.796 -0.1059  0.2797 -0.0274
 5033SOL    HW126561   1.113   2.257   6.842 -2.2424 -0.2914 -2.0202
 5033SOL    HW226562   1.129   2.117   6.824 -2.2211  0.2154 -3.4049
 5034SOL     OW26563   2.276   1.057  15.203 -0.1109 -0.5047  0.5175
 5034SOL    HW126564   2.185   1.074  15.224 -0.6094 -0.5259 -1.6743
 5034SOL    HW226565   2.274   1.021  15.114 -1.1910 -0.2217  0.4280
 5035SOL     OW26566   4.171   1.496   1.731 -0.0753 -0.1255  0.0577
 5035SOL    HW126567   4.249   1.502   1.676  0.4501  1.0559  0.9470
 5035SOL    HW226568   4.100   1.539   1.684  0.7809  0.3400 -0.8005
 5036SOL     OW26569   0.300   3.030  13.046  0.5444 -0.5519  0.0299
 5036SOL    HW126570   0.384   3.031  13.092 -0.6998 -1.7373  2.3149
 5036SOL    HW226571   0.320   3.095  12.978 -2.7131  0.1450 -0.2553
 5037SOL     OW26572   2.844   2.932   3.322 -0.1383  0.0899 -0.1637
 5037SOL    HW126573   2.893   2.851   3.335  2.1611  1.2959 -1.5235
 5037SOL    HW226574   2.841   2.932   3.226  2.3559  2.9262 -0.2106
 5038SOL     OW26575   2.407   4.522   5.776 -0.2429 -0.3920 -0.3223
 5038SOL    HW126576   2.461   4.473   5.838 -0.0144  2.9440  2.0294
 5038SOL    HW226577   2.448   4.607   5.787 -0.5306  0.0581 -2.6617
 5039SOL     OW26578   4.607   2.379  13.645 -0.5546  0.3619  0.2843
 5039SOL    HW126579   4.515   2.377  13.618 -0.8831 -0.8411  1.5162
 5039SOL    HW226580   4.641   2.391  13.557 -0.8948 -3.1790 -0.3342
 5040SOL     OW26581   4.358   0.302  13.218 -0.3035 -0.4329 -0.5197
 5040SOL    HW126582   4.398   0.386  13.194  0.9309 -1.1246 -0.8881
 5040SOL    HW226583   4.278   0.317  13.168  0.7400  2.7205 -1.2304
 5041SOL     OW26584   2.105   0.320   4.791 -0.1697 -0.4558  0.8505
 5041SOL    HW126585   2.165   0.323   4.717  1.5217  0.0600  2.2408
 5041SOL    HW226586   2.115   0.229   4.818 -1.0171 -0.7662  0.1348
 5042SOL     OW26587   2.129   4.515   6.826 -0.2981  0.8739 -0.5186
 5042SOL    HW126588   2.037   4.530   6.849 -0.3837 -0.5001  0.0181
 5042SOL    HW226589   2.124   4.432   6.780  1.3799 -2.1849  4.8187
 5043SOL     OW26590   0.296   2.184  16.243  0.3434  0.5755  0.2264
 5043SOL    HW126591   0.355   2.247  16.285  0.8722  0.4892 -0.3985
 5043SOL    HW226592   0.224   2.186  16.306 -1.0191 -0.8831 -1.2780
 5044SOL     OW26593   0.247   0.640  12.006 -0.0219  0.0095 -0.1522
 5044SOL    HW126594   0.218   0.590  12.083  1.6271 -0.0460  0.4197
 5044SOL    HW226595   0.309   0.575  11.973 -0.6483 -0.7660  0.1654
 5045SOL     OW26596   1.685   1.168   2.734  0.2990  0.9768 -0.1721
 5045SOL    HW126597   1.772   1.187   2.698  0.4741  0.0290 -0.2401
 5045SOL    HW226598   1.676   1.076   2.712  2.2777  0.7779 -0.1760
 5046SOL     OW26599   0.297   1.450   2.405  0.1727 -0.6069 -0.1545
 5046SOL    HW126600   0.228   1.491   2.352  0.6364  1.3331  0.7740
 5046SOL    HW226601   0.290   1.359   2.376 -0.1316 -0.6773  0.1492
 5047SOL     OW26602   1.463   0.185   7.250  0.0853  0.2159 -0.1734
 5047SOL    HW126603   1.442   0.153   7.163 -1.8139 -1.1116  0.7810
 5047SOL    HW226604   1.559   0.186   7.249  0.0765  1.5850  1.0030
 5048SOL     OW26605   1.458   4.682   0.612 -0.6622  0.3726 -0.1510
 5048SOL    HW126606   1.438   4.589   0.621  0.7600  0.0725 -0.0145
 5048SOL    HW226607   1.516   4.687   0.535 -1.9443 -2.6238 -1.3238
 5049SOL     OW26608   4.132   0.569   1.599 -0.1967 -0.1128  0.2576
 5049SOL    HW126609   4.169   0.607   1.519 -2.7640  0.9717 -0.4012
 5049SOL    HW226610   4.052   0.526   1.568  1.2929 -1.7382 -1.3466
 5050SOL     OW26611   0.234   4.257   5.387  0.3457  0.3978  0.0606
 5050SOL    HW126612   0.313   4.282   5.341  0.8983  1.5769  1.6564
 5050SOL    HW226613   0.167   4.317   5.354  0.3293  0.7672  0.7785
 5051SOL     OW26614   1.459   4.395   2.262  0.2328  0.4549 -0.7114
 5051SOL    HW126615   1.406   4.321   2.290  0.5676 -0.0440 -1.4028
 5051SOL    HW226616   1.386   4.452   2.240  0.4538  0.1377 -2.2947
 5052SOL     OW26617   1.852   0.396   8.066  0.3427  0.2422  0.2237
 5052SOL    HW126618   1.909   0.320   8.056  1.3361  1.0950 -0.6188
 5052SOL    HW226619   1.854   0.440   7.981 -0.1887 -0.5987 -0.2282
 5053SOL     OW26620   3.450   2.302   5.605  0.8863 -0.4935  0.3054
 5053SOL    HW126621   3.398   2.380   5.583 -3.2079 -3.5677 -0.9690
 5053SOL    HW226622   3.420   2.242   5.537  1.2864  0.0564 -0.3582
 5054SOL     OW26623   0.524   2.067   1.911 -0.4039  0.3285  0.4252
 5054SOL    HW126624   0.532   2.085   2.005 -0.9952 -0.2558  0.5813
 5054SOL    HW226625   0.568   1.982   1.912 -0.9525  0.0424 -5.2286
 5055SOL     OW26626   1.991   3.393   5.272  0.3133 -0.6170  0.0906
 5055SOL    HW126627   1.929   3.466   5.268 -0.2943 -1.2371 -2.1413
 5055SOL    HW226628   2.079   3.429   5.258 -0.3641  1.1038  0.1652
 5056SOL     OW26629   0.302   4.453  15.499 -0.5190  0.0302  0.5278
 5056SOL    HW126630   0.241   4.379  15.496  0.2042 -0.5975  1.6166
 5056SOL    HW226631   0.300   4.471  15.593  0.6075 -0.6876  0.6819
 5057SOL     OW26632   0.947   2.847  14.928 -0.3377  0.4074 -0.1715
 5057SOL    HW126633   0.859   2.846  14.891 -1.9889  2.0238  3.6662
 5057SOL    HW226634   0.930   2.901  15.005 -1.1889  0.0058 -0.0797
 5058SOL     OW26635   3.856   0.519   8.981 -0.5471  0.0301  0.1013
 5058SOL    HW126636   3.824   0.576   9.051  1.2076  0.6480  0.4032
 5058SOL    HW226637   3.951   0.532   8.992 -0.7747  1.5443  0.2671
 5059SOL     OW26638   0.966   2.968   7.361 -0.1425  0.2660  0.0660
 5059SOL    HW126639   0.965   3.044   7.420 -1.5605 -0.3853  0.8680
 5059SOL    HW226640   1.029   2.918   7.414  0.0418 -0.9041 -1.2733
 5060SOL     OW26641   2.901   1.609   5.371  0.1769 -0.1085 -0.0558
 5060SOL    HW126642   2.845   1.670   5.324  0.5524  2.3335  2.6403
 5060SOL    HW226643   2.987   1.634   5.338  0.0813 -1.9027 -1.6540
 5061SOL     OW26644   3.107   2.483   7.328  0.0091  0.4426  0.0143
 5061SOL    HW126645   3.057   2.561   7.304 -0.9133 -0.7134 -1.8267
 5061SOL    HW226646   3.114   2.495   7.423  0.1171 -0.3991  0.1076
 5062SOL     OW26647   4.681   1.897   3.652 -0.2355 -0.1012 -0.7138
 5062SOL    HW126648   4.687   1.971   3.593  0.6617  0.3148 -0.0984
 5062SOL    HW226649   4.607   1.849   3.615  1.2962 -1.8868 -1.4581
 5063SOL     OW26650   3.799   3.558  14.408  0.4390 -0.3286 -0.3892
 5063SOL    HW126651   3.873   3.617  14.394 -0.6186  0.8678 -0.9347
 5063SOL    HW226652   3.839   3.475  14.437  2.7762  0.7125 -0.6033
 5064SOL     OW26653   3.991   0.817   1.389 -0.0218 -0.4416 -0.1702
 5064SOL    HW126654   3.932   0.873   1.339  0.4793  1.9601  1.9685
 5064SOL    HW226655   3.987   0.844   1.481  0.4505  1.6643 -0.7681
 5065SOL     OW26656   0.691   1.244  10.085  0.0643 -0.8911  0.1138
 5065SOL    HW126657   0.630   1.266  10.156 -0.6120  0.4843 -0.8842
 5065SOL    HW226658   0.742   1.323  10.100 -0.1854 -0.3907 -1.6868
 5066SOL     OW26659   2.941   2.185   1.888  0.0560  0.0500  0.4816
 5066SOL    HW126660   2.892   2.210   1.966  2.4097  0.9419  1.6860
 5066SOL    HW226661   2.926   2.247   1.817 -0.3598 -0.5739  0.0320
 5067SOL     OW26662   3.520   4.043   1.465  0.5558 -0.3482  0.3346
 5067SOL    HW126663   3.588   3.981   1.438  1.6452  1.3462 -0.8485
 5067SOL    HW226664   3.571   4.104   1.519 -0.9013 -0.6286  2.0220
 5068SOL     OW26665   1.231   1.327   5.454  0.1489  0.5622  0.1958
 5068SOL    HW126666   1.273   1.330   5.541 -1.1266  1.3487  0.7860
 5068SOL    HW226667   1.308   1.352   5.402 -0.5756  0.9566 -0.6755
 5069SOL     OW26668   4.522   3.993   9.215 -0.4839 -0.3354 -0.0576
 5069SOL    HW126669   4.608   3.993   9.258  0.1588 -0.7429 -1.3460
 5069SOL    HW226670   4.528   3.912   9.165  0.1098 -0.8815  0.9062
 5070SOL     OW26671   0.016   1.051   7.606 -0.4154  0.1543  1.0035
 5070SOL    HW126672   0.051   1.003   7.682 -0.8905  0.6375  1.5277
 5070SOL    HW226673   4.645   1.023   7.614 -0.1926 -0.4511  1.4728
 5071SOL     OW26674   3.920   2.310   2.643  0.0662  0.2153 -0.3075
 5071SOL    HW126675   3.906   2.369   2.717 -0.3553 -0.0238 -0.1956
 5071SOL    HW226676   3.994   2.253   2.667 -0.5831 -1.1085 -1.4851
 5072SOL     OW26677   0.940   4.653   1.316  0.0684 -0.6228 -0.1345
 5072SOL    HW126678   0.893   4.630   1.397 -3.2981 -0.2055 -1.9640
 5072SOL    HW226679   1.030   4.650   1.347 -0.2533  0.4229  0.9069
 5073SOL     OW26680   3.156   4.000   1.752  0.3120  0.6445 -0.1749
 5073SOL    HW126681   3.228   3.971   1.696 -0.5565  1.4398 -1.6707
 5073SOL    HW226682   3.163   3.925   1.812  2.7866  1.8083  0.9842
 5074SOL     OW26683   1.367   2.774   8.964 -0.4339 -0.1592 -0.1946
 5074SOL    HW126684   1.457   2.743   8.970 -0.8063 -1.0657  0.8066
 5074SOL    HW226685   1.377   2.864   8.995  1.8174 -1.2467  2.2964
 5075SOL     OW26686   3.960   2.919  16.295  0.3270 -0.5050  0.5579
 5075SOL    HW126687   3.966   2.928  16.200 -0.9065  2.7392  0.7817
 5075SOL    HW226688   4.037   2.974  16.312 -0.3937  0.7849 -0.3459
 5076SOL     OW26689   4.658   4.234   4.525  0.3256 -0.8776  0.2977
 5076SOL    HW126690   4.682   4.255   4.435 -0.1439  0.5360  0.4985
 5076SOL    HW226691   4.614   4.149   4.516 -1.4590  0.0415  0.3406
 5077SOL     OW26692   3.819   0.040  14.876 -0.2020  0.3349 -0.7667
 5077SOL    HW126693   3.893   0.099  14.865 -0.4368  0.6195 -0.8410
 5077SOL    HW226694   3.803   0.016  14.784  2.0571  1.8031 -1.5281
 5078SOL     OW26695   1.107   3.207   8.282  0.1493 -0.0055 -0.3337
 5078SOL    HW126696   1.194   3.173   8.261 -0.7624 -2.7011  0.1871
 5078SOL    HW226697   1.133   3.288   8.325  3.6309 -1.2357 -0.1404
 5079SOL     OW26698   0.756   0.690  10.904 -0.1874  0.0723  0.6001
 5079SOL    HW126699   0.744   0.665  10.813  0.4673 -0.3499  0.6299
 5079SOL    HW226700   0.703   0.769  10.911  0.9977  1.0010 -1.1313
 5080SOL     OW26701   4.210   3.787   6.422  0.5090 -0.0077  0.2227
 5080SOL    HW126702   4.223   3.814   6.513 -0.2782 -1.6019  0.8243
 5080SOL    HW226703   4.243   3.867   6.381  1.4596 -0.6542 -0.2733
 5081SOL     OW26704   3.248   1.155   0.275  0.6553 -0.0255  0.0081
 5081SOL    HW126705   3.286   1.176   0.190 -0.4833 -3.8078 -1.4113
 5081SOL    HW226706   3.214   1.069   0.250 -0.0524  0.3961 -0.4845
 5082SOL     OW26707   4.158   3.454  17.281 -0.2609  0.2612  0.9415
 5082SOL    HW126708   4.077   3.404  17.278 -0.5743  0.9574 -2.4835
 5082SOL    HW226709   4.126   3.545  17.278  1.6762  0.9235  0.3891
 5083SOL     OW26710   2.704   2.251   4.214  0.7225 -0.3035 -0.0804
 5083SOL    HW126711   2.740   2.166   4.238  2.2926  0.7825  1.4334
 5083SOL    HW226712   2.632   2.249   4.276  0.4977  1.9878 -0.2584
 5084SOL     OW26713   2.066   0.281  16.566  0.3224  0.2061 -0.2857
 5084SOL    HW126714   2.009   0.354  16.589  0.7981 -0.2564  2.3728
 5084SOL    HW226715   2.155   0.306  16.588  0.6214 -0.5447 -0.6376
 5085SOL     OW26716   1.151   1.601   6.983  0.1356 -0.2809  0.1693
 5085SOL    HW126717   1.181   1.560   6.902  1.9816  3.9979 -1.3554
 5085SOL    HW226718   1.057   1.602   6.967  0.1425 -0.5475  0.1230
 5086SOL     OW26719   3.701   3.330   6.945 -0.0777  0.3752  0.0762
 5086SOL    HW126720   3.741   3.265   6.888  1.5788  0.1139  1.5052
 5086SOL    HW226721   3.638   3.274   6.990  0.0506  0.1267 -0.0539
 5087SOL     OW26722   2.795   2.321   8.773  0.0766 -0.0746 -0.4973
 5087SOL    HW126723   2.890   2.337   8.771  0.0478  0.3082  1.8615
 5087SOL    HW226724   2.786   2.277   8.688 -1.9470  0.3236 -0.4771
 5088SOL     OW26725   3.108   3.771   3.233  1.1994 -0.8199  0.4396
 5088SOL    HW126726   3.094   3.788   3.140  3.0297  1.2698  0.5402
 5088SOL    HW226727   3.203   3.775   3.222  0.9195  1.2244 -1.2338
 5089SOL     OW26728   2.847   3.579   3.609  0.6771 -0.7230 -0.4222
 5089SOL    HW126729   2.842   3.496   3.658 -1.8713  0.2403  0.9743
 5089SOL    HW226730   2.766   3.626   3.627  2.1490  0.7887  2.1370
 5090SOL     OW26731   2.178   1.751   4.471  0.2120 -0.4739 -0.0786
 5090SOL    HW126732   2.162   1.720   4.382  2.0593 -0.0224 -0.5730
 5090SOL    HW226733   2.102   1.714   4.516  0.6962 -1.3342  0.0236
 5091SOL     OW26734   0.247   4.561  13.698  0.3650  0.1205  0.3986
 5091SOL    HW126735   0.292   4.532  13.777  1.5697 -1.7157 -0.9532
 5091SOL    HW226736   0.196   4.484  13.672  0.8938 -0.0752 -0.0740
 5092SOL     OW26737   2.819   0.504   6.838 -0.7074  0.5496 -0.6879
 5092SOL    HW126738   2.804   0.436   6.904 -2.0871  0.1757 -1.3941
 5092SOL    HW226739   2.732   0.504   6.800 -1.1550 -2.7899  0.2695
 5093SOL     OW26740   1.908   0.817   5.513 -0.0370 -0.2699 -0.5893
 5093SOL    HW126741   1.890   0.791   5.604 -2.1211  1.1159 -0.6149
 5093SOL    HW226742   1.827   0.782   5.475  0.3183 -2.6662  0.8419
 5094SOL     OW26743   0.026   2.934   6.656 -0.3519  0.0658 -0.0187
 5094SOL    HW126744   0.053   2.851   6.616  3.1563  0.2800  1.9473
 5094SOL    HW226745   0.107   2.982   6.670  0.3601 -0.6006 -1.8876
 5095SOL     OW26746   0.819   3.629   0.864 -0.4147 -0.0138  0.3744
 5095SOL    HW126747   0.724   3.642   0.862 -0.1933  1.4877 -0.2156
 5095SOL    HW226748   0.820   3.563   0.933  0.0448 -1.0458 -0.6126
 5096SOL     OW26749   0.533   0.778   7.701 -0.3005  0.4143 -0.4692
 5096SOL    HW126750   0.575   0.787   7.616  0.4297  0.7399 -0.0719
 5096SOL    HW226751   0.525   0.868   7.734 -0.0243 -0.5127  2.1737
 5097SOL     OW26752   1.267   0.575   8.132 -0.9197  0.1122  0.0240
 5097SOL    HW126753   1.362   0.584   8.122 -0.7975 -0.7104  0.4309
 5097SOL    HW226754   1.253   0.490   8.090 -0.3889 -0.1716  0.4243
 5098SOL     OW26755   2.457   0.199   5.219  0.6697  0.3839  0.1657
 5098SOL    HW126756   2.364   0.211   5.200  0.2819 -3.0691 -0.2545
 5098SOL    HW226757   2.491   0.276   5.174 -0.4203  1.6948  1.5694
 5099SOL     OW26758   1.849   4.559  14.968 -0.0390 -0.0122  0.1829
 5099SOL    HW126759   1.911   4.556  14.895  1.4548  1.2420  1.3969
 5099SOL    HW226760   1.874   4.479  15.014  0.0312  0.0795  0.3048
 5100SOL     OW26761   1.961   1.761  12.971 -0.2220 -0.2113 -0.8368
 5100SOL    HW126762   2.022   1.825  13.007 -1.2552 -0.1418  0.7488
 5100SOL    HW226763   1.975   1.777  12.877 -2.4981 -0.5393 -1.2292
 5101SOL     OW26764   0.407   3.136   1.489  0.7007  0.2642  0.3466
 5101SOL    HW126765   0.450   3.116   1.406  1.4070  0.2633  0.7115
 5101SOL    HW226766   0.316   3.137   1.458  0.8963 -1.7582 -0.2499
 5102SOL     OW26767   2.239   3.386   4.630  0.4958  0.0755 -0.1107
 5102SOL    HW126768   2.218   3.480   4.625  0.5386  0.2849  3.2940
 5102SOL    HW226769   2.156   3.357   4.668  1.3933 -1.8508  0.3686
 5103SOL     OW26770   1.116   0.634   1.158 -0.0739 -0.7361 -0.0643
 5103SOL    HW126771   1.083   0.721   1.136 -1.3453 -0.7426  1.7982
 5103SOL    HW226772   1.161   0.594   1.084 -0.7486 -0.9753 -0.3460
 5104SOL     OW26773   1.317   4.197   6.476  0.4660  0.1273 -0.5505
 5104SOL    HW126774   1.276   4.235   6.554 -2.5039  2.7046 -3.3814
 5104SOL    HW226775   1.251   4.196   6.407  0.4896  2.0969 -0.5989
 5105SOL     OW26776   2.040   4.652   8.360 -0.2146  0.4233  0.6354
 5105SOL    HW126777   2.118   4.639   8.414  1.1488 -0.2604 -1.5151
 5105SOL    HW226778   2.006   4.565   8.339  1.0218  0.3406 -1.0449
 5106SOL     OW26779   1.876   1.825   7.427  0.0985 -0.6804  0.0608
 5106SOL    HW126780   1.830   1.804   7.508 -0.2165 -1.5602 -0.3587
 5106SOL    HW226781   1.960   1.780   7.433  0.2750 -0.3744 -0.0779
 5107SOL     OW26782   0.271   3.601   6.905  0.2272  0.0958  0.2256
 5107SOL    HW126783   0.333   3.641   6.843 -0.1777  0.0246 -0.2213
 5107SOL    HW226784   0.254   3.675   6.963  2.4742 -0.2435  1.3210
 5108SOL     OW26785   1.559   2.922   1.501 -0.6505 -0.2201 -0.3779
 5108SOL    HW126786   1.543   3.012   1.529 -1.2635 -0.0502 -1.2838
 5108SOL    HW226787   1.479   2.905   1.451  1.2867 -3.0194 -2.5256
 5109SOL     OW26788   3.987   2.341   6.905 -0.1578  0.2668  0.5655
 5109SOL    HW126789   4.053   2.303   6.963  0.6384  0.5858 -0.1302
 5109SOL    HW226790   3.927   2.273   6.875 -1.2341  1.8578 -0.8820
 5110SOL     OW26791   3.904   0.468  14.240  0.0080 -0.2827 -0.2633
 5110SOL    HW126792   3.863   0.450  14.156 -0.3155 -0.6152 -0.0331
 5110SOL    HW226793   3.822   0.490  14.284 -0.5535 -0.2803 -1.3224
 5111SOL     OW26794   3.302   0.148   5.756  0.2040 -0.2141 -0.5540
 5111SOL    HW126795   3.330   0.211   5.690  1.6532 -0.8736 -0.5698
 5111SOL    HW226796   3.206   0.152   5.760  0.0020 -2.2955 -2.7403
 5112SOL     OW26797   1.524   2.741   1.716  0.3276  0.2066  0.2875
 5112SOL    HW126798   1.521   2.830   1.681  1.0519 -0.4597 -1.4522
 5112SOL    HW226799   1.443   2.723   1.763  0.0309 -1.7070 -0.9754
 5113SOL     OW26800   1.826   1.831  16.777 -0.5418 -0.3210  0.5715
 5113SOL    HW126801   1.820   1.787  16.692  0.4010 -2.0328  1.3902
 5113SOL    HW226802   1.779   1.914  16.768 -1.8399 -1.0153  0.9213
 5114SOL     OW26803   0.888   4.390  12.102 -0.6404  0.0536 -0.0727
 5114SOL    HW126804   0.878   4.305  12.058  0.0974 -1.3553  2.4738
 5114SOL    HW226805   0.819   4.386  12.168  0.7238 -2.6864  1.2101
 5115SOL     OW26806   3.713   0.631   7.614 -0.6777 -0.2395 -0.0941
 5115SOL    HW126807   3.623   0.605   7.633 -0.2061 -1.1374  0.9098
 5115SOL    HW226808   3.705   0.639   7.519  1.1132 -1.3921 -0.3371
 5116SOL     OW26809   3.605   3.918   5.610 -0.4693  0.5906 -0.7034
 5116SOL    HW126810   3.693   3.885   5.595  0.0974  1.9878 -0.4215
 5116SOL    HW226811   3.617   3.989   5.674  1.9732 -0.7328  0.3055
 5117SOL     OW26812   0.919   4.176   0.567 -0.9719 -0.0005  0.0720
 5117SOL    HW126813   0.890   4.127   0.490 -0.6253 -2.1060  1.2680
 5117SOL    HW226814   0.994   4.215   0.522 -2.3425  1.0053 -1.2957
 5118SOL     OW26815   4.340   3.234  11.715  0.1729  0.1339 -0.8252
 5118SOL    HW126816   4.278   3.166  11.689 -0.2717  0.5967 -1.0022
 5118SOL    HW226817   4.418   3.206  11.667  0.0475 -1.3038 -0.1799
 5119SOL     OW26818   1.521   4.444   3.485  0.1725 -0.4703 -0.0239
 5119SOL    HW126819   1.497   4.423   3.575 -2.3938 -0.4425 -0.7153
 5119SOL    HW226820   1.460   4.399   3.426 -1.5596  1.7945  0.0092
 5120SOL     OW26821   3.324   3.980   1.280  0.7994  0.2442 -0.0747
 5120SOL    HW126822   3.398   4.028   1.316 -2.0102  2.9656  2.1531
 5120SOL    HW226823   3.256   3.995   1.346  0.2712  0.7568 -0.7269
 5121SOL     OW26824   0.789   0.770  14.804  0.0072  0.4215 -0.3036
 5121SOL    HW126825   0.697   0.789  14.821  0.0623  0.4277 -0.0242
 5121SOL    HW226826   0.802   0.691  14.857 -0.2410  1.0066  0.6089
 5122SOL     OW26827   3.677   3.211   5.062 -0.2065  0.2441 -0.2336
 5122SOL    HW126828   3.730   3.290   5.044  1.4530 -0.7284  0.3629
 5122SOL    HW226829   3.605   3.235   5.003 -0.1569 -0.6506 -0.6499
 5123SOL     OW26830   4.540   2.321   7.410  0.0050 -0.2325  0.2259
 5123SOL    HW126831   4.449   2.343   7.426 -0.6536 -0.6036 -2.9694
 5123SOL    HW226832   4.583   2.404   7.430 -1.4621 -0.0639  2.6144
 5124SOL     OW26833   1.855   0.466   5.350  0.4665  0.1278  0.5432
 5124SOL    HW126834   1.811   0.408   5.412 -3.6558 -1.1587 -3.5901
 5124SOL    HW226835   1.797   0.542   5.352  0.4746  0.2168 -2.0499
 5125SOL     OW26836   0.309   4.693   7.563  0.5122 -0.2608 -0.7681
 5125SOL    HW126837   0.395   4.704   7.604  0.2055  2.3045 -0.7771
 5125SOL    HW226838   0.280   4.613   7.605  3.3626 -0.2544  1.2290
 5126SOL     OW26839   0.224   3.233  11.190 -0.6641  0.0934 -0.0245
 5126SOL    HW126840   0.227   3.151  11.239  2.3463  1.5445  2.2159
 5126SOL    HW226841   0.142   3.274  11.217 -1.4134 -1.6619  0.3357
 5127SOL     OW26842   4.231   1.972   8.398  0.0877 -1.1629 -0.1665
 5127SOL    HW126843   4.175   1.947   8.324 -2.2437 -0.7714  1.4752
 5127SOL    HW226844   4.318   1.975   8.358  0.6987  0.1834  1.3053
 5128SOL     OW26845   2.914   2.511   6.645 -0.7635 -0.1685 -0.4852
 5128SOL    HW126846   2.881   2.540   6.560  2.9669  1.0099 -1.5283
 5128SOL    HW226847   3.003   2.492   6.616  0.0428  1.2203  1.1031
 5129SOL     OW26848   4.503   3.017   8.439  0.4734 -0.3030  0.1995
 5129SOL    HW126849   4.478   3.080   8.506 -0.9887 -0.3241 -0.3140
 5129SOL    HW226850   4.557   2.953   8.485 -1.9866 -1.2601  1.7098
 5130SOL     OW26851   2.198   0.370  15.666 -0.3147  0.8588 -0.1142
 5130SOL    HW126852   2.276   0.372  15.612 -0.8932 -1.1516 -1.0054
 5130SOL    HW226853   2.174   0.279  15.648  1.7145  0.7538 -2.2670
 5131SOL     OW26854   2.842   3.323   3.809 -0.1519  0.2261  0.8432
 5131SOL    HW126855   2.795   3.240   3.801 -1.5945  1.2295 -0.8765
 5131SOL    HW226856   2.933   3.297   3.795  0.4564  2.4760  0.5704
 5132SOL     OW26857   3.121   4.259   1.034  0.0110 -0.3200  0.3904
 5132SOL    HW126858   3.068   4.291   1.107 -1.1724 -0.3751 -0.4491
 5132SOL    HW226859   3.130   4.165   1.054 -0.6510 -0.3389  0.5895
 5133SOL     OW26860   4.322   1.411   8.340 -0.1266 -0.0481 -0.9998
 5133SOL    HW126861   4.277   1.483   8.384  1.0405 -0.1407  0.3426
 5133SOL    HW226862   4.251   1.350   8.320 -0.8112  0.4625 -0.1170
 5134SOL     OW26863   2.317   2.261  10.018  0.5765  0.2527  0.1794
 5134SOL    HW126864   2.271   2.307  10.088 -1.8652  1.1462 -1.9926
 5134SOL    HW226865   2.309   2.168  10.039  0.2527  0.9179  2.9768
 5135SOL     OW26866   3.155   2.330  17.092  0.1845  0.4043 -0.1681
 5135SOL    HW126867   3.129   2.416  17.059  0.8677  0.9568  0.7451
 5135SOL    HW226868   3.226   2.352  17.152  0.5126  1.3278 -0.8979
 5136SOL     OW26869   4.037   2.218  16.795 -0.0321 -0.2596  0.0033
 5136SOL    HW126870   4.108   2.272  16.828  0.4114 -0.5758 -0.4321
 5136SOL    HW226871   4.048   2.231  16.701 -0.5085 -0.5315 -0.0945
 5137SOL     OW26872   2.876   3.622   3.181  0.4114 -0.2394  0.4037
 5137SOL    HW126873   2.931   3.552   3.146 -0.4569 -0.1885 -1.0244
 5137SOL    HW226874   2.945   3.681   3.214  0.1599 -0.8297  1.9754
 5138SOL     OW26875   2.953   2.980  16.735 -0.3235 -0.4257 -0.6131
 5138SOL    HW126876   2.940   3.075  16.728 -1.0226 -0.5534 -1.0188
 5138SOL    HW226877   2.894   2.971  16.809 -0.8000 -0.6881 -1.0236
 5139SOL     OW26878   3.650   1.165  14.574  0.4189 -0.3066  0.4352
 5139SOL    HW126879   3.631   1.172  14.481  1.4419  1.0678  0.3248
 5139SOL    HW226880   3.725   1.224  14.575 -0.5514  0.9085  1.6407
 5140SOL     OW26881   3.299   4.233   3.332  0.5571  0.0651  0.2085
 5140SOL    HW126882   3.315   4.169   3.402  2.5200  0.9656  0.5849
 5140SOL    HW226883   3.209   4.265   3.340  1.1882  1.6810  0.7754
 5141SOL     OW26884   0.605   2.405  17.671  0.6090  0.0312 -0.1955
 5141SOL    HW126885   0.567   2.320  17.648  2.8436 -1.0222  0.0285
 5141SOL    HW226886   0.595   2.454  17.589 -1.3888  0.4187  0.2895
 5142SOL     OW26887   2.524   3.852   5.970 -0.0305 -0.5622  0.2590
 5142SOL    HW126888   2.547   3.807   6.051  1.2314 -1.5527 -0.6456
 5142SOL    HW226889   2.482   3.778   5.925 -0.8225  0.0466 -0.0128
 5143SOL     OW26890   1.259   1.880   1.888 -0.2622  0.1001  0.4368
 5143SOL    HW126891   1.237   1.817   1.820  0.4838  1.9719 -1.5294
 5143SOL    HW226892   1.293   1.831   1.963 -2.2969  0.5106  1.6349
 5144SOL     OW26893   2.042   2.968  14.833  0.2161 -0.5699  0.0121
 5144SOL    HW126894   2.068   2.975  14.925 -0.0188  0.3254  0.0108
 5144SOL    HW226895   1.988   2.890  14.832  0.5792 -0.8299  0.4330
 5145SOL     OW26896   1.767   2.552   1.650  0.2990 -0.3734  0.8971
 5145SOL    HW126897   1.700   2.614   1.679 -0.4521 -1.6220  1.8035
 5145SOL    HW226898   1.845   2.600   1.678  0.8378  0.2228 -1.5786
 5146SOL     OW26899   4.266   3.243   3.510 -0.1111  0.5243 -0.0023
 5146SOL    HW126900   4.191   3.301   3.498 -0.0440  0.5078 -0.5027
 5146SOL    HW226901   4.322   3.279   3.440 -0.0506  1.8636  0.7425
 5147SOL     OW26902   0.752   2.799  13.405  0.2304  0.2493 -0.6371
 5147SOL    HW126903   0.718   2.889  13.409 -0.9041 -0.1300 -1.9321
 5147SOL    HW226904   0.694   2.754  13.466  1.1065 -0.3681 -0.2651
 5148SOL     OW26905   2.363   1.797  10.640 -0.2312  0.3716 -1.0749
 5148SOL    HW126906   2.293   1.807  10.704  0.1394 -2.6856 -0.2075
 5148SOL    HW226907   2.403   1.884  10.646  0.1932  0.2075 -1.5178
 5149SOL     OW26908   2.014   2.601   3.549  0.0898  0.0485  0.5966
 5149SOL    HW126909   1.998   2.683   3.596  1.7413 -1.5918  4.0299
 5149SOL    HW226910   2.077   2.626   3.482  0.7823 -1.6133  0.6114
 5150SOL     OW26911   2.254   1.126  10.503  0.0473 -0.0879  0.1922
 5150SOL    HW126912   2.251   1.039  10.465 -0.1911  0.4378 -0.9848
 5150SOL    HW226913   2.346   1.153  10.501 -0.3408  1.1163 -1.4496
 5151SOL     OW26914   0.119   0.749   0.926  0.2994  0.4322 -0.3149
 5151SOL    HW126915   0.099   0.658   0.908 -0.1384  0.4568  0.0555
 5151SOL    HW226916   0.099   0.764   1.018 -1.7417 -2.4870 -0.3099
 5152SOL     OW26917   3.813   0.419  13.984  0.4183  0.4905  0.2115
 5152SOL    HW126918   3.818   0.384  13.895 -0.5154  0.6892  0.0829
 5152SOL    HW226919   3.735   0.367  14.003  0.0293  0.2948 -1.8924
 5153SOL     OW26920   1.836   3.109   7.900  0.1081  0.2911 -1.1331
 5153SOL    HW126921   1.786   3.191   7.900  0.8552  0.7472 -0.4194
 5153SOL    HW226922   1.818   3.072   7.986  2.1737  2.1148  0.0722
 5154SOL     OW26923   0.009   0.926   0.512 -0.7150 -0.4084  0.3536
 5154SOL    HW126924   4.634   0.937   0.504 -0.6337 -0.1579 -0.2344
 5154SOL    HW226925   0.040   0.994   0.452 -0.4414 -0.3474  0.5611
 5155SOL     OW26926   3.450   0.721   2.185  0.1560 -0.6846 -0.2531
 5155SOL    HW126927   3.467   0.752   2.097  0.9075 -0.5994 -0.0804
 5155SOL    HW226928   3.362   0.683   2.178  1.3253 -3.4415 -0.0043
 5156SOL     OW26929   4.645   0.112   2.095 -0.4959 -0.5397 -0.0588
 5156SOL    HW126930   4.678   0.044   2.037  1.0269  1.5383 -1.6206
 5156SOL    HW226931   4.687   0.183   2.047 -2.7561  0.4368 -0.6065
 5157SOL     OW26932   0.578   3.928   0.611 -0.8295  0.5253 -0.3310
 5157SOL    HW126933   0.492   3.906   0.575 -1.7918  0.9701  1.7377
 5157SOL    HW226934   0.594   3.998   0.547 -0.8824  0.5419 -0.3263
 5158SOL     OW26935   1.653   1.108   4.206  0.0830 -0.0328 -0.2692
 5158SOL    HW126936   1.705   1.188   4.202  2.7955 -1.6544  2.5485
 5158SOL    HW226937   1.690   1.041   4.147  0.4054 -0.7689  0.7685
 5159SOL     OW26938   4.349   2.869   7.383 -0.3689  0.0365  0.2957
 5159SOL    HW126939   4.424   2.861   7.323 -0.3347 -0.1035  0.3576
 5159SOL    HW226940   4.379   2.931   7.449  0.2503  0.4237 -0.3406
 5160SOL     OW26941   2.935   0.807   6.875 -0.6615 -0.0871  0.0765
 5160SOL    HW126942   2.949   0.722   6.833 -2.6712 -0.9268  1.1405
 5160SOL    HW226943   2.842   0.793   6.893 -1.3158  1.9099 -1.7927
 5161SOL     OW26944   0.741   4.431   6.886  0.2678  0.3806  0.5384
 5161SOL    HW126945   0.701   4.517   6.870 -0.5803  0.1493  1.4170
 5161SOL    HW226946   0.762   4.431   6.979 -2.4651 -1.7441  1.1712
 5162SOL     OW26947   2.841   1.856   1.803  0.4832 -0.3737 -0.2389
 5162SOL    HW126948   2.902   1.915   1.847  0.4626 -0.8154  0.3865
 5162SOL    HW226949   2.909   1.820   1.746 -0.8905  0.1270 -2.1632
 5163SOL     OW26950   1.827   2.198   8.898  0.3398 -0.0542  0.2083
 5163SOL    HW126951   1.797   2.288   8.909 -0.9087 -0.6540  1.8168
 5163SOL    HW226952   1.742   2.153   8.897 -0.8500  2.2335  0.0017
 5164SOL     OW26953   0.080   3.133  12.592 -0.2705  0.4167 -0.3259
 5164SOL    HW126954   0.045   3.106  12.508 -0.8240  0.2082 -0.0275
 5164SOL    HW226955   0.005   3.169  12.639 -0.8941  0.7011 -1.5456
 5165SOL     OW26956   4.327   0.279   2.696  0.8517  0.3088  0.4668
 5165SOL    HW126957   4.301   0.288   2.788  2.4753  0.7837  0.8657
 5165SOL    HW226958   4.361   0.191   2.706  1.5023  0.4884 -0.2148
 5166SOL     OW26959   1.456   3.678   5.760 -0.5548  0.6762 -0.2956
 5166SOL    HW126960   1.543   3.638   5.746 -0.3626  0.1396  2.4431
 5166SOL    HW226961   1.415   3.605   5.807 -0.4531  0.8504  0.0688
 5167SOL     OW26962   0.878   1.600   4.044 -0.2536  0.1627  0.2333
 5167SOL    HW126963   0.873   1.549   3.963 -0.7772  1.4083 -0.5143
 5167SOL    HW226964   0.967   1.590   4.076  0.5264  1.3957 -1.5963
 5168SOL     OW26965   1.511   4.302   1.824  0.0455  0.1342  0.5037
 5168SOL    HW126966   1.526   4.393   1.852 -1.1267  0.4371  0.1551
 5168SOL    HW226967   1.539   4.319   1.734 -1.9386 -2.0022 -0.5214
 5169SOL     OW26968   2.574   2.831   6.603 -0.0296  0.1347 -0.4763
 5169SOL    HW126969   2.638   2.761   6.614 -1.1067 -0.5122  1.6816
 5169SOL    HW226970   2.504   2.778   6.565 -1.2501  0.6769  0.9903
 5170SOL     OW26971   0.344   4.529   4.873  0.4344 -0.8210 -0.2248
 5170SOL    HW126972   0.324   4.610   4.826  0.6819 -1.7597 -1.9703
 5170SOL    HW226973   0.263   4.478   4.880 -1.1759  1.7717 -0.2430
 5171SOL     OW26974   3.238   1.757   8.164 -0.4821 -0.0866  0.0742
 5171SOL    HW126975   3.293   1.703   8.220  1.2863  1.6907  0.0204
 5171SOL    HW226976   3.239   1.843   8.206  0.5468  0.3071 -0.7569
 5172SOL     OW26977   4.287   0.267   3.668  0.2943  0.3203  0.0142
 5172SOL    HW126978   4.257   0.208   3.598 -1.2669  1.9819 -0.7285
 5172SOL    HW226979   4.202   0.273   3.713 -0.9206  1.4340 -2.4114
 5173SOL     OW26980   2.870   4.636   7.769 -0.0181 -0.7626 -0.2192
 5173SOL    HW126981   2.879   0.011   7.765 -0.3309 -0.7345 -0.2460
 5173SOL    HW226982   2.830   4.622   7.855 -1.7884 -0.9476 -1.0590
 5174SOL     OW26983   4.610   2.410  16.433 -0.2682 -0.2743  0.6724
 5174SOL    HW126984   4.703   2.429  16.442  0.5555 -2.8225 -2.3970
 5174SOL    HW226985   4.599   2.412  16.338  0.9309  1.1959  0.5617
 5175SOL     OW26986   0.852   2.064   6.976 -0.2437  0.3845 -0.1555
 5175SOL    HW126987   0.796   2.142   6.979 -2.7102 -1.4094  0.4230
 5175SOL    HW226988   0.790   1.994   6.996  0.5189 -0.2635 -0.0298
 5176SOL     OW26989   2.021   2.685  12.849 -0.0294 -0.2303 -0.0358
 5176SOL    HW126990   1.968   2.606  12.835 -1.3705  0.3582  1.7087
 5176SOL    HW226991   1.948   2.746  12.862  0.5151  0.2970  0.4918
 5177SOL     OW26992   2.492   0.757   1.396 -0.0115  0.0361  0.2081
 5177SOL    HW126993   2.555   0.750   1.325 -0.9980 -0.7660 -0.6041
 5177SOL    HW226994   2.419   0.800   1.350 -0.4428  0.4890  1.3020
 5178SOL     OW26995   3.414   1.176  11.652 -0.3677 -0.0127 -0.8792
 5178SOL    HW126996   3.413   1.235  11.577 -2.0719  1.2405  0.1176
 5178SOL    HW226997   3.453   1.099  11.610  1.9915  0.2796  0.7735
 5179SOL     OW26998   4.242   3.246   3.779  0.1129 -0.5531 -0.5122
 5179SOL    HW126999   4.280   3.217   3.696  0.0764 -0.7154 -0.4727
 5179SOL    HW227000   4.318   3.250   3.838  1.9907  1.7776 -3.0785
 5180SOL     OW27001   2.017   0.189   6.485 -0.6373 -0.2779  0.0860
 5180SOL    HW127002   1.931   0.153   6.504 -1.3539  2.0472  1.3200
 5180SOL    HW227003   1.996   0.280   6.463  1.3703  0.2197  0.2240
 5181SOL     OW27004   3.133   2.118   6.663  0.7289 -0.6935 -0.3995
 5181SOL    HW127005   3.137   2.063   6.742  0.8138 -0.1036  0.0062
 5181SOL    HW227006   3.134   2.048   6.597 -1.2580 -1.7431  0.7042
 5182SOL     OW27007   1.645   4.264   2.052  0.3106  0.1745  0.4330
 5182SOL    HW127008   1.591   4.337   2.084 -1.1336  0.1516 -1.9178
 5182SOL    HW227009   1.614   4.262   1.962  2.7532 -0.2465 -0.3889
 5183SOL     OW27010   1.357   2.905  14.448  0.3659  0.4498  0.2945
 5183SOL    HW127011   1.342   2.919  14.354  1.0105  0.5367  0.2043
 5183SOL    HW227012   1.393   2.990  14.473 -0.5060  0.0280  2.9575
 5184SOL     OW27013   2.592   3.135  16.483 -0.2047 -0.4524 -0.2400
 5184SOL    HW127014   2.546   3.179  16.555 -0.2968 -1.1842  0.1529
 5184SOL    HW227015   2.610   3.047  16.515  0.2492  0.2345  1.3913
 5185SOL     OW27016   4.497   3.517  11.659 -0.3571  0.4104  0.0130
 5185SOL    HW127017   4.483   3.597  11.708  2.1326  0.6985  0.2784
 5185SOL    HW227018   4.404   3.493  11.658 -0.7317  1.8383  0.7196
 5186SOL     OW27019   2.559   0.706   0.949 -0.2142  0.0963 -0.3281
 5186SOL    HW127020   2.638   0.714   0.895  0.1790  1.3002  0.3963
 5186SOL    HW227021   2.489   0.742   0.895  0.0244  3.3981  1.5211
 5187SOL     OW27022   4.109   2.994   1.972  0.4983 -0.8740 -0.1852
 5187SOL    HW127023   4.175   3.006   2.041  1.1384 -0.2438 -0.9029
 5187SOL    HW227024   4.109   3.078   1.925 -1.1565 -0.0658  1.2506
 5188SOL     OW27025   0.322   1.689   7.375  0.2115  0.1122  0.3176
 5188SOL    HW127026   0.304   1.752   7.306  2.4723  1.7689  1.2368
 5188SOL    HW227027   0.284   1.609   7.338  1.1341  0.9455 -2.4288
 5189SOL     OW27028   0.699   2.333  10.881 -0.3233  0.3628  0.0493
 5189SOL    HW127029   0.696   2.415  10.833 -1.0212  0.9777  1.1472
 5189SOL    HW227030   0.777   2.342  10.936 -0.1522 -0.9835  0.0227
 5190SOL     OW27031   2.625   2.122   7.188 -0.2649 -0.1493  0.0795
 5190SOL    HW127032   2.625   2.125   7.092 -0.3980  0.3564  0.0910
 5190SOL    HW227033   2.709   2.169   7.197 -0.6967  0.9066 -1.2617
 5191SOL     OW27034   0.376   2.669  16.705  0.3770  0.3675  0.1303
 5191SOL    HW127035   0.344   2.582  16.681  0.9012  0.1784  0.1206
 5191SOL    HW227036   0.303   2.730  16.693 -2.0793 -2.4064  1.0749
 5192SOL     OW27037   3.377   2.972   4.197  0.1888  0.2884  0.9891
 5192SOL    HW127038   3.380   2.914   4.121  0.3429  0.4148  0.8997
 5192SOL    HW227039   3.293   2.947   4.237  0.5671 -0.9386  1.0035
 5193SOL     OW27040   0.327   1.281   3.185  0.2135 -0.1750 -0.0446
 5193SOL    HW127041   0.276   1.292   3.264  0.6295  1.2455  0.0233
 5193SOL    HW227042   0.411   1.245   3.213 -0.4264 -0.6903  1.2057
 5194SOL     OW27043   1.266   3.271  10.648 -0.7313 -0.2131  0.1964
 5194SOL    HW127044   1.319   3.333  10.697 -1.4987 -1.1926  2.2497
 5194SOL    HW227045   1.189   3.264  10.705  0.4750 -2.1536  1.5834
 5195SOL     OW27046   3.902   0.807  15.202  0.0368  0.0332  0.4416
 5195SOL    HW127047   3.815   0.773  15.226  0.5665 -1.7634 -0.1520
 5195SOL    HW227048   3.880   0.866  15.130  4.6233  0.2919 -0.7236
 5196SOL     OW27049   3.326   1.817  13.763 -0.2225 -0.0021 -0.1030
 5196SOL    HW127050   3.285   1.760  13.698  0.1732 -0.3993 -0.0014
 5196SOL    HW227051   3.291   1.787  13.847 -0.5335  0.7367  0.0392
 5197SOL     OW27052   3.376   1.473   8.117 -0.4389 -0.9239  1.3632
 5197SOL    HW127053   3.450   1.505   8.169  1.3772 -1.7192 -0.7518
 5197SOL    HW227054   3.306   1.495   8.178 -0.1014 -0.9021  1.7418
 5198SOL     OW27055   1.508   3.454  13.586 -0.7600 -0.1687  0.2048
 5198SOL    HW127056   1.552   3.536  13.564 -0.9637 -0.2957 -0.6790
 5198SOL    HW227057   1.512   3.456  13.682 -1.8875 -1.7705  0.2800
 5199SOL     OW27058   1.001   1.698  12.794  0.0084  0.5312 -0.5072
 5199SOL    HW127059   0.955   1.619  12.766  0.7401 -0.1411  0.2080
 5199SOL    HW227060   0.939   1.733  12.858  2.0511  3.9434 -0.3484
 5200SOL     OW27061   1.598   0.096   7.899 -0.6607 -0.3072 -0.0383
 5200SOL    HW127062   1.559   0.171   7.943 -0.5342 -0.0135 -0.4289
 5200SOL    HW227063   1.587   0.033   7.970  0.0675 -2.2013 -1.6042
 5201SOL     OW27064   1.176   2.896   1.776 -0.3171  0.2021  0.1384
 5201SOL    HW127065   1.220   2.825   1.821 -1.4315 -0.2017  0.5854
 5201SOL    HW227066   1.091   2.853   1.786  0.0057 -0.8002 -1.4863
 5202SOL     OW27067   3.510   2.756  12.305 -0.2889  0.1256  0.2991
 5202SOL    HW127068   3.511   2.816  12.230  0.8482 -1.6479 -1.1088
 5202SOL    HW227069   3.579   2.691  12.294  0.8207  1.4686 -0.6201
 5203SOL     OW27070   0.549   0.409   6.130 -0.5166 -0.0279  0.4168
 5203SOL    HW127071   0.513   0.496   6.111 -0.7496 -0.5172 -1.4368
 5203SOL    HW227072   0.472   0.352   6.138 -0.0963 -0.1353  3.7443
 5204SOL     OW27073   4.464   2.131   8.638 -0.1455 -0.9953  0.5747
 5204SOL    HW127074   4.390   2.179   8.601 -0.2678 -1.9735 -0.4513
 5204SOL    HW227075   4.429   2.082   8.712 -1.7809  1.9700  1.7660
 5205SOL     OW27076   0.101   0.596  12.486  0.7480 -0.3304 -0.0430
 5205SOL    HW127077   0.155   0.581  12.563  0.9271 -0.3163 -0.1645
 5205SOL    HW227078   0.017   0.552  12.500  1.1913 -1.6130 -1.3399
 5206SOL     OW27079   2.354   3.014   3.661  0.3644 -0.2486  0.2709
 5206SOL    HW127080   2.442   3.028   3.626 -0.4798  1.1126 -1.3140
 5206SOL    HW227081   2.343   3.093   3.713  0.7129 -0.8755  1.3098
 5207SOL     OW27082   1.821   1.788   1.861 -0.1207  0.1354  0.7116
 5207SOL    HW127083   1.885   1.730   1.902  0.0090  0.5156  1.0412
 5207SOL    HW227084   1.870   1.854   1.812  0.0726 -0.5164  0.0162
 5208SOL     OW27085   3.267   1.774   6.331  0.2554  0.0939 -0.0289
 5208SOL    HW127086   3.257   1.743   6.421 -0.6300 -0.3318 -0.2717
 5208SOL    HW227087   3.208   1.708   6.295 -0.2232 -0.7438  2.2886
 5209SOL     OW27088   2.691   2.784  14.670 -0.6477 -0.1285 -0.0712
 5209SOL    HW127089   2.652   2.871  14.672 -1.4019 -0.4585 -0.4418
 5209SOL    HW227090   2.649   2.735  14.741  0.4317  2.6225  2.4616
 5210SOL     OW27091   3.776   0.335   4.537 -0.0574  0.4639 -0.0566
 5210SOL    HW127092   3.747   0.244   4.538  1.6981 -0.0986 -0.9447
 5210SOL    HW227093   3.690   0.375   4.525  0.1606  1.0482  0.3209
 5211SOL     OW27094   3.267   2.061   7.997 -0.6686  0.4013  0.3018
 5211SOL    HW127095   3.315   1.978   7.990 -0.5331  0.4659  0.4834
 5211SOL    HW227096   3.216   2.058   7.916 -2.5061 -0.3457  1.4900
 5212SOL     OW27097   0.981   0.501  12.981  0.4168 -0.3088 -0.5010
 5212SOL    HW127098   1.008   0.587  13.015  1.7813 -0.1697 -1.9145
 5212SOL    HW227099   0.888   0.494  13.003  0.6327 -2.1123 -0.1625
 5213SOL     OW27100   1.758   3.028  10.064  0.4597 -0.7412  0.2167
 5213SOL    HW127101   1.754   3.078  10.145 -1.9211  1.1101 -1.0587
 5213SOL    HW227102   1.714   2.946  10.086 -1.0523  0.3298  1.1003
 5214SOL     OW27103   1.273   0.426   8.602 -0.6342 -0.0499  0.3011
 5214SOL    HW127104   1.311   0.347   8.641 -0.4659  0.1556  0.5469
 5214SOL    HW227105   1.300   0.488   8.669  1.1489 -0.8110  0.2732
 5215SOL     OW27106   0.931   3.408   6.339  0.2000 -0.0887 -0.5300
 5215SOL    HW127107   0.943   3.363   6.255 -0.2732  0.3135 -0.8166
 5215SOL    HW227108   0.985   3.352   6.394 -1.1900 -2.4045 -1.5290
 5216SOL     OW27109   2.309   3.658   6.676 -0.0832 -0.0925 -0.4094
 5216SOL    HW127110   2.374   3.691   6.614  0.2677 -2.2448 -1.2005
 5216SOL    HW227111   2.228   3.667   6.626 -0.0385  0.8461 -0.3031
 5217SOL     OW27112   2.119   3.082  15.136  0.0501  0.2532  0.2476
 5217SOL    HW127113   2.107   3.112  15.226  1.1191 -0.3375  0.5786
 5217SOL    HW227114   2.060   3.143  15.091 -0.2976  2.1524  3.2963
 5218SOL     OW27115   3.028   3.258   7.626  0.1669  0.7638 -0.0871
 5218SOL    HW127116   3.040   3.253   7.721 -0.5375 -2.0517 -0.1410
 5218SOL    HW227117   3.099   3.308   7.586  1.3062 -1.2555 -0.6520
 5219SOL     OW27118   0.033   4.068   4.863  0.5207  0.1580 -0.5035
 5219SOL    HW127119   0.098   4.010   4.825 -1.5517 -1.9956 -0.8090
 5219SOL    HW227120   0.002   4.110   4.783 -0.5111  1.2011  0.4383
 5220SOL     OW27121   4.090   0.717  14.847  0.0354  0.1635 -0.5995
 5220SOL    HW127122   4.078   0.753  14.935 -1.3175 -0.4866 -0.5185
 5220SOL    HW227123   4.185   0.707  14.840  0.1487  1.8084 -1.5366
 5221SOL     OW27124   3.635   1.782  13.345 -0.1952 -0.6575  0.5868
 5221SOL    HW127125   3.551   1.756  13.383  1.4317 -1.8032  3.4075
 5221SOL    HW227126   3.664   1.859  13.394 -1.8138  0.2923  0.0382
 5222SOL     OW27127   0.544   1.769  13.812  0.5509 -0.3321  0.0624
 5222SOL    HW127128   0.499   1.710  13.751 -0.3068 -0.2922  0.6603
 5222SOL    HW227129   0.523   1.848  13.761  0.2201 -0.7856 -0.5000
 5223SOL     OW27130   4.027   1.533   6.073  0.2122  0.0599 -0.4996
 5223SOL    HW127131   4.029   1.478   5.994  0.1915 -2.1509  1.0197
 5223SOL    HW227132   4.036   1.461   6.136  1.8496 -1.4990 -2.4776
 5224SOL     OW27133   1.453   1.040  12.689 -0.6219 -0.1924  0.2442
 5224SOL    HW127134   1.542   1.059  12.720 -0.9680  3.3215 -0.8698
 5224SOL    HW227135   1.412   1.127  12.695  1.1361  0.6052  0.7681
 5225SOL     OW27136   2.853   0.684  10.944  0.0035  0.4928 -0.2325
 5225SOL    HW127137   2.902   0.605  10.926 -3.2303 -1.2074 -1.6857
 5225SOL    HW227138   2.844   0.723  10.857  0.5170 -0.3947 -0.6794
 5226SOL     OW27139   1.100   1.873   4.910 -0.0566 -0.2843  0.1425
 5226SOL    HW127140   1.179   1.906   4.953  1.9619 -1.9266 -2.2694
 5226SOL    HW227141   1.144   1.805   4.859 -0.0310 -0.0763 -0.1097
 5227SOL     OW27142   4.515   3.517  11.169 -0.3930 -0.4646  0.1476
 5227SOL    HW127143   4.508   3.555  11.081  0.6211 -0.7937 -0.0816
 5227SOL    HW227144   4.510   3.599  11.219  0.6440  0.7004 -1.6387
 5228SOL     OW27145   2.630   1.883   6.742  0.5130 -0.0220 -0.4119
 5228SOL    HW127146   2.682   1.925   6.674  2.0932  2.0305  2.0908
 5228SOL    HW227147   2.700   1.839   6.791 -1.3449 -3.0200 -0.4335
 5229SOL     OW27148   1.558   0.349   0.731  0.0518 -0.1042  0.0846
 5229SOL    HW127149   1.623   0.292   0.691 -1.8567 -0.6482 -2.2150
 5229SOL    HW227150   1.556   0.422   0.668  0.8534  1.0196  1.3399
 5230SOL     OW27151   3.990   0.501   2.396 -0.1549 -0.2825  0.8488
 5230SOL    HW127152   3.935   0.448   2.338  0.1120  0.4341 -0.0394
 5230SOL    HW227153   3.917   0.531   2.451 -0.0740 -2.9707  2.4457
 5231SOL     OW27154   3.266   1.177  16.084 -0.2367  0.1917 -0.2475
 5231SOL    HW127155   3.268   1.175  16.179 -2.7472  0.1493 -0.1960
 5231SOL    HW227156   3.260   1.084  16.063 -0.1103  0.3527 -0.9947
 5232SOL     OW27157   4.425   3.569   0.196  0.0246  0.7964 -0.4458
 5232SOL    HW127158   4.507   3.599   0.157  1.6298  0.2433  2.5306
 5232SOL    HW227159   4.436   3.615   0.280  1.6661 -0.6498  0.1347
 5233SOL     OW27160   3.430   2.739   1.949 -0.4085 -0.3285  0.5850
 5233SOL    HW127161   3.391   2.703   1.869 -0.3585 -0.2642  0.5322
 5233SOL    HW227162   3.370   2.812   1.967  0.1126 -0.1271  1.4800
 5234SOL     OW27163   4.314   4.600  11.126  0.4636 -0.1995 -0.2510
 5234SOL    HW127164   4.374   4.673  11.108 -0.4592 -0.0879 -2.8656
 5234SOL    HW227165   4.276   4.590  11.039  0.2884  0.6957 -0.2835
 5235SOL     OW27166   0.075   2.929   7.678 -0.2512 -0.4820 -0.7612
 5235SOL    HW127167   0.018   2.979   7.737  1.4881  0.4613  0.1050
 5235SOL    HW227168   0.069   2.838   7.707 -0.9030 -0.4062 -0.6550
 5236SOL     OW27169   2.993   3.093   6.671 -1.0499  0.5530  0.5453
 5236SOL    HW127170   2.909   3.119   6.709 -1.6775 -2.7109  1.3479
 5236SOL    HW227171   3.035   3.178   6.658 -1.2714  0.5879  0.0331
 5237SOL     OW27172   4.048   1.345   5.888 -0.1793  0.2036 -0.4266
 5237SOL    HW127173   3.984   1.303   5.946 -1.3519  0.0283 -1.8264
 5237SOL    HW227174   4.016   1.326   5.800  0.1360 -0.8095 -0.3258
 5238SOL     OW27175   1.078   1.480   8.133 -0.6895  0.2112  0.4737
 5238SOL    HW127176   1.164   1.451   8.104 -1.0120 -1.2450  0.9719
 5238SOL    HW227177   1.012   1.422   8.094 -0.3243 -0.0202  0.2003
 5239SOL     OW27178   3.879   0.634  14.676 -0.1118  0.6811 -0.2189
 5239SOL    HW127179   3.870   0.541  14.696 -0.5325  0.8715  0.4995
 5239SOL    HW227180   3.951   0.663  14.732 -0.8597 -1.4184  1.8185
 5240SOL     OW27181   3.025   2.509   6.295  0.0986 -0.7819 -0.0921
 5240SOL    HW127182   3.009   2.598   6.263 -1.5346 -1.6316 -1.6569
 5240SOL    HW227183   2.983   2.463   6.223 -1.8874  2.5276 -1.0609
 5241SOL     OW27184   0.104   1.476   7.532  0.3733 -0.0599  0.2825
 5241SOL    HW127185   0.124   1.398   7.584  2.2371 -0.5483 -1.1499
 5241SOL    HW227186   0.182   1.525   7.557 -0.1646  0.7048  0.4542
 5242SOL     OW27187   3.699   1.817   5.468 -0.0760 -0.2602 -0.2161
 5242SOL    HW127188   3.689   1.854   5.556 -2.4612  0.7462 -0.9107
 5242SOL    HW227189   3.606   1.794   5.461  0.0208 -0.7865  0.2207
 5243SOL     OW27190   2.324   0.556   8.993  0.3021 -0.0672  0.6789
 5243SOL    HW127191   2.269   0.602   8.929  1.7871 -1.7218 -1.7609
 5243SOL    HW227192   2.267   0.597   9.059  0.1181 -1.8095  1.5937
 5244SOL     OW27193   2.258   2.874   6.880  0.1719 -0.0751  0.0122
 5244SOL    HW127194   2.343   2.837   6.902 -0.5400 -0.8987  1.3692
 5244SOL    HW227195   2.202   2.841   6.951  0.1736  0.4001  0.2344
 5245SOL     OW27196   1.939   2.339   3.637 -0.3547  0.1649  0.1707
 5245SOL    HW127197   2.027   2.318   3.668  0.3705 -0.9168 -2.5659
 5245SOL    HW227198   1.954   2.422   3.592  0.2249 -0.3956 -0.6702
 5246SOL     OW27199   1.148   4.062  16.502 -0.2253 -0.1848  0.3799
 5246SOL    HW127200   1.089   3.988  16.488 -0.5966  0.5943 -2.2875
 5246SOL    HW227201   1.208   4.052  16.427 -3.2299  1.6003 -2.2601
 5247SOL     OW27202   2.831   1.092   2.217 -0.3716  0.0472 -0.6629
 5247SOL    HW127203   2.908   1.139   2.249 -0.6294 -0.4433  0.6753
 5247SOL    HW227204   2.760   1.154   2.230  0.6858  1.3386 -0.9825
 5248SOL     OW27205   2.519   3.818   7.438  0.2574 -0.2962 -0.1729
 5248SOL    HW127206   2.429   3.794   7.416  0.1207  1.6333 -1.6697
 5248SOL    HW227207   2.566   3.822   7.355  0.1569  0.7718 -0.1815
 5249SOL     OW27208   2.819   1.385   9.368  0.4099  0.4284  0.3025
 5249SOL    HW127209   2.733   1.389   9.409 -0.0008 -0.1735 -0.5076
 5249SOL    HW227210   2.830   1.290   9.367  0.8045  0.4645  1.1817
 5250SOL     OW27211   1.197   0.772   3.538 -0.0067 -0.2067  0.0533
 5250SOL    HW127212   1.190   0.691   3.487 -0.7391 -1.4629  2.1305
 5250SOL    HW227213   1.274   0.817   3.504 -1.1132 -0.6608 -3.0158
 5251SOL     OW27214   3.955   2.752  11.344 -0.3617 -0.0702 -0.2789
 5251SOL    HW127215   3.914   2.835  11.320 -0.2135  0.2580  0.5826
 5251SOL    HW227216   3.944   2.765  11.438 -1.4689 -1.9681 -0.1405
 5252SOL     OW27217   4.525   3.300  11.473 -0.2452  0.0484  0.1358
 5252SOL    HW127218   4.539   3.332  11.562  1.1057 -1.1592  0.3567
 5252SOL    HW227219   4.607   3.317  11.428 -1.6070  1.5091 -1.7636
 5253SOL     OW27220   0.886   4.670   3.614 -0.0231 -0.2732  0.0875
 5253SOL    HW127221   0.913   4.588   3.571 -0.7835 -1.0755  1.1474
 5253SOL    HW227222   0.908   4.648   3.704 -0.9316 -0.8823  0.1704
 5254SOL     OW27223   3.635   1.136   7.513 -0.6658 -0.0005 -0.1136
 5254SOL    HW127224   3.676   1.218   7.487  0.4496 -0.9738 -1.3804
 5254SOL    HW227225   3.706   1.073   7.507  2.0070  2.8986  1.3558
 5255SOL     OW27226   3.933   2.556  11.170  0.2498  0.0972  0.4855
 5255SOL    HW127227   3.970   2.495  11.234 -1.1910 -0.2613  0.9629
 5255SOL    HW227228   3.931   2.639  11.218 -0.7304 -0.3615  1.2257
 5256SOL     OW27229   2.165   2.841   3.628 -0.0829  0.0941 -0.8089
 5256SOL    HW127230   2.237   2.903   3.634  0.3822 -0.7365  1.8461
 5256SOL    HW227231   2.122   2.874   3.548  0.2616  1.5907 -0.3796
 5257SOL     OW27232   2.528   0.553   3.135  0.2310  0.0567  0.7136
 5257SOL    HW127233   2.446   0.583   3.095  2.1248  2.0251 -1.6433
 5257SOL    HW227234   2.551   0.482   3.076  2.3115  1.2306  0.1311
 5258SOL     OW27235   1.278   1.141   3.444  0.1637 -0.4195 -0.0153
 5258SOL    HW127236   1.184   1.132   3.458  0.1448 -2.6241 -1.4998
 5258SOL    HW227237   1.285   1.081   3.369 -0.7010  0.1840 -0.5686
 5259SOL     OW27238   2.678   4.220   5.148  0.2187 -0.2736  0.1996
 5259SOL    HW127239   2.640   4.180   5.227 -0.6358  1.1911  0.5328
 5259SOL    HW227240   2.757   4.165   5.143  1.2585  1.1349  1.0144
 5260SOL     OW27241   2.317   3.312   5.910 -0.1624 -0.1930 -0.2296
 5260SOL    HW127242   2.345   3.221   5.905 -0.4455 -0.3695  1.5374
 5260SOL    HW227243   2.368   3.355   5.842 -0.2377  0.3133  0.0298
 5261SOL     OW27244   2.304   0.900   5.048 -0.5320 -0.0228 -0.2777
 5261SOL    HW127245   2.268   0.828   4.997 -1.9717  0.6528 -0.2023
 5261SOL    HW227246   2.307   0.865   5.138 -2.6628 -0.1309 -0.2630
 5262SOL     OW27247   3.300   1.100   8.620 -0.7246  0.2662  0.0649
 5262SOL    HW127248   3.286   1.005   8.620 -0.7527  0.2623 -2.4048
 5262SOL    HW227249   3.340   1.118   8.705 -0.5153 -3.6448  0.8298
 5263SOL     OW27250   2.710   2.361   4.881  0.2288  0.0153  0.0859
 5263SOL    HW127251   2.728   2.288   4.822  0.7444 -0.0754  0.3576
 5263SOL    HW227252   2.731   2.339   4.972 -0.7888 -0.0588  0.3032
 5264SOL     OW27253   4.551   4.392   3.426  0.0688  0.6488  0.4590
 5264SOL    HW127254   4.514   4.356   3.345  1.6192 -0.4500  0.2324
 5264SOL    HW227255   4.571   4.484   3.414  1.4805  0.2329 -0.3852
 5265SOL     OW27256   3.750   3.626   8.412  0.2434 -0.0709 -0.1298
 5265SOL    HW127257   3.800   3.556   8.370  3.0065  1.0043  1.2891
 5265SOL    HW227258   3.698   3.593   8.485  2.3784  1.4146  2.0900
 5266SOL     OW27259   0.470   0.314   6.940  0.2246  0.1173 -0.4007
 5266SOL    HW127260   0.533   0.293   6.870  2.3445  1.3388  1.1329
 5266SOL    HW227261   0.528   0.319   7.016  1.8160 -3.7532 -1.3156
 5267SOL     OW27262   1.406   4.030   3.749  0.1426 -0.2824 -0.6405
 5267SOL    HW127263   1.344   4.043   3.821 -0.5436 -2.1930 -0.8754
 5267SOL    HW227264   1.484   4.058   3.797 -1.0617  0.2233  1.0186
 5268SOL     OW27265   2.281   1.741   9.200  1.0021  0.5393  0.7864
 5268SOL    HW127266   2.317   1.746   9.112  0.6635 -3.1186  0.4295
 5268SOL    HW227267   2.219   1.668   9.192 -0.5373  2.0989 -1.5331
 5269SOL     OW27268   3.037   3.865   2.963  0.3873  1.0194  0.3441
 5269SOL    HW127269   3.115   3.893   2.916  1.0128  0.0838  0.8171
 5269SOL    HW227270   2.979   3.854   2.888 -1.0616 -0.9119  1.7439
 5270SOL     OW27271   1.562   2.075   7.523 -0.1330  0.2602 -0.2278
 5270SOL    HW127272   1.573   2.131   7.446  1.0784  0.0096 -0.2324
 5270SOL    HW227273   1.583   1.989   7.485  1.0780  0.2261  0.5324
 5271SOL     OW27274   0.979   0.327  14.335  0.0857 -0.0940  0.5432
 5271SOL    HW127275   1.035   0.368  14.401  0.5958  2.1026 -1.2629
 5271SOL    HW227276   0.936   0.255  14.381  1.5821 -1.9427 -0.9340
 5272SOL     OW27277   0.224   0.781   5.025 -0.3061 -0.5472  0.5103
 5272SOL    HW127278   0.237   0.836   4.948  0.6627 -0.0472  1.0454
 5272SOL    HW227279   0.286   0.710   5.010  0.2981  0.0509  0.1974
 5273SOL     OW27280   0.850   4.483   5.925 -0.2330 -0.7756  0.4250
 5273SOL    HW127281   0.862   4.450   5.836 -0.0729 -1.0864  0.5612
 5273SOL    HW227282   0.767   4.530   5.917 -1.8530 -3.6324  0.5049
 5274SOL     OW27283   3.370   2.694   6.955 -0.1379  0.2476 -0.2501
 5274SOL    HW127284   3.382   2.789   6.964 -0.8813  0.2176  1.1041
 5274SOL    HW227285   3.390   2.676   6.863 -1.2133  0.1069 -0.4494
 5275SOL     OW27286   1.411   0.626   6.830 -0.1681  0.2546  0.3845
 5275SOL    HW127287   1.366   0.567   6.770  0.9895  0.5520 -0.7895
 5275SOL    HW227288   1.413   0.706   6.776 -0.5119 -0.4638 -0.6871
 5276SOL     OW27289   2.816   3.137   2.724  0.5493 -0.0498  0.0508
 5276SOL    HW127290   2.856   3.192   2.656 -1.7319 -0.8109 -1.8940
 5276SOL    HW227291   2.861   3.168   2.803  0.7121  1.5986 -0.6839
 5277SOL     OW27292   0.212   3.440   3.767  0.3806  0.3461  0.3508
 5277SOL    HW127293   0.298   3.410   3.796  0.6733 -0.3947 -1.2691
 5277SOL    HW227294   0.233   3.482   3.683 -0.0570  1.2926  0.7069
 5278SOL     OW27295   3.501   3.241   0.430  0.9683  0.4220 -0.5652
 5278SOL    HW127296   3.429   3.183   0.456  0.3755  0.9504 -1.0116
 5278SOL    HW227297   3.578   3.215   0.481 -0.9783 -3.2068  0.5376
 5279SOL     OW27298   2.088   1.362   7.242 -0.2094  0.2761  0.0157
 5279SOL    HW127299   2.162   1.364   7.302 -0.1122  0.7526 -0.1166
 5279SOL    HW227300   2.086   1.271   7.212  1.0794 -0.3867  1.9624
 5280SOL     OW27301   0.740   1.289  15.674 -0.2985 -0.4147  0.7876
 5280SOL    HW127302   0.716   1.312  15.585 -3.8803 -0.5870  1.7228
 5280SOL    HW227303   0.780   1.202  15.667  0.4718 -0.1061  1.3006
 5281SOL     OW27304   1.488   1.133   6.732 -0.3948  0.0560  0.2993
 5281SOL    HW127305   1.410   1.144   6.676  0.0483 -0.4355 -0.4242
 5281SOL    HW227306   1.563   1.118   6.674 -1.2992 -1.0356 -0.6111
 5282SOL     OW27307   1.743   3.353   8.851 -0.4092 -0.4755 -0.1942
 5282SOL    HW127308   1.710   3.431   8.807  0.4629  1.5345  2.7611
 5282SOL    HW227309   1.838   3.365   8.854 -0.2560 -1.5491 -0.6362
 5283SOL     OW27310   4.285   2.744  12.698  0.1524  0.3665 -0.6390
 5283SOL    HW127311   4.273   2.734  12.793 -0.7583 -0.5536 -0.8438
 5283SOL    HW227312   4.204   2.785  12.669 -1.9095 -2.7707  0.5795
 5284SOL     OW27313   1.387   2.922   5.253 -0.0100 -0.0955  0.5337
 5284SOL    HW127314   1.399   2.884   5.340 -0.9448 -2.5919 -0.4462
 5284SOL    HW227315   1.445   2.998   5.263  0.0750 -0.0986  0.0806
 5285SOL     OW27316   1.655   2.793   3.171 -0.0115  0.1500 -0.3188
 5285SOL    HW127317   1.569   2.812   3.210 -0.0060  0.3133 -0.3855
 5285SOL    HW227318   1.670   2.882   3.139 -0.4560 -0.1620 -1.3928
 5286SOL     OW27319   0.693   2.168   5.830 -0.5868 -0.2663  0.3873
 5286SOL    HW127320   0.778   2.185   5.872 -1.6829  0.7505  2.1920
 5286SOL    HW227321   0.696   2.089   5.776 -1.2136  0.5224 -0.7715
 5287SOL     OW27322   1.820   4.319   6.261  0.4834 -0.0926 -0.5651
 5287SOL    HW127323   1.733   4.331   6.299  2.0665 -2.4467  3.9518
 5287SOL    HW227324   1.800   4.312   6.168  0.8461 -3.3923 -0.4204
 5288SOL     OW27325   0.733   4.597   6.477 -0.3463 -0.5810 -0.3319
 5288SOL    HW127326   0.779   4.641   6.405  0.8062 -2.0036 -0.4752
 5288SOL    HW227327   0.812   4.558   6.515 -0.8801 -1.0602  0.2668
 5289SOL     OW27328   0.711   2.287  12.020 -0.0709  0.5428  0.4626
 5289SOL    HW127329   0.677   2.213  11.969 -0.7904  2.4043 -1.7792
 5289SOL    HW227330   0.771   2.235  12.073  0.7171  1.0784  0.1030
 5290SOL     OW27331   0.434   3.800   8.857  0.4778  0.2044  0.0312
 5290SOL    HW127332   0.481   3.879   8.829  1.2379 -0.1432  0.3098
 5290SOL    HW227333   0.503   3.733   8.858  2.7162  2.4807 -1.3439
 5291SOL     OW27334   4.714   4.385   7.529  0.2027 -0.1708 -0.8173
 5291SOL    HW127335   4.647   4.397   7.597  0.0828  0.4241 -1.0398
 5291SOL    HW227336   0.068   4.423   7.577  1.3404  0.7175 -3.2436
 5292SOL     OW27337   2.231   4.372   3.838 -0.0041 -0.1413 -0.8872
 5292SOL    HW127338   2.280   4.310   3.892 -0.4549 -2.1818 -2.8408
 5292SOL    HW227339   2.274   4.453   3.864  0.3084 -0.8770  0.8647
 5293SOL     OW27340   2.066   1.551   3.480  0.1379  0.3057  0.4596
 5293SOL    HW127341   2.009   1.473   3.484 -1.5741  1.5974  1.5164
 5293SOL    HW227342   2.080   1.546   3.386  1.4072  2.7769  0.5325
 5294SOL     OW27343   4.267   2.996   4.498 -0.1264 -0.1028 -0.6055
 5294SOL    HW127344   4.246   3.019   4.408  1.6231 -0.2522 -1.0539
 5294SOL    HW227345   4.336   2.929   4.500 -0.4257 -0.4559 -2.4501
 5295SOL     OW27346   1.107   4.218   6.014 -0.0124  0.0005 -0.3025
 5295SOL    HW127347   1.144   4.159   5.948 -1.8080 -1.7159  0.2243
 5295SOL    HW227348   1.015   4.222   5.990 -0.0633  1.3083  0.1223
 5296SOL     OW27349   2.480   1.347   1.259  0.2850 -0.2632  0.6527
 5296SOL    HW127350   2.462   1.337   1.166  2.4685  1.5733  0.0235
 5296SOL    HW227351   2.496   1.440   1.270  0.7877 -0.3797  0.9179
 5297SOL     OW27352   0.269   2.061   9.366 -0.1487 -0.1924  0.4807
 5297SOL    HW127353   0.349   2.011   9.384 -0.4746 -0.8386  0.1030
 5297SOL    HW227354   0.206   1.998   9.332 -0.4815  0.9057 -0.9340
 5298SOL     OW27355   0.375   3.055   0.606 -0.2521 -0.0802 -0.4411
 5298SOL    HW127356   0.332   3.017   0.682  1.6226  1.5737  1.4411
 5298SOL    HW227357   0.343   2.992   0.540  0.4664  1.7230 -2.5068
 5299SOL     OW27358   4.232   0.126  15.612  0.3014 -0.5587  0.0504
 5299SOL    HW127359   4.197   0.162  15.530 -0.1164  0.7729  0.8224
 5299SOL    HW227360   4.201   0.187  15.678 -1.8078 -1.1378 -0.4145
 5300SOL     OW27361   1.071   1.912   3.434  0.1574 -0.7355  0.0083
 5300SOL    HW127362   1.146   1.854   3.423 -0.6573 -1.8200  0.1507
 5300SOL    HW227363   1.118   1.996   3.431 -0.0842 -0.5788  0.4963
 5301SOL     OW27364   2.678   0.787  13.112 -0.6598 -0.5385  0.2793
 5301SOL    HW127365   2.674   0.728  13.187 -0.6820 -1.6382 -0.6010
 5301SOL    HW227366   2.709   0.868  13.153 -1.0039 -0.2943  0.0567
 5302SOL     OW27367   2.066   1.326   8.271 -0.1069  0.5170 -0.1800
 5302SOL    HW127368   2.011   1.372   8.335  0.6822  2.7128 -1.0810
 5302SOL    HW227369   2.021   1.242   8.269 -0.4948  0.7100  0.3268
 5303SOL     OW27370   4.029   2.722   7.186  0.1487  0.0974 -0.8047
 5303SOL    HW127371   3.947   2.675   7.169  0.2200  0.4806 -2.2214
 5303SOL    HW227372   4.090   2.654   7.156  3.3975  2.0175  1.4834
 5304SOL     OW27373   4.433   1.184   6.259  0.1184  0.6187  0.2560
 5304SOL    HW127374   4.415   1.098   6.221 -0.3380  1.4267 -1.3586
 5304SOL    HW227375   4.388   1.176   6.343 -0.8211  2.1801 -0.1016
 5305SOL     OW27376   1.761   2.446   3.995 -0.0914  0.4671  0.5669
 5305SOL    HW127377   1.780   2.491   3.913 -1.6837 -0.5593 -0.3634
 5305SOL    HW227378   1.838   2.466   4.048  0.2475  0.3971  0.0901
 5306SOL     OW27379   2.344   0.837  10.828  0.6531 -0.4785  0.1771
 5306SOL    HW127380   2.372   0.910  10.883  2.0765 -0.6148 -0.3809
 5306SOL    HW227381   2.256   0.865  10.804  1.8295  2.5692 -0.5717
 5307SOL     OW27382   2.206   3.329   8.613  0.2234  0.5330 -0.0497
 5307SOL    HW127383   2.169   3.417   8.608 -0.4804  0.1741 -1.2220
 5307SOL    HW227384   2.301   3.342   8.624  0.3395 -1.3602  1.2535
 5308SOL     OW27385   3.273   2.258   7.017  0.4474 -0.4980  0.2283
 5308SOL    HW127386   3.327   2.296   6.947 -0.2447 -0.4950 -0.3080
 5308SOL    HW227387   3.313   2.171   7.026  0.6061 -0.4672 -0.1893
 5309SOL     OW27388   2.310   0.194   2.185 -0.3227 -0.7995 -0.0711
 5309SOL    HW127389   2.275   0.233   2.105 -3.1678 -0.6798  1.2180
 5309SOL    HW227390   2.399   0.226   2.172 -0.5583 -0.6633 -1.3566
 5310SOL     OW27391   3.269   2.344   4.146 -0.4199  0.0911 -0.3930
 5310SOL    HW127392   3.189   2.291   4.150  0.6592 -1.4295  0.8956
 5310SOL    HW227393   3.285   2.359   4.239  0.3106  1.2637 -0.7088
 5311SOL     OW27394   3.429   4.247   8.969  0.2536 -0.3543 -0.2588
 5311SOL    HW127395   3.407   4.340   8.971  2.6487  0.1209  3.1213
 5311SOL    HW227396   3.351   4.208   9.006 -0.8423  1.0616 -1.0790
 5312SOL     OW27397   1.949   0.145   9.324  0.3837  0.4797  0.2267
 5312SOL    HW127398   2.034   0.116   9.359  0.4182  2.6331  1.9414
 5312SOL    HW227399   1.976   0.143   9.232  1.0611 -0.0386  0.4338
 5313SOL     OW27400   1.969   0.716  17.655  0.1081 -0.6181 -0.2387
 5313SOL    HW127401   1.932   0.789  17.605 -1.3274 -1.2931 -0.1592
 5313SOL    HW227402   2.053   0.753   0.002 -0.0413 -0.5426  0.1132
 5314SOL     OW27403   4.614   0.374  11.687  0.4375  0.0302 -0.6732
 5314SOL    HW127404   4.653   0.460  11.703 -1.7134  0.9103 -0.2024
 5314SOL    HW227405   4.694   0.321  11.694  0.5971  0.0683 -2.4065
 5315SOL     OW27406   1.169   3.156   6.746  0.1691  0.4501 -0.5007
 5315SOL    HW127407   1.101   3.119   6.802 -1.5265 -0.1223 -2.9462
 5315SOL    HW227408   1.244   3.107   6.781 -0.8121 -0.7170 -0.0068
 5316SOL     OW27409   2.070   4.230  13.232 -0.3149  0.3870 -0.3424
 5316SOL    HW127410   2.086   4.222  13.138  3.1650 -2.5985  0.4912
 5316SOL    HW227411   2.042   4.321  13.237  1.3780  0.9297 -0.5914
 5317SOL     OW27412   1.820   1.703   9.189  0.5286  0.2995  0.2983
 5317SOL    HW127413   1.838   1.648   9.264  1.3619  1.2428  0.7921
 5317SOL    HW227414   1.895   1.763   9.191  0.9426 -0.1715 -0.8134
 5318SOL     OW27415   3.665   3.239   1.899 -0.5639  0.0015  0.4982
 5318SOL    HW127416   3.676   3.178   1.826  2.7841  0.1693  0.8754
 5318SOL    HW227417   3.601   3.294   1.854 -0.0923  0.5513  0.5053
 5319SOL     OW27418   4.551   4.639  11.892 -0.4040 -0.4286  0.2578
 5319SOL    HW127419   4.517   4.641  11.802 -0.1232 -0.3465  0.1531
 5319SOL    HW227420   4.636   4.681  11.879 -0.4480 -0.6882 -0.9568
 5320SOL     OW27421   1.834   0.634   5.788  0.2040 -0.2688  0.0975
 5320SOL    HW127422   1.892   0.568   5.750 -0.8982  0.8503 -3.5347
 5320SOL    HW227423   1.747   0.608   5.758  0.0129  1.5412 -0.9475
 5321SOL     OW27424   0.236   2.924  12.672  0.1983 -0.2660 -0.2896
 5321SOL    HW127425   0.312   2.966  12.633  0.9133 -0.3684  1.0120
 5321SOL    HW227426   0.171   2.991  12.648 -0.0875 -0.1823  0.7124
 5322SOL     OW27427   3.437   0.204   7.802 -0.5076 -0.2066 -0.6830
 5322SOL    HW127428   3.466   0.131   7.857  2.9684 -0.2170 -2.5454
 5322SOL    HW227429   3.371   0.239   7.862  1.0949  1.2374  0.2359
 5323SOL     OW27430   0.540   2.354   4.864 -0.1188 -0.1191  0.4617
 5323SOL    HW127431   0.550   2.448   4.849  0.3850 -0.3337 -0.5201
 5323SOL    HW227432   0.571   2.339   4.953 -0.8119 -3.3734  0.1255
 5324SOL     OW27433   3.155   2.482   0.546  0.3266  0.2892  0.3284
 5324SOL    HW127434   3.070   2.457   0.511  0.5447 -1.3155  0.9303
 5324SOL    HW227435   3.131   2.554   0.604  0.7012  1.2189 -0.6613
 5325SOL     OW27436   3.840   3.412  14.784 -0.3509 -0.3968 -0.1191
 5325SOL    HW127437   3.774   3.364  14.734 -0.9741 -0.1346  0.4468
 5325SOL    HW227438   3.917   3.355  14.788 -0.0273 -0.1081 -2.8716
 5326SOL     OW27439   4.589   2.240  16.696 -0.3313 -0.6336 -0.1659
 5326SOL    HW127440   4.587   2.318  16.642 -1.0866  0.1850  1.0424
 5326SOL    HW227441   4.494   2.226  16.701 -0.3287 -0.9090 -0.9668
 5327SOL     OW27442   0.876   2.579   7.652 -0.3372 -0.2454  0.0948
 5327SOL    HW127443   0.783   2.594   7.665  0.0142 -0.5045  2.8070
 5327SOL    HW227444   0.904   2.660   7.696  1.1490 -0.0447 -1.2236
 5328SOL     OW27445   1.264   4.103   8.133 -0.6563 -0.2545  0.1716
 5328SOL    HW127446   1.169   4.100   8.143 -1.0750  3.2584 -2.8498
 5328SOL    HW227447   1.279   4.059   8.049 -1.0052 -1.6137  0.8213
 5329SOL     OW27448   1.626   2.249   7.322  0.7393  0.1780 -0.5645
 5329SOL    HW127449   1.596   2.339   7.335  1.4169  0.3990 -0.5043
 5329SOL    HW227450   1.611   2.237   7.229 -2.7506  1.1305 -0.1205
 5330SOL     OW27451   4.449   3.083   1.591 -0.2881 -0.0079  0.1551
 5330SOL    HW127452   4.444   3.037   1.508 -1.0969  2.0622 -0.9500
 5330SOL    HW227453   4.543   3.102   1.586 -0.5118  1.1850  0.3715
 5331SOL     OW27454   4.443   3.715  11.413 -0.1823  0.4116  0.4450
 5331SOL    HW127455   4.398   3.730  11.496  1.0096  0.3926  1.0953
 5331SOL    HW227456   4.531   3.741  11.440 -0.3928  2.8071 -1.1881
 5332SOL     OW27457   2.774   0.822   5.752 -0.2770 -0.3809  0.1129
 5332SOL    HW127458   2.795   0.745   5.805 -0.9601  0.1956  1.2249
 5332SOL    HW227459   2.845   0.823   5.688 -0.5756  1.9393 -0.1952
 5333SOL     OW27460   3.602   1.974   3.900 -0.0624 -0.4594  0.5917
 5333SOL    HW127461   3.582   1.995   3.809 -0.0391  3.5662  1.5282
 5333SOL    HW227462   3.518   1.997   3.938 -0.7622  1.7664 -2.3300
 5334SOL     OW27463   3.806   4.095  16.130 -0.0954 -0.4984  0.2659
 5334SOL    HW127464   3.757   4.013  16.119  0.9732 -1.1170  0.1503
 5334SOL    HW227465   3.887   4.071  16.084 -1.0477  2.3966 -2.9709
 5335SOL     OW27466   3.782   1.481   8.505  0.2937 -0.2200  0.1205
 5335SOL    HW127467   3.775   1.501   8.598  2.1720  0.7625  0.0538
 5335SOL    HW227468   3.836   1.402   8.508 -0.0760 -0.4328  1.2867
 5336SOL     OW27469   1.503   3.544   1.937 -0.2945  0.0094  0.0228
 5336SOL    HW127470   1.426   3.586   1.899 -0.5176 -0.9653 -0.5902
 5336SOL    HW227471   1.463   3.493   2.008 -0.8317  0.3543 -0.0355
 5337SOL     OW27472   3.219   0.562   6.935 -0.1690 -0.8945 -0.4601
 5337SOL    HW127473   3.189   0.479   6.974  2.0499 -1.9227 -0.9231
 5337SOL    HW227474   3.282   0.534   6.869  0.8091  0.3619 -0.0563
 5338SOL     OW27475   1.860   3.711  16.392 -0.5929 -0.2267  0.3830
 5338SOL    HW127476   1.885   3.629  16.433 -0.3215 -0.0204  0.6293
 5338SOL    HW227477   1.843   3.775  16.461  0.1031 -0.4775  0.7771
 5339SOL     OW27478   3.954   1.766   4.694  0.3640 -0.7093  0.1173
 5339SOL    HW127479   3.922   1.737   4.779 -0.1148 -0.1420  0.1283
 5339SOL    HW227480   3.969   1.681   4.652  2.3167 -0.3669  0.1370
 5340SOL     OW27481   4.370   3.073  13.558 -0.7918 -0.1864 -0.4634
 5340SOL    HW127482   4.344   3.136  13.490 -0.2256  0.1195 -0.3992
 5340SOL    HW227483   4.295   3.015  13.549  1.8336 -3.8122  1.0107
 5341SOL     OW27484   4.537   4.327   3.150 -1.0976 -0.1104  0.0885
 5341SOL    HW127485   4.464   4.373   3.109 -0.8632  0.8965  0.7950
 5341SOL    HW227486   4.551   4.250   3.096 -1.4350 -0.9332  1.1705
 5342SOL     OW27487   1.264   4.685   2.542  0.4801 -0.9132 -0.2475
 5342SOL    HW127488   1.346   4.693   2.592  0.9498 -2.0366 -0.8401
 5342SOL    HW227489   1.214   0.045   2.560  1.5908  0.0068 -1.1380
 5343SOL     OW27490   2.254   0.145   5.888 -0.4830 -0.4455  0.5408
 5343SOL    HW127491   2.165   0.138   5.856 -0.3683  1.1669 -0.1145
 5343SOL    HW227492   2.261   0.082   5.961 -2.0342 -0.3515  0.7633
 5344SOL     OW27493   1.075   1.444   5.271 -0.5065  0.0904  0.4229
 5344SOL    HW127494   1.133   1.494   5.214 -0.0632 -2.8287 -1.7044
 5344SOL    HW227495   1.134   1.387   5.319  0.4348 -0.7417 -1.7126
 5345SOL     OW27496   1.009   2.895   0.558  0.2771  0.2618 -0.0555
 5345SOL    HW127497   0.965   2.963   0.506  1.1785  1.9044  1.3213
 5345SOL    HW227498   1.089   2.940   0.584  0.5141 -0.2860  0.1539
 5346SOL     OW27499   4.300   0.724   8.966 -0.0847 -0.1565 -0.0531
 5346SOL    HW127500   4.300   0.736   8.872  0.8629 -0.7769 -0.1335
 5346SOL    HW227501   4.365   0.788   8.992  0.1785 -0.6231  0.4507
 5347SOL     OW27502   0.126   2.168   2.822  0.2055 -0.2126  0.1679
 5347SOL    HW127503   0.078   2.087   2.806 -1.0260  0.0507  2.4755
 5347SOL    HW227504   0.200   2.131   2.871  0.3134  0.7257  0.7115
 5348SOL     OW27505   2.378   2.672   6.446  0.5095 -0.6622  0.1583
 5348SOL    HW127506   2.313   2.633   6.504  0.7107 -0.0225  0.8189
 5348SOL    HW227507   2.344   2.633   6.366  2.7090 -1.6983 -0.2631
 5349SOL     OW27508   0.794   0.527   2.016 -0.0910 -0.4817 -0.2197
 5349SOL    HW127509   0.775   0.574   1.935  0.8976 -1.4096 -1.0028
 5349SOL    HW227510   0.889   0.532   2.021 -0.2861  1.0578  1.9209
 5350SOL     OW27511   2.666   2.174  10.872  0.5320 -0.1501  0.3197
 5350SOL    HW127512   2.601   2.243  10.857 -0.2144 -0.1941  3.2858
 5350SOL    HW227513   2.747   2.212  10.840  0.9550 -1.2734  0.0645
 5351SOL     OW27514   2.794   0.792  12.829 -0.0103  0.1985 -0.0839
 5351SOL    HW127515   2.770   0.774  12.921 -1.0796  0.9791 -0.2069
 5351SOL    HW227516   2.814   0.705  12.794  1.1387  0.3728  0.1655
 5352SOL     OW27517   1.577   3.191  14.118 -0.3072 -0.8385  0.1932
 5352SOL    HW127518   1.562   3.261  14.182 -3.3657  0.3021 -1.7939
 5352SOL    HW227519   1.485   3.168  14.107  0.0085 -2.4721  0.9803
 5353SOL     OW27520   0.232   2.763   5.858  0.0706 -0.0689  0.2596
 5353SOL    HW127521   0.154   2.711   5.842  0.8402 -1.6088  1.5259
 5353SOL    HW227522   0.217   2.848   5.816  2.4100  0.1031 -0.2476
 5354SOL     OW27523   4.536   1.203   2.992 -0.1942 -0.3982  0.3889
 5354SOL    HW127524   4.503   1.144   3.059  1.2510 -1.3867  0.2335
 5354SOL    HW227525   4.552   1.151   2.913  0.4549  0.5792 -0.1299
 5355SOL     OW27526   0.663   2.705  12.325 -0.7774  0.0036  0.1272
 5355SOL    HW127527   0.575   2.667  12.331  0.4391 -2.7270  1.0669
 5355SOL    HW227528   0.703   2.638  12.269  0.2004  0.5887  0.1267
 5356SOL     OW27529   4.237   0.411   4.075  0.5244  0.4279  0.6386
 5356SOL    HW127530   4.221   0.347   4.006  1.5629 -1.2469  1.9432
 5356SOL    HW227531   4.332   0.403   4.082  0.4820  0.1113  0.9236
 5357SOL     OW27532   1.236   2.455   4.929 -0.1595  0.0839  0.2858
 5357SOL    HW127533   1.271   2.451   4.840  0.3731  2.0568  0.3906
 5357SOL    HW227534   1.167   2.389   4.923 -1.0932  0.9504  1.4979
 5358SOL     OW27535   3.086   1.777   1.692  0.0738 -0.0785 -0.2671
 5358SOL    HW127536   3.048   1.710   1.637  0.1314  0.4474 -0.9505
 5358SOL    HW227537   3.165   1.735   1.727 -0.0300 -1.5577 -1.8000
 5359SOL     OW27538   3.058   4.714  13.856 -0.4675  0.3787  0.4490
 5359SOL    HW127539   3.010   0.046  13.921 -0.1931  0.3879  0.6442
 5359SOL    HW227540   3.147   0.022  13.877 -0.2785  0.4881 -0.4933
 5360SOL     OW27541   1.643   2.436  12.607  0.3637  0.2808 -0.9841
 5360SOL    HW127542   1.664   2.481  12.689 -0.3912 -0.5198 -0.3524
 5360SOL    HW227543   1.548   2.444  12.608  0.7238  3.9936  1.9562
 5361SOL     OW27544   2.477   3.386   4.793  0.7694 -0.5710  0.7531
 5361SOL    HW127545   2.390   3.400   4.755  1.9866 -1.0083 -2.2053
 5361SOL    HW227546   2.533   3.452   4.753  0.7429 -0.0140  1.6259
 5362SOL     OW27547   4.484   4.677  11.642 -0.2436 -0.2545 -1.1993
 5362SOL    HW127548   4.447   4.651  11.558 -0.2253  0.4513 -1.4230
 5362SOL    HW227549   4.451   0.046  11.654 -0.5896 -0.6082  0.5413
 5363SOL     OW27550   3.160   2.540   7.623 -0.5463 -0.0922 -0.2319
 5363SOL    HW127551   3.092   2.603   7.648 -0.6414 -0.7455  1.1620
 5363SOL    HW227552   3.188   2.508   7.708  1.2898 -0.4439 -0.9704
 5364SOL     OW27553   1.314   1.672   4.021  0.3526  0.3518 -0.7495
 5364SOL    HW127554   1.266   1.744   4.061  1.3392  1.2389 -1.1734
 5364SOL    HW227555   1.318   1.680   3.926  0.7989  0.4885 -0.7182
 5365SOL     OW27556   3.122   0.683  11.154 -0.1735 -0.2792 -0.3455
 5365SOL    HW127557   3.083   0.606  11.113 -1.0830  1.4349 -2.7336
 5365SOL    HW227558   3.086   0.753  11.099  0.5527  0.1333 -0.2854
 5366SOL     OW27559   1.501   3.205   7.226  0.0956  0.1332  0.0333
 5366SOL    HW127560   1.453   3.275   7.271  0.1122 -1.9949  3.3124
 5366SOL    HW227561   1.537   3.157   7.301 -2.3880 -0.7319  0.6777
 5367SOL     OW27562   0.963   3.010   2.139 -0.4000  0.0292 -0.3562
 5367SOL    HW127563   0.891   2.994   2.200  0.4629  0.0065  0.6643
 5367SOL    HW227564   1.029   2.945   2.163  0.2674  0.8202 -0.0289
 5368SOL     OW27565   0.839   4.091  15.042  0.1186 -0.4511  0.4110
 5368SOL    HW127566   0.904   4.146  14.999 -0.5865 -0.1721 -0.2955
 5368SOL    HW227567   0.793   4.146  15.105  0.0472 -2.8974  2.5006
 5369SOL     OW27568   1.057   1.721   2.647 -0.0607 -0.2199  0.4464
 5369SOL    HW127569   1.056   1.664   2.724  0.5093 -1.2030 -0.2691
 5369SOL    HW227570   1.010   1.665   2.586 -0.1180 -0.7748  0.9994
 5370SOL     OW27571   0.768   1.131   6.280  0.0703  0.6154 -0.2630
 5370SOL    HW127572   0.785   1.039   6.302  1.9163  1.1132  0.3433
 5370SOL    HW227573   0.813   1.153   6.199  1.6399 -0.4206  0.3248
 5371SOL     OW27574   4.576   1.622   7.206  0.5609  0.3447  0.3879
 5371SOL    HW127575   4.637   1.694   7.222  0.5752  0.2725  0.6485
 5371SOL    HW227576   4.524   1.626   7.286  0.2097  2.1346  0.0725
 5372SOL     OW27577   0.085   2.642   4.123  0.4791 -0.0400 -0.2867
 5372SOL    HW127578   0.127   2.722   4.154  0.2648 -0.8392  2.0753
 5372SOL    HW227579   0.106   2.643   4.030 -0.6299 -0.1715 -0.5360
 5373SOL     OW27580   2.180   2.943   6.384 -0.0182 -0.2159 -0.5256
 5373SOL    HW127581   2.102   2.886   6.385 -0.7490  0.8121  0.4744
 5373SOL    HW227582   2.250   2.878   6.393 -0.2788 -0.3863  0.3175
 5374SOL     OW27583   4.290   2.032   3.052 -0.1803 -0.1590 -1.0567
 5374SOL    HW127584   4.337   2.105   3.012 -2.4361  1.6685 -0.3144
 5374SOL    HW227585   4.346   1.957   3.028  0.6298 -0.2081  0.9737
 5375SOL     OW27586   4.660   1.122   5.700  0.1248 -0.4874 -0.1352
 5375SOL    HW127587   4.668   1.035   5.662  2.2562 -0.7247  0.8007
 5375SOL    HW227588   4.635   1.096   5.789 -1.8574 -0.7479 -0.7719
 5376SOL     OW27589   3.479   4.242   1.871  0.4533  0.0963  0.3938
 5376SOL    HW127590   3.402   4.247   1.814  0.4474  0.1194  0.4037
 5376SOL    HW227591   3.544   4.233   1.801 -0.2270 -0.4489 -0.1743
 5377SOL     OW27592   1.407   3.973  16.997 -0.6997  0.0787 -0.2973
 5377SOL    HW127593   1.375   3.894  17.042  0.7403 -0.7914 -0.8286
 5377SOL    HW227594   1.336   3.991  16.935 -1.9884  0.5642  1.2944
 5378SOL     OW27595   4.412   0.154   6.387 -0.5925 -0.1753 -0.5001
 5378SOL    HW127596   4.397   0.245   6.362 -0.8642  0.1409  0.8333
 5378SOL    HW227597   4.504   0.149   6.360 -0.4113 -2.0614  0.4415
 5379SOL     OW27598   0.481   2.008  15.821  0.0413 -0.7868  1.0769
 5379SOL    HW127599   0.564   1.980  15.859  0.9251 -0.2493 -0.4337
 5379SOL    HW227600   0.493   1.966  15.735 -0.5574 -0.6044  0.9027
 5380SOL     OW27601   3.393   2.340  14.839  0.2722 -0.5713 -0.2291
 5380SOL    HW127602   3.331   2.267  14.836  0.1210 -0.4327 -0.5466
 5380SOL    HW227603   3.473   2.289  14.825 -0.5375 -1.8647 -0.0818
 5381SOL     OW27604   0.747   2.521   1.769 -0.0653  0.4042  0.0644
 5381SOL    HW127605   0.671   2.463   1.770 -0.7093  1.2791  1.5876
 5381SOL    HW227606   0.768   2.538   1.860  0.0623  2.6230 -0.3713
 5382SOL     OW27607   1.014   0.467   2.959 -0.6770  0.6077  0.4536
 5382SOL    HW127608   0.991   0.557   2.937  0.0695  1.3554  2.7000
 5382SOL    HW227609   1.106   0.465   2.986 -0.6130 -1.7516  0.0294
 5383SOL     OW27610   2.896   2.647  11.340 -0.0540  0.1301  0.0519
 5383SOL    HW127611   2.867   2.651  11.431  0.9908 -1.7847  0.4816
 5383SOL    HW227612   2.991   2.646  11.352 -0.0398 -0.6570 -0.0908
 5384SOL     OW27613   2.225   4.315   8.348  0.0893  0.3109 -0.0515
 5384SOL    HW127614   2.175   4.301   8.429 -0.7181 -0.4341 -0.6833
 5384SOL    HW227615   2.171   4.287   8.275  1.3656 -1.2496 -0.3739
 5385SOL     OW27616   2.757   3.254   3.020  0.1881  0.2094  0.0961
 5385SOL    HW127617   2.696   3.203   3.073 -0.8738  1.9768  0.5429
 5385SOL    HW227618   2.840   3.240   3.067  0.2141 -1.9166 -0.5762
 5386SOL     OW27619   3.500   1.740   0.134  0.2968 -0.3550  0.5263
 5386SOL    HW127620   3.594   1.727   0.143  0.7685  1.9874 -0.8527
 5386SOL    HW227621   3.481   1.808   0.199  1.0003  0.7618 -0.4420
 5387SOL     OW27622   3.314   3.990  12.064  0.6535 -0.3856  0.3895
 5387SOL    HW127623   3.268   4.062  12.021 -1.5352 -2.1046 -0.1516
 5387SOL    HW227624   3.246   3.923  12.069  0.5052 -0.3524 -1.0634
 5388SOL     OW27625   2.158   1.131   7.123 -0.5543 -0.3440 -0.2451
 5388SOL    HW127626   2.185   1.051   7.168 -0.7726 -0.0657  0.3822
 5388SOL    HW227627   2.101   1.104   7.052 -1.8160  0.9713  0.2724
 5389SOL     OW27628   0.167   0.489   7.565 -0.2900  0.3583  0.2757
 5389SOL    HW127629   0.096   0.434   7.597  0.6311 -1.8026 -1.4097
 5389SOL    HW227630   0.121   0.573   7.562  1.6491  1.3544 -1.6745
 5390SOL     OW27631   2.711   3.387   0.656 -0.2808 -0.7570  0.3769
 5390SOL    HW127632   2.695   3.293   0.649 -0.4263 -0.8011  1.2596
 5390SOL    HW227633   2.800   3.387   0.690  0.1383  0.0599 -0.7156
 5391SOL     OW27634   2.761   2.095   2.594  0.0527 -0.5543 -0.1979
 5391SOL    HW127635   2.699   2.158   2.630  1.1244 -1.2199  2.8873
 5391SOL    HW227636   2.706   2.018   2.606 -0.0999 -0.0890  2.1467
 5392SOL     OW27637   4.276   1.947   9.020 -0.2501 -0.1358  0.4671
 5392SOL    HW127638   4.218   1.877   8.989 -0.2702  0.1473 -0.1420
 5392SOL    HW227639   4.342   1.897   9.068 -0.9429 -2.1734 -0.6640
 5393SOL     OW27640   4.439   4.278   5.263 -0.0561  0.8205 -0.3179
 5393SOL    HW127641   4.404   4.192   5.239 -0.0313  0.4016  1.1085
 5393SOL    HW227642   4.360   4.331   5.270  0.1340  0.9670  0.7823
 5394SOL     OW27643   1.146   2.667  15.013 -0.6022  0.1742 -0.2077
 5394SOL    HW127644   1.101   2.596  14.968  0.1618 -0.6328  0.2900
 5394SOL    HW227645   1.089   2.738  14.983 -1.8673  0.4793  2.9680
 5395SOL     OW27646   0.860   0.971  12.238 -0.6499 -0.6619  0.7340
 5395SOL    HW127647   0.874   0.935  12.326  2.6679  0.1931  0.5656
 5395SOL    HW227648   0.889   0.892  12.193  1.3436  1.5708 -1.9344
 5396SOL     OW27649   2.753   4.706   4.581  0.4981 -0.0604  0.0566
 5396SOL    HW127650   2.795   0.061   4.539 -0.0891 -0.7639 -1.7585
 5396SOL    HW227651   2.740   0.027   4.667  0.4349 -1.5138  0.7258
 5397SOL     OW27652   2.641   4.301   4.419 -0.2190  0.2600  0.5144
 5397SOL    HW127653   2.668   4.365   4.353 -0.5502  0.8762  0.9830
 5397SOL    HW227654   2.667   4.347   4.499  0.0821 -0.0168  0.5747
 5398SOL     OW27655   1.369   1.261  15.645  0.4214 -0.2490 -0.6634
 5398SOL    HW127656   1.334   1.232  15.729  3.1060  0.6742  0.7730
 5398SOL    HW227657   1.308   1.327  15.611 -0.2374  1.0172  2.9769
 5399SOL     OW27658   0.394   3.213  14.318  0.0762  0.7903  0.3495
 5399SOL    HW127659   0.424   3.296  14.281 -0.3208  0.7966  0.0452
 5399SOL    HW227660   0.303   3.220  14.344 -0.9931 -2.6908 -2.4324
 5400SOL     OW27661   1.961   0.432   6.365  1.1511 -0.1216 -0.3344
 5400SOL    HW127662   1.959   0.501   6.300  0.4885 -1.4129 -1.6859
 5400SOL    HW227663   1.980   0.500   6.429 -1.3376  0.5077 -0.2704
 5401SOL     OW27664   1.388   0.575   4.469  0.3479 -0.5663 -0.3087
 5401SOL    HW127665   1.416   0.654   4.423 -2.6475  1.6247  1.6640
 5401SOL    HW227666   1.308   0.605   4.511 -1.0628 -2.6962 -1.4622
 5402SOL     OW27667   4.072   4.556   1.774 -0.3059 -0.3692  0.7785
 5402SOL    HW127668   3.981   4.540   1.799 -0.6213 -3.3344 -2.2605
 5402SOL    HW227669   4.065   4.645   1.738 -0.9200 -0.3079  1.0488
 5403SOL     OW27670   2.079   1.281   2.400  0.1999  0.0104  0.5747
 5403SOL    HW127671   2.021   1.353   2.377  1.1414  0.5384 -0.1356
 5403SOL    HW227672   2.036   1.212   2.349  1.4473  0.8320 -1.5412
 5404SOL     OW27673   0.068   1.964   6.423 -0.2391 -0.0714 -0.3355
 5404SOL    HW127674   0.005   1.942   6.491 -0.3948  0.6626 -0.2337
 5404SOL    HW227675   0.088   1.881   6.381  4.1782  1.1682 -0.6959
 5405SOL     OW27676   2.265   0.848   6.121  0.0384 -0.0274  0.1472
 5405SOL    HW127677   2.297   0.937   6.104  1.5396 -0.9802 -1.9911
 5405SOL    HW227678   2.205   0.837   6.047 -0.1088 -1.3856  0.4788
 5406SOL     OW27679   1.842   3.987   3.911 -0.6139 -0.1543 -0.5407
 5406SOL    HW127680   1.747   3.990   3.922 -0.6598 -1.8286 -0.5071
 5406SOL    HW227681   1.850   4.072   3.866  0.0216 -0.6974 -1.4508
 5407SOL     OW27682   3.416   3.495   0.436 -0.2468  0.0555  0.9161
 5407SOL    HW127683   3.439   3.402   0.444 -1.0826 -0.2499 -0.0776
 5407SOL    HW227684   3.415   3.511   0.530 -0.0772  0.9041  0.7683
 5408SOL     OW27685   3.185   4.591   4.540  0.4862  0.4630 -0.4005
 5408SOL    HW127686   3.231   4.674   4.528  1.6649  0.3194  3.1043
 5408SOL    HW227687   3.203   4.548   4.456  1.0966 -0.7056  0.3272
 5409SOL     OW27688   3.103   4.007   5.968 -0.1376 -0.6669 -1.0742
 5409SOL    HW127689   3.073   4.097   5.974 -0.4730 -0.7126 -2.0481
 5409SOL    HW227690   3.086   3.966   6.053  0.7762  2.3186  0.5492
 5410SOL     OW27691   1.616   2.692   2.550 -0.6425 -0.7834  0.5102
 5410SOL    HW127692   1.531   2.724   2.519 -0.0285 -1.0223 -1.3946
 5410SOL    HW227693   1.677   2.705   2.477  0.7354 -1.2994  1.5687
 5411SOL     OW27694   2.748   3.373  13.133 -0.6970  0.3232 -0.1609
 5411SOL    HW127695   2.775   3.325  13.211 -0.9658 -1.7150 -1.3085
 5411SOL    HW227696   2.826   3.351  13.083 -0.8206 -1.1240  0.2975
 5412SOL     OW27697   1.893   2.739   3.314  0.2219 -0.2162 -0.6582
 5412SOL    HW127698   1.841   2.743   3.233  0.0418  0.7759 -0.4984
 5412SOL    HW227699   1.966   2.691   3.276  0.7739 -1.5061  2.0612
 5413SOL     OW27700   2.250   4.228   3.182  0.0755  0.2630 -0.0073
 5413SOL    HW127701   2.282   4.223   3.092 -0.4179  1.2946 -0.2474
 5413SOL    HW227702   2.205   4.313   3.178  1.0782  0.7726 -0.4853
 5414SOL     OW27703   1.488   0.425   8.856 -0.7702  0.0746  0.7062
 5414SOL    HW127704   1.494   0.494   8.922 -0.0978  0.4293  0.2717
 5414SOL    HW227705   1.543   0.359   8.898  0.2761  2.3230  2.8832
 5415SOL     OW27706   1.393   1.423   2.554 -0.2694  0.6515 -0.5952
 5415SOL    HW127707   1.391   1.332   2.584 -0.0911  0.2465 -1.8139
 5415SOL    HW227708   1.360   1.465   2.633  1.8651  0.4183  0.4091
 5416SOL     OW27709   0.144   2.034  17.036 -0.2586  0.1483 -0.0020
 5416SOL    HW127710   0.125   2.039  16.943  2.5067 -1.9334 -0.6917
 5416SOL    HW227711   0.162   1.941  17.053 -0.1924  0.4766  1.7801
 5417SOL     OW27712   0.454   2.589   3.646 -0.4602  0.1441 -0.3087
 5417SOL    HW127713   0.359   2.586   3.656 -0.5225  2.1126 -0.3393
 5417SOL    HW227714   0.456   2.667   3.590 -0.1767  0.4163  0.0807
 5418SOL     OW27715   4.022   2.951   8.593 -0.0327  0.3293  0.6451
 5418SOL    HW127716   4.079   2.889   8.639  0.2989  0.7201  0.7704
 5418SOL    HW227717   4.071   2.993   8.522  0.6797 -0.2942  0.7703
 5419SOL     OW27718   1.866   1.475  12.728 -0.0217  0.1184  0.0494
 5419SOL    HW127719   1.866   1.398  12.671 -2.2699  0.5260 -0.5235
 5419SOL    HW227720   1.954   1.505  12.705  0.9469 -1.7295  1.2854
 5420SOL     OW27721   3.708   1.469   7.270  0.1221 -0.4151 -0.4535
 5420SOL    HW127722   3.728   1.440   7.359  1.3953  1.9774  0.0564
 5420SOL    HW227723   3.716   1.387   7.222  2.2383 -0.5273  0.0775
 5421SOL     OW27724   1.003   1.133   2.803  0.2397  0.7195 -0.0703
 5421SOL    HW127725   1.062   1.068   2.766 -0.6825  0.4240 -1.0471
 5421SOL    HW227726   0.934   1.129   2.737 -0.4704 -1.1057  0.7620
 5422SOL     OW27727   1.125   1.461   3.761  0.8476  0.2639 -0.4695
 5422SOL    HW127728   1.181   1.394   3.722  2.4626  1.9111 -0.9757
 5422SOL    HW227729   1.160   1.546   3.733  1.0525 -0.1692 -1.5262
 5423SOL     OW27730   2.978   3.568   6.461 -0.4637 -0.4319  0.2336
 5423SOL    HW127731   3.016   3.526   6.539  1.2856 -0.0838 -0.4571
 5423SOL    HW227732   2.925   3.500   6.418 -0.3052 -0.4242  0.0301
 5424SOL     OW27733   4.051   3.253  14.705 -0.4997 -0.1294 -0.5069
 5424SOL    HW127734   4.097   3.228  14.784 -1.9205  0.9598  0.6575
 5424SOL    HW227735   4.125   3.277  14.648 -0.9590 -0.0984 -1.0985
 5425SOL     OW27736   2.588   1.573  10.303 -0.1746  0.3325 -0.4176
 5425SOL    HW127737   2.572   1.592  10.396  0.2315  2.2968 -0.7398
 5425SOL    HW227738   2.522   1.506  10.283 -0.4284  0.0927  1.1607
 5426SOL     OW27739   1.687   4.307   8.404 -0.1606 -0.5183  0.2345
 5426SOL    HW127740   1.691   4.212   8.395  1.3548 -0.3719 -0.6596
 5426SOL    HW227741   1.616   4.314   8.468 -0.2430 -0.8563  0.1784
 5427SOL     OW27742   2.028   4.640   2.960  0.1547  0.2478  0.0636
 5427SOL    HW127743   1.989   4.709   3.014  0.4351  1.6819 -1.5419
 5427SOL    HW227744   2.090   4.700   2.920 -1.0678  1.5147  0.0639
 5428SOL     OW27745   3.719   2.347   3.093  0.0151  0.1105  0.2988
 5428SOL    HW127746   3.724   2.440   3.069  1.3971 -0.4382 -1.5135
 5428SOL    HW227747   3.625   2.329   3.091  0.0493 -0.1036  0.7227
 5429SOL     OW27748   2.308   2.847   2.242 -0.2113 -0.2654 -0.0415
 5429SOL    HW127749   2.256   2.900   2.303 -1.1052 -1.0495 -0.1243
 5429SOL    HW227750   2.354   2.919   2.200 -0.7173 -0.0466 -0.2214
 5430SOL     OW27751   2.349   1.157   7.883 -0.4830  0.3417 -0.0317
 5430SOL    HW127752   2.259   1.148   7.852 -0.1280 -1.2013 -0.5810
 5430SOL    HW227753   2.346   1.098   7.959  0.1996  0.3608  0.0142
 5431SOL     OW27754   3.150   4.089  15.502  0.5313  0.1856 -0.6491
 5431SOL    HW127755   3.112   4.174  15.480  0.5580 -0.2372 -2.3343
 5431SOL    HW227756   3.076   4.057  15.555  3.0773 -2.0357  1.5354
 5432SOL     OW27757   4.174   3.737   8.482  0.5247  0.5303 -0.6648
 5432SOL    HW127758   4.208   3.654   8.514 -0.6735  0.5894  0.7849
 5432SOL    HW227759   4.167   3.712   8.390  0.2365 -0.8692 -0.2647
 5433SOL     OW27760   2.185   3.689  15.452  0.3692 -0.4959  0.1805
 5433SOL    HW127761   2.218   3.644  15.530  0.0347  1.5493  1.5122
 5433SOL    HW227762   2.099   3.714  15.484  0.9737 -1.4973  2.5853
 5434SOL     OW27763   2.096   3.934   3.811  0.2354  0.2359  0.2899
 5434SOL    HW127764   2.099   4.001   3.742 -1.0386 -1.4185 -1.3873
 5434SOL    HW227765   2.003   3.946   3.830 -0.2983 -0.5980 -1.8081
 5435SOL     OW27766   2.138   1.194  17.201 -0.5175  0.3065  0.1073
 5435SOL    HW127767   2.136   1.275  17.151  0.6281 -1.1553 -2.3244
 5435SOL    HW227768   2.174   1.131  17.139  0.9316  0.5647  0.6981
 5436SOL     OW27769   3.369   0.315   7.249 -0.3423  0.0785 -0.4637
 5436SOL    HW127770   3.403   0.338   7.335  0.6707 -1.8150 -0.3620
 5436SOL    HW227771   3.374   0.401   7.208  2.4625 -1.5200 -3.4673
 5437SOL     OW27772   0.658   4.439  12.711  0.2140  0.2952  0.4802
 5437SOL    HW127773   0.650   4.357  12.760  0.2531 -0.4643 -0.7780
 5437SOL    HW227774   0.714   4.492  12.767  0.7844  1.5503 -1.2767
 5438SOL     OW27775   2.167   2.675   5.745  0.0304  0.1938 -0.2835
 5438SOL    HW127776   2.238   2.667   5.681 -0.5938  0.9670 -1.0586
 5438SOL    HW227777   2.088   2.678   5.691  1.5373  1.9589 -2.3941
 5439SOL     OW27778   1.186   0.855   6.529 -0.7046  0.3945  0.1449
 5439SOL    HW127779   1.189   0.951   6.536  1.2015  0.4090 -0.8627
 5439SOL    HW227780   1.103   0.842   6.482 -1.5349  0.8637  1.4732
 5440SOL     OW27781   2.340   3.000  16.314  0.1444  0.0224 -0.5172
 5440SOL    HW127782   2.363   2.909  16.293 -2.9256 -0.5241 -1.5697
 5440SOL    HW227783   2.414   3.051  16.282 -2.3709  2.9981 -1.5771
 5441SOL     OW27784   0.411   0.230   4.740  0.0419  0.0647 -0.0475
 5441SOL    HW127785   0.362   0.150   4.722  0.8096 -0.6436  0.9930
 5441SOL    HW227786   0.338   0.293   4.742  0.6801  0.8469 -1.3859
 5442SOL     OW27787   4.304   1.461  14.207 -0.1418 -0.2769 -0.1976
 5442SOL    HW127788   4.348   1.413  14.136  1.0336  0.2318  0.1792
 5442SOL    HW227789   4.361   1.466  14.283 -1.1732  1.6451  0.4298
 5443SOL     OW27790   2.902   2.305   5.832 -0.3036 -0.1409  0.6131
 5443SOL    HW127791   2.956   2.232   5.862  0.8111  0.9440  1.2177
 5443SOL    HW227792   2.820   2.265   5.860 -0.9383  0.3247 -0.5529
 5444SOL     OW27793   3.758   2.145   4.207 -0.5470  0.0037 -0.6148
 5444SOL    HW127794   3.782   2.081   4.140 -1.0132  2.3240 -2.9976
 5444SOL    HW227795   3.733   2.214   4.145 -2.0575  0.7732  0.8472
 5445SOL     OW27796   2.679   2.107   1.986 -0.3469 -0.4049  0.1324
 5445SOL    HW127797   2.639   2.031   1.945 -1.8095  0.7211 -0.5464
 5445SOL    HW227798   2.640   2.179   1.936  1.8612  1.9428  1.7810
 5446SOL     OW27799   2.636   4.685  11.206  0.0196  0.3050  1.1521
 5446SOL    HW127800   2.589   4.611  11.167 -1.1753  0.6060  1.9976
 5446SOL    HW227801   2.704   4.632  11.246  0.7295 -0.2025 -0.7290
 5447SOL     OW27802   2.726   0.391   5.174  0.6376 -0.2282 -0.0614
 5447SOL    HW127803   2.715   0.311   5.225  0.5575  1.0080  1.8603
 5447SOL    HW227804   2.818   0.375   5.154  0.5458  0.3328 -0.9266
 5448SOL     OW27805   2.461   3.615   4.974 -0.6440 -0.0405  0.4934
 5448SOL    HW127806   2.503   3.631   4.889  1.6078  1.5978  1.9230
 5448SOL    HW227807   2.486   3.527   5.004 -0.5236  0.1925  1.0708
 5449SOL     OW27808   2.369   0.500  11.225  0.0342  0.8051  0.1783
 5449SOL    HW127809   2.372   0.407  11.248 -0.8281  0.8294  0.3767
 5449SOL    HW227810   2.461   0.526  11.230 -0.1038  1.5675 -1.1440
 5450SOL     OW27811   2.430   1.818   8.243 -0.4661  0.0522  0.0567
 5450SOL    HW127812   2.470   1.900   8.273  0.5476 -1.3631  2.5844
 5450SOL    HW227813   2.365   1.858   8.186 -0.6644 -2.5308 -1.5448
 5451SOL     OW27814   4.367   4.074  17.414 -0.2807  0.2765 -0.0361
 5451SOL    HW127815   4.379   4.102  17.505 -2.3362 -0.4545  0.4751
 5451SOL    HW227816   4.272   4.068  17.403 -0.8325  2.7171  3.1858
 5452SOL     OW27817   3.172   4.297  10.744 -0.6600  0.2985 -0.8230
 5452SOL    HW127818   3.117   4.225  10.777  1.4538 -0.2835  1.4648
 5452SOL    HW227819   3.193   4.331  10.831 -0.9933  0.5030 -0.8231
 5453SOL     OW27820   1.039   1.861   5.965 -0.5413  0.7353  0.3650
 5453SOL    HW127821   1.087   1.882   6.045 -2.7437 -3.3991  2.8020
 5453SOL    HW227822   1.108   1.834   5.904 -1.0219 -0.8881  0.5362
 5454SOL     OW27823   0.796   4.365  17.636  0.3258 -0.1843  0.5595
 5454SOL    HW127824   0.709   4.374  17.597 -0.7068 -1.5601  2.5268
 5454SOL    HW227825   0.824   4.294  17.579 -2.2816 -0.4058 -0.4304
 5455SOL     OW27826   1.000   0.350  16.668  0.6313 -0.3708 -0.2688
 5455SOL    HW127827   0.952   0.271  16.696  2.0032 -1.2535 -0.4056
 5455SOL    HW227828   1.002   0.325  16.576  0.4010 -4.6462  0.8489
 5456SOL     OW27829   0.850   2.681   6.964 -0.8433  0.2708 -0.2211
 5456SOL    HW127830   0.897   2.709   7.043  0.1555 -0.0483 -0.6984
 5456SOL    HW227831   0.842   2.757   6.906 -3.4775  0.6019  0.5717
 5457SOL     OW27832   4.040   1.197   2.715  0.0489 -0.1194  0.2947
 5457SOL    HW127833   4.090   1.187   2.796 -0.5031  1.8400  0.8765
 5457SOL    HW227834   4.110   1.173   2.654  0.5538  2.3545 -0.0999
 5458SOL     OW27835   4.472   3.119   8.776 -0.2908  0.7736 -0.0746
 5458SOL    HW127836   4.552   3.076   8.803 -1.7241 -0.9413  1.4454
 5458SOL    HW227837   4.422   3.092   8.853 -1.2100 -0.9043 -1.2693
 5459SOL     OW27838   4.394   0.263   5.764 -0.0231  0.0497  0.5876
 5459SOL    HW127839   4.403   0.296   5.853 -1.5403  2.5766 -0.2101
 5459SOL    HW227840   4.486   0.248   5.741 -0.4081 -0.5476 -0.5421
 5460SOL     OW27841   2.990   1.060   6.985 -0.4465  0.5151  0.1693
 5460SOL    HW127842   2.991   0.975   6.940  0.3493 -0.1130  1.3450
 5460SOL    HW227843   2.958   1.122   6.921 -0.7889  0.3627  0.1944
 5461SOL     OW27844   3.767   2.690   6.852 -0.3173 -0.1447 -0.5523
 5461SOL    HW127845   3.738   2.599   6.848 -1.1820 -0.0003  2.3317
 5461SOL    HW227846   3.856   2.680   6.819 -0.3501 -3.2561  0.2575
 5462SOL     OW27847   2.700   3.583  13.312 -0.1110 -0.0119  0.1731
 5462SOL    HW127848   2.655   3.641  13.250 -0.1894  1.0134  1.1849
 5462SOL    HW227849   2.745   3.530  13.246 -1.3464 -1.4917  0.5159
 5463SOL     OW27850   0.554   4.557   0.650  0.1291 -0.3227  0.6163
 5463SOL    HW127851   0.643   4.521   0.646  0.7775  1.5409 -1.8833
 5463SOL    HW227852   0.549   4.554   0.745 -2.4593  0.5685  0.5052
 5464SOL     OW27853   1.785   2.002  17.405  0.0559  0.3732  0.0347
 5464SOL    HW127854   1.716   2.018  17.341  0.4881 -0.1795 -0.5705
 5464SOL    HW227855   1.808   2.094  17.420  2.0826  0.1395 -1.6437
 5465SOL     OW27856   2.236   1.157   2.163  0.0761 -0.2661 -0.4508
 5465SOL    HW127857   2.186   1.200   2.232  2.0313  0.5413  0.4562
 5465SOL    HW227858   2.210   1.219   2.096 -2.1590  0.2794  0.9373
 5466SOL     OW27859   3.376   3.713   8.271  0.6458  0.6032  0.1006
 5466SOL    HW127860   3.397   3.666   8.190 -2.6461 -0.4707 -0.1600
 5466SOL    HW227861   3.290   3.748   8.245  0.0097 -0.4809  0.7431
 5467SOL     OW27862   1.386   3.335   9.296  0.1968 -0.6332 -0.6628
 5467SOL    HW127863   1.425   3.418   9.323 -0.0466 -1.3018  1.7837
 5467SOL    HW227864   1.428   3.273   9.356 -0.3045  1.9056  2.3032
 5468SOL     OW27865   0.657   2.115   0.240  0.2242 -0.2864 -0.3248
 5468SOL    HW127866   0.590   2.184   0.237  2.4142  1.7982 -1.8831
 5468SOL    HW227867   0.611   2.038   0.271  0.8441  0.6677  3.0758
 5469SOL     OW27868   4.685   0.300   9.676 -0.4450  0.4910 -0.6072
 5469SOL    HW127869   0.042   0.256   9.640 -2.3623 -3.6237  0.2477
 5469SOL    HW227870   4.641   0.334   9.598  0.8524 -0.0059 -1.5560
 5470SOL     OW27871   0.481   4.247   0.639  0.0259  0.4007  0.0595
 5470SOL    HW127872   0.554   4.208   0.687 -2.0301 -0.2573  2.6914
 5470SOL    HW227873   0.515   4.259   0.550 -1.6837  2.6369 -0.2771
 5471SOL     OW27874   1.677   0.339   7.795 -0.5941 -0.0170 -0.1226
 5471SOL    HW127875   1.672   0.264   7.854  1.4268 -0.0061  0.0569
 5471SOL    HW227876   1.770   0.337   7.774 -0.2259 -1.5949  1.6425
 5472SOL     OW27877   2.599   1.098   3.987 -0.3561 -0.4654 -0.8875
 5472SOL    HW127878   2.512   1.058   3.989 -1.2029  1.4667  0.2542
 5472SOL    HW227879   2.627   1.065   3.901  3.0949  1.8946 -0.6761
 5473SOL     OW27880   1.885   0.779  13.538  0.1847 -0.0020  0.2290
 5473SOL    HW127881   1.924   0.832  13.468  1.2136  0.4040  1.1038
 5473SOL    HW227882   1.809   0.735  13.501  0.1458  0.1196  0.1639
 5474SOL     OW27883   4.474   2.031   2.611  0.4573 -0.0149 -0.2772
 5474SOL    HW127884   4.486   2.056   2.520 -0.3204 -1.2555 -0.7197
 5474SOL    HW227885   4.400   1.970   2.604  1.3605 -1.1044 -0.3533
 5475SOL     OW27886   4.174   2.722  16.144  0.4127 -0.1198 -0.5026
 5475SOL    HW127887   4.212   2.639  16.175 -0.8583 -0.9478 -1.1800
 5475SOL    HW227888   4.251   2.778  16.133  0.3036 -0.0089 -0.7121
 5476SOL     OW27889   2.045   0.638   6.517 -0.2905  0.3322 -0.5008
 5476SOL    HW127890   2.076   0.723   6.486 -1.3859  0.3232 -1.6200
 5476SOL    HW227891   2.007   0.678   6.595 -2.2034 -0.6584 -0.9219
 5477SOL     OW27892   3.838   3.910   4.909 -0.4414 -0.2316 -0.3590
 5477SOL    HW127893   3.875   3.975   4.850  0.4553 -1.9730 -1.7174
 5477SOL    HW227894   3.746   3.933   4.893 -0.3660  0.2685 -0.0750
 5478SOL     OW27895   1.296   3.437   4.121 -0.5817 -0.1043 -0.1193
 5478SOL    HW127896   1.358   3.486   4.067 -2.9545  1.2809 -1.5723
 5478SOL    HW227897   1.274   3.368   4.058 -0.0629  0.9451 -1.4505
 5479SOL     OW27898   1.463   3.017   2.400  0.3972  0.5633 -0.7268
 5479SOL    HW127899   1.445   3.035   2.307 -1.7124  1.3167 -0.1891
 5479SOL    HW227900   1.404   3.081   2.440 -1.5714 -1.4987 -0.3128
 5480SOL     OW27901   2.062   1.370   4.163 -0.1344  0.3214 -0.3996
 5480SOL    HW127902   2.134   1.309   4.149  0.6349  0.8778  1.0743
 5480SOL    HW227903   2.029   1.391   4.076 -0.7633  0.9477 -0.0100
 5481SOL     OW27904   1.335   1.901   4.531  0.3382 -0.9742  0.1363
 5481SOL    HW127905   1.299   1.983   4.565 -0.4920 -1.0430 -0.5949
 5481SOL    HW227906   1.400   1.873   4.596  0.5481  0.7781  0.6761
 5482SOL     OW27907   2.015   1.283   8.802  0.3615 -0.4600  0.1891
 5482SOL    HW127908   1.960   1.287   8.724  0.9934 -1.8925 -0.3499
 5482SOL    HW227909   2.007   1.188   8.814 -1.1426 -0.2686  0.7071
 5483SOL     OW27910   0.737   2.275   4.304  0.2197  0.8581  0.3970
 5483SOL    HW127911   0.658   2.252   4.352  0.3463 -0.0781  0.1575
 5483SOL    HW227912   0.692   2.303   4.224 -1.0856 -0.6333  0.6066
 5484SOL     OW27913   1.376   4.277   5.003  0.6775  0.1012  0.2744
 5484SOL    HW127914   1.340   4.340   5.065  1.7870  1.7785 -0.8181
 5484SOL    HW227915   1.326   4.302   4.925  2.3974  1.4028 -0.4103
 5485SOL     OW27916   2.528   4.718   3.042  0.0781 -0.0518  0.3204
 5485SOL    HW127917   2.487   4.658   3.105  1.7301 -1.4569  0.0600
 5485SOL    HW227918   2.476   0.078   3.048 -0.3387 -0.1416 -1.8531
 5486SOL     OW27919   3.778   3.424   4.641 -0.5492  0.0714 -0.0699
 5486SOL    HW127920   3.872   3.438   4.640 -0.8207  2.1373  1.5227
 5486SOL    HW227921   3.744   3.497   4.589 -2.3160 -0.8757 -0.2543
 5487SOL     OW27922   1.895   1.895  14.286 -0.3368 -0.4098  0.0453
 5487SOL    HW127923   1.816   1.916  14.235  0.2272 -0.4220 -0.8447
 5487SOL    HW227924   1.862   1.829  14.346  1.2701  0.4259  1.8709
 5488SOL     OW27925   1.780   3.370   6.977 -0.2768 -0.5517  0.5879
 5488SOL    HW127926   1.765   3.414   6.893  1.0367  0.1115  0.7051
 5488SOL    HW227927   1.831   3.440   7.018 -0.3730  0.1308 -0.4452
 5489SOL     OW27928   4.566   3.038   2.362  0.5579 -0.2049  0.2403
 5489SOL    HW127929   4.601   3.103   2.301  0.4098 -0.8216 -0.5147
 5489SOL    HW227930   4.644   3.004   2.406  1.8696 -0.3531 -2.2011
 5490SOL     OW27931   4.565   3.433   8.092 -0.2662  0.4568  0.1732
 5490SOL    HW127932   4.489   3.395   8.135 -0.0988 -0.2742 -0.1886
 5490SOL    HW227933   4.633   3.377   8.128  0.4678  1.3735  0.2309
 5491SOL     OW27934   3.155   1.741  13.278 -0.2159 -0.0970  0.6316
 5491SOL    HW127935   3.182   1.806  13.213 -2.1036  1.0156  0.9655
 5491SOL    HW227936   3.071   1.777  13.309  0.1330  2.6567 -1.5479
 5492SOL     OW27937   4.555   2.053  12.641 -0.0224  0.1265 -0.2536
 5492SOL    HW127938   4.497   2.121  12.607 -1.2673 -0.8409 -0.0616
 5492SOL    HW227939   4.520   1.977  12.594  1.9104 -0.9421 -0.0104
 5493SOL     OW27940   2.534   3.979  13.502 -0.2206  0.6334  0.6852
 5493SOL    HW127941   2.627   3.995  13.522 -0.3405  0.1252  1.6360
 5493SOL    HW227942   2.497   4.052  13.552  0.4270  2.7455 -1.9421
 5494SOL     OW27943   2.473   0.986   2.286  0.1945 -0.2276  0.2434
 5494SOL    HW127944   2.508   1.042   2.356 -2.4321  0.3641  1.0715
 5494SOL    HW227945   2.425   1.051   2.236 -0.5771  0.1149  1.4212
 5495SOL     OW27946   2.067   1.254  11.502 -0.2119 -0.0031  0.5986
 5495SOL    HW127947   2.090   1.182  11.443 -0.3060  0.4523 -0.0045
 5495SOL    HW227948   1.994   1.212  11.547  0.1707 -0.4069  0.8372
 5496SOL     OW27949   0.396   3.432   5.361 -0.3072 -0.1300 -0.0428
 5496SOL    HW127950   0.475   3.475   5.393  1.4440 -2.5187 -1.1789
 5496SOL    HW227951   0.373   3.382   5.439  1.9501  0.2703  0.8680
 5497SOL     OW27952   0.325   3.626  15.962  0.5932 -0.1169 -0.6308
 5497SOL    HW127953   0.389   3.615  15.892 -0.0782  1.8196 -1.5373
 5497SOL    HW227954   0.244   3.648  15.916  0.8240  0.1514 -0.9037
 5498SOL     OW27955   2.847   3.029   9.494  0.2539 -0.1213 -0.3058
 5498SOL    HW127956   2.842   2.934   9.486  2.0225 -0.3295  0.9192
 5498SOL    HW227957   2.883   3.050   9.408  0.6905 -1.1224 -0.3589
 5499SOL     OW27958   3.885   3.025   3.467 -0.3823  0.0991  0.2407
 5499SOL    HW127959   3.790   3.032   3.462 -0.2447  2.2271  0.3042
 5499SOL    HW227960   3.919   3.110   3.438 -1.1667  0.5063  0.5108
 5500SOL     OW27961   4.417   2.788   9.576 -0.5963 -0.2808 -0.1864
 5500SOL    HW127962   4.410   2.730   9.652  0.3694 -0.0088  0.1221
 5500SOL    HW227963   4.388   2.732   9.504 -1.0750  1.5982 -1.4515
 5501SOL     OW27964   1.248   0.567   3.984  0.3481  0.3519 -0.0645
 5501SOL    HW127965   1.250   0.636   4.050 -0.0928  2.7378 -2.5041
 5501SOL    HW227966   1.201   0.612   3.913  0.8371 -1.3654 -1.4641
 5502SOL     OW27967   0.388   1.643   4.546 -0.0206 -0.4710  0.3591
 5502SOL    HW127968   0.295   1.630   4.527  0.5253 -1.6045 -1.5322
 5502SOL    HW227969   0.424   1.566   4.501 -3.1481 -0.9684 -1.3351
 5503SOL     OW27970   3.064   2.612   3.619  0.1330  0.1242 -0.1888
 5503SOL    HW127971   3.134   2.617   3.684  0.2626 -0.9867 -0.2501
 5503SOL    HW227972   3.054   2.517   3.622 -0.6849  0.2442  0.7382
 5504SOL     OW27973   4.446   0.089   3.873  0.1065  0.0843 -0.4930
 5504SOL    HW127974   4.515   0.036   3.911  0.6960  0.6535 -0.7624
 5504SOL    HW227975   4.421   0.060   3.786 -0.4474  0.2131 -0.3775
 5505SOL     OW27976   3.343   3.852  10.510  0.0031 -0.0062  0.3005
 5505SOL    HW127977   3.384   3.909  10.445 -1.0574  0.4162 -0.0051
 5505SOL    HW227978   3.282   3.800  10.456  1.0499  2.4950 -3.2649
 5506SOL     OW27979   3.972   2.044   5.583 -0.2268  0.1941 -0.0937
 5506SOL    HW127980   3.878   2.032   5.598 -0.0925  1.7994  1.9672
 5506SOL    HW227981   3.998   2.086   5.665 -2.0588  0.9397  0.1019
 5507SOL     OW27982   3.254   1.956   3.493  0.0796 -0.3532  0.3172
 5507SOL    HW127983   3.270   2.002   3.575  0.1631  0.6551 -0.2676
 5507SOL    HW227984   3.296   1.873   3.515  0.4270 -0.9912 -2.6332
 5508SOL     OW27985   3.787   2.700   1.807 -0.3525 -0.4526  0.0071
 5508SOL    HW127986   3.881   2.693   1.793 -0.4621 -0.7180 -0.6026
 5508SOL    HW227987   3.789   2.748   1.890 -1.2043 -0.5340  0.0808
 5509SOL     OW27988   3.487   4.387   2.608 -0.0056 -0.3410  0.2137
 5509SOL    HW127989   3.462   4.476   2.634  1.9792  0.7182 -1.5347
 5509SOL    HW227990   3.457   4.381   2.518  1.3706 -2.4949 -0.1042
 5510SOL     OW27991   4.294   2.924   8.255 -0.1957 -0.0510  0.2538
 5510SOL    HW127992   4.338   2.977   8.322 -0.1576  0.4438 -0.1555
 5510SOL    HW227993   4.211   2.971   8.252  0.3710  0.9053 -0.4546
 5511SOL     OW27994   3.079   3.501  17.474 -0.2718 -0.1111 -0.7878
 5511SOL    HW127995   3.092   3.595  17.466 -3.3037  0.1928 -2.2697
 5511SOL    HW227996   3.154   3.476  17.528 -1.0381  2.4549  1.4722
 5512SOL     OW27997   3.311   4.294   0.698 -0.3408 -0.5331  0.3422
 5512SOL    HW127998   3.256   4.253   0.631 -3.1023 -0.4285  2.5690
 5512SOL    HW227999   3.326   4.223   0.760 -0.4930  0.3679  1.3979
 5513SOL     OW28000   4.201   4.383   4.255  0.1939 -0.4346  0.1471
 5513SOL    HW128001   4.154   4.465   4.237 -0.3996 -0.5481  1.2218
 5513SOL    HW228002   4.178   4.360   4.344 -3.2137  0.0129 -0.6450
 5514SOL     OW28003   0.780   0.239   8.842  0.2306  0.1110  0.3368
 5514SOL    HW128004   0.800   0.226   8.935 -1.4900  1.9158  0.9619
 5514SOL    HW228005   0.775   0.334   8.832 -2.0822 -0.1860 -1.2692
 5515SOL     OW28006   1.660   0.456   9.420  0.2511 -0.4682  0.1529
 5515SOL    HW128007   1.611   0.378   9.394 -1.2331  0.6410 -0.3753
 5515SOL    HW228008   1.661   0.509   9.340  1.3920  1.2890  1.3335
 5516SOL     OW28009   2.786   3.765   6.523  0.2653  0.0152  0.3206
 5516SOL    HW128010   2.852   3.828   6.551 -0.5751  0.1526  1.9806
 5516SOL    HW228011   2.840   3.690   6.500 -1.8723 -1.6448  0.7062
 5517SOL     OW28012   0.829   0.812   1.483  0.3078 -0.1869  0.3959
 5517SOL    HW128013   0.824   0.858   1.567 -0.2045 -1.6382  1.1602
 5517SOL    HW228014   0.871   0.727   1.499 -1.0023 -1.2949 -2.0493
 5518SOL     OW28015   3.370   0.949   9.526 -0.2367  0.1692  0.0112
 5518SOL    HW128016   3.293   0.920   9.574 -0.3751 -0.1827 -0.4216
 5518SOL    HW228017   3.410   1.018   9.578 -1.1487 -0.0683  1.0164
 5519SOL     OW28018   1.183   1.349   2.819 -0.6925  0.5093 -0.4263
 5519SOL    HW128019   1.137   1.281   2.867  2.3795 -1.4285 -0.2299
 5519SOL    HW228020   1.228   1.300   2.750 -0.2775 -0.3858  0.4817
 5520SOL     OW28021   0.741   4.238   8.084 -0.0298 -0.1644  0.2273
 5520SOL    HW128022   0.723   4.298   8.156 -2.6145 -0.1414 -0.4228
 5520SOL    HW228023   0.697   4.155   8.100 -1.1247  0.6896  1.6344
 5521SOL     OW28024   2.071   2.561   5.968 -0.0911  0.5562  0.0377
 5521SOL    HW128025   2.018   2.515   5.903  0.9112 -0.2574 -0.2068
 5521SOL    HW228026   2.102   2.629   5.909 -0.1144  2.4298  2.1752
 5522SOL     OW28027   2.498   2.910   3.294 -0.2245 -0.1557 -0.1171
 5522SOL    HW128028   2.410   2.875   3.307 -0.2386 -0.7466 -1.7545
 5522SOL    HW228029   2.550   2.834   3.266 -1.2272 -0.6713 -0.5863
 5523SOL     OW28030   0.716   4.263  14.722  0.3396 -0.2400  0.0160
 5523SOL    HW128031   0.690   4.186  14.772  3.0435 -2.0046 -1.3514
 5523SOL    HW228032   0.743   4.227  14.638  0.6506 -1.7356  0.7631
 5524SOL     OW28033   1.007   1.809   1.518 -0.5179 -0.0842 -0.6141
 5524SOL    HW128034   1.044   1.789   1.604  0.1496  1.6827 -0.4929
 5524SOL    HW228035   0.950   1.733   1.505 -1.1725  0.5419 -1.4471
 5525SOL     OW28036   1.432   2.823   6.539  0.0774  0.0383 -0.3549
 5525SOL    HW128037   1.373   2.818   6.614  1.7962  0.3283  1.0183
 5525SOL    HW228038   1.403   2.752   6.483 -1.0312 -0.2598  0.6142
 5526SOL     OW28039   0.247   0.866   6.123  0.6537 -0.5931 -0.3058
 5526SOL    HW128040   0.302   0.912   6.187 -0.5206  0.2469  0.0993
 5526SOL    HW228041   0.174   0.927   6.109  0.1464 -1.7072 -2.5677
 5527SOL     OW28042   3.288   2.205   1.021 -0.4573  0.1781  0.2556
 5527SOL    HW128043   3.228   2.173   1.088 -0.9726 -0.4681 -0.5143
 5527SOL    HW228044   3.342   2.253   1.084 -0.8459 -1.3530  1.7509
 5528SOL     OW28045   0.088   3.023   5.013 -0.3898 -0.2335  0.0651
 5528SOL    HW128046   0.054   3.028   4.924  0.2116  1.2627 -0.0922
 5528SOL    HW228047   0.034   2.956   5.054 -0.0944 -0.1128  0.6399
 5529SOL     OW28048   3.451   0.414   3.421 -0.1523  0.4828  0.3616
 5529SOL    HW128049   3.481   0.505   3.426  1.9175 -0.2714  1.3814
 5529SOL    HW228050   3.478   0.398   3.331 -0.4489 -0.1868  0.3930
 5530SOL     OW28051   1.648   4.321  11.978  0.1395 -0.1959 -0.2473
 5530SOL    HW128052   1.725   4.355  12.023 -1.6477  0.1635  2.5422
 5530SOL    HW228053   1.676   4.304  11.888  0.6626  1.1428 -0.3334
 5531SOL     OW28054   3.016   1.586   3.598  0.3452 -0.1278  0.2065
 5531SOL    HW128055   3.077   1.658   3.583  2.0660 -1.3311  1.4243
 5531SOL    HW228056   3.075   1.525   3.642  0.2005 -0.2782  0.1944
 5532SOL     OW28057   4.355   4.548   8.931  0.1659  0.1952  0.2768
 5532SOL    HW128058   4.299   4.470   8.933  2.7623 -1.6102  2.8446
 5532SOL    HW228059   4.292   4.620   8.938  0.5770  0.6573 -0.7805
 5533SOL     OW28060   3.615   0.830   1.417  0.0665 -0.2342  0.0501
 5533SOL    HW128061   3.687   0.886   1.390 -0.3092 -0.7672 -2.0811
 5533SOL    HW228062   3.532   0.871   1.391  0.5465 -0.6333 -2.0956
 5534SOL     OW28063   2.562   4.040   1.674  0.1400  0.5294 -0.6098
 5534SOL    HW128064   2.471   4.012   1.666 -0.1116  1.0314  0.5367
 5534SOL    HW228065   2.550   4.134   1.664  0.8354  0.6688 -0.1509
 5535SOL     OW28066   3.983   1.697   1.365 -0.1577  0.0771  0.1953
 5535SOL    HW128067   3.939   1.654   1.291 -1.6489 -1.5263  2.0215
 5535SOL    HW228068   4.029   1.769   1.322 -1.3605 -0.5144 -2.1181
 5536SOL     OW28069   4.618   3.654   3.629  0.3817  0.6642 -0.2957
 5536SOL    HW128070   4.523   3.667   3.635  0.1710 -1.1233 -0.0592
 5536SOL    HW228071   4.628   3.569   3.588 -1.1571  0.0856  0.5417
 5537SOL     OW28072   2.431   0.384   9.180  0.4464  0.3220 -0.4648
 5537SOL    HW128073   2.374   0.371   9.256 -1.5109 -0.8374 -2.1421
 5537SOL    HW228074   2.371   0.422   9.116 -1.1885  3.6692  3.0136
 5538SOL     OW28075   1.330   2.930   2.883  0.3180 -0.5723  0.2100
 5538SOL    HW128076   1.411   2.980   2.874 -0.2267  0.2146 -0.2713
 5538SOL    HW228077   1.358   2.838   2.883  0.5465 -0.5046  0.4814
 5539SOL     OW28078   0.024   2.842  14.852  0.0263  0.4029  0.1794
 5539SOL    HW128079   4.714   2.886  14.932 -1.1999  2.1676 -1.2536
 5539SOL    HW228080   4.693   2.761  14.858  1.3647 -0.5739 -1.4954
 5540SOL     OW28081   0.485   1.114   4.813 -0.0629  0.2236 -0.0010
 5540SOL    HW128082   0.508   1.091   4.723 -0.5086  1.6792 -0.4901
 5540SOL    HW228083   0.479   1.208   4.796  1.5277 -0.3669 -3.8537
 5541SOL     OW28084   3.532   3.032   2.158  0.3857 -0.6419 -0.3600
 5541SOL    HW128085   3.567   3.116   2.185 -2.6775  1.2999 -2.3714
 5541SOL    HW228086   3.443   3.036   2.194  0.6668 -2.1976  0.5177
 5542SOL     OW28087   3.820   2.119   2.969  0.5880 -0.1037 -0.0106
 5542SOL    HW128088   3.789   2.183   3.032  0.1582 -0.5899  0.2682
 5542SOL    HW228089   3.906   2.098   3.005  0.9181 -1.3704 -1.5313
 5543SOL     OW28090   1.405   0.431   7.385  0.1679  0.0585 -0.2608
 5543SOL    HW128091   1.457   0.374   7.328 -2.3682  0.4808 -2.9989
 5543SOL    HW228092   1.315   0.405   7.365 -0.0902  0.0598  0.9114
 5544SOL     OW28093   3.601   2.320   8.158 -0.2288 -0.2821  0.2525
 5544SOL    HW128094   3.588   2.261   8.233 -3.9604 -2.5972 -2.2490
 5544SOL    HW228095   3.654   2.387   8.200 -0.3086 -0.8462  1.2679
 5545SOL     OW28096   1.947   3.009   3.913  0.0433  0.0509  0.4786
 5545SOL    HW128097   2.040   2.985   3.911 -0.0482 -0.3290  0.6571
 5545SOL    HW228098   1.958   3.098   3.945 -0.0951  0.4529 -0.5929
 5546SOL     OW28099   1.364   3.083   8.215  0.2475 -0.0446 -0.3474
 5546SOL    HW128100   1.360   2.987   8.216 -0.2710 -0.0225 -0.0967
 5546SOL    HW228101   1.441   3.107   8.267 -1.4109  1.0602  1.5663
 5547SOL     OW28102   2.900   2.301   0.088  0.6842  0.0207  0.2379
 5547SOL    HW128103   2.916   2.241   0.160 -1.8221 -0.8317  0.0743
 5547SOL    HW228104   2.942   2.383   0.116 -0.2157 -0.4973  3.1025
 5548SOL     OW28105   3.737   3.876  11.515 -0.0722  0.5089 -0.1118
 5548SOL    HW128106   3.755   3.785  11.492 -0.5939  0.3376  0.1549
 5548SOL    HW228107   3.641   3.875  11.510 -0.0679 -0.3496 -0.0292
 5549SOL     OW28108   4.628   3.210   9.058  0.4884  0.7013 -0.3096
 5549SOL    HW128109   4.534   3.209   9.043  0.5848 -0.2606 -0.8788
 5549SOL    HW228110   4.642   3.117   9.038  0.5408  0.0814  2.6202
 5550SOL     OW28111   3.607   3.971   7.711  0.2992 -1.1271  0.4559
 5550SOL    HW128112   3.529   4.023   7.689  1.5639  0.5228 -0.1678
 5550SOL    HW228113   3.623   3.925   7.629 -0.2050 -1.4033  0.5151
 5551SOL     OW28114   3.180   2.828   1.505 -1.2542 -0.1699  0.3609
 5551SOL    HW128115   3.157   2.804   1.594 -2.4393  1.7679  0.5674
 5551SOL    HW228116   3.101   2.874   1.477 -1.6948 -0.1869  1.5802
 5552SOL     OW28117   2.040   4.554   3.746 -0.1540 -0.2766  0.5168
 5552SOL    HW128118   1.972   4.553   3.814  0.6375  0.0849  1.2984
 5552SOL    HW228119   2.076   4.467   3.763 -1.2266 -0.3737  2.4053
 5553SOL     OW28120   2.875   2.853   0.337 -0.3345  0.1296 -0.0374
 5553SOL    HW128121   2.890   2.812   0.252 -1.6376 -1.2953  0.4081
 5553SOL    HW228122   2.866   2.781   0.400 -2.1248  1.0730  0.7956
 5554SOL     OW28123   4.173   2.146   8.835  0.5614 -0.0968 -0.1004
 5554SOL    HW128124   4.174   2.077   8.901 -2.3865 -1.1004 -1.0818
 5554SOL    HW228125   4.165   2.085   8.762  2.6501 -1.3141  0.7032
 5555SOL     OW28126   2.559   1.146   2.823  0.5818  0.0988 -0.0530
 5555SOL    HW128127   2.522   1.130   2.910  1.1341 -0.0596  0.1478
 5555SOL    HW228128   2.562   1.241   2.814  0.5602  0.3918  2.8576
 5556SOL     OW28129   2.954   2.483   2.164  0.1853 -0.7507  0.2858
 5556SOL    HW128130   3.042   2.457   2.193  0.0605  1.8694  3.0093
 5556SOL    HW228131   2.920   2.516   2.247 -0.0740  0.7298 -0.3927
 5557SOL     OW28132   4.474   1.970   2.337 -0.2151  0.1894  0.2513
 5557SOL    HW128133   4.473   1.920   2.255  2.0657 -0.3276  0.5382
 5557SOL    HW228134   4.398   2.027   2.326 -0.1109  0.3209  0.2178
 5558SOL     OW28135   1.869   0.336   9.718 -0.5480 -0.0023 -0.8324
 5558SOL    HW128136   1.940   0.338   9.653 -0.3698 -0.6282 -0.6593
 5558SOL    HW228137   1.908   0.266   9.771 -0.4496  0.5078 -0.2223
 5559SOL     OW28138   0.096   2.030   8.099 -0.1801  0.1463 -0.0981
 5559SOL    HW128139   0.139   2.115   8.098  0.0701  0.0299  0.3377
 5559SOL    HW228140   0.011   2.064   8.125  0.6930 -0.4352  3.5083
 5560SOL     OW28141   1.230   4.541  16.053 -0.2060 -0.0194  0.4525
 5560SOL    HW128142   1.254   4.580  15.969  0.3491 -1.0222  0.1484
 5560SOL    HW228143   1.296   4.473  16.063 -0.1746  0.2561  2.1202
 5561SOL     OW28144   1.409   3.765   3.458 -0.3690  0.1762  0.8569
 5561SOL    HW128145   1.486   3.721   3.422  0.1667  0.1696  1.9927
 5561SOL    HW228146   1.344   3.695   3.453 -1.0520  0.8055  0.9478
 5562SOL     OW28147   3.299   2.477  11.855  0.8574 -0.0601 -0.1819
 5562SOL    HW128148   3.208   2.474  11.824  1.0537  0.1718 -0.7795
 5562SOL    HW228149   3.294   2.558  11.906  1.1806 -0.5324  0.5906
 5563SOL     OW28150   0.209   0.190  11.091 -0.5790 -0.4953  0.6017
 5563SOL    HW128151   0.146   0.122  11.067  1.0219 -1.2285 -1.5264
 5563SOL    HW228152   0.170   0.204  11.177  0.0359 -0.8596  0.9414
 5564SOL     OW28153   0.657   0.775   4.042 -0.1476  0.2971 -0.0925
 5564SOL    HW128154   0.623   0.688   4.063  0.7485 -0.5407 -2.0568
 5564SOL    HW228155   0.587   0.819   3.994  1.0859  1.3664 -0.9321
 5565SOL     OW28156   3.210   3.866  11.261 -0.4895 -0.1029 -0.4352
 5565SOL    HW128157   3.155   3.878  11.338 -1.4174 -0.3401 -1.0610
 5565SOL    HW228158   3.156   3.911  11.196 -0.9451  0.2551  0.1987
 5566SOL     OW28159   1.039   3.818   3.988 -0.0848  0.7528  0.4659
 5566SOL    HW128160   1.110   3.756   4.006  0.2124  1.2766  1.0964
 5566SOL    HW228161   0.997   3.812   4.073 -2.9946 -1.9728 -1.2045
 5567SOL     OW28162   2.187   2.457   8.093  0.0879 -0.2459 -0.6325
 5567SOL    HW128163   2.231   2.469   8.009  0.1368  1.3744 -0.3775
 5567SOL    HW228164   2.121   2.524   8.078  0.4534  0.6453  1.7703
 5568SOL     OW28165   3.738   3.323   6.132  0.7446  0.0645  0.2620
 5568SOL    HW128166   3.752   3.417   6.145 -2.5326  0.8217 -1.7399
 5568SOL    HW228167   3.789   3.288   6.205 -0.3324 -1.0639  0.4724
 5569SOL     OW28168   1.999   1.964   1.715  0.2213  0.2247 -0.3399
 5569SOL    HW128169   2.081   1.979   1.762 -0.8585  0.2904  1.5420
 5569SOL    HW228170   2.022   1.970   1.623 -0.2137  1.2374 -0.3739
 5570SOL     OW28171   0.095   3.477   3.158 -0.2465 -0.1315  0.4677
 5570SOL    HW128172   0.059   3.398   3.199 -2.7420  0.8297  0.1194
 5570SOL    HW228173   0.011   3.501   3.121  0.9130 -0.5492 -2.4300
 5571SOL     OW28174   3.082   4.099  10.299  0.2388  0.0845 -0.1460
 5571SOL    HW128175   3.046   4.182  10.332 -1.4418  0.3688 -2.7027
 5571SOL    HW228176   3.171   4.123  10.277  0.5439  1.4930  2.5707
 5572SOL     OW28177   3.034   2.237   4.701 -0.2352  0.4368 -0.0932
 5572SOL    HW128178   2.951   2.205   4.666  0.6961 -1.3845 -0.6174
 5572SOL    HW228179   3.055   2.277   4.616 -4.2041  0.7960 -0.8757
 5573SOL     OW28180   3.405   4.441   5.372 -0.2507  0.1585  0.4446
 5573SOL    HW128181   3.426   4.356   5.333 -1.8304 -0.9234  1.9237
 5573SOL    HW228182   3.317   4.443   5.334  0.2725  2.1535 -0.6448
 5574SOL     OW28183   4.046   1.617   7.969  0.0655 -0.5459  0.0086
 5574SOL    HW128184   4.085   1.582   7.889 -0.5057 -3.9519  1.2259
 5574SOL    HW228185   4.106   1.689   7.987  1.9071 -1.4908 -2.3732
 5575SOL     OW28186   3.715   1.158   2.442  1.0985  0.4842  0.0547
 5575SOL    HW128187   3.759   1.073   2.441  1.2579  0.5819 -0.6660
 5575SOL    HW228188   3.788   1.221   2.438  0.6697  0.8505 -1.9491
 5576SOL     OW28189   0.007   0.206  14.427 -0.0530  0.7980 -0.1232
 5576SOL    HW128190   0.093   0.171  14.405  0.0082  0.0221  1.3381
 5576SOL    HW228191   0.003   0.179  14.519  1.8152 -0.5508 -0.4505
 5577SOL     OW28192   4.699   4.661   4.668 -0.3561 -0.1448 -0.0297
 5577SOL    HW128193   4.668   4.573   4.687 -0.8219  0.0932  0.2902
 5577SOL    HW228194   4.651   4.710   4.735  1.0312 -0.0803  0.9237
 5578SOL     OW28195   1.919   2.383   2.083 -0.3662  0.1659 -0.1367
 5578SOL    HW128196   1.920   2.465   2.034  1.8831  0.7294  0.8370
 5578SOL    HW228197   1.826   2.360   2.089 -0.1595 -0.3049  1.4228
 5579SOL     OW28198   0.366   3.262  16.484 -0.5894 -0.6749 -0.3374
 5579SOL    HW128199   0.460   3.275  16.493 -0.7106  0.2524 -0.4453
 5579SOL    HW228200   0.344   3.344  16.439 -0.9010 -1.3633 -1.4499
 5580SOL     OW28201   4.707   2.334   3.649  0.0059  1.1167  0.0887
 5580SOL    HW128202   0.021   2.247   3.624 -1.1037  0.6241  0.3070
 5580SOL    HW228203   4.623   2.334   3.604 -1.1233 -3.4848  2.1554
 5581SOL     OW28204   1.355   4.463   8.446  0.3306 -0.1622 -0.2527
 5581SOL    HW128205   1.378   4.445   8.355  1.5504  3.1296 -0.6105
 5581SOL    HW228206   1.348   4.372   8.475 -1.0208 -0.1814 -0.6239
 5582SOL     OW28207   0.277   2.130   7.141 -0.2277 -0.4888 -0.0807
 5582SOL    HW128208   0.204   2.171   7.187 -0.0830 -0.4634  0.1242
 5582SOL    HW228209   0.291   2.194   7.071 -0.4616  1.7490  1.9317
 5583SOL     OW28210   3.542   4.703   2.446 -0.0022  0.5786 -0.0773
 5583SOL    HW128211   3.573   0.067   2.480  0.0572  0.5900 -0.1594
 5583SOL    HW228212   3.466   4.675   2.497  0.5412  2.3956  1.7099
 5584SOL     OW28213   2.927   1.948  11.192 -0.0227 -0.1014  0.1503
 5584SOL    HW128214   2.838   1.969  11.163  0.3608 -0.8016 -1.5376
 5584SOL    HW228215   2.961   2.026  11.236  0.6473 -1.7064  2.4900
 5585SOL     OW28216   0.120   0.234  12.137 -0.1253 -0.1347  0.5199
 5585SOL    HW128217   0.098   0.206  12.226 -0.5681 -1.0524  0.1202
 5585SOL    HW228218   0.214   0.220  12.128  0.2726  1.4085  2.3428
 5586SOL     OW28219   0.064   2.229   9.430  0.4035 -0.0848 -0.5827
 5586SOL    HW128220   4.718   2.159   9.426  1.3923 -1.0778  0.7581
 5586SOL    HW228221   0.144   2.177   9.429  0.7486  0.3992  1.3550
 5587SOL     OW28222   2.540   1.595   7.534  0.0399 -0.3498  0.2287
 5587SOL    HW128223   2.520   1.662   7.470 -0.5523 -0.4459  0.3177
 5587SOL    HW228224   2.584   1.527   7.483  1.3392 -0.3973  1.3930
 5588SOL     OW28225   1.998   2.487   2.591  0.1956 -0.1243 -0.5172
 5588SOL    HW128226   2.030   2.566   2.634 -0.5234 -0.3673  0.4557
 5588SOL    HW228227   1.912   2.468   2.627  1.5573 -1.8986  1.7786
 5589SOL     OW28228   0.601   2.398  14.837  0.0087  0.2227 -0.5134
 5589SOL    HW128229   0.660   2.329  14.867 -0.7684  0.1126  0.7303
 5589SOL    HW228230   0.535   2.398  14.907 -0.4090  1.7229 -0.8983
 5590SOL     OW28231   1.524   2.858   7.988  0.1925  0.0834  0.4743
 5590SOL    HW128232   1.492   2.801   8.058  2.6773 -1.3113  0.4895
 5590SOL    HW228233   1.601   2.899   8.029  1.1817 -0.3889 -0.9312
 5591SOL     OW28234   2.919   4.123  12.742 -0.3967  0.1166 -0.3293
 5591SOL    HW128235   2.843   4.073  12.771 -0.4273  0.1045 -0.4338
 5591SOL    HW228236   2.981   4.110  12.814 -1.7900 -2.3314  0.4325
 5592SOL     OW28237   2.203   4.472   7.545  0.2596  0.1370  0.4631
 5592SOL    HW128238   2.181   4.386   7.580  0.5697  0.6427  1.8922
 5592SOL    HW228239   2.160   4.534   7.603 -1.7453 -0.7533 -0.0787
 5593SOL     OW28240   1.663   1.218   7.549 -0.2622  0.1051  0.9913
 5593SOL    HW128241   1.700   1.304   7.534  1.0472 -0.4835  0.8463
 5593SOL    HW228242   1.709   1.185   7.626 -0.9221 -0.3130  1.2065
 5594SOL     OW28243   0.007   2.392   2.415 -0.1107  0.2528 -0.3070
 5594SOL    HW128244   0.065   2.370   2.488  1.5889 -0.1918 -1.7716
 5594SOL    HW228245   4.674   2.313   2.402  0.6688 -0.6531  2.0230
 5595SOL     OW28246   3.137   3.071   9.643 -0.0633 -0.2211 -0.1702
 5595SOL    HW128247   3.169   3.051   9.555 -1.5473  0.5460 -0.8775
 5595SOL    HW228248   3.105   2.986   9.671  0.2590  0.8949  3.6631
 5596SOL     OW28249   1.216   0.401  15.008  0.1390  0.2044  0.0062
 5596SOL    HW128250   1.247   0.312  14.997  1.1701  0.6231 -0.4222
 5596SOL    HW228251   1.144   0.394  14.945 -0.0852 -4.6167  0.7838
 5597SOL     OW28252   2.336   1.843   4.784  0.3351 -0.0150  0.1600
 5597SOL    HW128253   2.384   1.800   4.855 -0.9596 -1.9011 -0.1096
 5597SOL    HW228254   2.316   1.773   4.722 -2.0250  0.5663  0.2653
 5598SOL     OW28255   0.705   4.152   3.620 -0.0499  0.2546 -0.2231
 5598SOL    HW128256   0.740   4.125   3.535 -0.6397 -0.6262 -0.1950
 5598SOL    HW228257   0.752   4.092   3.679 -0.3559 -0.4082 -0.6554
 5599SOL     OW28258   1.155   4.289  15.881  0.0051 -0.4114 -0.1483
 5599SOL    HW128259   1.203   4.333  15.951 -0.0565 -2.2367  1.0489
 5599SOL    HW228260   1.102   4.358  15.842  0.8798 -0.3390 -1.2127
 5600SOL     OW28261   0.744   3.877  10.528 -0.1284 -0.1785 -0.2558
 5600SOL    HW128262   0.765   3.870  10.621  1.2931  0.3229 -0.5333
 5600SOL    HW228263   0.796   3.952  10.499  0.5679 -0.6658 -0.2839
 5601SOL     OW28264   2.615   3.012   3.536 -0.5352  0.4393  0.2496
 5601SOL    HW128265   2.599   3.007   3.442  2.3533  1.3011 -0.2916
 5601SOL    HW228266   2.630   2.919   3.554  0.9121  0.7306  0.5729
 5602SOL     OW28267   0.738   1.868   7.411  0.5627  0.2629  0.1107
 5602SOL    HW128268   0.701   1.928   7.477 -2.5328 -2.6739  1.0357
 5602SOL    HW228269   0.749   1.792   7.469 -0.4052 -0.7797 -1.0802
 5603SOL     OW28270   2.042   2.919  16.256  0.0333  0.1554  0.5074
 5603SOL    HW128271   2.061   2.857  16.326 -0.3978  0.0118  0.4957
 5603SOL    HW228272   2.111   2.983  16.272  0.8858 -0.5258 -0.4434
 5604SOL     OW28273   3.783   4.370   3.302 -0.4394  0.2821  0.3427
 5604SOL    HW128274   3.716   4.326   3.354 -0.8668  1.2289  0.5865
 5604SOL    HW228275   3.858   4.312   3.314  1.0730  1.6112 -2.6676
 5605SOL     OW28276   2.062   4.544   4.953 -0.5168 -0.1302 -0.2326
 5605SOL    HW128277   1.977   4.504   4.969 -1.8579  1.9597 -2.0626
 5605SOL    HW228278   2.058   4.538   4.857 -0.8469 -1.0581 -0.1621
 5606SOL     OW28279   2.113   2.555   5.247  0.7178  0.0478 -0.3852
 5606SOL    HW128280   2.080   2.465   5.241  0.7243  0.0585 -0.5930
 5606SOL    HW228281   2.060   2.574   5.170  0.8917  2.7634  0.1654
 5607SOL     OW28282   1.112   0.717   3.776 -0.2099 -0.0310 -0.1639
 5607SOL    HW128283   1.132   0.739   3.685 -1.5351 -0.2142 -0.4963
 5607SOL    HW228284   1.020   0.694   3.770 -0.3263  0.0830  1.1234
 5608SOL     OW28285   4.550   0.417   4.997 -0.2672 -0.0735 -0.4222
 5608SOL    HW128286   4.577   0.508   5.009 -1.3188  0.2578 -0.5174
 5608SOL    HW228287   4.502   0.426   4.915 -0.1847 -0.4789 -0.5156
 5609SOL     OW28288   3.635   1.622   2.255  0.2253 -0.4316  0.3881
 5609SOL    HW128289   3.621   1.627   2.160 -0.8050 -1.1167  0.4964
 5609SOL    HW228290   3.729   1.631   2.266  0.2185 -1.6828  1.4606
 5610SOL     OW28291   3.754   1.154   5.733 -0.5348 -0.3415 -0.4110
 5610SOL    HW128292   3.811   1.228   5.711 -2.6007  0.8303 -1.8655
 5610SOL    HW228293   3.781   1.085   5.673  0.3341 -0.2205 -0.1596
 5611SOL     OW28294   1.459   1.275  16.972 -0.3227 -0.3027  0.7313
 5611SOL    HW128295   1.518   1.340  17.012 -1.2521  0.1183  1.4084
 5611SOL    HW228296   1.524   1.220  16.928  0.0781  0.5057  0.2984
 5612SOL     OW28297   4.002   1.576   2.532 -0.2172 -0.0059  0.6451
 5612SOL    HW128298   4.053   1.573   2.613 -1.8012 -1.6711  1.5936
 5612SOL    HW228299   3.957   1.660   2.538 -0.2138 -0.0419  1.2348
 5613SOL     OW28300   1.546   3.365   3.132  0.2290 -0.3810 -0.6451
 5613SOL    HW128301   1.548   3.344   3.039  1.5794  0.3013 -0.7734
 5613SOL    HW228302   1.543   3.460   3.118  0.4334 -0.2840 -0.0715
 5614SOL     OW28303   3.320   2.676   9.783 -0.1347  0.0231  0.0516
 5614SOL    HW128304   3.354   2.667   9.694  2.5599  1.0537  0.9689
 5614SOL    HW228305   3.343   2.593   9.824 -0.3319  0.3610  0.8351
 5615SOL     OW28306   4.470   2.124   5.684 -0.6480 -0.7008 -0.5568
 5615SOL    HW128307   4.382   2.090   5.704  0.2523 -1.0377  2.8716
 5615SOL    HW228308   4.467   2.124   5.588  0.8097 -1.4102 -0.5969
 5616SOL     OW28309   1.807   3.733   3.698  0.4755 -0.1635 -0.6566
 5616SOL    HW128310   1.863   3.693   3.632 -0.0324 -0.9331 -0.6225
 5616SOL    HW228311   1.789   3.814   3.651 -0.9094  0.7272  1.4250
 5617SOL     OW28312   4.635   4.113   7.896 -0.0465  0.0666  0.4354
 5617SOL    HW128313   4.586   4.151   7.823  0.1934 -1.0568 -0.3061
 5617SOL    HW228314   4.655   4.028   7.858 -1.5195 -0.5981  1.1408
 5618SOL     OW28315   1.206   2.629   2.584 -0.1666 -0.6473 -0.2206
 5618SOL    HW128316   1.160   2.697   2.633  1.7911  1.0630 -0.7430
 5618SOL    HW228317   1.274   2.678   2.537 -1.6269 -0.6500 -2.3444
 5619SOL     OW28318   3.750   0.645   6.417 -0.5166 -1.1254 -0.1818
 5619SOL    HW128319   3.787   0.616   6.333  0.4572 -1.8086  0.4837
 5619SOL    HW228320   3.716   0.734   6.404  1.1017 -0.6983 -1.5505
 5620SOL     OW28321   2.465   2.895   7.517  0.1351  0.0901  0.0178
 5620SOL    HW128322   2.485   2.849   7.435  0.6212 -1.9763  1.2848
 5620SOL    HW228323   2.450   2.819   7.573  1.8438 -1.2167 -1.3067
 5621SOL     OW28324   2.375   1.242   3.653 -0.0947 -0.1954 -0.6576
 5621SOL    HW128325   2.462   1.204   3.662 -0.0526  0.5393  1.9920
 5621SOL    HW228326   2.401   1.332   3.631  0.1607 -0.6900 -2.4167
 5622SOL     OW28327   2.580   0.757   4.300 -0.0151 -0.2792 -0.1578
 5622SOL    HW128328   2.499   0.796   4.333  0.1705 -1.3217  1.4810
 5622SOL    HW228329   2.601   0.707   4.379  1.0681  0.4715  0.0463
 5623SOL     OW28330   4.099   1.071   7.133  0.0581  0.0431  1.0177
 5623SOL    HW128331   4.054   1.134   7.077  0.7501 -0.7573 -0.4393
 5623SOL    HW228332   4.192   1.086   7.114 -0.0031  0.7427  1.2545
 5624SOL     OW28333   4.365   1.128   7.046  0.3033  0.2619  0.5083
 5624SOL    HW128334   4.373   1.090   6.958 -0.2104  0.4966  0.3610
 5624SOL    HW228335   4.448   1.175   7.057 -0.3794  1.5424  0.2411
 5625SOL     OW28336   0.040   3.021   4.715 -0.1257 -0.3071  0.0742
 5625SOL    HW128337   0.100   3.092   4.693  0.4818 -0.3908  1.3878
 5625SOL    HW228338   0.099   2.947   4.699  1.6084  1.1227 -0.1318
 5626SOL     OW28339   1.613   2.224   3.380  0.2208 -0.1902  0.0867
 5626SOL    HW128340   1.557   2.279   3.325 -1.9835 -0.8330  1.7128
 5626SOL    HW228341   1.692   2.205   3.329  1.4819  2.1762  1.1470
 5627SOL     OW28342   1.254   3.490  11.878 -0.0777  0.1374  0.4960
 5627SOL    HW128343   1.296   3.472  11.794 -0.7090 -0.4432  0.2980
 5627SOL    HW228344   1.166   3.453  11.867 -0.2820  1.8401 -3.5133
 5628SOL     OW28345   2.703   3.892  10.121  0.0357  0.1827 -0.6232
 5628SOL    HW128346   2.655   3.844  10.188 -0.6166  0.8608 -0.6205
 5628SOL    HW228347   2.634   3.954  10.101 -0.5663 -0.1266  0.5155
 5629SOL     OW28348   0.477   4.214   4.989  0.5466 -0.5974 -0.2029
 5629SOL    HW128349   0.441   4.248   4.907  1.0017  0.0413 -0.1422
 5629SOL    HW228350   0.572   4.212   4.976  0.6690 -0.3855  0.6450
 5630SOL     OW28351   3.409   2.532   5.419  0.2246  0.7176  0.1106
 5630SOL    HW128352   3.481   2.587   5.389  2.1893 -2.8479 -1.6820
 5630SOL    HW228353   3.358   2.531   5.339  0.0187 -0.4014  0.2649
 5631SOL     OW28354   2.780   2.488  16.213 -0.4073  0.3465  0.2880
 5631SOL    HW128355   2.792   2.569  16.162 -1.3333 -0.5796 -1.3998
 5631SOL    HW228356   2.870   2.460  16.197 -0.0447  0.9766  1.2138
 5632SOL     OW28357   2.104   1.958   4.661 -0.6348  0.0002  0.2400
 5632SOL    HW128358   2.047   1.936   4.587 -0.5545 -2.1672  0.8220
 5632SOL    HW228359   2.174   1.892   4.665  0.5181  1.1819 -0.3208
 5633SOL     OW28360   4.214   4.276   8.108  0.1814  0.1739 -0.1982
 5633SOL    HW128361   4.199   4.202   8.167  0.8691  0.9507  0.9462
 5633SOL    HW228362   4.188   4.246   8.021  2.5440 -2.2265 -0.0853
 5634SOL     OW28363   3.944   2.148   3.492  0.0099  0.0374  0.2008
 5634SOL    HW128364   3.974   2.204   3.420  0.3463 -0.3113  0.0703
 5634SOL    HW228365   3.876   2.090   3.457 -0.9306  1.1096  0.2421
 5635SOL     OW28366   3.431   4.317  14.600 -0.0294  0.0573 -0.5361
 5635SOL    HW128367   3.424   4.231  14.560 -0.7326  0.5314 -1.4044
 5635SOL    HW228368   3.370   4.363  14.543 -0.6907  0.2485  0.3316
 5636SOL     OW28369   0.761   3.113   0.800  0.2036  0.4223 -0.2152
 5636SOL    HW128370   0.794   3.152   0.719  0.4667 -1.1834 -0.8773
 5636SOL    HW228371   0.733   3.025   0.778 -3.4005  1.6112 -0.3847
 5637SOL     OW28372   2.074   0.071  13.583 -0.1965 -0.4749  1.1365
 5637SOL    HW128373   2.129   0.149  13.590 -0.8030  0.1814 -1.3220
 5637SOL    HW228374   2.097   0.046  13.494 -1.0403 -0.1213  0.8190
 5638SOL     OW28375   3.623   2.006   8.732  0.0313 -0.2165  0.1312
 5638SOL    HW128376   3.560   2.069   8.698 -1.2160 -0.9083  1.1864
 5638SOL    HW228377   3.564   1.942   8.772  0.6636 -1.4975 -0.9679
 5639SOL     OW28378   4.355   4.184   7.167 -0.3000  0.0498 -0.0519
 5639SOL    HW128379   4.427   4.144   7.119 -1.6723 -0.3523 -1.7696
 5639SOL    HW228380   4.271   4.156   7.128 -0.1352 -1.4008  0.6378
 5640SOL     OW28381   2.845   2.429  16.488  0.2156  0.1385 -0.9281
 5640SOL    HW128382   2.796   2.493  16.540 -1.2388 -0.4634 -1.5585
 5640SOL    HW228383   2.828   2.464  16.401  0.1466  1.2538 -0.4637
 5641SOL     OW28384   3.137   0.092   6.696  0.1972 -0.0445  0.5961
 5641SOL    HW128385   3.175   0.134   6.773  0.2288  0.7372  0.1547
 5641SOL    HW228386   3.117   0.002   6.723  0.0656 -0.1576  0.1197
 5642SOL     OW28387   1.071   2.553   8.616  0.1932 -0.7966  0.1777
 5642SOL    HW128388   1.053   2.484   8.680  0.6496  0.4738  1.6740
 5642SOL    HW228389   1.166   2.559   8.605  0.3221  0.6666  2.0234
 5643SOL     OW28390   2.213   1.830   7.643  0.5509  0.4192 -0.1070
 5643SOL    HW128391   2.168   1.767   7.586 -0.7639  3.4710 -2.4359
 5643SOL    HW228392   2.218   1.804   7.735 -1.5348 -0.0257 -0.1124
 5644SOL     OW28393   3.387   2.194   8.657 -0.2044 -0.0014 -0.1048
 5644SOL    HW128394   3.354   2.277   8.691 -1.0261 -0.5503  0.4447
 5644SOL    HW228395   3.384   2.211   8.563 -3.7631 -0.8529 -0.1329
 5645SOL     OW28396   3.137   4.647   2.032  0.1040  0.7035 -0.3974
 5645SOL    HW128397   3.163   4.638   2.124  1.7471  0.1096 -0.9210
 5645SOL    HW228398   3.224   4.639   1.994 -0.1619  0.2302 -0.8960
 5646SOL     OW28399   4.111   4.580  12.870  0.1577 -0.4375 -0.2597
 5646SOL    HW128400   4.204   4.595  12.851  0.6447 -0.9670  1.6984
 5646SOL    HW228401   4.118   4.567  12.965  0.4296 -0.6908 -0.3135
 5647SOL     OW28402   0.339   0.297   9.632 -0.0468 -0.0743 -0.0849
 5647SOL    HW128403   0.293   0.348   9.564  1.7624  1.2021 -0.3592
 5647SOL    HW228404   0.302   0.211   9.612 -0.7976  0.1425  0.3711
 5648SOL     OW28405   0.343   3.924   6.310 -0.5519 -0.1006 -0.1661
 5648SOL    HW128406   0.433   3.955   6.326 -0.6044  0.2798 -0.6110
 5648SOL    HW228407   0.367   3.843   6.265 -0.2791 -0.4830  0.6516
 5649SOL     OW28408   4.270   0.504   6.111 -0.1147 -0.1397  0.1780
 5649SOL    HW128409   4.339   0.570   6.102 -1.5438  1.3490 -0.0434
 5649SOL    HW228410   4.322   0.431   6.079 -1.2189 -0.4121 -0.9874
 5650SOL     OW28411   2.499   2.222   6.134  0.0092 -0.1346 -0.3179
 5650SOL    HW128412   2.420   2.265   6.101 -0.9834 -1.4481  0.3554
 5650SOL    HW228413   2.470   2.133   6.151 -0.6149  0.6041  2.5930
 5651SOL     OW28414   3.035   2.413   2.589  0.7220  0.2753 -0.4207
 5651SOL    HW128415   2.994   2.350   2.529  0.7985 -0.3307  0.1547
 5651SOL    HW228416   3.071   2.344   2.645  0.9685  2.3284  1.9678
 5652SOL     OW28417   3.901   1.213  14.200 -0.2317  0.4215  0.1275
 5652SOL    HW128418   3.902   1.118  14.207 -0.9758  0.3109 -1.3029
 5652SOL    HW228419   3.982   1.237  14.246  0.7624  0.1663 -1.4605
 5653SOL     OW28420   0.599   3.338  13.734  0.2066 -0.3975 -0.1252
 5653SOL    HW128421   0.541   3.402  13.775 -0.4624 -1.8897  1.2557
 5653SOL    HW228422   0.625   3.384  13.654  0.6290 -0.8562 -0.2510
 5654SOL     OW28423   1.342   2.792   8.198  0.0062  0.4196  0.5092
 5654SOL    HW128424   1.252   2.771   8.223  0.2947  1.0520  2.0308
 5654SOL    HW228425   1.377   2.780   8.286 -0.7342  0.4346  0.8044
 5655SOL     OW28426   0.692   2.428   2.117  0.0296 -0.0784  0.1221
 5655SOL    HW128427   0.729   2.355   2.068  1.0344 -0.3014  1.2225
 5655SOL    HW228428   0.604   2.423   2.079  0.2306 -1.2686 -0.1757
 5656SOL     OW28429   3.525   2.053   3.592  0.0167 -0.1768  0.1848
 5656SOL    HW128430   3.596   2.044   3.527  0.0532 -1.6423  0.4137
 5656SOL    HW228431   3.451   2.027   3.537 -0.3259  0.2564  0.4507
 5657SOL     OW28432   4.564   1.503   5.060 -0.2771  0.0761 -0.0712
 5657SOL    HW128433   4.599   1.512   4.971  1.3252  0.2979  0.5746
 5657SOL    HW228434   4.610   1.578   5.098 -0.5486 -0.8026  2.0204
 5658SOL     OW28435   0.498   3.570   2.265 -0.3492 -0.6694 -0.4562
 5658SOL    HW128436   0.533   3.657   2.246 -2.5492  0.3459  0.1287
 5658SOL    HW228437   0.576   3.515   2.274 -1.3913 -1.7722  1.8906
 5659SOL     OW28438   3.272   2.091   4.721 -0.8020 -0.0952  0.1123
 5659SOL    HW128439   3.338   2.159   4.731 -1.3956  0.2662  1.5331
 5659SOL    HW228440   3.188   2.138   4.715 -0.2718  1.0193  1.3559
 5660SOL     OW28441   3.072   3.713   9.421 -0.1373 -0.2505 -0.4181
 5660SOL    HW128442   3.036   3.800   9.403 -1.8302 -0.9943 -0.5956
 5660SOL    HW228443   2.991   3.666   9.442 -0.5460  0.7975  0.3871
 5661SOL     OW28444   2.562   1.374  17.428  0.0416  0.3166 -0.0075
 5661SOL    HW128445   2.518   1.295  17.395 -1.5210  2.2289 -2.4807
 5661SOL    HW228446   2.655   1.352  17.431  0.5606  2.6095  0.8921
 5662SOL     OW28447   2.551   3.125   4.668  0.0430 -0.0038  0.4004
 5662SOL    HW128448   2.537   3.214   4.702  2.9980  0.3107  0.7706
 5662SOL    HW228449   2.461   3.092   4.671  0.1019 -0.2816 -0.7212
 5663SOL     OW28450   3.663   2.860   2.888  0.4058  0.0364 -0.2526
 5663SOL    HW128451   3.725   2.829   2.954 -0.7857 -1.3919  0.1816
 5663SOL    HW228452   3.583   2.811   2.905 -0.0235  1.4063  1.5587
 5664SOL     OW28453   0.548   1.381   4.708 -0.7152  0.1403 -0.4578
 5664SOL    HW128454   0.639   1.389   4.680 -0.1841 -0.3237  1.1449
 5664SOL    HW228455   0.502   1.385   4.624  0.4876 -1.5751 -1.2163
 5665SOL     OW28456   4.522   2.735  13.015  0.6588 -0.5243 -0.6876
 5665SOL    HW128457   4.594   2.672  13.011  1.4978  0.5223 -2.2057
 5665SOL    HW228458   4.563   2.816  12.982 -0.3069  1.5491  3.2440
 5666SOL     OW28459   3.698   0.171   5.659  0.0457  0.6048  0.1924
 5666SOL    HW128460   3.781   0.125   5.646  0.5756  1.1269  1.7698
 5666SOL    HW228461   3.642   0.094   5.670  1.4691 -0.2347  1.5352
 5667SOL     OW28462   1.311   1.698  17.079  0.1518  0.3828 -0.6727
 5667SOL    HW128463   1.267   1.739  17.153 -0.1877 -1.7742  0.3352
 5667SOL    HW228464   1.233   1.669  17.031 -0.2755  3.1040 -1.5829
 5668SOL     OW28465   0.624   0.250   3.332  0.0977  0.6045  0.3927
 5668SOL    HW128466   0.540   0.213   3.307  0.6091 -0.4088  0.1734
 5668SOL    HW228467   0.648   0.181   3.395  0.4917 -1.2173 -1.7407
 5669SOL     OW28468   2.557   0.035  12.322 -0.2601 -0.2459 -0.2516
 5669SOL    HW128469   2.594   0.116  12.288 -1.4152  1.2189  1.9894
 5669SOL    HW228470   2.622   0.018  12.390 -1.2348 -0.6454  0.5944
 5670SOL     OW28471   2.594   4.091   5.530 -0.0421  0.3818  0.2676
 5670SOL    HW128472   2.590   4.034   5.607 -1.0941  1.0048  0.6910
 5670SOL    HW228473   2.678   4.134   5.543  1.2091 -1.8108 -0.6692
 5671SOL     OW28474   0.973   0.848   6.385  0.4062  0.4094 -0.4485
 5671SOL    HW128475   0.989   0.863   6.292 -0.0157  0.5635 -0.4970
 5671SOL    HW228476   0.928   0.764   6.376  1.5682 -0.2078 -0.4623
 5672SOL     OW28477   1.629   0.973   7.204  0.1088 -0.0922 -0.0449
 5672SOL    HW128478   1.568   0.987   7.132 -0.5133 -0.9632  0.3114
 5672SOL    HW228479   1.689   0.904   7.174 -0.4843  0.2917 -2.1094
 5673SOL     OW28480   1.865   1.340   3.536 -0.4301  0.3709  0.9617
 5673SOL    HW128481   1.789   1.346   3.478 -1.2071 -1.8563  1.7731
 5673SOL    HW228482   1.827   1.338   3.624 -2.6863 -0.8599 -0.0459
 5674SOL     OW28483   0.359   3.305   5.607  0.8038  0.0184  0.3876
 5674SOL    HW128484   0.398   3.218   5.596 -0.7256 -0.7671  1.3605
 5674SOL    HW228485   0.291   3.293   5.672 -0.5032 -1.0565 -1.1663
 5675SOL     OW28486   0.922   2.883   1.450 -0.0818  0.1666 -0.5799
 5675SOL    HW128487   0.868   2.819   1.496  0.9656 -1.2444 -1.2932
 5675SOL    HW228488   0.945   2.824   1.378  0.2787  0.9915 -1.1405
 5676SOL     OW28489   4.180   0.706  15.172  0.8327  0.4097  0.0342
 5676SOL    HW128490   4.103   0.708  15.229  1.2823  0.8120  0.6253
 5676SOL    HW228491   4.198   0.798  15.152  1.0249  0.2267 -0.6482
 5677SOL     OW28492   0.560   1.340   4.046 -0.0114  0.5168 -0.2260
 5677SOL    HW128493   0.651   1.316   4.063  0.1562  0.5979 -0.9830
 5677SOL    HW228494   0.555   1.419   4.099  0.4371 -0.2024  0.8788
 5678SOL     OW28495   1.065   1.079   3.067 -0.0640  0.2727  0.3710
 5678SOL    HW128496   1.031   0.992   3.089 -1.7192  0.7048 -0.4246
 5678SOL    HW228497   1.033   1.081   2.976 -1.0178  0.2275  0.6990
 5679SOL     OW28498   2.533   1.510   8.487  0.2352  0.0808 -0.3556
 5679SOL    HW128499   2.554   1.416   8.482  1.7448  0.3262  1.5973
 5679SOL    HW228500   2.610   1.536   8.537 -0.1597 -0.5913  0.5980
 5680SOL     OW28501   1.055   2.716   8.028 -0.8972  0.1810 -0.1773
 5680SOL    HW128502   1.012   2.631   8.019  0.1745 -0.3893  0.1711
 5680SOL    HW228503   1.050   2.732   8.122 -1.6249 -0.5984 -0.0809
 5681SOL     OW28504   3.588   0.232   3.576  0.1424  0.4766  0.2165
 5681SOL    HW128505   3.666   0.286   3.559 -0.7985  2.6622  2.8155
 5681SOL    HW228506   3.513   0.277   3.539  0.7576 -0.2860 -1.9364
 5682SOL     OW28507   1.291   4.461   0.823  0.2871 -0.0056 -0.2481
 5682SOL    HW128508   1.347   4.387   0.801  0.7373  0.4015 -0.4553
 5682SOL    HW228509   1.284   4.497   0.735 -0.3950 -1.7708 -0.9265
 5683SOL     OW28510   2.959   4.309   1.245 -0.0542 -0.1006 -0.3198
 5683SOL    HW128511   3.017   4.368   1.294 -0.4368  0.3249 -0.3778
 5683SOL    HW228512   2.881   4.363   1.238 -0.1556 -0.0297  1.3471
 5684SOL     OW28513   2.825   0.650  11.775 -0.1369 -0.4397 -0.0597
 5684SOL    HW128514   2.794   0.691  11.694  1.0961  1.0875  0.2564
 5684SOL    HW228515   2.878   0.576  11.745  0.7772  0.3528 -0.3777
 5685SOL     OW28516   0.791   0.166   0.881 -0.0219 -0.0266 -0.1734
 5685SOL    HW128517   0.798   0.169   0.977 -0.5326  2.5674 -0.2021
 5685SOL    HW228518   0.800   0.071   0.874 -1.3557 -0.3298  2.1930
 5686SOL     OW28519   0.297   3.040   8.856  0.0435 -0.1311  0.1982
 5686SOL    HW128520   0.362   3.038   8.786 -0.2950 -2.5037 -0.0524
 5686SOL    HW228521   0.358   3.060   8.927 -1.5757  0.4873  1.4126
 5687SOL     OW28522   3.037   0.906   6.419 -0.1802  0.0276 -0.1218
 5687SOL    HW128523   3.087   0.870   6.492 -1.5451 -1.8371 -0.1035
 5687SOL    HW228524   3.100   0.887   6.349  1.0883 -1.0619  1.3154
 5688SOL     OW28525   4.712   3.983   2.219  0.5630 -0.3723  0.0962
 5688SOL    HW128526   4.689   3.959   2.309  2.8181 -0.7679  0.5687
 5688SOL    HW228527   0.082   3.953   2.205  0.8113 -1.1907  3.2809
 5689SOL     OW28528   2.925   2.881  11.184  0.0140  0.4590  0.1286
 5689SOL    HW128529   2.912   2.852  11.094 -2.5272 -0.9767  0.9523
 5689SOL    HW228530   2.916   2.799  11.233  0.4438 -0.0226 -0.6023
 5690SOL     OW28531   3.782   4.240   4.506 -0.1578 -0.1700  0.2776
 5690SOL    HW128532   3.823   4.297   4.571  1.2563  0.0915 -0.8481
 5690SOL    HW228533   3.748   4.170   4.562 -1.7797  0.3481 -0.0552
 5691SOL     OW28534   4.158   0.809   9.864 -0.1875 -0.2582  0.0244
 5691SOL    HW128535   4.233   0.818   9.923 -1.3164 -1.0386  1.5748
 5691SOL    HW228536   4.086   0.784   9.922 -0.2137 -0.1719  0.0301
 5692SOL     OW28537   1.275   2.120   1.439  0.6087 -0.2221 -0.7507
 5692SOL    HW128538   1.306   2.088   1.524 -2.5765  1.8609  1.2190
 5692SOL    HW228539   1.341   2.185   1.414 -0.6934  0.9540 -1.1656
 5693SOL     OW28540   2.718   3.256   2.265  0.1681  0.0460 -0.3047
 5693SOL    HW128541   2.702   3.284   2.175 -0.5669 -0.7014 -0.4041
 5693SOL    HW228542   2.701   3.329   2.325 -1.7335 -0.1249 -0.6428
 5694SOL     OW28543   4.495   2.160   4.483  0.1305  0.9709  0.5128
 5694SOL    HW128544   4.574   2.213   4.492 -0.2692  1.9859 -1.8236
 5694SOL    HW228545   4.543   2.082   4.455 -1.1342  0.9578 -1.6153
 5695SOL     OW28546   1.633   1.120  16.832  0.2391 -0.6209  0.0124
 5695SOL    HW128547   1.706   1.094  16.888  0.1314  1.0101  0.8872
 5695SOL    HW228548   1.630   1.041  16.778  1.3021  0.2672 -1.3292
 5696SOL     OW28549   0.345   4.701   7.923 -0.3670 -0.0075  0.1810
 5696SOL    HW128550   0.404   0.006   7.852  0.8723  1.0522  1.5818
 5696SOL    HW228551   0.393   4.623   7.950 -2.4475 -1.1912  0.4656
 5697SOL     OW28552   3.413   1.412  11.465  0.2696  0.5629 -0.6098
 5697SOL    HW128553   3.412   1.419  11.369 -0.2826 -0.8411 -0.7008
 5697SOL    HW228554   3.481   1.477  11.484 -1.5699  1.8279  1.5706
 5698SOL     OW28555   3.191   0.333  13.978  0.3614  0.3589 -0.8182
 5698SOL    HW128556   3.262   0.305  14.037 -0.9514  1.7421  1.4107
 5698SOL    HW228557   3.192   0.425  14.004 -1.5709 -0.5738  2.4799
 5699SOL     OW28558   0.693   1.475   2.594  0.3027  0.1005 -0.1101
 5699SOL    HW128559   0.744   1.545   2.636  0.3105  0.4776 -0.7410
 5699SOL    HW228560   0.642   1.533   2.537 -1.4910 -2.3128 -0.9220
 5700SOL     OW28561   2.560   1.628   1.770 -0.8266  0.4366  0.0123
 5700SOL    HW128562   2.647   1.588   1.775 -2.9627 -4.5160 -2.5576
 5700SOL    HW228563   2.533   1.606   1.860 -1.6215  1.2177 -0.0299
 5701SOL     OW28564   0.689   4.393   5.287 -0.2716  0.4779 -0.3101
 5701SOL    HW128565   0.780   4.418   5.304  0.7461 -2.4084 -1.4485
 5701SOL    HW228566   0.660   4.471   5.239 -1.2207  1.6152  2.1265
 5702SOL     OW28567   3.727   0.530   5.716 -0.2256  0.3182  0.0889
 5702SOL    HW128568   3.769   0.603   5.761  0.3551  1.0859 -1.6828
 5702SOL    HW228569   3.783   0.456   5.738 -1.1080  0.1535  1.7691
 5703SOL     OW28570   2.201   1.413  11.144 -0.3219 -0.0633 -0.3527
 5703SOL    HW128571   2.284   1.367  11.130 -1.2602 -1.7259 -0.4338
 5703SOL    HW228572   2.209   1.425  11.239 -2.8379  1.3767 -0.3311
 5704SOL     OW28573   1.636   3.571   6.307 -0.5719 -0.0266 -0.4820
 5704SOL    HW128574   1.654   3.502   6.370 -0.8422 -0.1437 -0.5305
 5704SOL    HW228575   1.672   3.648   6.352 -0.0803 -0.3006 -0.4171
 5705SOL     OW28576   0.512   2.761   6.199 -0.0695 -0.2777  0.4127
 5705SOL    HW128577   0.447   2.818   6.239  2.9353  3.6562 -0.3156
 5705SOL    HW228578   0.538   2.818   6.127 -1.4479  0.1861  0.2885
 5706SOL     OW28579   2.180   1.848   2.124 -0.2825 -0.0332 -0.0657
 5706SOL    HW128580   2.090   1.863   2.152 -0.0129 -2.1164  1.9334
 5706SOL    HW228581   2.212   1.934   2.149 -0.1595 -0.0199 -0.2603
 5707SOL     OW28582   0.327   2.399  16.738  0.4642  0.7432 -0.1713
 5707SOL    HW128583   0.358   2.309  16.742  2.0135  1.4216  2.7478
 5707SOL    HW228584   0.367   2.427  16.820 -1.6098  0.6537  0.8888
 5708SOL     OW28585   0.703   3.954   8.147 -0.4335  0.5821 -0.0631
 5708SOL    HW128586   0.728   3.933   8.237 -0.9352  1.0613  0.1889
 5708SOL    HW228587   0.745   3.883   8.099 -2.7305 -0.1352 -1.0592
 5709SOL     OW28588   2.552   3.974   7.924  0.2640  0.5519  0.2995
 5709SOL    HW128589   2.524   3.985   7.834  0.4282  1.9114  0.4081
 5709SOL    HW228590   2.635   3.927   7.915 -0.8041 -0.8768 -2.0940
 5710SOL     OW28591   1.234   0.573   1.387 -0.6517  0.0608 -0.5333
 5710SOL    HW128592   1.200   0.595   1.300  0.4924  1.3940 -0.6576
 5710SOL    HW228593   1.152   0.568   1.435 -0.0087 -0.5471  0.5057
 5711SOL     OW28594   0.905   2.857   4.245  0.2318 -0.0073 -0.0406
 5711SOL    HW128595   0.907   2.844   4.150  0.4243 -0.7244  0.0558
 5711SOL    HW228596   0.938   2.770   4.272 -0.4984 -0.1450  0.4007
 5712SOL     OW28597   0.521   0.719  15.804  0.1544  0.1725 -0.9595
 5712SOL    HW128598   0.523   0.781  15.731  1.9102  0.3472 -0.7591
 5712SOL    HW228599   0.534   0.780  15.876 -0.0131  1.0807 -1.6956
 5713SOL     OW28600   2.338   1.191   1.885  0.2892 -0.1175  0.7762
 5713SOL    HW128601   2.326   1.282   1.912 -1.3444 -1.0410  3.1103
 5713SOL    HW228602   2.336   1.140   1.966  0.3724 -1.9068 -0.3411
 5714SOL     OW28603   3.170   2.288   6.119  0.0283 -0.1617  0.3654
 5714SOL    HW128604   3.168   2.197   6.146  2.1468  0.4171  2.5200
 5714SOL    HW228605   3.075   2.303   6.116  0.0911  0.0206 -0.7795
 5715SOL     OW28606   3.825   1.229   8.618 -0.5500 -0.4899  0.4994
 5715SOL    HW128607   3.750   1.168   8.619 -0.9318 -0.0362 -0.2884
 5715SOL    HW228608   3.849   1.231   8.711 -1.0094 -0.0743  0.6081
 5716SOL     OW28609   1.025   3.153  17.598 -0.5977 -0.4313 -0.5103
 5716SOL    HW128610   0.951   3.098  17.623 -1.3891  1.1636  0.6855
 5716SOL    HW228611   1.049   3.116  17.513  1.7452 -0.5655  0.2099
 5717SOL     OW28612   2.753   2.755   5.329  0.3051  0.1365 -0.6267
 5717SOL    HW128613   2.794   2.695   5.391 -0.2265 -1.0814 -1.4610
 5717SOL    HW228614   2.762   2.712   5.245 -2.4444  1.8245 -1.7863
 5718SOL     OW28615   2.410   2.049   5.537 -0.8168 -0.9105  0.6154
 5718SOL    HW128616   2.431   2.111   5.467 -0.3113 -0.0133  1.5522
 5718SOL    HW228617   2.501   2.027   5.558 -0.4344 -0.9528 -1.0413
 5719SOL     OW28618   3.151   1.832   4.667  0.2926 -0.2666  0.0195
 5719SOL    HW128619   3.107   1.882   4.598  2.2710  1.0302 -0.2727
 5719SOL    HW228620   3.221   1.891   4.693  0.6477 -0.5166 -0.3612
 5720SOL     OW28621   0.063   3.466   0.505 -0.4018  0.0338 -0.1713
 5720SOL    HW128622   0.152   3.431   0.497 -1.2498 -2.2644  0.7088
 5720SOL    HW228623   0.060   3.550   0.459 -1.3279 -0.2199 -0.5809
 5721SOL     OW28624   4.376   2.483   6.403 -0.2189  0.3382  0.2061
 5721SOL    HW128625   4.368   2.389   6.385 -1.6937  0.4954  0.0434
 5721SOL    HW228626   4.371   2.520   6.315  0.5494 -0.0447 -0.0002
 5722SOL     OW28627   0.430   2.613   5.316  0.3448 -0.5168 -0.2735
 5722SOL    HW128628   0.441   2.541   5.378 -0.0955  0.8061  1.3411
 5722SOL    HW228629   0.514   2.660   5.313  1.3816 -2.2533  1.2700
 5723SOL     OW28630   3.655   0.638  12.215 -0.9164  0.0084 -0.2041
 5723SOL    HW128631   3.660   0.542  12.213  1.4039  0.1091  1.4132
 5723SOL    HW228632   3.741   0.662  12.247 -0.6411 -0.0009 -0.9395
 5724SOL     OW28633   1.293   0.559  10.225  0.6882  0.4295 -0.2231
 5724SOL    HW128634   1.363   0.504  10.189  0.7922  0.6257 -0.3205
 5724SOL    HW228635   1.230   0.500  10.265 -0.5763  1.7874 -0.2210
 5725SOL     OW28636   2.816   1.242   6.015  0.0296 -0.2158 -0.0251
 5725SOL    HW128637   2.824   1.316   6.075 -2.5593  0.9382 -1.0964
 5725SOL    HW228638   2.828   1.160   6.064  2.1506 -0.1338 -0.4311
 5726SOL     OW28639   1.414   0.035   1.655  0.4111 -0.0638  0.3128
 5726SOL    HW128640   1.482   0.007   1.593 -1.2299  0.4319 -1.7154
 5726SOL    HW228641   1.417   0.130   1.651 -0.2388  0.0196  1.9426
 5727SOL     OW28642   1.305   2.831  16.103 -0.3624  0.1226 -0.2662
 5727SOL    HW128643   1.384   2.872  16.137 -0.2834  0.0221 -0.3299
 5727SOL    HW228644   1.296   2.769  16.176  0.7047 -0.0354 -0.2656
 5728SOL     OW28645   4.316   1.468  17.242  0.1908  0.6112 -0.0639
 5728SOL    HW128646   4.271   1.510  17.169 -0.4833 -2.4104 -1.4023
 5728SOL    HW228647   4.323   1.543  17.300  1.7899 -0.2876  0.9219
 5729SOL     OW28648   3.521   4.218  10.016 -0.5478 -0.2800 -0.6726
 5729SOL    HW128649   3.535   4.126   9.995  3.3459  0.2300 -0.2790
 5729SOL    HW228650   3.573   4.270   9.955  0.0429 -0.5430 -0.3921
 5730SOL     OW28651   3.695   0.379   2.880  0.2036  0.0333 -0.2471
 5730SOL    HW128652   3.715   0.344   2.793  0.6221  0.0889 -0.1714
 5730SOL    HW228653   3.602   0.358   2.891  0.2694 -1.1247 -1.9470
 5731SOL     OW28654   2.503   2.075   0.026  0.1752  0.7948 -0.6983
 5731SOL    HW128655   2.480   2.128   0.103  0.9276 -0.3606  0.3247
 5731SOL    HW228656   2.437   2.095  17.641 -0.6833 -2.0210 -0.6986
 5732SOL     OW28657   3.579   0.575   5.422  0.0507 -0.7233 -0.1268
 5732SOL    HW128658   3.563   0.490   5.462  1.5030 -1.0317 -0.1984
 5732SOL    HW228659   3.590   0.625   5.503  2.2851  0.4685 -1.1667
 5733SOL     OW28660   1.101   4.109   2.521  0.1434 -0.0270  0.6052
 5733SOL    HW128661   1.032   4.050   2.549  0.7757  0.0033  2.2553
 5733SOL    HW228662   1.170   4.084   2.584  0.5912 -1.0505 -0.2979
 5734SOL     OW28663   4.275   4.142  11.366  0.4439 -0.2547  0.1102
 5734SOL    HW128664   4.259   4.235  11.352  2.2516 -0.0401 -0.5616
 5734SOL    HW228665   4.369   4.141  11.347  0.3302 -1.1805 -0.3836
 5735SOL     OW28666   3.589   0.121   4.174 -0.1014  0.4194 -0.4639
 5735SOL    HW128667   3.548   0.164   4.099 -0.9379  0.4994  0.0340
 5735SOL    HW228668   3.518   0.072   4.216 -0.2029 -1.4582 -2.7713
 5736SOL     OW28669   3.250   4.364  11.580  0.3918 -0.6801  0.2687
 5736SOL    HW128670   3.213   4.292  11.529  0.4898 -1.0519  0.7236
 5736SOL    HW228671   3.281   4.315  11.656 -1.2679 -0.1999  1.2753
 5737SOL     OW28672   4.308   3.476   4.757 -0.0362  0.7888 -0.4213
 5737SOL    HW128673   4.374   3.407   4.763 -0.4121  0.5061  0.5297
 5737SOL    HW228674   4.255   3.467   4.837 -0.2517 -0.1622 -0.6776
 5738SOL     OW28675   2.125   3.329   7.618 -0.2668  0.4130 -0.0754
 5738SOL    HW128676   2.200   3.284   7.580  0.0535  0.8696  0.0186
 5738SOL    HW228677   2.071   3.332   7.538 -0.3850  0.3884  0.0031
 5739SOL     OW28678   3.092   3.302   7.891  0.2351 -0.2887  0.0078
 5739SOL    HW128679   3.104   3.234   7.958  1.1593 -0.8230 -0.7057
 5739SOL    HW228680   3.183   3.320   7.869 -0.0824 -0.5026 -1.4381
 5740SOL     OW28681   4.133   1.909   2.618  0.0743  0.1124  0.3531
 5740SOL    HW128682   4.110   1.900   2.525  1.3666  0.7657 -0.0178
 5740SOL    HW228683   4.051   1.870   2.650  0.1385 -1.4917 -1.4036
 5741SOL     OW28684   3.622   2.113  14.761 -0.5975 -0.0346  0.1961
 5741SOL    HW128685   3.645   2.061  14.838 -1.1010 -0.3703  0.1160
 5741SOL    HW228686   3.702   2.165  14.755 -0.2076 -0.6682 -0.1714
 5742SOL     OW28687   4.560   3.935   5.704 -0.0021  0.1617  0.2018
 5742SOL    HW128688   4.480   3.887   5.681  0.9240 -0.6593 -1.2656
 5742SOL    HW228689   4.588   3.947   5.614  1.2769 -1.3450  0.3918
 5743SOL     OW28690   1.913   2.761   1.725  0.0918 -0.0773 -0.0229
 5743SOL    HW128691   1.905   2.840   1.670 -0.1351  0.0688  0.2214
 5743SOL    HW228692   2.004   2.779   1.752 -0.3150  3.1836 -0.7389
 5744SOL     OW28693   0.905   0.456  11.900 -0.9076  0.1968 -0.3118
 5744SOL    HW128694   0.942   0.387  11.955 -3.7031 -0.0881  1.1911
 5744SOL    HW228695   0.968   0.528  11.908  0.4387 -0.8102 -1.8609
 5745SOL     OW28696   1.310   2.628  15.220  0.0908 -0.0222  0.2333
 5745SOL    HW128697   1.274   2.648  15.133  0.4933 -2.2754 -0.4615
 5745SOL    HW228698   1.233   2.603  15.271  0.0352  1.4953  0.8738
 5746SOL     OW28699   3.216   0.871   8.767 -0.2386  0.2117  0.1411
 5746SOL    HW128700   3.264   0.893   8.847 -0.1461 -0.1443  0.1828
 5746SOL    HW228701   3.176   0.792   8.802 -1.1738 -0.3615 -2.1827
 5747SOL     OW28702   0.937   3.293   4.833 -0.4316  0.1224  0.0453
 5747SOL    HW128703   0.923   3.206   4.797  2.8544 -0.3219 -0.2144
 5747SOL    HW228704   0.941   3.348   4.754 -0.0786  2.3060  1.5773
 5748SOL     OW28705   4.567   2.981   4.140 -0.4676  0.0139 -0.2068
 5748SOL    HW128706   4.617   3.063   4.141  0.3883 -0.5071 -0.2271
 5748SOL    HW228707   4.610   2.927   4.205  0.4237  0.0117 -0.7946
 5749SOL     OW28708   1.761   1.194  13.654  0.4581  0.3431  0.6481
 5749SOL    HW128709   1.843   1.209  13.607  0.6089 -1.6742  0.2705
 5749SOL    HW228710   1.704   1.203  13.578  0.1183  2.1179  1.1134
 5750SOL     OW28711   2.887   0.388   1.844 -0.1361 -0.3615 -0.1780
 5750SOL    HW128712   2.914   0.307   1.888  0.5089  0.5128  1.0302
 5750SOL    HW228713   2.792   0.378   1.848 -0.2747  0.8975 -0.3462
 5751SOL     OW28714   3.046   1.146   0.976  0.1208 -0.4974 -0.6984
 5751SOL    HW128715   2.953   1.125   0.970 -0.6789  2.9647 -0.1688
 5751SOL    HW228716   3.057   1.209   0.905 -0.6931 -1.1652 -1.4194
 5752SOL     OW28717   3.550   1.823   6.013 -0.4144  0.2546  0.4288
 5752SOL    HW128718   3.601   1.743   6.005  0.2261  0.8549 -1.4519
 5752SOL    HW228719   3.552   1.845   6.106  1.4786 -1.3689  0.7651
 5753SOL     OW28720   0.890   4.664  12.081 -0.3547  0.0537 -0.5782
 5753SOL    HW128721   0.936   4.677  12.164  1.7642 -3.2135 -1.2458
 5753SOL    HW228722   0.877   4.569  12.075 -2.1631  0.2637  0.1195
 5754SOL     OW28723   4.133   4.262   0.021  0.4347  0.3919  0.3613
 5754SOL    HW128724   4.060   4.265   0.082 -1.7319 -0.8400 -2.1871
 5754SOL    HW228725   4.106   4.184  17.654  3.2526 -0.5057  0.1974
 5755SOL     OW28726   4.481   3.422   5.876  0.2882  0.6588  0.4954
 5755SOL    HW128727   4.481   3.332   5.909 -0.2427  1.7465  3.3970
 5755SOL    HW228728   4.518   3.478   5.944  0.0203  1.7453 -0.2620
 5756SOL     OW28729   2.997   4.246   4.388 -0.3831  0.8246 -0.1269
 5756SOL    HW128730   2.913   4.203   4.402  1.4418 -1.7856  2.9960
 5756SOL    HW228731   3.040   4.192   4.322  0.7660  0.8049  0.6379
 5757SOL     OW28732   2.033   0.857   4.559  0.0126  0.1086 -0.0607
 5757SOL    HW128733   2.016   0.772   4.520  0.8887 -0.8440  1.6295
 5757SOL    HW228734   2.096   0.899   4.501  0.8608  2.2733  2.4043
 5758SOL     OW28735   3.683   4.405   6.319  0.5563 -0.0144 -0.2524
 5758SOL    HW128736   3.609   4.428   6.262  1.2542  0.3540 -1.0083
 5758SOL    HW228737   3.689   4.483   6.373  0.4397 -0.7455  0.8303
 5759SOL     OW28738   1.557   0.715   8.791 -0.0597  0.0254 -0.7158
 5759SOL    HW128739   1.561   0.810   8.788  3.7206 -0.1369 -0.5069
 5759SOL    HW228740   1.537   0.704   8.884 -3.4534 -1.6777 -1.6342
 5760SOL     OW28741   0.450   4.709   3.051  0.1183 -0.4634 -0.1324
 5760SOL    HW128742   0.505   4.670   3.119  1.0990  2.4352  0.7487
 5760SOL    HW228743   0.447   0.078   3.090  0.1099 -0.2270 -0.6774
 5761SOL     OW28744   3.937   1.062   3.069 -0.1710  0.1372 -0.1155
 5761SOL    HW128745   4.025   1.037   3.095 -0.4322  0.0448  0.6880
 5761SOL    HW228746   3.944   1.035   2.977 -1.8675 -2.1737  0.4219
 5762SOL     OW28747   1.174   0.352  10.404 -0.0260 -0.2607  0.2186
 5762SOL    HW128748   1.201   0.312  10.322 -0.0505  0.4432 -0.1299
 5762SOL    HW228749   1.190   0.275  10.458 -0.8434 -1.6780 -1.5723
 5763SOL     OW28750   3.235   0.735  10.588 -0.3536  0.1843 -0.0579
 5763SOL    HW128751   3.182   0.660  10.615  0.9354 -1.1237 -1.1925
 5763SOL    HW228752   3.320   0.694  10.573  0.5712  1.1737  2.3648
 5764SOL     OW28753   0.120   2.413  15.731 -0.3319  0.4081  0.5341
 5764SOL    HW128754   0.192   2.363  15.771  3.0773  2.8480 -2.6099
 5764SOL    HW228755   0.170   2.466  15.669  2.4108 -1.1399  1.4193
 5765SOL     OW28756   4.078   0.087   7.800  0.6376 -0.4087  0.5297
 5765SOL    HW128757   4.145   0.110   7.865  0.3637  0.3001  0.5575
 5765SOL    HW228758   3.997   0.089   7.850 -0.8115  1.2008 -1.8614
 5766SOL     OW28759   2.130   2.002   5.361 -0.3557  0.1037  0.0988
 5766SOL    HW128760   2.089   1.916   5.369  0.3004 -0.4685 -2.6752
 5766SOL    HW228761   2.222   1.985   5.382 -0.1542  0.3737 -0.5731
 5767SOL     OW28762   0.729   2.311   8.138 -0.5855  0.2119  0.9632
 5767SOL    HW128763   0.734   2.321   8.233  2.0302  0.4017  0.8269
 5767SOL    HW228764   0.637   2.292   8.121 -0.4879  1.5516 -1.0958
 5768SOL     OW28765   1.637   4.533   5.941  0.2849 -0.2587  0.0889
 5768SOL    HW128766   1.586   4.609   5.970  1.9801  0.9978 -0.1823
 5768SOL    HW228767   1.705   4.578   5.890 -0.9543  1.2027 -0.2813
 5769SOL     OW28768   3.328   3.961  10.804  0.0312  0.3824  0.2892
 5769SOL    HW128769   3.364   4.050  10.802  1.0835 -0.1186 -2.1284
 5769SOL    HW228770   3.352   3.935  10.716 -1.5560  1.1387 -0.3636
 5770SOL     OW28771   3.287   3.689   3.550  0.3093  0.0557  0.2289
 5770SOL    HW128772   3.310   3.769   3.597 -1.2653 -0.5939  2.1125
 5770SOL    HW228773   3.375   3.659   3.529 -0.0728  0.1422 -1.5570
 5771SOL     OW28774   0.761   1.594   3.031  0.3002 -0.8491 -0.5559
 5771SOL    HW128775   0.670   1.611   3.053 -0.0363 -2.5779 -0.6318
 5771SOL    HW228776   0.809   1.656   3.086  0.0914 -0.8612 -0.3592
 5772SOL     OW28777   2.767   3.813   7.879 -0.2351  0.2249 -0.1770
 5772SOL    HW128778   2.815   3.730   7.880  1.3938  1.1894  1.0500
 5772SOL    HW228779   2.726   3.804   7.792  0.9184  0.4650 -0.7403
 5773SOL     OW28780   2.057   1.513   9.147 -0.4910  0.4151  0.0218
 5773SOL    HW128781   2.028   1.528   9.237  0.4335  0.3675  0.3294
 5773SOL    HW228782   1.996   1.562   9.092 -0.3444  1.7358  1.0209
 5774SOL     OW28783   0.176   3.747   8.739  0.1196  0.1314 -0.6534
 5774SOL    HW128784   0.262   3.750   8.780 -0.2028  0.0938  0.0098
 5774SOL    HW228785   0.119   3.778   8.808 -1.5812 -0.4886 -1.7791
 5775SOL     OW28786   3.959   2.433   8.481 -0.2459 -0.0501  0.1392
 5775SOL    HW128787   4.043   2.444   8.525 -0.8925  2.8049  0.6249
 5775SOL    HW228788   3.948   2.339   8.498  0.4129 -0.2320 -0.4815
 5776SOL     OW28789   3.432   0.920   1.967  0.2363  0.2097  0.3452
 5776SOL    HW128790   3.337   0.926   1.977 -0.0259 -2.7799 -0.3143
 5776SOL    HW228791   3.447   0.895   1.876  1.0776 -1.5215  0.9553
 5777SOL     OW28792   3.453   0.748   4.462  0.2942 -0.0921 -0.1468
 5777SOL    HW128793   3.501   0.693   4.401  1.1252  0.6244 -0.1403
 5777SOL    HW228794   3.485   0.725   4.549 -1.0333 -0.8429  0.1438
 5778SOL     OW28795   1.599   0.832   8.264 -0.1491  0.3331  0.0618
 5778SOL    HW128796   1.689   0.837   8.231  0.4607  1.2421  1.8625
 5778SOL    HW228797   1.597   0.903   8.328 -1.1679  1.7798 -1.5585
 5779SOL     OW28798   4.659   0.059  14.185  0.5197 -0.1923  0.3064
 5779SOL    HW128799   4.702   0.087  14.266 -1.9605  0.6392  1.3313
 5779SOL    HW228800   4.624   4.693  14.208 -0.3766  0.4989  1.5387
 5780SOL     OW28801   4.144   3.561   4.954  0.6118 -0.1719 -0.3399
 5780SOL    HW128802   4.067   3.604   4.917  0.0473 -0.2068  0.7797
 5780SOL    HW228803   4.107   3.493   5.010  0.3782  0.8781  0.7817
 5781SOL     OW28804   0.385   0.267   3.120 -0.3636 -0.1946 -0.0242
 5781SOL    HW128805   0.348   0.355   3.127 -0.1858 -0.0074 -1.3937
 5781SOL    HW228806   0.347   0.229   3.199 -2.9267 -0.8895 -1.5813
 5782SOL     OW28807   0.948   3.249   7.534 -0.1682 -0.2174 -0.3091
 5782SOL    HW128808   0.888   3.309   7.490  0.1791  0.7029  0.4934
 5782SOL    HW228809   1.025   3.301   7.554  1.0960 -1.5829 -1.5290
 5783SOL     OW28810   2.698   2.421   3.000  0.2593 -0.2387  0.9301
 5783SOL    HW128811   2.728   2.403   2.911  1.6418 -0.9013  1.5288
 5783SOL    HW228812   2.739   2.345   3.040  0.2375 -0.2456  0.9395
 5784SOL     OW28813   0.674   3.246   8.205 -0.5892 -0.2446 -0.0741
 5784SOL    HW128814   0.752   3.208   8.166 -0.9657  0.0377 -1.0870
 5784SOL    HW228815   0.690   3.340   8.199  0.7044 -0.4310  0.3841
 5785SOL     OW28816   2.932   3.987  15.234 -0.2789  0.4793  0.2572
 5785SOL    HW128817   2.901   4.065  15.187  1.7465 -0.2297 -2.2179
 5785SOL    HW228818   2.870   3.914  15.230  0.5957 -0.2554  0.3006
 5786SOL     OW28819   4.383   3.631  17.430  0.4503 -0.0807  0.5574
 5786SOL    HW128820   4.474   3.623  17.402 -0.1321 -2.1129 -0.6878
 5786SOL    HW228821   4.355   3.682  17.354 -2.2334 -0.7692  1.0707
 5787SOL     OW28822   3.317   0.642  16.444 -0.4249  0.1309 -0.4186
 5787SOL    HW128823   3.295   0.700  16.517 -0.6193  1.2168 -1.3400
 5787SOL    HW228824   3.231   0.605  16.427 -0.8812  0.2506  1.6237
 5788SOL     OW28825   1.133   2.124   4.229 -0.7232  0.0430 -0.2222
 5788SOL    HW128826   1.157   2.169   4.310 -1.1671 -1.8835  0.9815
 5788SOL    HW228827   1.132   2.189   4.158  0.7174 -1.3984 -1.5567
 5789SOL     OW28828   2.194   4.143  10.111  0.2185 -0.4547  0.9144
 5789SOL    HW128829   2.169   4.215  10.053 -0.2906 -1.1120  0.3219
 5789SOL    HW228830   2.163   4.183  10.193 -3.2018 -0.1154 -0.5078
 5790SOL     OW28831   1.054   0.909  10.778 -0.2062 -0.1041  0.0177
 5790SOL    HW128832   1.093   0.890  10.863 -1.1225 -1.8550  0.0355
 5790SOL    HW228833   1.001   0.837  10.745 -0.6828  0.1541  0.2245
 5791SOL     OW28834   2.812   1.598   7.059 -0.3323  0.6778 -0.4623
 5791SOL    HW128835   2.764   1.645   7.127  2.3036  1.6419  0.6932
 5791SOL    HW228836   2.780   1.510   7.077 -2.3176  1.5933  0.5032
 5792SOL     OW28837   4.140   3.845   2.980 -0.0752 -0.0220 -0.1507
 5792SOL    HW128838   4.087   3.884   3.050  2.8128  1.2625  1.2841
 5792SOL    HW228839   4.099   3.886   2.903 -0.1825 -0.8306 -0.5184
 5793SOL     OW28840   0.876   3.216   0.550  0.1770 -0.1255 -0.1473
 5793SOL    HW128841   0.782   3.199   0.544  0.2272  0.0581 -1.3900
 5793SOL    HW228842   0.873   3.303   0.590 -3.3859  0.4366 -1.6792
 5794SOL     OW28843   0.550   3.704   7.181  0.2688 -0.3718  0.1241
 5794SOL    HW128844   0.455   3.693   7.175  0.1484  0.2989  0.7899
 5794SOL    HW228845   0.552   3.796   7.157  1.0001  0.1047  2.0056
 5795SOL     OW28846   4.184   2.302   4.974  0.2655 -0.3191  0.4596
 5795SOL    HW128847   4.116   2.282   5.038 -1.5189  1.1246 -0.9842
 5795SOL    HW228848   4.170   2.231   4.911 -2.0070  0.3252  0.2437
 5796SOL     OW28849   4.534   4.560  15.127  0.3387 -0.3774  0.2450
 5796SOL    HW128850   4.608   4.569  15.187  1.5928 -0.0367 -1.3496
 5796SOL    HW228851   4.466   4.617  15.162 -0.0869  0.0913 -1.3717
 5797SOL     OW28852   0.880   4.674  17.130 -0.2444  0.1405  0.5160
 5797SOL    HW128853   0.951   0.012  17.158 -0.1112  0.4282 -0.4148
 5797SOL    HW228854   0.829   4.672  17.211 -0.4986  0.5077  0.3683
 5798SOL     OW28855   1.738   1.336   3.774  0.5766  0.7823 -0.0967
 5798SOL    HW128856   1.815   1.373   3.817  0.7742 -0.6676  0.7891
 5798SOL    HW228857   1.681   1.413   3.762  0.3708  0.5750 -0.4472
 5799SOL     OW28858   0.852   0.980  17.215 -0.1320 -0.0460 -0.1233
 5799SOL    HW128859   0.906   0.921  17.163  1.3620  1.4650 -0.2531
 5799SOL    HW228860   0.830   0.929  17.293 -0.1521 -1.0772 -0.8054
 5800SOL     OW28861   3.424   0.743   1.731 -0.8071 -0.4428  0.2314
 5800SOL    HW128862   3.371   0.766   1.655 -0.9875  1.4612  0.9228
 5800SOL    HW228863   3.491   0.687   1.692 -0.3963  1.0022 -1.1325
 5801SOL     OW28864   1.350   0.580  14.245 -0.1322  0.1279  0.3307
 5801SOL    HW128865   1.307   0.652  14.292  1.7359  0.0012  2.2549
 5801SOL    HW228866   1.323   0.599  14.156  0.5144  1.0113  0.3155
 5802SOL     OW28867   2.779   1.546  12.711 -0.0450 -0.5388  0.5359
 5802SOL    HW128868   2.753   1.454  12.709  0.7099 -0.7706  1.1123
 5802SOL    HW228869   2.759   1.575  12.622 -0.0669 -0.3554  0.6008
 5803SOL     OW28870   0.862   2.507   7.986  0.5278 -0.0116 -0.2438
 5803SOL    HW128871   0.949   2.481   7.956  1.4349  2.1977  0.4883
 5803SOL    HW228872   0.830   2.430   8.032  0.4246 -0.3628 -0.9013
 5804SOL     OW28873   1.392   0.067   8.224 -0.3453  0.0335  0.1197
 5804SOL    HW128874   1.433   0.006   8.163  0.5709  0.1713  0.6099
 5804SOL    HW228875   1.412   0.027   8.308  3.3688 -0.5156 -1.0391
 5805SOL     OW28876   2.149   4.011  10.650  0.3747 -0.0253 -0.1260
 5805SOL    HW128877   2.140   4.001  10.555 -0.7548  2.7569 -0.3164
 5805SOL    HW228878   2.168   4.104  10.665  0.0379 -0.1925  1.2553
 5806SOL     OW28879   3.325   0.528   2.705  0.0597  0.2560 -0.0120
 5806SOL    HW128880   3.279   0.574   2.776 -0.7389 -0.9196  0.2377
 5806SOL    HW228881   3.404   0.580   2.721  1.2416 -0.3146 -4.1944
 5807SOL     OW28882   2.442   1.802   8.611  0.3111 -0.2757  0.0820
 5807SOL    HW128883   2.396   1.744   8.551 -0.6801 -1.1112  1.6491
 5807SOL    HW228884   2.376   1.870   8.628 -1.8039 -2.0749 -0.8549
 5808SOL     OW28885   4.520   2.515   6.694  0.1679  0.0558  0.5869
 5808SOL    HW128886   4.565   2.551   6.618 -1.6587 -1.8513 -1.4070
 5808SOL    HW228887   4.484   2.433   6.660 -2.2047  0.7152  1.5122
 5809SOL     OW28888   3.845   3.785   3.610  0.4578  0.6279 -0.1091
 5809SOL    HW128889   3.866   3.709   3.664  0.5198 -0.1083 -1.1669
 5809SOL    HW228890   3.824   3.736   3.530  4.4153 -0.4948 -0.4406
 5810SOL     OW28891   4.214   1.267  17.579 -0.2571  0.7614 -0.5121
 5810SOL    HW128892   4.241   1.180  17.550  1.4719  1.2587 -0.3759
 5810SOL    HW228893   4.298   1.306  17.602 -0.3003  0.1707  0.6568
 5811SOL     OW28894   1.256   2.281   6.540  0.0131 -0.5928  0.0049
 5811SOL    HW128895   1.181   2.334   6.514  0.6903  0.9529  1.2245
 5811SOL    HW228896   1.240   2.261   6.632 -1.0556 -0.0991 -0.0805
 5812SOL     OW28897   4.619   3.581   7.106  0.0852  0.0634 -0.6842
 5812SOL    HW128898   4.573   3.503   7.139  0.0876  0.3549  0.0051
 5812SOL    HW228899   4.539   3.633   7.098  0.7770  1.4576  1.4935
 5813SOL     OW28900   4.367   0.128   3.411  0.5510  0.5170  0.4805
 5813SOL    HW128901   4.440   0.130   3.472  1.7460 -1.7930 -0.8903
 5813SOL    HW228902   4.388   0.203   3.356 -0.5302 -0.5487 -1.3706
 5814SOL     OW28903   4.125   2.237   3.184 -0.5094  0.8412  0.0120
 5814SOL    HW128904   4.103   2.151   3.149 -1.0723  0.8395  0.3687
 5814SOL    HW228905   4.149   2.279   3.101 -1.6935 -0.5870 -1.0479
 5815SOL     OW28906   1.384   2.356   1.944  0.2801  0.5131  0.0985
 5815SOL    HW128907   1.311   2.413   1.971  0.5188  1.9179 -2.2456
 5815SOL    HW228908   1.339   2.272   1.955 -1.2538  1.1673 -1.1007
 5816SOL     OW28909   4.305   3.218   6.694 -0.1790 -0.1571 -0.6217
 5816SOL    HW128910   4.214   3.197   6.712 -0.2357  0.0520 -0.6624
 5816SOL    HW228911   4.344   3.257   6.772 -0.5920  2.6158 -1.8130
 5817SOL     OW28912   3.649   2.228  12.170  0.0858  0.3979 -0.1327
 5817SOL    HW128913   3.646   2.323  12.162 -1.7966  0.2459 -1.1918
 5817SOL    HW228914   3.655   2.210  12.263  0.1128  0.8280 -0.0494
 5818SOL     OW28915   1.687   1.373   3.338 -0.2006  0.5709 -0.3369
 5818SOL    HW128916   1.634   1.452   3.347 -1.1155 -0.2421  1.2936
 5818SOL    HW228917   1.630   1.315   3.287  1.3446  0.9284 -2.4800
 5819SOL     OW28918   0.040   4.358  15.853 -0.3548 -0.3447  0.0231
 5819SOL    HW128919   4.673   4.348  15.813 -0.6977 -1.4230  1.0481
 5819SOL    HW228920   0.013   4.379  15.942  0.0075  0.6770 -0.1116
 5820SOL     OW28921   1.029   2.954   6.442 -0.0169  0.6235 -0.5329
 5820SOL    HW128922   1.057   2.911   6.523  0.8526  1.9060 -0.1485
 5820SOL    HW228923   1.066   2.892   6.379  2.4496  2.7377 -1.1277
 5821SOL     OW28924   0.242   3.998   2.755 -0.1476  0.4011 -0.1867
 5821SOL    HW128925   0.158   4.023   2.795 -0.0422  4.0162 -2.2253
 5821SOL    HW228926   0.213   3.922   2.705 -1.3429  0.3719  0.5309
 5822SOL     OW28927   1.488   2.399   3.577  0.0461 -0.4715 -0.2979
 5822SOL    HW128928   1.566   2.373   3.528  0.5255  1.4616 -0.5718
 5822SOL    HW228929   1.461   2.466   3.515  0.9462  0.6402  0.5011
 5823SOL     OW28930   3.539   3.428   6.515 -0.5480  0.5297  0.6471
 5823SOL    HW128931   3.629   3.395   6.519 -0.7202  0.7088  5.3825
 5823SOL    HW228932   3.557   3.520   6.499  0.9258 -0.0119 -0.8445
 5824SOL     OW28933   3.651   2.967   7.815 -0.0153 -0.1308  0.4496
 5824SOL    HW128934   3.686   2.999   7.732  1.2733 -0.6078  0.8046
 5824SOL    HW228935   3.695   2.886   7.840  0.3272 -0.5046 -1.4163
 5825SOL     OW28936   0.910   1.741   5.599 -0.1878  0.2262  0.2813
 5825SOL    HW128937   0.967   1.683   5.650  0.9746  0.7054 -0.4760
 5825SOL    HW228938   0.970   1.755   5.526  0.5032  0.7172  0.9265
 5826SOL     OW28939   1.885   3.354   1.863 -0.5791 -0.4352 -0.9803
 5826SOL    HW128940   1.924   3.275   1.902  2.6337  1.6138 -0.0572
 5826SOL    HW228941   1.823   3.370   1.934 -0.5973  2.9795 -1.7643
 5827SOL     OW28942   3.956   4.091   3.095  0.2120 -0.7623  0.1335
 5827SOL    HW128943   3.865   4.115   3.077  0.6866  1.2748  0.4681
 5827SOL    HW228944   4.011   4.163   3.064  1.0687 -1.3235  0.3391
 5828SOL     OW28945   4.182   0.368  12.794  0.5440 -0.1004 -0.6178
 5828SOL    HW128946   4.250   0.421  12.836 -1.0315  1.9482 -0.6728
 5828SOL    HW228947   4.201   0.281  12.829 -2.4472 -0.3729  0.3814
 5829SOL     OW28948   1.244   1.549   5.849  0.5286  0.2670  0.1260
 5829SOL    HW128949   1.266   1.478   5.788 -2.2313 -0.1720 -0.3405
 5829SOL    HW228950   1.281   1.620   5.797 -1.6348  0.4033 -1.2500
 5830SOL     OW28951   0.210   1.986   6.077  0.4395  0.2688  0.2137
 5830SOL    HW128952   0.272   1.985   6.003  1.3611  0.4766  0.9803
 5830SOL    HW228953   0.249   2.058   6.126 -1.9206  1.1228  0.8101
 5831SOL     OW28954   0.377   4.314   7.021 -0.0665 -0.3463 -0.1075
 5831SOL    HW128955   0.410   4.225   7.032 -0.1736 -0.3609  0.1033
 5831SOL    HW228956   0.394   4.323   6.927  1.4379  1.7902  0.3870
 5832SOL     OW28957   1.413   4.308  16.047 -0.0924 -0.0015 -0.0559
 5832SOL    HW128958   1.424   4.254  15.969 -1.3027  0.7401 -0.7518
 5832SOL    HW228959   1.497   4.353  16.060 -0.7677  1.2948 -0.1163
 5833SOL     OW28960   2.896   1.122   9.375 -0.0574  0.2712  0.7768
 5833SOL    HW128961   2.844   1.052   9.334 -1.4951  2.8901 -1.8864
 5833SOL    HW228962   2.919   1.073   9.454  1.0564 -1.0237 -0.3507
 5834SOL     OW28963   2.429   1.375  14.624 -0.3362 -0.2695  0.4544
 5834SOL    HW128964   2.383   1.455  14.598 -0.0419  0.5410  2.3657
 5834SOL    HW228965   2.493   1.412  14.686 -0.2563 -2.9072  1.9453
 5835SOL     OW28966   4.576   4.367   2.777  0.2122  0.2631 -0.0661
 5835SOL    HW128967   4.668   4.387   2.759  0.6630 -0.5709  1.3625
 5835SOL    HW228968   4.529   4.430   2.722 -1.0405 -2.4923 -2.1909
 5836SOL     OW28969   4.421   4.468   7.245 -0.5146 -0.1340 -0.1329
 5836SOL    HW128970   4.348   4.412   7.272 -0.6931 -0.5984 -1.6160
 5836SOL    HW228971   4.476   4.399   7.209 -0.7748 -1.1569  1.4054
 5837SOL     OW28972   1.678   3.225   3.340 -0.0038 -0.3939  0.2359
 5837SOL    HW128973   1.627   3.284   3.395  1.0255  0.1233  0.6356
 5837SOL    HW228974   1.689   3.273   3.258  0.0643 -2.2551 -0.8395
 5838SOL     OW28975   2.633   2.249   0.758 -0.0087  0.1598 -0.0618
 5838SOL    HW128976   2.718   2.210   0.743  0.9156  2.4946 -0.8877
 5838SOL    HW228977   2.581   2.216   0.685  1.5924 -0.0014 -1.1245
 5839SOL     OW28978   0.744   0.382   7.908  0.4154 -0.3231  0.0193
 5839SOL    HW128979   0.770   0.418   7.992 -0.0711  0.4695 -0.1689
 5839SOL    HW228980   0.761   0.460   7.855 -1.6043 -0.5817 -1.0353
 5840SOL     OW28981   4.562   2.168   2.999 -0.1297  0.0089  0.6395
 5840SOL    HW128982   4.616   2.232   2.952 -1.0794 -1.0373 -1.8643
 5840SOL    HW228983   4.629   2.100   3.001 -2.2931 -2.1277 -0.4299
 5841SOL     OW28984   3.326   2.367   6.734  0.0674  0.1664  0.1978
 5841SOL    HW128985   3.233   2.372   6.712 -0.0678  0.0888  0.7587
 5841SOL    HW228986   3.358   2.448   6.693  0.8143 -0.1994  0.0584
 5842SOL     OW28987   2.421   3.878   1.240 -0.2172  0.0277 -0.5404
 5842SOL    HW128988   2.385   3.931   1.168 -2.1646  1.3304  1.4203
 5842SOL    HW228989   2.498   3.920   1.277 -1.3266  0.7803  0.9210
 5843SOL     OW28990   2.617   4.095  12.186 -0.3154  0.3939  0.1753
 5843SOL    HW128991   2.597   4.015  12.137  1.1274  0.8160 -1.0895
 5843SOL    HW228992   2.585   4.070  12.273 -0.8288 -0.4019 -0.2499
 5844SOL     OW28993   0.266   0.119   6.809  0.0620 -0.2116 -0.0118
 5844SOL    HW128994   0.230   0.031   6.822  0.3942 -0.3055  0.2648
 5844SOL    HW228995   0.320   0.126   6.888  0.3507 -1.3747 -0.1153
 5845SOL     OW28996   3.481   4.000  13.048  0.3577  0.1163  0.0255
 5845SOL    HW128997   3.537   4.076  13.031  1.4468 -1.0298 -1.5378
 5845SOL    HW228998   3.544   3.929  13.060  0.1054 -0.0008  0.6518
 5846SOL     OW28999   2.677   4.236   3.593  0.0144  0.5178 -0.3247
 5846SOL    HW129000   2.599   4.237   3.649 -0.2116  0.4693 -0.6363
 5846SOL    HW229001   2.642   4.292   3.524  2.7211  1.5874 -0.8046
 5847SOL     OW29002   3.732   4.085   7.246  0.1751  0.7569  0.5672
 5847SOL    HW129003   3.740   4.023   7.174 -2.7283  0.0447  0.8817
 5847SOL    HW229004   3.682   4.154   7.202 -2.4018 -1.1880  0.4566
 5848SOL     OW29005   1.757   1.640   6.416 -0.0899 -0.3001  0.0565
 5848SOL    HW129006   1.711   1.665   6.496  0.4099 -1.1300  0.6082
 5848SOL    HW229007   1.679   1.626   6.362  0.7275 -2.2847 -0.6202
 5849SOL     OW29008   4.604   4.647   0.089 -0.2616 -0.5411  0.6784
 5849SOL    HW129009   4.562   4.717   0.040 -0.3843 -0.1472  1.3490
 5849SOL    HW229010   4.552   4.573   0.058 -0.6807 -0.3260  0.8723
 5850SOL     OW29011   3.266   0.986   5.677  0.0905 -0.1585  0.2750
 5850SOL    HW129012   3.349   1.032   5.681 -1.0720  1.7340  2.4840
 5850SOL    HW229013   3.233   0.995   5.766  0.7061  0.0795  0.4749
 5851SOL     OW29014   4.256   2.997  12.927  0.0496 -0.3202 -0.0960
 5851SOL    HW129015   4.255   3.081  12.972 -0.9237 -0.5794  0.3785
 5851SOL    HW229016   4.275   3.029  12.839 -0.2007  0.9883  0.3292
 5852SOL     OW29017   0.821   3.528  10.855 -0.5882  0.0924  0.1357
 5852SOL    HW129018   0.881   3.476  10.801  0.6280 -0.5604  2.1369
 5852SOL    HW229019   0.758   3.562  10.792  0.2118  0.2419 -0.5955
 5853SOL     OW29020   0.946   0.204   5.825  0.4077  0.0905 -0.4233
 5853SOL    HW129021   0.889   0.279   5.844  2.2729  1.5368 -0.5896
 5853SOL    HW229022   0.968   0.195   5.917  0.5609  0.9234 -0.3820
 5854SOL     OW29023   0.129   0.644   9.674 -0.3020  0.1953 -0.1386
 5854SOL    HW129024   0.157   0.596   9.595 -0.3879  0.3703 -0.2746
 5854SOL    HW229025   0.062   0.703   9.641 -2.6319 -0.8427  2.7131
 5855SOL     OW29026   4.392   1.161   7.310 -0.0796 -0.0016 -0.5375
 5855SOL    HW129027   4.466   1.220   7.301 -0.4143  0.5718  0.4683
 5855SOL    HW229028   4.384   1.127   7.221  1.6616  0.7768 -0.9914
 5856SOL     OW29029   3.493   1.443   8.754  0.1297  0.5142 -0.0736
 5856SOL    HW129030   3.402   1.464   8.777 -0.0867  0.7576 -1.1524
 5856SOL    HW229031   3.492   1.347   8.753 -1.6613  0.5499 -1.8655
 5857SOL     OW29032   1.287   1.742   9.437 -0.1583  0.0609 -0.3804
 5857SOL    HW129033   1.312   1.815   9.494 -0.6623 -0.0327 -0.0464
 5857SOL    HW229034   1.220   1.689   9.479 -0.0580  0.0764 -0.2020
 5858SOL     OW29035   3.706   0.917   6.420 -0.0694 -0.0733  0.1119
 5858SOL    HW129036   3.648   0.974   6.470  1.4641 -0.7422  2.6425
 5858SOL    HW229037   3.775   0.980   6.397 -0.8870  0.5921 -0.5264
 5859SOL     OW29038   1.063   4.066   1.930 -0.4929 -0.4214 -0.0526
 5859SOL    HW129039   1.149   4.097   1.900 -1.2628 -0.3676 -2.1858
 5859SOL    HW229040   1.026   4.017   1.857 -2.7204  0.0091  0.8015
 5860SOL     OW29041   0.560   4.505   6.149 -0.0367  0.1383  0.2823
 5860SOL    HW129042   0.590   4.580   6.201  2.3323 -0.9797  0.5419
 5860SOL    HW229043   0.560   4.535   6.058 -0.8511 -0.0853  0.2076
 5861SOL     OW29044   1.734   0.334   5.610  0.3773 -0.5815 -0.8491
 5861SOL    HW129045   1.790   0.330   5.688 -0.4811  0.7486 -0.1694
 5861SOL    HW229046   1.669   0.396   5.642  1.6654 -0.7571  2.1382
 5862SOL     OW29047   0.346   2.792   3.459  0.4148 -0.5956  0.2870
 5862SOL    HW129048   0.399   2.836   3.392 -0.8086 -0.2568 -0.4775
 5862SOL    HW229049   0.287   2.751   3.396 -1.9539  2.6644  0.3416
 5863SOL     OW29050   2.017   1.279   5.913  0.6054 -0.1613  0.2057
 5863SOL    HW129051   2.110   1.261   5.898  1.2845  2.2603  1.5089
 5863SOL    HW229052   2.023   1.359   5.965 -2.6671  0.7355 -0.7631
 5864SOL     OW29053   1.292   4.088  16.268 -0.1675  0.3974 -0.0493
 5864SOL    HW129054   1.257   4.176  16.254  0.7330  0.7477 -0.0562
 5864SOL    HW229055   1.297   4.050  16.180 -1.4849 -0.8718  0.4273
 5865SOL     OW29056   1.015   1.397  16.789 -0.0268 -0.1478 -0.2628
 5865SOL    HW129057   1.042   1.307  16.807 -0.2470  0.1656  1.6460
 5865SOL    HW229058   1.010   1.384  16.694 -0.5087 -1.6729 -0.0369
 5866SOL     OW29059   1.080   1.875  16.212  0.0868 -0.1201 -0.1945
 5866SOL    HW129060   1.136   1.858  16.136 -0.9463  3.0633 -1.6735
 5866SOL    HW229061   1.005   1.899  16.158  0.0944 -1.3442 -0.7441
 5867SOL     OW29062   2.378   0.337  15.328  0.0592  0.0735  0.2302
 5867SOL    HW129063   2.407   0.427  15.310  0.8286  0.0181  1.1784
 5867SOL    HW229064   2.453   0.282  15.304 -0.7839 -1.3453  0.8267
 5868SOL     OW29065   2.505   1.531   4.417 -0.8518  0.3046  0.3273
 5868SOL    HW129066   2.487   1.438   4.406 -0.4496  0.3598 -0.8308
 5868SOL    HW229067   2.496   1.553   4.324 -1.4430  4.6976  1.4047
 5869SOL     OW29068   2.820   4.323   3.846  0.0489  0.3088  0.0676
 5869SOL    HW129069   2.911   4.348   3.827  0.6216 -0.6610  1.5392
 5869SOL    HW229070   2.790   4.286   3.763  1.0114  0.7503 -0.4837
 5870SOL     OW29071   4.203   0.201   8.342  0.1203  0.2307 -0.0641
 5870SOL    HW129072   4.258   0.162   8.409 -0.2734  0.1132  0.1875
 5870SOL    HW229073   4.279   0.215   8.285 -0.5529 -1.5833 -1.4216
 5871SOL     OW29074   3.373   4.502   8.988  0.0841  0.0523 -0.0407
 5871SOL    HW129075   3.333   4.537   8.907  3.7681 -0.3850 -2.0351
 5871SOL    HW229076   3.428   4.580   8.998  0.3228  0.1285 -1.8991
 5872SOL     OW29077   1.248   3.485   7.347  0.2327 -0.8471 -0.1396
 5872SOL    HW129078   1.218   3.422   7.412 -1.4678 -1.6852 -1.7473
 5872SOL    HW229079   1.334   3.507   7.382  0.1415 -0.7608  0.0318
 5873SOL     OW29080   1.262   0.038  17.658  0.4839 -0.5813  0.0634
 5873SOL    HW129081   1.347   0.078  17.639 -0.0893  0.9208  0.7193
 5873SOL    HW229082   1.285   4.709   0.057 -0.6299 -0.8997  0.1943
 5874SOL     OW29083   0.667   3.538  16.362 -0.7707  0.4406 -0.3395
 5874SOL    HW129084   0.636   3.564  16.276 -1.6606 -1.1984 -0.4964
 5874SOL    HW229085   0.673   3.443  16.352 -1.7365 -0.0613  3.7944
 5875SOL     OW29086   2.795   0.525   8.583 -0.0906 -0.2409  0.2448
 5875SOL    HW129087   2.830   0.439   8.606 -0.3924 -0.0883  1.2664
 5875SOL    HW229088   2.760   0.543   8.670  0.9871  2.0730  0.2053
 5876SOL     OW29089   3.315   4.640  15.555  0.2484  0.1498  0.3633
 5876SOL    HW129090   3.307   0.009  15.520  2.7343 -0.1678 -1.0229
 5876SOL    HW229091   3.391   4.643  15.613  0.4381  1.0302  0.0760
 5877SOL     OW29092   1.366   2.793   5.534 -0.7023 -0.2869  0.9253
 5877SOL    HW129093   1.406   2.710   5.561 -2.4515 -1.1421  0.8521
 5877SOL    HW229094   1.298   2.810   5.599 -1.1992  0.6334  0.1513
 5878SOL     OW29095   4.060   2.480   9.513 -0.0632  0.1004 -0.2063
 5878SOL    HW129096   4.006   2.401   9.518  0.4094 -0.1168  1.3031
 5878SOL    HW229097   4.106   2.479   9.597  0.4579 -1.3090 -0.4930
 5879SOL     OW29098   0.349   4.315   1.713 -0.1602  0.5489 -0.4403
 5879SOL    HW129099   0.414   4.245   1.707 -1.1308 -0.5330  1.5287
 5879SOL    HW229100   0.319   4.326   1.623 -0.6334 -1.6340 -0.5504
 5880SOL     OW29101   3.001   1.101   7.954 -0.5937 -0.1801  0.2968
 5880SOL    HW129102   2.926   1.159   7.969 -0.7274 -0.0209 -1.0234
 5880SOL    HW229103   3.057   1.129   8.027 -1.6249  1.0177  0.6313
 5881SOL     OW29104   1.365   2.275   5.589 -0.4026  0.5686  0.4735
 5881SOL    HW129105   1.324   2.190   5.602  1.3602 -0.3629 -0.1596
 5881SOL    HW229106   1.404   2.278   5.502 -0.0778  1.9618  0.6626
 5882SOL     OW29107   1.428   1.469   1.176  0.2539 -0.7408  0.9034
 5882SOL    HW129108   1.466   1.383   1.190  1.8387 -0.3441 -0.9094
 5882SOL    HW229109   1.422   1.473   1.080 -1.2737 -2.1310  0.9304
 5883SOL     OW29110   0.746   2.769   2.732  0.0079 -0.3920 -0.2674
 5883SOL    HW129111   0.685   2.767   2.658  3.2008 -0.7636 -2.8557
 5883SOL    HW229112   0.742   2.865   2.740 -2.7779 -0.3865 -1.7437
 5884SOL     OW29113   1.695   4.346  16.966  0.0638 -0.0070  0.3667
 5884SOL    HW129114   1.785   4.317  16.959  0.4181  0.9257  1.0718
 5884SOL    HW229115   1.652   4.262  16.948 -1.6331  1.2983 -1.7258
 5885SOL     OW29116   3.574   1.598   7.887  0.1097 -0.0316  0.3778
 5885SOL    HW129117   3.652   1.644   7.854 -0.8739  1.9676  0.8399
 5885SOL    HW229118   3.526   1.583   7.805  0.1153 -0.7720  0.5063
 5886SOL     OW29119   3.850   0.483   5.022  0.1827  0.2611  0.6006
 5886SOL    HW129120   3.758   0.494   4.999  0.2761 -0.2710 -0.0378
 5886SOL    HW229121   3.855   0.530   5.105  1.1761  0.2488  0.5508
 5887SOL     OW29122   2.495   4.073  14.767  0.5530  0.8334 -0.0618
 5887SOL    HW129123   2.452   4.115  14.842 -1.3573  0.4416 -0.9688
 5887SOL    HW229124   2.586   4.076  14.798  0.6470 -1.0434 -0.1502
 5888SOL     OW29125   3.459   2.328   4.783 -0.2090 -0.0237 -0.2217
 5888SOL    HW129126   3.433   2.410   4.741 -0.6694  0.4610  0.9908
 5888SOL    HW229127   3.510   2.360   4.858 -1.3793 -0.8558  0.9499
 5889SOL     OW29128   4.336   2.638   9.831  0.2157  0.2689  0.4566
 5889SOL    HW129129   4.268   2.579   9.861  0.1795 -0.1822 -0.5130
 5889SOL    HW229130   4.421   2.592   9.827 -0.9607 -1.7722 -0.8708
 5890SOL     OW29131   2.103   0.709  13.677 -0.3826  0.2308 -0.4329
 5890SOL    HW129132   2.019   0.713  13.631 -0.8001 -2.5408  0.1065
 5890SOL    HW229133   2.144   0.792  13.651 -0.0429  0.5921  1.2381
 5891SOL     OW29134   1.060   1.711   5.381 -0.1334 -0.4417  0.1280
 5891SOL    HW129135   1.044   1.739   5.291  1.5720 -0.9765 -0.3306
 5891SOL    HW229136   1.042   1.617   5.382 -0.8076 -0.3287 -0.9289
 5892SOL     OW29137   3.186   4.155   4.161 -0.4435 -0.0837  0.1506
 5892SOL    HW129138   3.110   4.144   4.103 -1.7008  1.3165  1.5370
 5892SOL    HW229139   3.260   4.191   4.112 -0.2386  1.5873  1.6682
 5893SOL     OW29140   1.604   2.992   3.458  0.2021 -0.2332  0.3541
 5893SOL    HW129141   1.662   2.972   3.531  1.6648  1.2880 -0.3734
 5893SOL    HW229142   1.642   3.077   3.436 -0.6666  0.1115  0.1783
 5894SOL     OW29143   1.035   1.948   7.402 -0.3634  0.9284 -0.5335
 5894SOL    HW129144   1.045   1.967   7.495  2.2731  0.1998 -0.6945
 5894SOL    HW229145   0.940   1.936   7.401 -0.3018  0.1805  2.7446
 5895SOL     OW29146   1.290   1.435   7.725  0.0312  0.4980 -0.7316
 5895SOL    HW129147   1.337   1.514   7.752  0.0342  0.3580 -0.3158
 5895SOL    HW229148   1.232   1.472   7.659 -0.0745 -0.1607 -1.0082
 5896SOL     OW29149   1.471   2.297   6.042  0.1745 -0.3705  0.0870
 5896SOL    HW129150   1.508   2.345   6.116 -2.4103  1.0021  0.4871
 5896SOL    HW229151   1.377   2.313   6.053  0.1965  0.3316 -0.7374
 5897SOL     OW29152   1.987   2.031   7.733 -0.1786 -0.0177  0.2761
 5897SOL    HW129153   2.017   2.019   7.824  0.0793  0.2412  0.2243
 5897SOL    HW229154   2.023   1.955   7.687  0.4365 -0.9005  2.2002
 5898SOL     OW29155   3.594   1.592   6.613  0.0749  0.2052  0.3503
 5898SOL    HW129156   3.558   1.503   6.617  0.6821 -0.1186 -1.1366
 5898SOL    HW229157   3.635   1.596   6.526 -1.6415  1.8587 -0.3825
 5899SOL     OW29158   0.850   1.613   4.881 -0.1840  0.3524 -0.1372
 5899SOL    HW129159   0.785   1.559   4.926 -1.1149 -0.9424 -3.0442
 5899SOL    HW229160   0.932   1.569   4.900 -0.4488 -0.4488 -0.8788
 5900SOL     OW29161   3.846   1.138   4.875 -0.1470  0.0012 -0.3934
 5900SOL    HW129162   3.753   1.152   4.855  0.3801  1.2817 -1.9057
 5900SOL    HW229163   3.866   1.099   4.789  2.3983 -0.1683  0.2970
 5901SOL     OW29164   2.078   0.967   4.120 -0.0447  0.8157  0.0864
 5901SOL    HW129165   1.998   1.000   4.081 -0.0776 -0.4048 -0.8942
 5901SOL    HW229166   2.056   0.876   4.142 -1.1818  1.2156  0.5652
 5902SOL     OW29167   2.854   3.757   0.741  0.3266  0.5710 -0.2042
 5902SOL    HW129168   2.838   3.805   0.822 -0.5679 -0.3284  0.1484
 5902SOL    HW229169   2.894   3.680   0.780  1.4143  0.8105 -0.8444
 5903SOL     OW29170   3.481   2.072   9.774  0.3368  0.4647  0.3707
 5903SOL    HW129171   3.391   2.100   9.756 -0.2401 -0.8828  1.2289
 5903SOL    HW229172   3.472   2.008   9.844  0.0932 -1.0826 -1.0903
 5904SOL     OW29173   1.551   0.123   3.617 -0.2747 -0.1394  0.8135
 5904SOL    HW129174   1.554   0.158   3.706  2.3898 -0.6814  0.9314
 5904SOL    HW229175   1.556   0.190   3.549  1.3648 -1.3632 -0.2654
 5905SOL     OW29176   0.395   0.157  12.044  0.5275 -0.0384 -0.0605
 5905SOL    HW129177   0.469   0.177  12.101  0.3648 -0.5748  0.3380
 5905SOL    HW229178   0.440   0.187  11.966 -0.8011  2.0565 -0.0339
 5906SOL     OW29179   1.608   1.074   2.083 -0.0189  0.2665 -0.1020
 5906SOL    HW129180   1.524   1.041   2.052 -1.8012  3.4516  1.2720
 5906SOL    HW229181   1.654   0.992   2.066  1.0514  1.1901 -1.6129
 5907SOL     OW29182   0.914   3.045   8.429  0.2731 -0.2589  0.1904
 5907SOL    HW129183   0.984   3.095   8.386 -1.6912  1.2919 -1.1768
 5907SOL    HW229184   0.967   3.002   8.496 -0.5503 -2.4125 -0.5313
 5908SOL     OW29185   1.573   4.323   6.400 -0.4272 -0.1391 -0.2520
 5908SOL    HW129186   1.507   4.256   6.419 -0.3700 -0.1176  0.0277
 5908SOL    HW229187   1.602   4.349   6.488 -2.9826  1.3379  0.1518
 5909SOL     OW29188   0.187   0.803   5.325 -0.1339 -0.0797  0.3906
 5909SOL    HW129189   0.244   0.836   5.256  0.9897 -0.3998  1.1603
 5909SOL    HW229190   0.164   0.717   5.289  1.4726 -1.4973  2.7091
 5910SOL     OW29191   3.959   2.068   7.745  0.2692  0.7401  0.2509
 5910SOL    HW129192   3.961   2.013   7.667  2.7746 -0.7307  1.3504
 5910SOL    HW229193   3.864   2.071   7.756 -0.1943 -1.0465 -3.3037
 5911SOL     OW29194   3.099   3.342   5.784 -0.6168  0.3282  0.8193
 5911SOL    HW129195   3.175   3.286   5.773 -1.7053 -0.5340 -2.5665
 5911SOL    HW229196   3.029   3.293   5.740 -0.4295  1.5125 -0.8074
 5912SOL     OW29197   2.720   2.708   4.116  0.6877  0.0309  0.2814
 5912SOL    HW129198   2.711   2.631   4.059  1.8042  0.1676 -0.0813
 5912SOL    HW229199   2.747   2.663   4.196 -0.4148  1.5640  1.5110
 5913SOL     OW29200   2.150   3.604   2.061  0.3361  0.1494  0.2946
 5913SOL    HW129201   2.067   3.651   2.070 -0.6037 -1.4199 -0.2528
 5913SOL    HW229202   2.205   3.681   2.047 -0.1758  0.3803 -0.4231
 5914SOL     OW29203   0.990   1.629   0.013 -0.3587 -0.4959 -0.8593
 5914SOL    HW129204   1.007   1.541  17.662 -1.1736 -1.1779  0.5897
 5914SOL    HW229205   0.985   1.681  17.613 -0.2507  0.2080 -0.4105
 5915SOL     OW29206   3.393   1.320   1.932 -0.3458 -0.3106 -0.0775
 5915SOL    HW129207   3.318   1.262   1.919 -1.1627  0.9470 -1.0599
 5915SOL    HW229208   3.360   1.369   2.007  0.4123  0.2645 -0.1191
 5916SOL     OW29209   3.361   2.792   8.497 -0.1318  0.0855 -0.1144
 5916SOL    HW129210   3.445   2.827   8.528  0.5178 -1.3326 -0.2759
 5916SOL    HW229211   3.350   2.850   8.422  1.0204 -2.0107 -1.9305
 5917SOL     OW29212   0.647   2.891   5.994 -0.6851 -0.2998 -0.0073
 5917SOL    HW129213   0.629   2.963   5.934  0.4926  0.4954  0.5791
 5917SOL    HW229214   0.730   2.917   6.033 -0.8429 -2.1533  1.6084
 5918SOL     OW29215   0.138   2.240   5.110 -0.2040  0.2161 -0.5422
 5918SOL    HW129216   0.208   2.229   5.173 -3.2348 -2.4430  2.3141
 5918SOL    HW229217   0.090   2.163   5.138 -1.5510  0.6994 -1.4808
 5919SOL     OW29218   2.859   4.674   6.061  0.0742  0.6621  0.1945
 5919SOL    HW129219   2.871   4.679   5.966 -3.4657  0.4160 -0.2309
 5919SOL    HW229220   2.893   4.585   6.075 -0.8801  0.6558  2.3966
 5920SOL     OW29221   1.331   4.606   7.626  0.0394 -0.1420  0.4033
 5920SOL    HW129222   1.347   4.689   7.581  0.0906 -0.5286 -0.2960
 5920SOL    HW229223   1.241   4.614   7.658  0.5120  0.6220  1.5316
 5921SOL     OW29224   3.090   3.707   4.507  0.0282  0.6091  0.1239
 5921SOL    HW129225   3.020   3.687   4.445  1.7704  1.1190 -2.0516
 5921SOL    HW229226   3.136   3.777   4.460 -1.0816 -1.2059 -3.6847
 5922SOL     OW29227   4.270   3.555   7.705 -0.2920  0.2385 -0.5947
 5922SOL    HW129228   4.299   3.549   7.796  0.9758  2.2418 -0.8550
 5922SOL    HW229229   4.202   3.622   7.704 -0.2302  0.2986 -0.8301
 5923SOL     OW29230   3.001   0.221   2.657 -0.2583  0.2618 -0.6993
 5923SOL    HW129231   2.936   0.179   2.601  1.5939 -1.7871 -1.3649
 5923SOL    HW229232   3.047   0.142   2.687  1.6832  0.8342 -2.1242
 5924SOL     OW29233   2.842   1.629   4.963  0.4722 -0.5319  0.0927
 5924SOL    HW129234   2.753   1.647   4.932  1.0083 -0.9072 -1.6442
 5924SOL    HW229235   2.843   1.692   5.036 -1.1565  0.2104 -0.5116
 5925SOL     OW29236   3.900   2.390   1.528 -0.3577 -0.4773 -0.2120
 5925SOL    HW129237   3.993   2.370   1.519 -0.1903 -0.2089  0.9381
 5925SOL    HW229238   3.887   2.364   1.619  2.2041 -2.5416 -0.4391
 5926SOL     OW29239   1.579   1.987   8.360 -0.1633 -0.3428  0.4735
 5926SOL    HW129240   1.620   1.934   8.428 -0.4804 -2.4016 -0.9621
 5926SOL    HW229241   1.651   2.013   8.302 -0.8069  0.0129 -0.1685
 5927SOL     OW29242   0.730   1.548   7.942  0.0245 -0.3873  0.3812
 5927SOL    HW129243   0.807   1.586   7.900  0.0101 -0.0731  0.6446
 5927SOL    HW229244   0.717   1.628   7.993  0.5388  0.3753 -0.6862
 5928SOL     OW29245   3.798   0.217   7.968  0.1959  0.3221  0.9487
 5928SOL    HW129246   3.731   0.247   8.029 -0.2613  0.3135  0.4504
 5928SOL    HW229247   3.781   0.282   7.900  0.2327  1.2564  1.8501
 5929SOL     OW29248   1.193   2.256   4.445 -0.3909  0.0492  0.7055
 5929SOL    HW129249   1.209   2.208   4.526  0.2296  0.5535  0.8823
 5929SOL    HW229250   1.153   2.336   4.480  0.7244  1.3419 -1.0103
 5930SOL     OW29251   0.053   1.942   1.721 -0.5088 -0.2431 -0.4874
 5930SOL    HW129252   0.037   1.933   1.815 -0.6430  4.9059 -0.0129
 5930SOL    HW229253   0.131   1.996   1.725  0.2372 -1.2277 -1.9930
 5931SOL     OW29254   3.544   4.078   4.166  0.2359  0.1421 -0.3530
 5931SOL    HW129255   3.632   4.086   4.202  0.0922 -0.4223  0.1114
 5931SOL    HW229256   3.528   4.169   4.143  0.8679  0.0555 -1.1466
 5932SOL     OW29257   4.081   3.025  10.240 -0.0608 -0.2416 -0.3749
 5932SOL    HW129258   4.169   3.009  10.205 -0.1777  1.3344 -1.3952
 5932SOL    HW229259   4.037   3.075  10.172  1.3985  0.2915 -0.9308
 5933SOL     OW29260   2.471   4.706  14.834  0.1785  0.3948  0.1023
 5933SOL    HW129261   2.501   0.071  14.801 -2.1144  0.9609 -0.5308
 5933SOL    HW229262   2.416   0.021  14.904  2.3947 -0.0460  2.0644
 5934SOL     OW29263   3.779   3.191   1.151 -0.0226 -0.6599 -0.3781
 5934SOL    HW129264   3.811   3.261   1.207  0.0753 -0.6011 -0.5066
 5934SOL    HW229265   3.820   3.115   1.192  0.2370  0.4833  1.4683
 5935SOL     OW29266   1.294   3.891   1.633 -0.9656 -0.5793  0.5310
 5935SOL    HW129267   1.352   3.850   1.567 -1.4452  1.6730 -1.2829
 5935SOL    HW229268   1.222   3.910   1.574 -2.1796 -0.1260  2.1693
 5936SOL     OW29269   3.164   2.845   1.868  0.8359 -0.8564 -0.6315
 5936SOL    HW129270   3.179   2.779   1.800  0.2693  0.9675 -2.5187
 5936SOL    HW229271   3.211   2.922   1.837 -2.3105  1.4335  0.3629
 5937SOL     OW29272   4.521   3.367   2.806 -0.2046 -0.0351 -0.4268
 5937SOL    HW129273   4.542   3.456   2.833  1.3284 -0.4469 -0.2045
 5937SOL    HW229274   4.583   3.353   2.734  1.2705 -1.1205  1.0202
 5938SOL     OW29275   3.715   2.462   6.500 -0.3069  0.7773 -0.0467
 5938SOL    HW129276   3.790   2.409   6.476 -2.4106 -1.7620 -0.9770
 5938SOL    HW229277   3.755   2.549   6.493 -1.1553  1.3259  1.9594
 5939SOL     OW29278   4.675   2.695  17.675 -0.1752  0.6077  0.4734
 5939SOL    HW129279   4.660   2.635   0.067  1.5376 -0.0035  0.3229
 5939SOL    HW229280   4.585   2.717  17.649 -0.3538 -1.4917 -0.7260
 5940SOL     OW29281   0.068   1.592   6.643  0.2268  0.6733  0.1617
 5940SOL    HW129282   0.091   1.624   6.556  1.3223  1.8794  0.8981
 5940SOL    HW229283   0.151   1.602   6.689  0.5690 -0.9571 -0.1108
 5941SOL     OW29284   2.680   2.423   4.543  0.1581 -0.2830 -0.2971
 5941SOL    HW129285   2.608   2.373   4.580 -1.1128  1.3163 -0.6353
 5941SOL    HW229286   2.686   2.486   4.616  2.0786  0.1432 -0.8018
 5942SOL     OW29287   1.841   4.486   8.032 -0.5176  0.4344 -0.5758
 5942SOL    HW129288   1.887   4.414   7.989 -0.0646  0.7804 -0.6668
 5942SOL    HW229289   1.841   4.455   8.123 -0.5030  1.5736 -0.1865
 5943SOL     OW29290   0.030   0.873   2.005  0.2564 -0.1318  0.9107
 5943SOL    HW129291   0.046   0.792   1.956  0.7773 -0.0072  0.8713
 5943SOL    HW229292   4.703   0.929   1.942  2.0184  0.1521 -0.1651
 5944SOL     OW29293   2.650   0.571   4.461  0.4679  0.2320  0.2238
 5944SOL    HW129294   2.632   0.494   4.515 -2.1895  1.6449  1.3434
 5944SOL    HW229295   2.729   0.603   4.503 -0.5882  1.6681  1.0949
 5945SOL     OW29296   4.484   4.712   5.997 -0.0376  0.2547  0.0626
 5945SOL    HW129297   4.416   4.645   5.986  2.5290 -2.4641  0.9181
 5945SOL    HW229298   4.546   4.666   6.053  0.9632  0.9480 -0.4717
 5946SOL     OW29299   0.814   1.260   4.052 -0.4174  0.2565 -0.1187
 5946SOL    HW129300   0.827   1.227   3.962 -1.2034 -1.4540  0.3866
 5946SOL    HW229301   0.888   1.321   4.056  0.1451 -0.5133  1.0787
 5947SOL     OW29302   1.437   0.676  14.882 -0.0930  0.2671  0.1085
 5947SOL    HW129303   1.452   0.616  14.955  2.6956  1.0263  0.1467
 5947SOL    HW229304   1.497   0.745  14.912  0.9565  1.6227 -5.1020
 5948SOL     OW29305   0.919   0.594   1.638  0.3467 -0.2968 -0.2652
 5948SOL    HW129306   0.922   0.503   1.668  2.7863 -0.4800 -1.0642
 5948SOL    HW229307   0.860   0.632   1.702 -0.7812 -1.2654 -0.7168
 5949SOL     OW29308   1.522   2.591   4.807  0.3290  0.0218 -0.2527
 5949SOL    HW129309   1.491   2.611   4.895  1.5793 -1.1672  0.4569
 5949SOL    HW229310   1.608   2.632   4.817 -0.2005  0.9646  0.3909
 5950SOL     OW29311   4.051   0.901   3.341 -0.4099  0.1946  0.1670
 5950SOL    HW129312   4.041   0.816   3.383 -1.0102 -0.4785 -1.3448
 5950SOL    HW229313   3.956   0.906   3.328 -0.6012  1.7477  2.1752
 5951SOL     OW29314   4.099   1.548   3.044 -0.0703 -0.0141  0.4334
 5951SOL    HW129315   4.091   1.456   3.070  1.7994 -0.7737 -1.5984
 5951SOL    HW229316   4.182   1.577   3.081  0.0347 -1.9293  1.6921
 5952SOL     OW29317   1.666   3.753  11.077 -0.0849 -0.3691  0.1179
 5952SOL    HW129318   1.589   3.733  11.131  0.5504  1.2124  1.6008
 5952SOL    HW229319   1.722   3.791  11.144  1.7856 -0.7987 -1.2188
 5953SOL     OW29320   3.902   2.953  10.418  0.0957 -1.0177 -0.4279
 5953SOL    HW129321   3.957   2.979  10.345 -2.1720 -0.6369 -2.0096
 5953SOL    HW229322   3.910   3.024  10.481 -0.4308 -0.8741 -0.5219
 5954SOL     OW29323   3.193   1.260  13.875  0.5687 -0.5326  0.3500
 5954SOL    HW129324   3.214   1.236  13.785 -0.9913  0.4176 -0.2716
 5954SOL    HW229325   3.106   1.222  13.889  0.9943 -1.5457  0.1794
 5955SOL     OW29326   2.848   2.210  12.238 -0.7005  0.0017 -0.5814
 5955SOL    HW129327   2.920   2.233  12.298  0.0179  1.1853 -1.9154
 5955SOL    HW229328   2.770   2.212  12.294 -1.2207  2.5192 -1.4217
 5956SOL     OW29329   3.586   2.445  14.116  0.0066 -0.1242 -0.2718
 5956SOL    HW129330   3.514   2.460  14.177 -0.5581  1.5635 -1.3631
 5956SOL    HW229331   3.564   2.512  14.052 -1.6267 -0.3355  0.0505
 5957SOL     OW29332   3.321   3.141   1.396 -0.0089  0.7054  0.3747
 5957SOL    HW129333   3.258   3.094   1.450 -0.8247  2.3278  0.8323
 5957SOL    HW229334   3.376   3.069   1.367 -0.1405  0.4863  0.6723
 5958SOL     OW29335   0.288   3.620  11.742  0.2667  0.5133 -0.4324
 5958SOL    HW129336   0.280   3.710  11.775  3.6137  0.2229  1.0742
 5958SOL    HW229337   0.195   3.615  11.717  0.1446 -0.0435  0.1479
 5959SOL     OW29338   1.429   0.630   5.473  0.2845 -0.2024  0.7480
 5959SOL    HW129339   1.382   0.555   5.436 -1.4479  1.2181  0.0721
 5959SOL    HW229340   1.356   0.692   5.476  0.3043 -0.1167 -0.6408
 5960SOL     OW29341   3.984   1.162   0.030 -0.2054  0.1871 -0.2613
 5960SOL    HW129342   4.030   1.110   0.096  0.3549  1.8821  0.7127
 5960SOL    HW229343   4.060   1.213   0.001  0.8122 -1.1714  0.0092
 5961SOL     OW29344   2.698   1.920   5.632 -0.7107  0.2630 -0.0159
 5961SOL    HW129345   2.667   1.928   5.723 -3.8197 -3.3943 -0.7506
 5961SOL    HW229346   2.774   1.863   5.638 -0.9691 -0.0921 -0.1609
 5962SOL     OW29347   2.155   1.093   4.687 -0.7778 -0.2246  0.3424
 5962SOL    HW129348   2.095   1.019   4.690 -0.7850 -0.2442 -0.3085
 5962SOL    HW229349   2.188   1.108   4.776  1.1432  1.6867 -0.6866
 5963SOL     OW29350   0.729   1.055  12.950 -0.1956  0.6354  0.3223
 5963SOL    HW129351   0.767   1.083  12.866  1.1680  1.1207  1.0956
 5963SOL    HW229352   0.657   1.118  12.950 -1.0496 -0.3462 -0.2665
 5964SOL     OW29353   2.566   1.449   8.033 -0.4114  0.0409  0.4931
 5964SOL    HW129354   2.483   1.422   8.072 -1.0388 -0.3053 -1.0725
 5964SOL    HW229355   2.612   1.492   8.105  0.7514  1.4378 -1.0865
 5965SOL     OW29356   2.778   2.611   5.099  0.7404 -0.4431  0.5545
 5965SOL    HW129357   2.745   2.536   5.050  0.3116  0.3941 -0.4481
 5965SOL    HW229358   2.864   2.629   5.061  0.8899 -3.6004 -0.5667
 5966SOL     OW29359   4.187   0.985   4.780  0.0661 -0.4877 -0.4601
 5966SOL    HW129360   4.150   0.952   4.862  0.0948  0.4150 -0.0755
 5966SOL    HW229361   4.199   1.075   4.811 -0.6502  0.2357 -2.3031
 5967SOL     OW29362   2.970   2.948   7.636  0.4211  0.0554 -0.4597
 5967SOL    HW129363   2.880   2.976   7.616  0.1390 -1.0684 -0.7905
 5967SOL    HW229364   3.015   3.028   7.608  1.0047  0.4570  1.6567
 5968SOL     OW29365   0.535   0.866  14.784 -0.1479  0.1108  0.2395
 5968SOL    HW129366   0.468   0.801  14.805 -0.1728 -0.7678 -2.5689
 5968SOL    HW229367   0.522   0.888  14.692 -0.1203  0.5811  0.3446
 5969SOL     OW29368   2.492   4.062   7.154  0.4862  0.0801 -0.0027
 5969SOL    HW129369   2.411   4.088   7.197  0.9299 -0.9845  1.4735
 5969SOL    HW229370   2.467   3.976   7.120  0.1885  0.9952 -2.0817
 5970SOL     OW29371   2.329   1.278   2.630 -0.3850 -0.0590 -0.2593
 5970SOL    HW129372   2.313   1.243   2.718  2.0581 -0.4285  0.0494
 5970SOL    HW229373   2.254   1.337   2.623  0.6200  1.4969  1.8306
 5971SOL     OW29374   4.414   1.754  14.580  0.7099  0.6516 -0.2021
 5971SOL    HW129375   4.383   1.813  14.511  0.1613 -1.5690 -1.8797
 5971SOL    HW229376   4.506   1.761  14.557  1.0033  0.2259  0.8502
 5972SOL     OW29377   4.689   3.955  16.982 -0.2904 -0.2625  0.6479
 5972SOL    HW129378   0.012   4.005  16.911 -1.3073 -1.0109 -0.4861
 5972SOL    HW229379   4.705   3.864  16.958 -0.3124 -0.4135  1.2125
 5973SOL     OW29380   1.830   2.060   6.256 -0.2112 -0.2795 -0.4960
 5973SOL    HW129381   1.893   1.993   6.281 -0.1886  0.9103  2.6624
 5973SOL    HW229382   1.772   2.039   6.329  1.4616  1.9201  1.4727
 5974SOL     OW29383   1.612   1.404   7.990  0.0948 -0.0123 -0.2472
 5974SOL    HW129384   1.547   1.469   7.964 -1.2273 -1.7981 -1.3594
 5974SOL    HW229385   1.667   1.463   8.042 -1.2160 -0.1894  1.2898
 5975SOL     OW29386   3.924   1.313   4.038 -0.5651 -0.0524 -0.7000
 5975SOL    HW129387   3.865   1.248   4.077 -0.5319  0.7827  0.7571
 5975SOL    HW229388   3.919   1.385   4.101  0.9461 -0.9214  0.4111
 5976SOL     OW29389   1.912   0.674   9.244 -0.4550 -0.2154  0.1713
 5976SOL    HW129390   1.933   0.582   9.264 -1.6808 -0.9747 -2.0663
 5976SOL    HW229391   1.820   0.672   9.219  0.0258  0.0868 -1.5578
 5977SOL     OW29392   0.682   1.255   3.600  0.0598 -0.2266  0.1219
 5977SOL    HW129393   0.653   1.331   3.649  1.5305  1.3311 -1.4249
 5977SOL    HW229394   0.722   1.297   3.524  1.0554  0.8954  1.2694
 5978SOL     OW29395   1.203   0.651  11.814 -0.0360 -0.3421  0.2787
 5978SOL    HW129396   1.124   0.698  11.841 -0.1871 -0.9612  0.9212
 5978SOL    HW229397   1.168   0.623  11.729  3.2063 -2.0283 -0.4977
 5979SOL     OW29398   4.650   3.275   7.865  0.8534 -0.3759 -0.1125
 5979SOL    HW129399   4.591   3.235   7.801  0.0483 -1.5810  1.3891
 5979SOL    HW229400   4.596   3.313   7.934 -0.2931 -0.1479 -1.1500
 5980SOL     OW29401   1.191   4.326   3.122 -0.2938  0.7582  0.5603
 5980SOL    HW129402   1.205   4.266   3.049  0.6779 -1.8428  2.8949
 5980SOL    HW229403   1.145   4.400   3.082  0.1943  1.6302  1.5914
 5981SOL     OW29404   2.188   3.009   7.323  0.0307 -0.2486  0.0946
 5981SOL    HW129405   2.140   2.987   7.243  3.2657  0.8635 -2.1244
 5981SOL    HW229406   2.195   3.104   7.320 -0.0445 -0.2708 -1.0391
 5982SOL     OW29407   0.345   4.645  12.432 -0.6957  0.2486 -0.2992
 5982SOL    HW129408   0.273   4.704  12.410 -0.3899  1.5015  2.0779
 5982SOL    HW229409   0.356   4.664  12.525  1.7629 -0.7843 -0.3901
 5983SOL     OW29410   0.408   1.328   5.575  0.7068 -0.8487  0.0022
 5983SOL    HW129411   0.372   1.400   5.522  3.6210 -0.2601 -1.1653
 5983SOL    HW229412   0.441   1.286   5.495 -1.6811 -1.9749 -0.3893
 5984SOL     OW29413   1.665   0.157   1.133  0.0221 -0.0437 -0.0195
 5984SOL    HW129414   1.656   0.131   1.225  2.0640  0.0827  0.2139
 5984SOL    HW229415   1.586   0.210   1.117 -0.7758 -0.7159  1.7207
 5985SOL     OW29416   2.881   0.657   4.608  0.2865 -0.8520 -0.1012
 5985SOL    HW129417   2.919   0.743   4.590 -4.2835  1.7737  2.6014
 5985SOL    HW229418   2.831   0.680   4.687  0.7997 -0.9719  0.2622
 5986SOL     OW29419   3.277   1.712   6.849 -0.0839  0.7145  0.5063
 5986SOL    HW129420   3.222   1.634   6.860 -2.0865  1.9963 -0.4964
 5986SOL    HW229421   3.224   1.781   6.890 -1.3478  0.1152 -0.1343
 5987SOL     OW29422   2.267   1.897   6.909 -0.2239  0.7749 -0.5785
 5987SOL    HW129423   2.332   1.932   6.971 -2.4709  1.0331  1.6359
 5987SOL    HW229424   2.237   1.978   6.868  1.3091  1.0650 -1.1405
 5988SOL     OW29425   2.931   1.533   5.659  0.1381 -0.5017  0.1875
 5988SOL    HW129426   2.936   1.535   5.563 -1.5173 -1.5285  0.0823
 5988SOL    HW229427   2.860   1.477   5.688  0.4456 -0.7999  0.3708
 5989SOL     OW29428   2.980   1.658  15.424 -0.2285  0.2971  0.9715
 5989SOL    HW129429   2.905   1.713  15.404 -0.7142 -0.2275  1.3304
 5989SOL    HW229430   2.945   1.630  15.509  3.5193 -2.4747  1.6177
 5990SOL     OW29431   2.351   0.715   3.999  0.4901  0.4582 -0.1911
 5990SOL    HW129432   2.319   0.711   4.089 -0.2505 -0.8066 -0.5011
 5990SOL    HW229433   2.333   0.804   3.969 -2.1838  0.3452  1.0316
 5991SOL     OW29434   2.164   3.320   2.414  0.3219 -0.7501  0.0490
 5991SOL    HW129435   2.245   3.284   2.379  1.1115  0.8761  0.1656
 5991SOL    HW229436   2.148   3.282   2.500 -0.7593  1.4962  0.8388
 5992SOL     OW29437   2.299   3.611   3.243 -0.0736  0.7116  0.1489
 5992SOL    HW129438   2.342   3.557   3.309 -0.1244  2.7522  1.8569
 5992SOL    HW229439   2.349   3.595   3.163 -1.2201 -0.2750 -0.3745
 5993SOL     OW29440   4.084   3.563   5.646 -0.2989 -1.0472 -0.2656
 5993SOL    HW129441   4.165   3.579   5.695  0.6300 -0.9172 -1.8497
 5993SOL    HW229442   4.020   3.616   5.694 -0.1336 -0.3557 -0.8116
 5994SOL     OW29443   4.276   3.785   0.353 -0.4870 -0.2815 -0.1905
 5994SOL    HW129444   4.222   3.723   0.402 -0.9812  1.7627  1.8694
 5994SOL    HW229445   4.360   3.770   0.398 -1.2130 -1.2605  0.8292
 5995SOL     OW29446   2.447   1.833   1.575  0.0684 -0.0828 -0.0567
 5995SOL    HW129447   2.443   1.765   1.642 -0.2627 -2.6857 -2.7150
 5995SOL    HW229448   2.371   1.810   1.521  0.1459  0.2566 -0.3097
 5996SOL     OW29449   2.454   1.409  12.919  0.5857  0.1268  0.5634
 5996SOL    HW129450   2.382   1.466  12.894 -1.7834 -3.5074 -0.8389
 5996SOL    HW229451   2.488   1.395  12.831  2.6146  0.9582  1.2017
 5997SOL     OW29452   2.338   4.053   6.436 -0.3534 -0.2861  0.2744
 5997SOL    HW129453   2.290   4.023   6.514 -0.3401 -1.7832 -0.2878
 5997SOL    HW229454   2.354   4.146   6.448  1.0198 -0.2015 -2.2845
 5998SOL     OW29455   3.115   2.502   3.226 -0.3648  0.3805 -0.3283
 5998SOL    HW129456   3.099   2.509   3.132  0.0445 -0.2718 -0.4470
 5998SOL    HW229457   3.108   2.408   3.246  0.0967  0.6447  1.0556
 5999SOL     OW29458   2.084   0.098   4.977 -0.3087  0.6285 -0.0087
 5999SOL    HW129459   2.081   0.003   4.990 -1.0107  0.7652  0.8479
 5999SOL    HW229460   2.000   0.129   5.011 -0.5041  0.4444 -0.3236
 6000SOL     OW29461   1.672   2.558  10.034 -0.0743  0.1441 -0.4753
 6000SOL    HW129462   1.647   2.507  10.111 -1.5047 -0.0358 -1.0499
 6000SOL    HW229463   1.664   2.650  10.060  2.0863  0.4467 -0.8638
 6001SOL     OW29464   1.093   3.892   0.306 -0.1629 -0.3023 -0.3754
 6001SOL    HW129465   1.006   3.855   0.320  0.2649 -1.1796 -0.0469
 6001SOL    HW229466   1.152   3.817   0.302 -0.4324 -0.6704  2.9772
 6002SOL     OW29467   2.547   1.782  14.889  0.4459  0.6226 -0.3426
 6002SOL    HW129468   2.497   1.855  14.852  0.0541  1.5015  1.9184
 6002SOL    HW229469   2.578   1.804  14.976 -1.8690 -0.0864  0.6696
 6003SOL     OW29470   0.372   3.849   7.446  0.1867  0.0357 -0.0213
 6003SOL    HW129471   0.451   3.801   7.471  0.5878  1.0954  0.7325
 6003SOL    HW229472   0.359   3.916   7.514 -0.3980  1.5879 -1.6672
 6004SOL     OW29473   4.087   1.993   7.145  0.7076 -0.2576 -0.2025
 6004SOL    HW129474   4.152   1.960   7.083  0.2571 -1.7851  0.1447
 6004SOL    HW229475   4.008   1.996   7.092  0.7565 -0.6118 -0.2948
 6005SOL     OW29476   1.739   0.239   0.565 -0.0799 -0.3386 -0.1813
 6005SOL    HW129477   1.827   0.226   0.602 -0.7958 -1.6645  1.0662
 6005SOL    HW229478   1.766   0.298   0.494  0.6547  1.3248  1.4859
 6006SOL     OW29479   1.756   1.384   1.305 -0.2943  0.3053 -0.2221
 6006SOL    HW129480   1.690   1.358   1.369 -0.3388  4.1206  1.2614
 6006SOL    HW229481   1.709   1.368   1.223  0.2093  0.3618 -0.5181
 6007SOL     OW29482   3.182   4.357   7.227  0.2678  0.3100 -0.3145
 6007SOL    HW129483   3.094   4.385   7.254  1.7919  3.2564  1.6530
 6007SOL    HW229484   3.166   4.348   7.133 -0.4871 -0.2887 -0.1298
 6008SOL     OW29485   2.825   2.137  15.456 -0.5106 -0.0504 -0.2766
 6008SOL    HW129486   2.766   2.210  15.477  0.2186  0.5170 -0.1932
 6008SOL    HW229487   2.900   2.189  15.427  0.4115 -1.5014 -0.4925
 6009SOL     OW29488   0.099   2.095  16.423  0.3559  0.0412 -0.2910
 6009SOL    HW129489   0.050   2.040  16.361 -0.7645 -0.0759  0.6936
 6009SOL    HW229490   0.038   2.134  16.485 -0.2561  0.0119 -0.8755
 6010SOL     OW29491   3.259   1.816   5.489 -0.3425  0.2344  0.5490
 6010SOL    HW129492   3.337   1.784   5.534 -1.2465 -0.3610  1.6971
 6010SOL    HW229493   3.250   1.744   5.426  0.4584  1.7966 -1.3609
 6011SOL     OW29494   0.527   4.018   7.775 -0.5800  0.6799 -0.0981
 6011SOL    HW129495   0.432   4.007   7.775 -0.3802 -1.0303  1.7587
 6011SOL    HW229496   0.538   4.009   7.870  1.6329  0.6867 -0.3449
 6012SOL     OW29497   1.829   4.145   8.710 -0.0621  0.2692 -0.0466
 6012SOL    HW129498   1.819   4.183   8.797 -0.4423  1.4941 -0.6327
 6012SOL    HW229499   1.747   4.096   8.698  0.5916 -0.3377 -2.1722
 6013SOL     OW29500   2.351   1.742   8.945  0.4416 -0.4509 -0.6246
 6013SOL    HW129501   2.286   1.776   8.883  0.9457  0.6688 -0.5440
 6013SOL    HW229502   2.425   1.751   8.885  1.2425  1.2633  0.5989
 6014SOL     OW29503   1.749   0.741   7.399 -0.0484  0.1756 -0.0091
 6014SOL    HW129504   1.692   0.815   7.423 -0.9434 -0.8138  0.9595
 6014SOL    HW229505   1.687   0.671   7.421 -0.1354  0.1439 -0.3670
 6015SOL     OW29506   3.638   0.971   2.129 -0.2263  0.4256  0.0917
 6015SOL    HW129507   3.565   0.955   2.070  0.0286  0.9870 -0.3797
 6015SOL    HW229508   3.677   1.054   2.101 -0.6295  1.0370  1.3237
 6016SOL     OW29509   3.514   3.763   5.202 -0.1373 -0.7303 -0.7005
 6016SOL    HW129510   3.553   3.841   5.242  0.3511 -0.5641 -1.4928
 6016SOL    HW229511   3.465   3.723   5.274 -1.8192 -1.2337 -2.1400
 6017SOL     OW29512   3.046   2.697   5.859  0.4095  0.0370 -0.0236
 6017SOL    HW129513   3.097   2.742   5.792 -1.2534  0.3556 -1.0446
 6017SOL    HW229514   3.100   2.717   5.936 -2.4248  1.6338  1.5583
 6018SOL     OW29515   2.186   0.040   6.962 -0.0013 -0.0590 -0.1950
 6018SOL    HW129516   2.227   0.076   6.884  0.7480  1.4281  0.8854
 6018SOL    HW229517   2.204   4.667   6.944  0.0393 -0.1569  0.3383
 6019SOL     OW29518   4.547   2.181   3.294 -0.4829  0.4566 -0.1638
 6019SOL    HW129519   4.460   2.143   3.300 -1.3168  2.3497 -0.4275
 6019SOL    HW229520   4.553   2.197   3.200 -3.6007 -1.9985 -0.7678
 6020SOL     OW29521   0.417   2.452   7.328 -0.0508  0.1054  0.7550
 6020SOL    HW129522   0.445   2.362   7.343  1.4652  0.3045 -0.8746
 6020SOL    HW229523   0.415   2.454   7.232  1.2007 -0.6672  0.7210
 6021SOL     OW29524   0.093   4.467   3.673  0.4296  0.8562 -0.2998
 6021SOL    HW129525   0.107   4.509   3.588 -2.8282 -0.8047 -1.6647
 6021SOL    HW229526   0.102   4.373   3.656  1.5479  0.9619 -0.3021
 6022SOL     OW29527   2.433   0.781  12.997  0.0185  0.0630 -0.0824
 6022SOL    HW129528   2.355   0.783  13.053  0.2262  2.6569  0.0965
 6022SOL    HW229529   2.495   0.826  13.054  0.8170  1.1602 -1.8473
 6023SOL     OW29530   1.842   3.187   5.360  0.0421 -0.0631  0.2297
 6023SOL    HW129531   1.829   3.193   5.454 -0.5463  2.5585 -0.0270
 6023SOL    HW229532   1.886   3.267   5.331 -1.4198  1.1668  1.4219
 6024SOL     OW29533   4.488   2.815   4.512  0.3224  0.0627  0.0917
 6024SOL    HW129534   4.555   2.850   4.453 -0.9704 -1.7666 -2.4432
 6024SOL    HW229535   4.541   2.763   4.572 -0.7467 -0.1384  0.8767
 6025SOL     OW29536   4.640   3.890   0.575  0.1930  0.0925 -0.4420
 6025SOL    HW129537   4.623   3.890   0.670 -0.0341 -0.0329 -0.4830
 6025SOL    HW229538   4.689   3.971   0.565  0.8364 -0.0128  1.9078
 6026SOL     OW29539   2.226   3.860   2.997  0.2163 -0.0945 -0.6896
 6026SOL    HW129540   2.224   3.810   2.915 -0.5469  0.4777 -1.0174
 6026SOL    HW229541   2.212   3.951   2.971 -0.8747  0.5050  2.0278
 6027SOL     OW29542   3.637   4.314   3.661  0.1091  0.1597 -0.1667
 6027SOL    HW129543   3.640   4.218   3.663  0.5752  0.1348 -1.8975
 6027SOL    HW229544   3.582   4.337   3.586 -1.0296  2.3840  1.3360
 6028SOL     OW29545   3.957   0.845   1.698  0.7189 -0.2589  0.7850
 6028SOL    HW129546   3.875   0.890   1.679 -0.3210 -2.2927  0.4793
 6028SOL    HW229547   3.932   0.799   1.778 -0.5570  2.0347  1.7295
 6029SOL     OW29548   0.717   0.509  17.449 -0.0848  0.2185 -0.5657
 6029SOL    HW129549   0.653   0.441  17.426  0.9453  0.3351 -3.7814
 6029SOL    HW229550   0.788   0.445  17.448 -1.1148 -0.9230 -0.5796
 6030SOL     OW29551   0.981   3.404   7.815  0.0292 -0.2837 -0.3809
 6030SOL    HW129552   0.886   3.393   7.820  0.1632 -1.0921  0.1919
 6030SOL    HW229553   1.012   3.317   7.840 -2.9038 -1.1212  0.2934
 6031SOL     OW29554   4.345   4.233  13.420  0.0871 -0.0146  0.2372
 6031SOL    HW129555   4.428   4.242  13.466  1.8623 -2.4490 -2.5435
 6031SOL    HW229556   4.282   4.205  13.486  2.5417  0.1454  2.6235
 6032SOL     OW29557   1.372   2.760   8.685  0.0777  0.1059 -0.3469
 6032SOL    HW129558   1.466   2.776   8.693 -0.4728  4.2284 -2.1404
 6032SOL    HW229559   1.342   2.755   8.776 -1.3426  0.6881 -0.7742
 6033SOL     OW29560   4.006   0.666   8.401  0.1018 -0.1211 -0.0737
 6033SOL    HW129561   3.946   0.729   8.441 -0.9684 -2.0222  1.3292
 6033SOL    HW229562   3.942   0.640   8.335 -0.8547  1.4763  0.2299
 6034SOL     OW29563   1.732   2.757   4.655 -0.7771  0.0987  0.0006
 6034SOL    HW129564   1.760   2.769   4.746  1.0650  1.0557 -0.6972
 6034SOL    HW229565   1.796   2.697   4.617  0.3583  0.9645  0.5770
 6035SOL     OW29566   4.606   4.551   1.807  0.3671  0.1342 -0.0337
 6035SOL    HW129567   4.614   4.508   1.722 -0.4331  0.1239 -0.1003
 6035SOL    HW229568   4.535   4.612   1.789 -1.9915 -3.7665 -3.9134
 6036SOL     OW29569   0.593   0.174   0.048  0.0290  0.0957  0.5596
 6036SOL    HW129570   0.526   0.115   0.082  0.1443 -0.6123 -0.4334
 6036SOL    HW229571   0.541   0.253   0.037 -2.3449 -1.5870 -0.3140
 6037SOL     OW29572   3.410   1.230   5.247 -1.0467 -0.5886 -0.3521
 6037SOL    HW129573   3.451   1.293   5.306 -1.6166 -0.6279  0.0812
 6037SOL    HW229574   3.462   1.154   5.273 -1.1276 -0.6316 -0.3164
 6038SOL     OW29575   2.715   4.671  12.530 -0.3845  0.0231  0.2016
 6038SOL    HW129576   2.722   4.704  12.619  3.0713  0.0146 -0.0512
 6038SOL    HW229577   2.763   4.590  12.545  1.4396  0.8302 -1.1735
 6039SOL     OW29578   1.777   2.091   7.990 -0.2149  0.3967 -0.2930
 6039SOL    HW129579   1.738   2.083   7.903 -2.3547  1.7263  0.5317
 6039SOL    HW229580   1.753   2.008   8.030  1.9319 -1.6987 -3.3612
 6040SOL     OW29581   2.546   0.196   3.290  0.1892  0.5438 -0.4535
 6040SOL    HW129582   2.456   0.189   3.261  0.0196  1.8771 -0.2741
 6040SOL    HW229583   2.589   0.218   3.207 -0.4164  0.6483 -0.7389
 6041SOL     OW29584   3.659   2.748  11.999  0.1680 -0.4580 -0.4819
 6041SOL    HW129585   3.741   2.795  12.015  0.3696 -0.6336 -1.0128
 6041SOL    HW229586   3.592   2.816  11.998  0.0806 -0.5488 -0.8812
 6042SOL     OW29587   1.230   3.328   7.570 -0.3556 -0.3929 -0.1538
 6042SOL    HW129588   1.280   3.353   7.648 -1.3180 -0.6579  0.5434
 6042SOL    HW229589   1.193   3.249   7.609  0.8430 -0.5707  0.6185
 6043SOL     OW29590   1.578   0.089  13.500  0.2135  0.2230 -0.0969
 6043SOL    HW129591   1.594   0.086  13.406 -0.3111 -1.3517 -0.1298
 6043SOL    HW229592   1.647   0.145  13.537  1.2435 -1.4961  0.6001
 6044SOL     OW29593   4.636   0.685   6.755  0.2910  0.0756  0.0131
 6044SOL    HW129594   4.639   0.777   6.781 -0.0178  0.0058  0.3001
 6044SOL    HW229595   4.590   0.683   6.671  1.3272 -1.0705 -0.5265
 6045SOL     OW29596   2.061   4.125  16.228  0.6286  0.1347  0.0280
 6045SOL    HW129597   2.146   4.094  16.196 -0.6301  0.1284 -3.2568
 6045SOL    HW229598   2.032   4.182  16.157  0.0825 -1.1936 -0.8302
 6046SOL     OW29599   3.099   4.430   9.097 -0.1462  0.0716  0.4104
 6046SOL    HW129600   3.077   4.345   9.057  1.4237  0.0601 -0.4419
 6046SOL    HW229601   3.152   4.466   9.026 -1.7113 -0.8478 -1.2109
 6047SOL     OW29602   1.613   2.045   8.983  0.0616 -0.4541 -0.2223
 6047SOL    HW129603   1.584   1.954   8.981  0.2245 -0.5135  0.2047
 6047SOL    HW229604   1.538   2.099   9.006  1.7810  1.2818  1.3186
 6048SOL     OW29605   3.761   2.165   4.694  0.4524  0.2322  0.0653
 6048SOL    HW129606   3.822   2.239   4.704  0.6602 -0.0178  0.6593
 6048SOL    HW229607   3.810   2.101   4.642  0.3747  1.2821 -1.3133
 6049SOL     OW29608   3.746   1.356   6.255 -0.2154  0.3171 -0.2363
 6049SOL    HW129609   3.694   1.436   6.252 -1.5239 -0.5196 -0.0514
 6049SOL    HW229610   3.770   1.351   6.348 -0.7056  3.7896  0.0849
 6050SOL     OW29611   1.893   1.958   0.090  0.3720 -0.2163 -0.1812
 6050SOL    HW129612   1.864   2.018   0.021  2.2869  1.3232  0.3600
 6050SOL    HW229613   1.833   1.885   0.075  1.6199 -1.3332  0.2741
 6051SOL     OW29614   4.410   0.627  17.670  0.3239  0.2888 -0.0089
 6051SOL    HW129615   4.443   0.649  17.583 -1.6344  0.5857 -0.6598
 6051SOL    HW229616   4.449   0.695   0.044 -0.7550  0.4507  0.5467
 6052SOL     OW29617   0.745   2.535  13.026  0.0197 -0.4683 -0.5378
 6052SOL    HW129618   0.686   2.467  12.995  0.8906 -1.1541 -0.6884
 6052SOL    HW229619   0.805   2.542  12.951 -1.6315 -2.3379 -2.0182
 6053SOL     OW29620   2.964   0.808  11.408 -0.2592  0.2387 -0.0598
 6053SOL    HW129621   3.059   0.818  11.417 -0.5677  1.4850  1.7770
 6053SOL    HW229622   2.963   0.815  11.312  1.1995 -0.1639 -0.1120
 6054SOL     OW29623   0.967   4.474   7.353  0.2515 -0.4227 -0.1926
 6054SOL    HW129624   0.966   4.446   7.444 -0.1356  2.3453  0.6755
 6054SOL    HW229625   1.023   4.552   7.357 -2.8937  1.9449 -1.8774
 6055SOL     OW29626   1.955   0.975   5.075 -0.1744  0.3051  0.1998
 6055SOL    HW129627   1.919   0.889   5.096  0.1189  0.5277  1.6482
 6055SOL    HW229628   1.975   0.954   4.984 -0.8653  1.1964 -0.1565
 6056SOL     OW29629   2.683   3.384   9.379 -0.1687 -0.1258 -0.1737
 6056SOL    HW129630   2.607   3.352   9.331 -0.7952 -1.0700  1.4624
 6056SOL    HW229631   2.651   3.359   9.466  0.6994 -0.2652  0.0994
 6057SOL     OW29632   3.081   3.711   2.678  0.0305  0.1874 -0.5426
 6057SOL    HW129633   3.159   3.767   2.669 -0.6491  1.3347  0.7342
 6057SOL    HW229634   3.092   3.657   2.756  1.6261 -0.5153 -1.2615
 6058SOL     OW29635   0.171   4.048  13.270  0.0366  0.4218  1.1901
 6058SOL    HW129636   0.139   4.093  13.192  0.4750 -1.5943 -0.1586
 6058SOL    HW229637   0.259   4.025  13.239 -0.7220 -0.5564 -0.2502
 6059SOL     OW29638   3.034   1.895   3.696  0.3453 -0.3346 -0.1080
 6059SOL    HW129639   3.121   1.896   3.736  1.0680 -1.4655 -1.6424
 6059SOL    HW229640   2.994   1.812   3.722 -0.1578  0.0957  0.4879
 6060SOL     OW29641   0.939   3.875   4.254  0.4428 -0.4266  0.3436
 6060SOL    HW129642   0.993   3.812   4.302 -1.4287 -0.9415  1.8096
 6060SOL    HW229643   0.868   3.817   4.228 -0.4718  1.2277 -0.8484
 6061SOL     OW29644   4.325   0.933   2.392 -0.0966  0.7233 -0.6081
 6061SOL    HW129645   4.245   0.961   2.436 -1.2919 -1.2602 -1.5380
 6061SOL    HW229646   4.296   0.871   2.325 -1.6358 -0.2252  0.9668
 6062SOL     OW29647   4.499   0.272  12.675 -0.4144  0.5013  0.4495
 6062SOL    HW129648   4.439   0.232  12.613  0.1632  0.3971 -0.0401
 6062SOL    HW229649   4.578   0.220  12.661 -0.4529  1.0316 -1.7293
 6063SOL     OW29650   0.662   0.278   4.653 -0.0182  0.1302  0.1865
 6063SOL    HW129651   0.669   0.347   4.719  0.3141  1.4790 -1.2618
 6063SOL    HW229652   0.575   0.250   4.680 -0.5402  0.5873 -0.9841
 6064SOL     OW29653   2.270   1.202   1.390 -0.3060 -0.2180 -0.0834
 6064SOL    HW129654   2.342   1.260   1.363  1.1968 -0.6642  2.9002
 6064SOL    HW229655   2.239   1.164   1.308 -0.2057 -0.3348 -0.0681
 6065SOL     OW29656   3.991   2.338   6.609 -0.0627 -0.5465 -0.2209
 6065SOL    HW129657   4.070   2.389   6.593 -0.7662  0.3535 -0.8115
 6065SOL    HW229658   3.962   2.392   6.683  2.4970  1.1159 -0.4173
 6066SOL     OW29659   1.294   3.341   6.338  0.3965 -0.6498  0.4092
 6066SOL    HW129660   1.338   3.337   6.423 -0.5300 -0.4339  0.8973
 6066SOL    HW229661   1.217   3.291   6.365  0.4796 -1.6914 -1.2977
 6067SOL     OW29662   2.377   3.089   8.995 -0.1083  0.2883 -0.0262
 6067SOL    HW129663   2.329   3.015   9.032 -1.7720  1.3601 -0.0705
 6067SOL    HW229664   2.423   3.050   8.921 -0.7801 -1.2962  0.3879
 6068SOL     OW29665   1.933   4.191   9.749 -0.2182  0.5166  0.1640
 6068SOL    HW129666   1.886   4.109   9.732 -0.2854  0.7761 -0.9150
 6068SOL    HW229667   2.022   4.156   9.756 -0.0316  0.8476 -0.5598
 6069SOL     OW29668   0.642   0.267  12.557 -0.6251 -0.3017  0.2420
 6069SOL    HW129669   0.630   0.193  12.499 -1.5648 -1.0431  1.3887
 6069SOL    HW229670   0.683   0.222  12.631  1.9351 -0.3097 -1.1926
 6070SOL     OW29671   1.406   1.921   0.260 -0.0579  0.2895  0.1480
 6070SOL    HW129672   1.314   1.903   0.240 -0.2395  0.7874  0.5383
 6070SOL    HW229673   1.398   1.979   0.335 -1.1694  0.4489 -0.0825
 6071SOL     OW29674   0.255   1.595   8.032  0.0255  0.0476 -0.2697
 6071SOL    HW129675   0.300   1.566   7.953  1.2115  0.4248  0.2759
 6071SOL    HW229676   0.222   1.679   8.000 -0.7048 -0.4530 -0.8491
 6072SOL     OW29677   2.973   0.295   8.975 -0.0444 -0.2784 -0.0395
 6072SOL    HW129678   3.062   0.271   8.949 -0.7174 -3.2295  0.3828
 6072SOL    HW229679   2.937   0.322   8.891  0.6308  2.0080  0.4150
 6073SOL     OW29680   1.456   0.400  13.676  0.4178 -0.2467  0.0168
 6073SOL    HW129681   1.492   0.333  13.735 -2.5898 -0.2746  1.8047
 6073SOL    HW229682   1.497   0.480  13.708  1.4615 -0.0003 -1.9327
 6074SOL     OW29683   3.634   0.982   6.969 -0.2811  0.0573  1.3100
 6074SOL    HW129684   3.660   1.067   7.004 -0.0527  0.7848 -0.6557
 6074SOL    HW229685   3.634   0.999   6.875 -2.8691 -0.5596  1.1912
 6075SOL     OW29686   2.683   0.995   7.469  0.0144  0.5759  0.2338
 6075SOL    HW129687   2.645   1.038   7.546  2.3373 -0.0005  1.7136
 6075SOL    HW229688   2.769   0.977   7.509 -0.3488 -0.6729  0.4628
 6076SOL     OW29689   0.924   0.743   7.325  0.8997  0.3015  0.1397
 6076SOL    HW129690   0.886   0.830   7.319  2.9219  1.0552 -1.6612
 6076SOL    HW229691   1.018   0.761   7.329  1.0756 -0.7801  1.1200
 6077SOL     OW29692   4.582   3.151   2.055  0.0533 -0.2077 -0.0309
 6077SOL    HW129693   4.573   3.091   1.981  1.2247  0.2141 -0.5164
 6077SOL    HW229694   4.673   3.149   2.084  0.3506 -0.5827 -0.9700
 6078SOL     OW29695   1.419   3.022   6.802 -0.0468 -0.3509 -0.0890
 6078SOL    HW129696   1.476   2.958   6.845  1.0452  0.7668  0.1105
 6078SOL    HW229697   1.441   3.101   6.851 -1.8573  1.6545 -2.4985
 6079SOL     OW29698   4.686   1.069   3.804 -0.1432  0.3243  0.0215
 6079SOL    HW129699   4.602   1.022   3.805 -0.9204  1.7532  0.9661
 6079SOL    HW229700   0.031   1.004   3.831  0.0572 -1.1029 -3.8385
 6080SOL     OW29701   2.589   0.191   7.875 -0.3473  0.2446 -0.1685
 6080SOL    HW129702   2.668   0.188   7.821 -0.4882  0.2076 -0.3753
 6080SOL    HW229703   2.584   0.286   7.879 -1.1773  0.2170 -0.5110
 6081SOL     OW29704   3.161   4.426   7.502  0.1695 -0.5255 -0.0111
 6081SOL    HW129705   3.176   4.422   7.407  1.4870 -1.9219  0.2569
 6081SOL    HW229706   3.082   4.479   7.510 -0.8640 -2.2800  1.3073
 6082SOL     OW29707   4.694   0.026   5.370 -0.0044  0.2602  0.0790
 6082SOL    HW129708   4.707   4.681   5.299  1.8960 -0.4133  1.0422
 6082SOL    HW229709   4.600   0.008   5.380  0.5374 -0.9754  2.7596
 6083SOL     OW29710   4.476   3.554  12.001 -0.1683  0.4345 -0.1721
 6083SOL    HW129711   4.516   3.468  11.990 -0.0616  0.3276  1.0865
 6083SOL    HW229712   4.549   3.602  12.040 -1.2313 -0.2549  2.6901
 6084SOL     OW29713   1.383   1.342   5.764 -0.2635  0.9924  0.0858
 6084SOL    HW129714   1.429   1.354   5.847 -0.0127 -0.1609  0.1217
 6084SOL    HW229715   1.456   1.310   5.712  0.5799  2.1718  0.5426
 6085SOL     OW29716   1.601   1.892  11.224  0.9386 -0.0128 -0.7634
 6085SOL    HW129717   1.596   1.832  11.298  0.1710 -1.4607 -2.0009
 6085SOL    HW229718   1.512   1.903  11.191  1.3318  2.2086 -1.0864
 6086SOL     OW29719   3.850   0.041   5.897 -0.4490  0.8381 -0.3506
 6086SOL    HW129720   3.943   0.021   5.911 -0.3914  0.5184 -1.2138
 6086SOL    HW229721   3.838   0.000   5.812 -0.9499 -1.7616  0.9740
 6087SOL     OW29722   2.744   0.794  14.493  0.0005 -0.2561  0.3782
 6087SOL    HW129723   2.667   0.761  14.539 -0.2688 -0.5512 -0.2699
 6087SOL    HW229724   2.702   0.802  14.407 -0.7337  0.2762  0.7911
 6088SOL     OW29725   2.263   2.581  10.557 -0.0921 -0.5350  0.0395
 6088SOL    HW129726   2.355   2.572  10.532  0.0286  0.5498  0.1296
 6088SOL    HW229727   2.253   2.504  10.613  0.3719 -0.6674 -0.0608
 6089SOL     OW29728   1.523   3.291   4.543  0.3150 -0.2143 -0.0160
 6089SOL    HW129729   1.591   3.339   4.591  1.5901 -0.5985 -1.4425
 6089SOL    HW229730   1.509   3.363   4.482  1.5192 -0.7282 -0.9087
 6090SOL     OW29731   3.108   0.456   1.471  0.0845  0.0027 -0.1752
 6090SOL    HW129732   3.135   0.422   1.557 -1.6897 -1.7903 -0.3033
 6090SOL    HW229733   3.015   0.468   1.492  0.2081 -1.4038  1.1961
 6091SOL     OW29734   0.175   3.322   2.272 -0.5065  0.2714  0.1445
 6091SOL    HW129735   0.224   3.371   2.206 -0.6005 -2.3016 -1.8245
 6091SOL    HW229736   0.093   3.370   2.284  0.2127  1.2679  1.1268
 6092SOL     OW29737   1.547   4.647  13.704 -0.0925  0.6751  0.2025
 6092SOL    HW129738   1.548   4.705  13.628  2.0793  1.0895  0.5364
 6092SOL    HW229739   1.635   4.675  13.729  1.2385 -1.1263 -2.4642
 6093SOL     OW29740   1.733   0.281   7.438 -0.3420  0.4619  0.0917
 6093SOL    HW129741   1.746   0.241   7.352  0.5512  1.2474 -0.1442
 6093SOL    HW229742   1.741   0.207   7.497  0.4295  1.1034  0.8004
 6094SOL     OW29743   2.236   0.900   3.399 -0.4215  0.0631  0.3404
 6094SOL    HW129744   2.173   0.827   3.398  0.7754 -0.9718  1.0665
 6094SOL    HW229745   2.319   0.854   3.404 -0.5512 -0.1076  1.0313
 6095SOL     OW29746   1.982   4.431   9.563  0.1432  0.3218 -0.3758
 6095SOL    HW129747   1.970   4.365   9.631 -0.4120  0.5303 -0.2746
 6095SOL    HW229748   1.972   4.366   9.494 -1.0168  0.3108 -0.1953
 6096SOL     OW29749   1.170   2.429   9.112 -0.4690 -0.2605 -0.2413
 6096SOL    HW129750   1.098   2.380   9.072  1.6048 -1.1784 -2.8303
 6096SOL    HW229751   1.116   2.485   9.167 -0.9138 -1.4851  0.5676
 6097SOL     OW29752   0.183   3.486   4.841 -0.1832  0.1994  0.1792
 6097SOL    HW129753   0.094   3.466   4.869  0.1110 -0.0689  0.9198
 6097SOL    HW229754   0.228   3.401   4.848 -0.1758  0.2574  0.7677
 6098SOL     OW29755   0.475   1.861  16.168  0.7591  0.2599  0.2176
 6098SOL    HW129756   0.515   1.775  16.182 -2.1020 -0.8204  1.8793
 6098SOL    HW229757   0.548   1.914  16.135  0.6454 -0.7548 -1.6804
 6099SOL     OW29758   1.462   1.521  10.430  0.6433  0.3798  0.5133
 6099SOL    HW129759   1.485   1.610  10.459  0.5696  0.3279  0.7288
 6099SOL    HW229760   1.435   1.538  10.339  0.7619  1.5266  0.6822
 6100SOL     OW29761   0.020   2.783  17.077  0.0214  0.2066 -0.5061
 6100SOL    HW129762   0.106   2.795  17.118 -0.8972 -1.5277  1.9416
 6100SOL    HW229763   0.030   2.695  17.040  0.7224  0.0482  0.0458
 6101SOL     OW29764   0.888   2.328  16.023 -0.2266 -0.4970 -0.2461
 6101SOL    HW129765   0.912   2.286  16.106 -2.2085 -0.2819  0.4211
 6101SOL    HW229766   0.973   2.360  15.993 -0.4176  0.9730  0.7436
 6102SOL     OW29767   4.336   1.045   2.004 -0.0291 -0.0643  0.6764
 6102SOL    HW129768   4.294   0.963   2.030 -0.6576  0.7072  2.0622
 6102SOL    HW229769   4.305   1.099   2.077 -3.0787 -0.4823 -0.3149
 6103SOL     OW29770   4.318   2.561  15.428 -0.0338  0.2327  0.0799
 6103SOL    HW129771   4.377   2.489  15.409  2.2316  1.7789  1.3040
 6103SOL    HW229772   4.320   2.553  15.524  1.7388 -2.2889 -0.1804
 6104SOL     OW29773   0.514   0.136   8.526  0.1743  0.1889  0.1040
 6104SOL    HW129774   0.457   0.150   8.601  0.3322  1.5310 -0.0228
 6104SOL    HW229775   0.524   0.041   8.517  2.8846  0.3654  1.3059
 6105SOL     OW29776   0.679   1.301  17.348 -0.4417  0.1348  0.7955
 6105SOL    HW129777   0.673   1.219  17.298  1.4428 -0.6223  1.8189
 6105SOL    HW229778   0.766   1.287  17.385 -0.3952 -2.6671 -0.3277
 6106SOL     OW29779   0.567   3.902   3.530  0.3464 -0.3214  0.4292
 6106SOL    HW129780   0.550   3.924   3.439 -1.1521 -0.1020  0.7632
 6106SOL    HW229781   0.646   3.955   3.529  0.4007 -0.4454 -1.1614
 6107SOL     OW29782   3.261   1.662  11.164 -0.0490 -0.1359  0.1686
 6107SOL    HW129783   3.346   1.664  11.119 -0.3738 -2.0904 -0.5431
 6107SOL    HW229784   3.287   1.662  11.256 -1.4972 -0.0050  0.5622
 6108SOL     OW29785   0.055   1.925  14.342 -0.5507  0.1633  0.1281
 6108SOL    HW129786   0.136   1.936  14.293 -1.5148  3.5825 -0.6628
 6108SOL    HW229787   0.002   1.861  14.294  1.6245 -2.4558  1.1670
 6109SOL     OW29788   2.671   2.401   5.355 -0.2316  0.4177 -0.3806
 6109SOL    HW129789   2.612   2.476   5.348 -0.2430  0.4626  0.2681
 6109SOL    HW229790   2.732   2.440   5.416  0.3412 -0.3542 -0.4584
 6110SOL     OW29791   0.568   1.828   5.223  0.0923  0.2440  0.3046
 6110SOL    HW129792   0.555   1.736   5.202  0.5313 -0.4539  3.0921
 6110SOL    HW229793   0.522   1.822   5.307  1.3546 -0.2469  0.9506
 6111SOL     OW29794   1.817   1.052   8.550 -0.0496 -0.2266  0.2712
 6111SOL    HW129795   1.798   1.143   8.575 -2.8380  0.1087 -3.1227
 6111SOL    HW229796   1.730   1.020   8.529 -0.6072  0.8807  0.8874
 6112SOL     OW29797   1.310   3.041  10.811 -0.2010  0.7743  0.0581
 6112SOL    HW129798   1.377   2.977  10.787  0.2489  1.8687 -1.6282
 6112SOL    HW229799   1.337   3.119  10.764  0.5951 -0.1090 -0.9490
 6113SOL     OW29800   3.103   4.250   2.764 -0.0590  0.5175 -0.0884
 6113SOL    HW129801   3.054   4.233   2.845 -1.2550  1.0039 -0.7023
 6113SOL    HW229802   3.186   4.205   2.776 -0.4840 -0.5382 -1.0943
 6114SOL     OW29803   0.596   4.015   5.787 -0.2112  0.2995 -0.2693
 6114SOL    HW129804   0.505   4.023   5.756  0.5083  4.4788 -1.2973
 6114SOL    HW229805   0.642   4.053   5.712  3.2378 -0.7528  1.3395
 6115SOL     OW29806   2.646   0.789  10.015 -0.1972 -0.7986  0.0311
 6115SOL    HW129807   2.640   0.715  10.076 -0.3362 -1.8601 -1.2855
 6115SOL    HW229808   2.579   0.759   9.954  1.6063 -0.5513 -2.0381
 6116SOL     OW29809   3.262   2.894   8.252  0.5741  0.0410 -0.3529
 6116SOL    HW129810   3.215   2.839   8.190 -3.3636  1.3592  1.4972
 6116SOL    HW229811   3.338   2.920   8.199  0.6375  1.6072  0.5138
 6117SOL     OW29812   1.130   0.160  11.672  0.1611  0.6164  0.3152
 6117SOL    HW129813   1.183   0.080  11.674 -0.0221  0.4600 -1.4375
 6117SOL    HW229814   1.127   0.193  11.583 -1.8618  1.3878  0.6692
 6118SOL     OW29815   3.290   2.786   0.830  0.1497  0.3593 -0.1741
 6118SOL    HW129816   3.279   2.876   0.798 -0.5160  0.1285 -0.6031
 6118SOL    HW229817   3.383   2.783   0.853 -0.1010  2.7436  1.1937
 6119SOL     OW29818   3.716   4.593   3.847  0.1214 -0.3446  0.3406
 6119SOL    HW129819   3.627   4.557   3.846 -0.6563  1.5664 -0.3655
 6119SOL    HW229820   3.751   4.526   3.788 -0.0308 -0.4417  0.3611
 6120SOL     OW29821   4.425   1.275   0.083 -0.7182 -0.1038  0.2136
 6120SOL    HW129822   4.490   1.231   0.138  0.9331 -0.0229 -1.7007
 6120SOL    HW229823   4.344   1.264   0.132 -2.2880 -1.2426 -2.6473
 6121SOL     OW29824   2.444   3.221   5.576 -0.3440  0.0871 -0.5788
 6121SOL    HW129825   2.376   3.155   5.591 -0.9465  0.7814 -0.2613
 6121SOL    HW229826   2.396   3.274   5.512 -2.9337 -1.1145  0.3731
 6122SOL     OW29827   4.063   2.301   9.233 -0.3914  0.0099  0.1847
 6122SOL    HW129828   3.976   2.336   9.252 -0.3982  1.3531 -2.2400
 6122SOL    HW229829   4.066   2.315   9.138 -0.3344  1.1633  0.3581
 6123SOL     OW29830   1.304   0.057   5.557 -0.0533 -0.0263 -0.1183
 6123SOL    HW129831   1.392   0.093   5.544  1.0615 -3.0352 -0.7929
 6123SOL    HW229832   1.320   4.689   5.593 -1.0317  0.4464  1.4735
 6124SOL     OW29833   2.711   2.895  16.579 -0.2291 -0.4949 -0.0002
 6124SOL    HW129834   2.804   2.919  16.573 -0.1753 -1.2728 -2.3027
 6124SOL    HW229835   2.732   2.801  16.584 -1.1419 -0.6897  0.0785
 6125SOL     OW29836   0.881   3.499  17.584 -0.3298  0.4787  0.6583
 6125SOL    HW129837   0.864   3.459  17.669  0.1240  0.4237  0.7239
 6125SOL    HW229838   0.791   3.498  17.552 -0.2195 -1.4480  0.3986
 6126SOL     OW29839   1.442   1.124   1.820 -0.8073 -0.1493  0.3393
 6126SOL    HW129840   1.422   1.030   1.814  0.3955 -0.4640  1.0576
 6126SOL    HW229841   1.434   1.148   1.728  1.5184 -1.4349 -0.2046
 6127SOL     OW29842   2.090   1.655   7.486  0.8893 -0.2303 -0.6661
 6127SOL    HW129843   2.149   1.581   7.470  0.5848 -0.4183 -0.9149
 6127SOL    HW229844   2.013   1.608   7.518  1.5731  0.0890  1.4467
 6128SOL     OW29845   1.148   4.047   3.902 -0.3931  0.0845  0.3513
 6128SOL    HW129846   1.084   4.094   3.957 -1.2980 -0.6312 -0.0968
 6128SOL    HW229847   1.102   3.964   3.910  1.5421 -1.2527 -2.7937
 6129SOL     OW29848   3.715   1.777  16.509 -0.0020  0.3582 -0.1437
 6129SOL    HW129849   3.622   1.760  16.493  0.0046  0.0201  0.1839
 6129SOL    HW229850   3.703   1.872  16.512  1.5964  0.6319 -2.6104
 6130SOL     OW29851   2.990   2.696  16.478  0.5146  0.0572 -0.5019
 6130SOL    HW129852   2.957   2.756  16.411 -1.5145 -0.1051  0.3450
 6130SOL    HW229853   2.920   2.632  16.489 -0.5095  1.3107  0.2629
 6131SOL     OW29854   0.745   1.302   5.481 -0.0040  0.1959  0.2053
 6131SOL    HW129855   0.770   1.293   5.389  0.1984  2.3013  0.0550
 6131SOL    HW229856   0.676   1.236   5.478 -0.6623  0.8687  0.4488
 6132SOL     OW29857   3.378   1.512  17.665 -0.8639 -0.5648 -0.2507
 6132SOL    HW129858   3.432   1.575   0.033 -1.4371  1.0514 -1.6706
 6132SOL    HW229859   3.420   1.427  17.680  2.2160  0.5741 -2.4303
 6133SOL     OW29860   1.173   0.202  10.960 -0.6698  0.3537 -0.3123
 6133SOL    HW129861   1.238   0.158  10.904 -1.1181 -2.1531  1.1000
 6133SOL    HW229862   1.123   0.253  10.896  0.4870  0.6716 -0.9597
 6134SOL     OW29863   2.351   0.213  14.994  0.1587 -0.1674  0.4690
 6134SOL    HW129864   2.441   0.234  15.018 -0.1572  0.6358  0.9787
 6134SOL    HW229865   2.295   0.273  15.043 -0.3548 -1.6424  1.6770
 6135SOL     OW29866   3.105   4.404   6.303 -0.2892 -0.2475 -0.3689
 6135SOL    HW129867   3.029   4.427   6.357  0.7018 -0.4951  1.1173
 6135SOL    HW229868   3.170   4.429   6.369  0.0703 -1.5671 -0.2154
 6136SOL     OW29869   2.504   4.215   2.733 -0.2497 -0.2994  0.1602
 6136SOL    HW129870   2.555   4.279   2.684 -0.7756 -1.5183 -1.9670
 6136SOL    HW229871   2.568   4.145   2.746  0.7178  0.5317 -0.1838
 6137SOL     OW29872   3.987   1.267   6.957  0.2037  0.5864  0.2137
 6137SOL    HW129873   3.943   1.298   6.878 -0.8905 -2.3492 -0.3492
 6137SOL    HW229874   3.998   1.353   6.998 -0.2560 -0.7304  3.1356
 6138SOL     OW29875   4.580   1.726   3.368 -0.4130  0.0108 -0.3149
 6138SOL    HW129876   4.555   1.639   3.335  1.3678 -0.3763 -0.6533
 6138SOL    HW229877   4.668   1.735   3.331 -0.0410 -1.6209  0.1471
 6139SOL     OW29878   2.392   3.208   7.829 -0.2189 -0.6664 -0.2876
 6139SOL    HW129879   2.364   3.288   7.873  0.7764 -1.0249  0.9884
 6139SOL    HW229880   2.383   3.150   7.905  1.1221 -0.6420 -0.1161
 6140SOL     OW29881   2.982   2.935   2.718  0.4978  0.0763  0.1741
 6140SOL    HW129882   2.920   3.001   2.750 -0.8325 -1.0407 -0.1164
 6140SOL    HW229883   3.060   2.953   2.771  1.1820  2.0578 -1.4880
 6141SOL     OW29884   3.351   1.339   5.956 -0.3908  0.0304 -0.6734
 6141SOL    HW129885   3.389   1.311   5.873  1.3780  0.6380 -0.0732
 6141SOL    HW229886   3.262   1.312   5.936 -0.0805 -2.1163  0.9194
 6142SOL     OW29887   3.095   1.567   3.152  0.6223  0.4787 -0.0826
 6142SOL    HW129888   3.177   1.588   3.107  2.1869 -0.6501  2.2218
 6142SOL    HW229889   3.057   1.650   3.181 -0.6193 -0.7760  1.8230
 6143SOL     OW29890   0.057   3.795   6.405 -0.3433 -0.7269  0.1707
 6143SOL    HW129891   0.128   3.845   6.445 -0.2292  0.7262 -1.8137
 6143SOL    HW229892   0.092   3.751   6.328 -1.0257 -0.1614 -0.4750
 6144SOL     OW29893   4.077   0.967   5.700 -0.1267  0.0966 -0.5388
 6144SOL    HW129894   4.169   0.988   5.713  0.2671 -1.7296 -0.4130
 6144SOL    HW229895   4.040   0.977   5.788  1.0562  2.4563 -0.3059
 6145SOL     OW29896   0.253   1.328  10.724  0.9237 -0.0764  0.2864
 6145SOL    HW129897   0.307   1.370  10.790 -1.2231  0.8763  1.4359
 6145SOL    HW229898   0.176   1.296  10.771 -0.3983 -0.5457 -2.1830
 6146SOL     OW29899   1.031   4.471  16.505  0.5542 -0.2487  0.0989
 6146SOL    HW129900   0.937   4.490  16.505  1.0512  2.3037 -1.4405
 6146SOL    HW229901   1.067   4.557  16.483  1.8146 -0.4471  1.4159
 6147SOL     OW29902   3.487   2.152   6.643  0.6145  0.4230  0.5561
 6147SOL    HW129903   3.439   2.232   6.659  1.2287  0.9753 -0.3554
 6147SOL    HW229904   3.511   2.137   6.735  1.1052 -0.1953  0.3316
 6148SOL     OW29905   0.496   3.361   6.764  0.1530 -0.0152 -0.0428
 6148SOL    HW129906   0.568   3.372   6.702 -1.4345 -0.3997 -1.9502
 6148SOL    HW229907   0.532   3.416   6.834 -0.1739  1.0327 -0.7129
 6149SOL     OW29908   1.465   4.383   7.831  0.0454  0.7274  0.4986
 6149SOL    HW129909   1.503   4.305   7.790  0.9910  0.9510  0.9539
 6149SOL    HW229910   1.415   4.420   7.758  0.9087  0.0107 -0.4459
 6150SOL     OW29911   3.628   1.733   3.233 -0.5023  0.3029 -0.4376
 6150SOL    HW129912   3.677   1.734   3.315 -2.3610 -1.0530  0.6940
 6150SOL    HW229913   3.558   1.674   3.262  0.6648 -2.2514 -2.7259
 6151SOL     OW29914   2.374   3.526  14.389  0.4560  0.4954 -0.0907
 6151SOL    HW129915   2.300   3.581  14.415  0.2980  0.1654  0.1569
 6151SOL    HW229916   2.331   3.440  14.394  0.9484  0.1590 -1.3880
 6152SOL     OW29917   3.577   0.871  13.420 -0.0805 -0.3275 -0.8104
 6152SOL    HW129918   3.489   0.847  13.449 -0.5096  0.0752 -1.7941
 6152SOL    HW229919   3.556   0.944  13.363 -2.3045 -1.2965 -1.2348
 6153SOL     OW29920   3.006   2.047  12.060  0.0569 -0.0259 -0.3263
 6153SOL    HW129921   2.933   2.058  12.000  2.1638  0.6724 -2.7746
 6153SOL    HW229922   2.970   2.087  12.139  0.2294  0.4320 -0.4750
 6154SOL     OW29923   1.989   3.241   4.640  0.4354 -0.6169  0.0599
 6154SOL    HW129924   1.981   3.146   4.646  0.0555 -0.6458 -0.8833
 6154SOL    HW229925   1.994   3.252   4.545  1.1344 -1.5865 -0.0091
 6155SOL     OW29926   4.093   0.314   5.567 -0.5604  0.1657 -0.0653
 6155SOL    HW129927   4.059   0.289   5.653  1.0421  0.7926  0.7549
 6155SOL    HW229928   4.185   0.315   5.594 -0.8633 -3.6426  1.1801
 6156SOL     OW29929   4.648   4.543   6.524  0.0135 -0.1304  0.0992
 6156SOL    HW129930   4.712   4.511   6.588  0.3049 -0.8903 -0.5869
 6156SOL    HW229931   4.592   4.602   6.574  0.0180  0.5604 -0.7119
 6157SOL     OW29932   4.535   2.578   4.015 -0.1609  0.0153 -0.6536
 6157SOL    HW129933   4.627   2.587   4.041  0.2856 -0.9014 -1.9644
 6157SOL    HW229934   4.523   2.659   3.965  0.3945  0.2320 -0.4399
 6158SOL     OW29935   0.883   2.437   0.455  0.5310  0.1418 -0.3413
 6158SOL    HW129936   0.855   2.525   0.429 -0.0690 -0.5548 -2.0569
 6158SOL    HW229937   0.821   2.422   0.526 -1.6230  1.6671 -1.8866
 6159SOL     OW29938   3.455   2.912  12.615  0.1287 -0.8727  0.1944
 6159SOL    HW129939   3.391   2.939  12.681  0.0692  0.4669 -0.4099
 6159SOL    HW229940   3.537   2.953  12.642  1.2473 -1.9641 -1.6137
 6160SOL     OW29941   1.186   1.395   7.412  0.1573 -0.4034 -0.6342
 6160SOL    HW129942   1.179   1.487   7.386  0.3871 -0.2775 -0.2502
 6160SOL    HW229943   1.266   1.376   7.363  2.6009  1.6178  2.5819
 6161SOL     OW29944   4.005   2.637   6.749 -0.0409  0.4841  0.0443
 6161SOL    HW129945   4.032   2.727   6.767  0.9254  0.5525 -1.6719
 6161SOL    HW229946   4.085   2.603   6.709 -1.4089 -0.7100 -1.7004
 6162SOL     OW29947   0.287   4.028   7.903 -0.2178  0.0595  0.2230
 6162SOL    HW129948   0.202   3.990   7.882  0.4015 -1.1531 -0.0697
 6162SOL    HW229949   0.314   3.979   7.981 -0.8813 -2.0196 -0.8666
 6163SOL     OW29950   3.483   4.454   2.350 -0.1717 -0.2055  0.1266
 6163SOL    HW129951   3.563   4.410   2.321  0.2364  2.0546 -2.0996
 6163SOL    HW229952   3.501   4.548   2.351 -1.0581 -0.0466  2.1392
 6164SOL     OW29953   2.312   0.149   3.132  0.4406  0.8602  0.1721
 6164SOL    HW129954   2.253   0.134   3.206  1.2962  0.2235  0.7228
 6164SOL    HW229955   2.256   0.171   3.058 -1.7849 -2.6157  0.8015
 6165SOL     OW29956   4.409   2.164  14.650 -0.4931  0.1691 -0.1445
 6165SOL    HW129957   4.382   2.118  14.570  1.4293 -0.8740 -0.1832
 6165SOL    HW229958   4.501   2.139  14.645 -0.5265 -0.6497  4.0128
 6166SOL     OW29959   0.177   0.209   4.161 -0.2032  0.5694  0.1638
 6166SOL    HW129960   0.187   0.119   4.130  1.3007  0.8540 -0.1397
 6166SOL    HW229961   0.179   0.250   4.075  0.1323 -0.9797 -0.5682
 6167SOL     OW29962   4.106   0.256   3.290  0.0684  0.4246  0.5508
 6167SOL    HW129963   4.041   0.219   3.349 -0.9648  2.5442  0.7723
 6167SOL    HW229964   4.152   0.178   3.260 -0.8895  0.1134 -0.0931
 6168SOL     OW29965   1.685   0.196   5.204  0.5965  0.5940 -0.3106
 6168SOL    HW129966   1.706   0.151   5.122  0.7761  0.9684 -0.4703
 6168SOL    HW229967   1.606   0.242   5.177  0.8530  0.6738 -0.9238
 6169SOL     OW29968   3.829   1.490  11.729  0.7407  0.3173  0.2216
 6169SOL    HW129969   3.773   1.547  11.676  1.8016 -0.1150 -1.3518
 6169SOL    HW229970   3.868   1.560  11.782 -1.1234  1.9473 -0.5295
 6170SOL     OW29971   1.833   2.164   5.384  0.2921 -0.0906 -0.3900
 6170SOL    HW129972   1.911   2.188   5.333 -0.7494  0.5250 -1.7044
 6170SOL    HW229973   1.880   2.145   5.465  1.9543  0.5732 -1.1717
 6171SOL     OW29974   0.887   2.527   5.602  0.5471 -0.1048  0.1085
 6171SOL    HW129975   0.815   2.464   5.595 -0.3123  0.7827  0.8975
 6171SOL    HW229976   0.960   2.475   5.636  0.4691  0.2751  0.8492
 6172SOL     OW29977   4.189   2.534   6.975 -0.4063  0.5454  0.3989
 6172SOL    HW129978   4.118   2.502   6.919 -1.1875  3.0904 -0.0560
 6172SOL    HW229979   4.248   2.462   6.951  0.6212  0.5927  2.7270
 6173SOL     OW29980   3.050   3.288   9.965 -0.1090  0.4129 -0.6405
 6173SOL    HW129981   3.052   3.207  10.016 -3.1527  0.0852 -1.0716
 6173SOL    HW229982   2.964   3.284   9.924  0.9813  1.0759 -2.9938
 6174SOL     OW29983   4.375   2.483   1.099  0.4343 -0.1058  0.1885
 6174SOL    HW129984   4.454   2.431   1.085  1.8217  1.8710  0.6253
 6174SOL    HW229985   4.359   2.511   1.009  2.9153 -0.6013 -0.4068
 6175SOL     OW29986   1.645   0.899   5.152  0.0647  0.2557 -1.1113
 6175SOL    HW129987   1.634   0.821   5.098 -0.3680 -1.1002  0.9335
 6175SOL    HW229988   1.737   0.917   5.130  0.1032  0.3468 -0.8722
 6176SOL     OW29989   3.734   2.327  11.424  0.1510  0.1110 -0.0227
 6176SOL    HW129990   3.755   2.400  11.482  0.2164 -1.0783  1.4298
 6176SOL    HW229991   3.820   2.299  11.395 -0.6366 -1.9213 -0.4105
 6177SOL     OW29992   1.053   1.197   7.835  0.2992  0.1387  0.2458
 6177SOL    HW129993   1.119   1.257   7.870 -0.1712  1.2093 -0.6865
 6177SOL    HW229994   1.026   1.141   7.907  0.3486  0.9194  0.8689
 6178SOL     OW29995   3.417   4.231   8.527 -0.4910  0.5518  0.0049
 6178SOL    HW129996   3.399   4.271   8.441 -0.2641  2.0933  0.6674
 6178SOL    HW229997   3.440   4.141   8.506 -2.5024 -0.6839  3.1870
 6179SOL     OW29998   0.713   1.086  14.639  0.2582  0.3050 -0.2151
 6179SOL    HW129999   0.621   1.060  14.649 -0.1654  1.5617 -0.7531
 6179SOL    HW230000   0.699   1.171  14.597  0.2923 -0.2180 -1.2987
 6180SOL     OW30001   3.761   0.664   4.834 -0.0482  0.2744 -0.3227
 6180SOL    HW130002   3.794   0.677   4.923 -1.2048  0.0828  0.1354
 6180SOL    HW230003   3.841   0.694   4.790  0.5206  1.2619  1.3673
 6181SOL     OW30004   0.857   0.003  17.654  0.1863  0.9965 -0.2245
 6181SOL    HW130005   0.887   0.067   0.039 -0.0076 -0.8623  1.6729
 6181SOL    HW230006   0.915   4.648  17.670 -1.4196 -1.1129 -4.3860
 6182SOL     OW30007   0.538   2.187  13.560  0.1789  0.4013 -0.1477
 6182SOL    HW130008   0.622   2.141  13.566 -1.2911 -2.2351  0.3307
 6182SOL    HW230009   0.485   2.111  13.582  0.9100 -0.5684 -1.7701
 6183SOL     OW30010   2.982   1.957   2.575  0.0473  1.0821  0.2891
 6183SOL    HW130011   2.995   1.920   2.488  2.2547  0.3722  0.9280
 6183SOL    HW230012   2.900   2.007   2.572 -0.9168 -0.5127 -0.1317
 6184SOL     OW30013   2.110   1.291   2.840 -0.0666  0.0159  0.1784
 6184SOL    HW130014   2.065   1.359   2.788 -0.4005 -1.5129 -1.5417
 6184SOL    HW230015   2.038   1.240   2.877  0.4127 -0.2388  0.7436
 6185SOL     OW30016   1.846   2.179   1.768 -0.0149 -0.4386  0.0795
 6185SOL    HW130017   1.898   2.205   1.844  0.2899 -0.6499 -0.0589
 6185SOL    HW230018   1.890   2.095   1.759 -1.0126 -0.9837  0.3091
 6186SOL     OW30019   3.784   0.572   6.155 -0.3553  0.1792  0.1656
 6186SOL    HW130020   3.749   0.484   6.138  0.1839 -0.4621  2.5021
 6186SOL    HW230021   3.835   0.587   6.075 -0.0940 -0.2832  0.2502
 6187SOL     OW30022   0.898   1.850   9.319 -0.1232  0.4473 -0.4240
 6187SOL    HW130023   0.945   1.931   9.336 -2.3287  1.7504 -0.5420
 6187SOL    HW230024   0.896   1.852   9.223 -1.0082  1.1598 -0.3895
 6188SOL     OW30025   0.140   3.132  16.561 -0.0342  0.6685 -0.3087
 6188SOL    HW130026   0.224   3.175  16.544 -1.6067  2.1905 -4.3867
 6188SOL    HW230027   0.091   3.199  16.608  0.0560 -0.5877  1.5753
 6189SOL     OW30028   0.976   0.901   2.308  0.4113  0.3077  0.1399
 6189SOL    HW130029   0.939   0.944   2.231  0.4288  2.4513  1.3317
 6189SOL    HW230030   0.906   0.836   2.322  0.2074  0.8648  1.6515
 6190SOL     OW30031   3.260   3.857   8.571  0.0024  0.3861  0.3225
 6190SOL    HW130032   3.198   3.900   8.628  0.8370  0.3216  1.2843
 6190SOL    HW230033   3.223   3.769   8.564  1.1561 -0.3309  3.1159
 6191SOL     OW30034   3.964   2.727   2.352 -0.3942  0.2353 -0.0574
 6191SOL    HW130035   3.870   2.744   2.344 -0.4206 -1.0386 -2.7188
 6191SOL    HW230036   3.959   2.634   2.374 -1.3466  0.5835  1.1637
 6192SOL     OW30037   2.396   1.335   8.742  0.3572 -0.2591  0.0681
 6192SOL    HW130038   2.388   1.304   8.652  1.2514  0.4606 -0.2547
 6192SOL    HW230039   2.475   1.296   8.781  1.0441  0.0975 -0.9826
 6193SOL     OW30040   0.177   0.690   4.705 -0.4463  0.0123 -0.3082
 6193SOL    HW130041   0.132   0.771   4.729  0.4903  0.6376 -0.6775
 6193SOL    HW230042   0.269   0.714   4.713 -0.0177 -1.8556  0.2842
 6194SOL     OW30043   0.176   1.321   5.787 -0.0881 -0.5249  0.3582
 6194SOL    HW130044   0.101   1.264   5.802 -0.2219  0.4414  3.2642
 6194SOL    HW230045   0.157   1.344   5.695 -0.6724 -2.3720  0.0210
 6195SOL     OW30046   2.773   0.823   1.809  0.8472 -0.2657  0.4256
 6195SOL    HW130047   2.764   0.869   1.892 -2.6984  1.6717 -1.0048
 6195SOL    HW230048   2.724   0.744   1.830  0.1145 -0.2302 -1.0880
 6196SOL     OW30049   0.967   3.624   2.019  0.4015 -0.2046  0.1614
 6196SOL    HW130050   1.027   3.651   1.950  1.1451 -1.4765  0.3183
 6196SOL    HW230051   0.882   3.658   1.990 -0.3701 -0.0361  2.6036
 6197SOL     OW30052   4.138   3.080   0.693 -0.2451  0.4237 -0.0523
 6197SOL    HW130053   4.092   3.103   0.612  0.7152 -1.6042 -1.1627
 6197SOL    HW230054   4.201   3.013   0.665  0.4761  0.9980  0.2007
 6198SOL     OW30055   3.603   0.849   7.746  0.0382  0.4014 -0.3043
 6198SOL    HW130056   3.675   0.907   7.771  1.9539 -1.4064 -1.6353
 6198SOL    HW230057   3.650   0.767   7.731  1.6804  1.5141 -1.1769
 6199SOL     OW30058   3.495   1.179   2.712 -0.3268 -0.1258 -0.4237
 6199SOL    HW130059   3.510   1.272   2.732 -2.0916 -0.3528  1.9733
 6199SOL    HW230060   3.402   1.180   2.690  0.1483  1.2296 -2.4283
 6200SOL     OW30061   4.678   1.690   5.232  0.3511  0.5166  0.7146
 6200SOL    HW130062   4.606   1.693   5.295 -0.3999  2.2829 -0.2431
 6200SOL    HW230063   0.028   1.645   5.280 -0.1183 -0.1724  0.7451
 6201SOL     OW30064   4.589   4.167   6.353  0.5909  0.8335  0.1722
 6201SOL    HW130065   4.673   4.200   6.321 -0.3257  1.3177 -1.7406
 6201SOL    HW230066   4.608   4.116   6.433  1.8021  0.3161 -0.4393
 6202SOL     OW30067   1.683   1.269   7.184  0.2725 -0.3637 -0.0200
 6202SOL    HW130068   1.720   1.187   7.218  1.6292  0.2148 -0.1243
 6202SOL    HW230069   1.709   1.263   7.092  0.9535 -3.1336  0.3520
 6203SOL     OW30070   2.985   1.043   4.260  0.1473  0.1322  0.2334
 6203SOL    HW130071   3.065   1.092   4.242 -0.4849  0.6266 -1.2562
 6203SOL    HW230072   3.009   1.013   4.347  0.8273 -0.7680 -0.2665
 6204SOL     OW30073   1.398   1.980   8.048 -0.5683  0.1651 -0.2749
 6204SOL    HW130074   1.433   2.069   8.044 -0.0214 -0.0255  0.3856
 6204SOL    HW230075   1.456   1.930   8.104 -0.8682  0.6596  0.4769
 6205SOL     OW30076   3.865   3.784   8.066 -0.0397 -0.2451  0.0319
 6205SOL    HW130077   3.781   3.816   8.099  0.2701  0.8237 -0.2360
 6205SOL    HW230078   3.897   3.861   8.020  3.3980 -0.9695  1.2082
 6206SOL     OW30079   1.233   1.977   6.120 -0.2861  0.0591  0.1536
 6206SOL    HW130080   1.296   2.025   6.173  0.0591 -2.1765  1.7991
 6206SOL    HW230081   1.280   1.967   6.037  1.3574 -0.4808  1.1317
 6207SOL     OW30082   0.316   4.085   1.009  0.3513  0.3073 -0.1918
 6207SOL    HW130083   0.280   4.145   0.944 -1.0367  0.0619  0.3698
 6207SOL    HW230084   0.402   4.048   0.985  1.1260  1.9830 -0.0021
 6208SOL     OW30085   4.221   1.125   6.422 -0.5176  0.6459 -0.7243
 6208SOL    HW130086   4.187   1.145   6.509 -1.2864 -0.7392 -0.7078
 6208SOL    HW230087   4.202   1.031   6.424  2.3595  0.0919  0.4929
 6209SOL     OW30088   1.374   2.756   5.005  0.1525  0.0482 -0.2098
 6209SOL    HW130089   1.330   2.806   4.936  0.1375 -0.6095 -0.6787
 6209SOL    HW230090   1.366   2.808   5.085  0.5965  1.7792 -1.2968
 6210SOL     OW30091   1.343   2.735  12.303  0.0144 -0.1476  0.1465
 6210SOL    HW130092   1.363   2.823  12.271  1.8034 -0.4803  0.3389
 6210SOL    HW230093   1.252   2.715  12.281  0.4178 -1.2579 -0.5001
 6211SOL     OW30094   0.988   4.633  11.829  0.4684 -0.4515 -0.3607
 6211SOL    HW130095   0.965   4.546  11.797 -1.4851 -0.0260 -0.1007
 6211SOL    HW230096   0.955   4.612  11.916  3.4210  0.1722  0.9195
 6212SOL     OW30097   3.058   0.723   4.338  0.8941 -0.3314  0.2696
 6212SOL    HW130098   3.086   0.772   4.260  0.3022 -1.1963 -0.4780
 6212SOL    HW230099   3.107   0.774   4.403  0.4500  2.1554 -1.3233
 6213SOL     OW30100   3.986   1.723  16.794  0.7321 -0.0327 -0.6454
 6213SOL    HW130101   4.042   1.736  16.870 -0.5938 -1.8144  0.6496
 6213SOL    HW230102   3.901   1.760  16.817  2.3671  3.2014  0.1586
 6214SOL     OW30103   4.283   2.330   6.004 -0.2799 -0.7461  0.0949
 6214SOL    HW130104   4.295   2.349   5.911 -2.1945  0.5392  0.1177
 6214SOL    HW230105   4.314   2.240   6.016  0.2434 -0.4234  1.1475
 6215SOL     OW30106   4.069   4.368   4.527 -0.6342 -0.4170  0.5785
 6215SOL    HW130107   4.020   4.446   4.503 -1.1687 -1.8928 -3.1915
 6215SOL    HW230108   4.108   4.389   4.612  0.4946 -2.1531  0.5065
 6216SOL     OW30109   0.984   3.293   5.093  0.8308 -0.0998  0.5475
 6216SOL    HW130110   1.046   3.219   5.093 -0.5807 -1.3003  1.9662
 6216SOL    HW230111   0.956   3.297   5.002  0.2880 -0.6020  0.6885
 6217SOL     OW30112   2.700   0.306   9.134  0.1922 -0.2116 -0.3542
 6217SOL    HW130113   2.690   0.314   9.039 -1.1795 -0.8519 -0.2675
 6217SOL    HW230114   2.609   0.304   9.163 -0.2249  0.2133 -1.6510
 6218SOL     OW30115   1.878   1.243  16.164 -0.0754  0.1415 -0.3396
 6218SOL    HW130116   1.957   1.274  16.121  0.7992  1.6270  2.3839
 6218SOL    HW230117   1.834   1.223  16.081  0.1180  0.5357 -0.5382
 6219SOL     OW30118   3.485   4.215   0.306 -0.6219  0.6044  0.1028
 6219SOL    HW130119   3.442   4.181   0.228  2.2270 -0.2364 -1.0780
 6219SOL    HW230120   3.515   4.303   0.283 -1.0150  0.7090 -0.0099
 6220SOL     OW30121   2.243   3.721  12.271 -0.2080  0.1494 -0.4047
 6220SOL    HW130122   2.189   3.760  12.339  1.8857 -1.0381  1.9109
 6220SOL    HW230123   2.192   3.642  12.256 -0.5669  0.6164 -1.7111
 6221SOL     OW30124   3.805   0.548   7.870  0.3281 -0.4827  0.6851
 6221SOL    HW130125   3.711   0.562   7.877  0.4824  0.9389 -0.1360
 6221SOL    HW230126   3.840   0.596   7.946  1.0849  2.3301 -1.4096
 6222SOL     OW30127   3.354   2.974   6.909 -0.0698  0.6163  0.0582
 6222SOL    HW130128   3.370   3.023   6.829  0.1735  1.5791  0.6978
 6222SOL    HW230129   3.275   3.007   6.950  0.0348  0.6438  0.2386
 6223SOL     OW30130   1.953   1.580   9.402  0.2610  0.3048 -0.0280
 6223SOL    HW130131   1.885   1.539   9.455 -1.4071  1.5731 -1.1670
 6223SOL    HW230132   2.016   1.620   9.463  0.3619  0.2242 -0.0787
 6224SOL     OW30133   4.186   0.070   4.030 -0.0726 -0.1463 -0.0665
 6224SOL    HW130134   4.262   0.051   3.974  1.2066  0.4202  1.4683
 6224SOL    HW230135   4.126   4.719   4.005 -1.5521  0.5899  1.3833
 6225SOL     OW30136   2.532   3.157  16.231  0.3226  0.1158 -0.7086
 6225SOL    HW130137   2.562   3.167  16.321  0.0365 -1.7433 -0.4028
 6225SOL    HW230138   2.531   3.249  16.205  1.4876  0.8388  1.8572
 6226SOL     OW30139   1.793   3.008   8.508  0.4162  0.3147  0.1651
 6226SOL    HW130140   1.883   3.039   8.513  0.1147  1.0374  1.1012
 6226SOL    HW230141   1.738   3.086   8.508 -0.0161 -0.0049 -2.3296
 6227SOL     OW30142   2.220   2.401   2.117 -0.2238  0.1030  0.2170
 6227SOL    HW130143   2.241   2.493   2.134 -1.6423  0.1860  1.5835
 6227SOL    HW230144   2.124   2.404   2.111 -0.4105  0.1327  3.0835
 6228SOL     OW30145   1.022   1.953   8.635  0.4974 -0.6189  0.1395
 6228SOL    HW130146   0.929   1.972   8.619  0.2304 -0.8650  1.4183
 6228SOL    HW230147   1.042   2.006   8.712  2.2980 -2.5604  0.9923
 6229SOL     OW30148   3.325   2.286   7.565 -0.4352  0.1878  0.3877
 6229SOL    HW130149   3.308   2.314   7.655  0.8533 -0.2853  0.7786
 6229SOL    HW230150   3.248   2.236   7.538  1.8099 -2.8578 -0.4074
 6230SOL     OW30151   3.256   2.692   2.506  0.3936  0.0272  0.1444
 6230SOL    HW130152   3.326   2.757   2.511 -0.4165  0.8391  0.9757
 6230SOL    HW230153   3.181   2.751   2.492  2.4448  2.1592 -1.9344
 6231SOL     OW30154   2.844   3.510  14.729  0.1780  0.4815  0.1216
 6231SOL    HW130155   2.912   3.475  14.787  1.3914  1.9392 -0.4267
 6231SOL    HW230156   2.805   3.569  14.793 -0.9526  0.4165 -0.5091
 6232SOL     OW30157   3.454   1.036   3.005 -0.1473 -0.2531  0.4150
 6232SOL    HW130158   3.373   1.085   3.012 -0.4019 -0.7083  0.6573
 6232SOL    HW230159   3.475   1.046   2.912 -1.6344 -0.6773  0.0363
 6233SOL     OW30160   1.587   4.523   5.166  0.1044  0.3248 -0.1653
 6233SOL    HW130161   1.554   4.558   5.083  0.8475 -0.7996 -0.9166
 6233SOL    HW230162   1.603   4.431   5.147  0.8361  0.4429 -0.1093
 6234SOL     OW30163   0.929   2.805   1.814 -0.1227  0.1382  0.1400
 6234SOL    HW130164   0.891   2.725   1.780 -1.5391  1.5602 -1.6310
 6234SOL    HW230165   0.869   2.868   1.775  2.5074  1.8002 -1.2809
 6235SOL     OW30166   1.420   3.654  15.097  0.8237 -0.3889  0.1216
 6235SOL    HW130167   1.334   3.696  15.089  1.1340 -0.2541 -2.7501
 6235SOL    HW230168   1.465   3.736  15.076  3.4878 -2.0846 -0.8214
 6236SOL     OW30169   0.920   4.216   4.012 -0.5158  0.0603 -0.7637
 6236SOL    HW130170   0.899   4.285   3.949  0.4030 -0.1053 -1.2536
 6236SOL    HW230171   0.836   4.172   4.012 -1.6624  2.2138  0.5819
 6237SOL     OW30172   0.611   1.678  15.204 -0.2032 -0.6814  0.1134
 6237SOL    HW130173   0.663   1.691  15.124  1.4408 -1.1388  1.1100
 6237SOL    HW230174   0.668   1.722  15.266 -0.5361  1.4306 -1.0820
 6238SOL     OW30175   2.926   1.903   6.102  0.2002 -0.1741  0.0393
 6238SOL    HW130176   2.941   1.954   6.022 -0.1131 -0.6012 -0.2920
 6238SOL    HW230177   2.998   1.950   6.143 -0.2200  1.0767 -0.6395
 6239SOL     OW30178   2.377   4.552   3.214  0.2304  0.8006 -0.3974
 6239SOL    HW130179   2.305   4.564   3.276  1.5429  0.4357  1.1844
 6239SOL    HW230180   2.342   4.483   3.157  4.1916 -0.9639 -0.6550
 6240SOL     OW30181   0.917   0.621   4.598  0.0080  0.3311  0.2446
 6240SOL    HW130182   0.986   0.585   4.543  0.9679  0.2869  1.4705
 6240SOL    HW230183   0.930   0.708   4.561  0.3498 -0.1335 -0.7210
 6241SOL     OW30184   2.975   4.705  13.155  0.3822  0.3935 -0.5066
 6241SOL    HW130185   2.934   4.620  13.138  0.5082  0.1301  0.5353
 6241SOL    HW230186   2.950   4.708  13.247  2.0625 -1.0947 -0.0013
 6242SOL     OW30187   1.806   1.350   8.546 -0.4170  0.4066  0.4205
 6242SOL    HW130188   1.803   1.445   8.558  1.9980  0.6899 -1.2783
 6242SOL    HW230189   1.711   1.341   8.539 -0.5118  0.7434  1.2218
 6243SOL     OW30190   3.608   3.909   7.425 -0.9596 -0.3413  0.4391
 6243SOL    HW130191   3.669   3.961   7.373  1.3960 -0.2004  3.3230
 6243SOL    HW230192   3.636   3.820   7.405  1.3886  0.7844 -1.2976
 6244SOL     OW30193   0.007   3.777   3.196 -0.5162  0.3608 -0.4800
 6244SOL    HW130194   0.021   3.750   3.106  0.3012 -0.2300 -0.1699
 6244SOL    HW230195   0.084   3.743   3.241  0.4193  2.1856 -0.7009
 6245SOL     OW30196   2.948   0.031   9.200 -0.0309 -0.8062 -0.6694
 6245SOL    HW130197   3.028   4.707   9.230  0.8574  2.8717  2.2528
 6245SOL    HW230198   2.902   4.686   9.254 -2.0597  1.7107  0.6485
 6246SOL     OW30199   3.626   3.392   1.006  0.7199  0.3976 -0.1499
 6246SOL    HW130200   3.703   3.347   1.043 -1.7043 -1.9982  2.0540
 6246SOL    HW230201   3.598   3.326   0.942  0.0293  0.2727  0.2783
 6247SOL     OW30202   0.900   4.100   0.293 -0.1946 -0.4239  0.5671
 6247SOL    HW130203   0.926   4.144   0.212  0.8021 -0.6538  0.7625
 6247SOL    HW230204   0.978   4.046   0.304  1.6385  2.5373  2.1349
 6248SOL     OW30205   1.722   1.219   6.901  0.0809 -0.4394  0.9036
 6248SOL    HW130206   1.678   1.136   6.883  0.8885 -0.7767  0.4656
 6248SOL    HW230207   1.660   1.283   6.867  0.0878 -0.5146  0.7502
 6249SOL     OW30208   2.786   2.562   3.571 -0.0156 -0.6255  0.1993
 6249SOL    HW130209   2.825   2.475   3.574 -0.1826 -0.6390  1.5672
 6249SOL    HW230210   2.864   2.618   3.570 -1.9100  1.9889 -2.4075
 6250SOL     OW30211   0.937   0.540   4.009 -0.1897  0.2119  0.2622
 6250SOL    HW130212   0.935   0.520   4.103 -0.1206 -1.2035 -0.0416
 6250SOL    HW230213   1.005   0.608   4.001  0.7036 -0.3595  2.9501
 6251SOL     OW30214   0.756   0.419   7.150 -0.0458  0.5500  0.5459
 6251SOL    HW130215   0.667   0.397   7.179 -0.9731  1.6433 -1.5077
 6251SOL    HW230216   0.808   0.350   7.190 -0.2357 -1.5324 -2.7888
 6252SOL     OW30217   1.550   1.207   8.268 -0.0937  0.1868 -0.5294
 6252SOL    HW130218   1.467   1.253   8.264 -2.4032 -3.7698  1.8020
 6252SOL    HW230219   1.534   1.142   8.200  0.9817  1.1102 -1.6570
 6253SOL     OW30220   2.010   4.617   8.694 -0.2097 -0.0185  0.1112
 6253SOL    HW130221   2.037   4.558   8.764 -2.1593 -2.2491 -1.0342
 6253SOL    HW230222   1.930   4.577   8.660 -0.7900  0.8051  0.4850
 6254SOL     OW30223   2.049   1.587   0.977  0.2971  0.4830  0.1599
 6254SOL    HW130224   2.091   1.575   0.892 -0.4027  0.8827 -0.2447
 6254SOL    HW230225   1.966   1.629   0.954 -0.3626  0.1187  1.8819
 6255SOL     OW30226   3.062   2.299  15.402 -0.4938 -0.4691 -0.0171
 6255SOL    HW130227   3.082   2.370  15.463  3.3655 -0.8450 -0.8489
 6255SOL    HW230228   3.084   2.232  15.466  0.7180 -0.4645 -0.4213
 6256SOL     OW30229   2.803   0.898   8.336  0.4055  0.2130  0.3717
 6256SOL    HW130230   2.760   0.917   8.253  2.7039  0.3351 -0.7920
 6256SOL    HW230231   2.825   0.987   8.367 -2.4861  0.1581  2.6437
 6257SOL     OW30232   4.046   2.691   3.119 -0.4974  0.3406 -0.2923
 6257SOL    HW130233   4.053   2.778   3.080 -1.9739  1.0347  0.9991
 6257SOL    HW230234   4.119   2.647   3.075 -2.6842 -3.4790 -0.0946
 6258SOL     OW30235   1.689   0.812   4.830  0.4044 -0.1739  0.4287
 6258SOL    HW130236   1.663   0.783   4.742 -0.5153  0.0947  0.6119
 6258SOL    HW230237   1.785   0.813   4.835  0.3499 -0.1665  1.4033
 6259SOL     OW30238   3.003   1.429   9.095  0.1581 -0.2623  0.3030
 6259SOL    HW130239   2.941   1.459   9.162  0.7237 -0.8263  1.0693
 6259SOL    HW230240   3.050   1.361   9.143 -3.1886 -3.7724 -1.4009
 6260SOL     OW30241   4.692   4.382   7.800 -0.1054  0.1269 -0.3250
 6260SOL    HW130242   0.031   4.452   7.830  0.0660 -0.0828 -0.1684
 6260SOL    HW230243   0.029   4.305   7.804  1.4839  1.3399  0.5656
 6261SOL     OW30244   1.759   1.293   2.129  0.4639  0.3736 -0.2846
 6261SOL    HW130245   1.702   1.222   2.099 -0.0993  0.9494 -0.5639
 6261SOL    HW230246   1.838   1.281   2.075  0.2874 -0.9327 -0.2620
 6262SOL     OW30247   1.547   4.572   4.888  0.2558 -0.1441  0.6390
 6262SOL    HW130248   1.523   4.492   4.842  0.4135  1.6255 -2.5449
 6262SOL    HW230249   1.533   4.629   4.812  1.9422  0.1805  0.5683
 6263SOL     OW30250   4.404   4.177   1.963  0.4668 -0.3744  0.6315
 6263SOL    HW130251   4.386   4.267   1.989  0.5862  0.2758 -1.5577
 6263SOL    HW230252   4.493   4.168   1.997  0.8860  1.3378 -0.0189
 6264SOL     OW30253   0.442   2.124   5.903 -0.0360  0.0769  0.5070
 6264SOL    HW130254   0.524   2.147   5.860 -0.2700  0.6494  0.3610
 6264SOL    HW230255   0.449   2.180   5.981 -0.2946  1.4900 -0.4817
 6265SOL     OW30256   1.960   1.792  12.714  0.0056  0.1195 -0.0322
 6265SOL    HW130257   2.048   1.764  12.689  0.9283  2.7553  0.2165
 6265SOL    HW230258   1.924   1.826  12.632  0.3537  0.0005 -0.2329
 6266SOL     OW30259   0.126   4.305  10.205 -0.4463  0.5947 -0.0575
 6266SOL    HW130260   0.053   4.250  10.177 -0.0926  0.3551 -0.4995
 6266SOL    HW230261   0.167   4.253  10.274 -0.6979 -1.1550 -1.2384
 6267SOL     OW30262   2.451   2.482  17.171 -0.1682  0.1703  0.4087
 6267SOL    HW130263   2.541   2.510  17.190  0.1772 -0.7854  0.1824
 6267SOL    HW230264   2.455   2.390  17.198  1.7219  0.1153 -0.0285
 6268SOL     OW30265   4.099   2.727   4.048 -0.6581 -0.6509  0.2187
 6268SOL    HW130266   4.164   2.775   4.100  0.4682 -1.5033 -0.3896
 6268SOL    HW230267   4.129   2.747   3.959 -0.0841 -0.8269  0.3670
 6269SOL     OW30268   2.593   0.402  10.562 -0.1254 -0.0636 -0.2276
 6269SOL    HW130269   2.513   0.353  10.542 -0.4633  0.6835 -0.6768
 6269SOL    HW230270   2.584   0.471  10.496  0.7703 -0.9405 -1.2647
 6270SOL     OW30271   1.872   3.930   5.787  0.3470 -0.2204 -0.0437
 6270SOL    HW130272   1.869   3.842   5.749 -0.7902  0.9866 -2.7315
 6270SOL    HW230273   1.783   3.934   5.822  0.8722 -0.3617  1.3345
 6271SOL     OW30274   0.128   4.264  15.549  0.1648  0.1928  0.6354
 6271SOL    HW130275   0.164   4.175  15.538  0.4996  0.4279 -0.1603
 6271SOL    HW230276   0.079   4.247  15.629 -0.7300  0.1547  0.0723
 6272SOL     OW30277   2.702   0.121   6.541  0.0329 -0.5660  0.1285
 6272SOL    HW130278   2.643   0.153   6.473 -0.9937 -1.0419  0.7941
 6272SOL    HW230279   2.700   0.026   6.531 -0.4923 -0.2954 -2.3293
 6273SOL     OW30280   2.487   3.876  15.908  0.6578  0.0881  0.0043
 6273SOL    HW130281   2.480   3.900  15.815  2.1469  0.4466 -0.0142
 6273SOL    HW230282   2.543   3.947  15.940  1.5357  0.3779 -2.1344
 6274SOL     OW30283   2.371   2.623   0.541  0.2805 -0.0366  0.4679
 6274SOL    HW130284   2.372   2.527   0.536  1.1904  0.0223 -0.3786
 6274SOL    HW230285   2.451   2.638   0.490 -0.5578  0.3807 -0.7233
 6275SOL     OW30286   2.473   3.678   4.120  0.3239 -0.7952 -0.3450
 6275SOL    HW130287   2.394   3.730   4.135  0.4472 -0.7324  0.1085
 6275SOL    HW230288   2.530   3.738   4.168 -0.7212 -1.4591  1.7520
 6276SOL     OW30289   3.268   3.195  15.835  0.2804  0.6203 -0.3531
 6276SOL    HW130290   3.185   3.147  15.838  0.1258  0.8616 -0.8283
 6276SOL    HW230291   3.261   3.222  15.743 -0.1934  1.7142  0.0037
 6277SOL     OW30292   0.469   1.143   1.115 -0.1551 -0.8777 -0.5477
 6277SOL    HW130293   0.515   1.060   1.103  0.5668 -0.6583  0.6416
 6277SOL    HW230294   0.400   1.134   1.049  0.1233 -0.3999 -0.8985
 6278SOL     OW30295   1.323   4.517   1.997  0.1964  0.7701 -0.3537
 6278SOL    HW130296   1.290   4.434   2.031 -0.9227  2.0631  1.6929
 6278SOL    HW230297   1.327   4.576   2.073  0.8840 -1.6976  1.5194
 6279SOL     OW30298   0.100   1.719   4.333  0.0014 -0.0911  0.6612
 6279SOL    HW130299   0.083   1.663   4.257 -0.1195  1.5938 -0.5713
 6279SOL    HW230300   0.010   1.722   4.367  0.3403  2.7415  1.2786
 6280SOL     OW30301   1.173   2.850   4.511  0.3888 -0.1917  0.4637
 6280SOL    HW130302   1.081   2.828   4.499  0.1760  0.3657  1.1218
 6280SOL    HW230303   1.182   2.829   4.604  0.1121 -1.8456  0.1186
 6281SOL     OW30304   1.832   3.159   1.390 -0.3626 -0.4237  0.1767
 6281SOL    HW130305   1.870   3.226   1.446 -0.6001  0.3236 -0.5460
 6281SOL    HW230306   1.859   3.193   1.304 -1.5568  0.9749  0.3485
 6282SOL     OW30307   1.274   0.761   4.875  0.5067  0.7549 -0.9039
 6282SOL    HW130308   1.270   0.850   4.841  1.3237  1.8388  1.8626
 6282SOL    HW230309   1.212   0.706   4.826 -0.1386  0.8542 -0.1945
 6283SOL     OW30310   4.094   3.137   8.018  0.2306  0.0522  0.1650
 6283SOL    HW130311   4.103   3.051   7.978  0.5569  0.9942 -1.7654
 6283SOL    HW230312   4.098   3.190   7.939  0.0767 -1.0999 -0.6139
 6284SOL     OW30313   3.641   0.715   7.350 -0.0494  0.2567 -0.3897
 6284SOL    HW130314   3.703   0.739   7.281 -0.2048 -0.9196 -0.9431
 6284SOL    HW230315   3.557   0.757   7.330 -1.3405 -1.1003  2.2252
 6285SOL     OW30316   4.718   3.887   6.837  0.4384  0.4474  0.0647
 6285SOL    HW130317   0.016   3.870   6.930 -2.3561  2.5375  0.9460
 6285SOL    HW230318   4.701   3.981   6.831 -1.9497 -0.1464 -2.3487
 6286SOL     OW30319   1.950   1.675   7.886 -0.1035  0.5150  0.2111
 6286SOL    HW130320   1.942   1.622   7.965  1.6416  0.9811  0.7057
 6286SOL    HW230321   2.039   1.710   7.887  0.8869 -1.9972  0.3272
 6287SOL     OW30322   0.470   3.809  11.352  0.0126 -0.0120  0.1529
 6287SOL    HW130323   0.375   3.813  11.362 -0.0563 -0.4408 -0.3231
 6287SOL    HW230324   0.492   3.835  11.442 -1.7706  0.1421  0.5486
 6288SOL     OW30325   2.687   1.788   4.301 -0.6467  0.6540 -0.4592
 6288SOL    HW130326   2.641   1.833   4.372  1.4775  1.7045  0.2419
 6288SOL    HW230327   2.620   1.725   4.272 -1.3836  2.6232 -3.0537
 6289SOL     OW30328   1.983   0.414   4.491  0.4503 -0.1741  0.4954
 6289SOL    HW130329   1.989   0.325   4.457 -0.3900  0.0604 -0.2649
 6289SOL    HW230330   1.889   0.433   4.490  0.7725  1.2725 -1.6424
 6290SOL     OW30331   4.043   0.144   3.549  0.0309 -0.3652  0.2002
 6290SOL    HW130332   3.958   0.118   3.584 -0.0124 -0.9172 -0.3144
 6290SOL    HW230333   4.047   0.212   3.616 -0.1508  0.1121 -0.2773
 6291SOL     OW30334   2.320   4.450   0.563 -0.0816 -0.6428 -0.4296
 6291SOL    HW130335   2.284   4.439   0.651 -1.4486  1.4777 -0.7124
 6291SOL    HW230336   2.405   4.410   0.582 -0.2308 -0.8084 -0.1133
 6292SOL     OW30337   0.876   2.894  13.894 -0.4810 -0.1857  0.0435
 6292SOL    HW130338   0.910   2.973  13.853  0.4079 -0.8513 -0.5156
 6292SOL    HW230339   0.823   2.935  13.962 -0.6879  2.0148 -1.4689
 6293SOL     OW30340   0.534   4.094   1.777 -0.2572 -0.6863  0.7074
 6293SOL    HW130341   0.605   4.094   1.713 -0.8747  1.8363  0.0444
 6293SOL    HW230342   0.503   4.004   1.772  0.1360 -0.7059 -1.3034
 6294SOL     OW30343   2.924   4.057   4.714  0.0500  0.1216 -0.7334
 6294SOL    HW130344   2.833   4.074   4.739  0.4505  1.0274  0.1200
 6294SOL    HW230345   2.899   4.042   4.623 -1.6435  1.6933 -0.5051
 6295SOL     OW30346   0.412   2.417   5.826 -0.4743  0.2263  0.2202
 6295SOL    HW130347   0.331   2.444   5.869 -1.4672  0.6790 -1.9407
 6295SOL    HW230348   0.473   2.432   5.898 -0.2076  0.0389  0.0349
 6296SOL     OW30349   3.737   2.244   2.106  0.4546  0.1207  0.6528
 6296SOL    HW130350   3.662   2.216   2.159  0.2954 -1.2406 -0.3188
 6296SOL    HW230351   3.752   2.336   2.129  3.1067 -0.0989 -0.1834
 6297SOL     OW30352   3.080   2.687   0.689 -0.0579  0.1759 -0.1564
 6297SOL    HW130353   3.144   2.709   0.756  0.7977  0.0265 -0.9273
 6297SOL    HW230354   3.003   2.728   0.730  0.0880  0.6838 -0.3876
 6298SOL     OW30355   0.753   2.421  11.530  0.6025  0.5918  0.2336
 6298SOL    HW130356   0.732   2.329  11.547  2.1950  0.3353  0.8040
 6298SOL    HW230357   0.760   2.452  11.620  3.3802 -1.4572  0.7178
 6299SOL     OW30358   2.625   1.433  12.106  0.8336  0.1283  0.3868
 6299SOL    HW130359   2.683   1.499  12.067  3.0419 -1.8905  0.2780
 6299SOL    HW230360   2.676   1.352  12.103  0.2981 -0.2009  0.0541
 6300SOL     OW30361   2.772   1.589  15.580  0.3634 -0.4762 -0.2947
 6300SOL    HW130362   2.758   1.603  15.673  0.9979 -0.7577 -0.1598
 6300SOL    HW230363   2.721   1.509  15.566  0.0353 -0.1779 -0.8103
 6301SOL     OW30364   2.596   3.884   8.762 -0.0307  0.4293 -0.2134
 6301SOL    HW130365   2.555   3.798   8.754 -0.7443  0.7185  0.2618
 6301SOL    HW230366   2.530   3.943   8.800  0.0181  0.9437 -0.9118
 6302SOL     OW30367   1.094   0.358   1.194  0.1152  0.6646  0.2824
 6302SOL    HW130368   1.051   0.397   1.118  0.2548 -2.1147 -1.2242
 6302SOL    HW230369   1.113   0.432   1.252 -0.4714 -0.2832  1.6812
 6303SOL     OW30370   3.302   0.159   3.074  0.2635  0.0274  0.5758
 6303SOL    HW130371   3.317   0.066   3.059 -1.2214 -0.2708  0.9941
 6303SOL    HW230372   3.215   0.139   3.107  0.2364 -2.8549 -1.2527
 6304SOL     OW30373   4.174   0.567   4.736  0.5102  0.4550 -0.3767
 6304SOL    HW130374   4.162   0.589   4.644  0.1791  2.3832  0.1077
 6304SOL    HW230375   4.108   0.499   4.747  0.1433  0.7239 -0.9210
 6305SOL     OW30376   3.967   0.389   4.774  0.2476 -0.3081  0.4060
 6305SOL    HW130377   3.920   0.411   4.855  0.7436  0.5200  0.4703
 6305SOL    HW230378   3.898   0.412   4.712  1.3641  1.8262 -0.0227
 6306SOL     OW30379   2.251   1.431   9.733  0.7859  0.3164 -0.6596
 6306SOL    HW130380   2.339   1.424   9.770  0.9662 -0.1195 -1.1851
 6306SOL    HW230381   2.194   1.401   9.804  0.9517  0.7201 -0.3532
 6307SOL     OW30382   4.607   1.085   4.617  0.0052  0.3002  0.3409
 6307SOL    HW130383   4.580   1.170   4.651  0.4822  0.9916 -1.0129
 6307SOL    HW230384   4.531   1.029   4.630 -0.1258  0.4706  0.3099
 6308SOL     OW30385   3.170   0.545   9.149  0.1409 -0.3971  0.5740
 6308SOL    HW130386   3.243   0.536   9.088 -0.9671 -2.4490 -0.4622
 6308SOL    HW230387   3.179   0.462   9.195 -0.1617 -0.8365 -0.1571
 6309SOL     OW30388   4.469   1.700  11.452 -0.1030  0.3017  0.2272
 6309SOL    HW130389   4.480   1.690  11.547  0.2405 -0.5586  0.0958
 6309SOL    HW230390   4.548   1.667  11.410 -1.0506  0.1740 -1.4249
 6310SOL     OW30391   3.843   0.958   7.260 -0.3028  0.5143  0.2325
 6310SOL    HW130392   3.927   1.004   7.256 -0.5272  0.8026 -1.0081
 6310SOL    HW230393   3.838   0.960   7.356  1.2338 -0.1937  0.3333
 6311SOL     OW30394   3.082   0.474   2.533 -0.3591  0.3806  0.2197
 6311SOL    HW130395   3.059   0.385   2.562 -2.3540  0.9483  0.3228
 6311SOL    HW230396   3.161   0.475   2.588 -0.5056 -2.0278  0.4949
 6312SOL     OW30397   3.343   1.374   7.878  0.1192  0.7675  0.2591
 6312SOL    HW130398   3.426   1.328   7.863 -1.0991 -1.1216 -0.7684
 6312SOL    HW230399   3.356   1.414   7.963 -1.1296 -1.4806  1.5111
 6313SOL     OW30400   3.360   0.489   8.985 -0.4582  0.1942  0.1135
 6313SOL    HW130401   3.446   0.506   8.946 -0.5850 -1.4972 -0.8737
 6313SOL    HW230402   3.383   0.435   9.061 -0.6143 -1.2290 -0.8630
 6314SOL     OW30403   2.858   2.188   9.549  0.2804 -0.1021  0.5720
 6314SOL    HW130404   2.817   2.148   9.626  0.3296 -0.8408  0.2138
 6314SOL    HW230405   2.825   2.277   9.561 -0.2905 -0.8594  4.7241
 6315SOL     OW30406   1.431   0.204   6.411 -0.1787 -0.3624  0.0380
 6315SOL    HW130407   1.384   0.158   6.481 -2.9197  0.0190 -1.5618
 6315SOL    HW230408   1.484   0.262   6.466  0.1277 -0.7589  0.1697
 6316SOL     OW30409   4.500   1.620   6.720 -1.0529  0.6418 -0.3712
 6316SOL    HW130410   4.592   1.601   6.702 -0.7511  1.9249 -0.1595
 6316SOL    HW230411   4.476   1.535   6.758 -1.2949  0.4441 -0.9730
 6317SOL     OW30412   0.716   3.531   7.896 -0.2145 -0.1778 -0.0987
 6317SOL    HW130413   0.702   3.438   7.914 -1.8353  0.3050  1.1828
 6317SOL    HW230414   0.673   3.562   7.976  0.0564  0.9847 -0.4099
 6318SOL     OW30415   3.595   4.660  11.088  0.5758 -0.3103 -0.1837
 6318SOL    HW130416   3.652   4.624  11.020  2.4961 -1.0553  1.8366
 6318SOL    HW230417   3.624   0.032  11.097 -0.5488  0.0289 -0.0184
 6319SOL     OW30418   3.734   1.395   7.544 -0.4594  0.1212  0.4816
 6319SOL    HW130419   3.659   1.444   7.577  0.5241  1.1898  1.1271
 6319SOL    HW230420   3.785   1.380   7.623 -3.0251  1.2913  2.3310
 6320SOL     OW30421   4.652   3.388  15.808 -0.0910 -0.1052 -0.2773
 6320SOL    HW130422   4.592   3.373  15.735 -1.1394 -0.0085  0.5644
 6320SOL    HW230423   4.591   3.385  15.881  2.5667  0.4011  1.9885
 6321SOL     OW30424   0.827   0.153  16.733 -0.2484  0.5569  0.6654
 6321SOL    HW130425   0.738   0.147  16.699  0.4347  0.0777 -1.0453
 6321SOL    HW230426   0.835   0.059  16.750 -2.3375  0.3191  0.3280
 6322SOL     OW30427   3.791   1.266   2.771 -0.0706 -0.8015 -0.2517
 6322SOL    HW130428   3.749   1.184   2.744  0.1102 -0.4259 -1.6573
 6322SOL    HW230429   3.885   1.246   2.765 -0.1063 -1.3858  1.1864
 6323SOL     OW30430   3.618   1.049   8.579 -0.0799  0.2395  0.4071
 6323SOL    HW130431   3.566   0.976   8.611 -0.3052 -0.7137 -2.1052
 6323SOL    HW230432   3.594   1.053   8.486  0.3525 -1.5479  0.2264
 6324SOL     OW30433   3.394   1.020   7.884  0.0688 -0.0801  0.1021
 6324SOL    HW130434   3.449   0.942   7.878 -1.3539 -1.1191  0.6985
 6324SOL    HW230435   3.464   1.083   7.865  1.6179 -1.1444  2.2259
 6325SOL     OW30436   0.936   1.406  12.984 -0.1613  0.1784 -0.4573
 6325SOL    HW130437   0.984   1.346  12.927 -1.6091 -0.4038 -1.0495
 6325SOL    HW230438   0.855   1.437  12.944 -0.9828 -1.6892 -0.2201
 6326SOL     OW30439   0.988   0.929   0.329  0.1234  0.0205  0.2057
 6326SOL    HW130440   1.029   0.845   0.311  0.3906  0.0445  0.7078
 6326SOL    HW230441   0.930   0.930   0.252 -1.2683 -0.4323  1.2407
 6327SOL     OW30442   4.051   1.083   7.926  0.0028 -0.1427 -0.2471
 6327SOL    HW130443   4.091   1.151   7.872 -0.9458  0.7986  0.2119
 6327SOL    HW230444   4.099   1.108   8.005  1.5913  1.3316 -1.6833
 6328SOL     OW30445   4.714   1.822   2.026  0.5707 -0.2578 -0.3404
 6328SOL    HW130446   4.621   1.809   2.048  0.3416 -0.9116 -1.6430
 6328SOL    HW230447   0.025   1.732   2.034  1.7268  0.4351  2.7121
 6329SOL     OW30448   4.015   0.738   2.845  0.7883  0.2229  0.3632
 6329SOL    HW130449   4.084   0.714   2.906 -1.2959  0.8868  2.9829
 6329SOL    HW230450   3.941   0.698   2.892  0.2184  0.6496 -0.1801
 6330SOL     OW30451   2.392   0.182   2.688  0.2109 -0.2434  0.2784
 6330SOL    HW130452   2.468   0.240   2.688 -0.4094  0.5419  3.5128
 6330SOL    HW230453   2.407   0.144   2.601 -0.8963 -2.5019  1.0884
 6331SOL     OW30454   0.809   4.039   3.385  0.4085  0.1530  0.5920
 6331SOL    HW130455   0.797   4.043   3.290  1.0759  0.7285  0.5351
 6331SOL    HW230456   0.865   3.963   3.395 -0.8197 -1.2992 -3.3939
 6332SOL     OW30457   1.842   0.316   5.855 -0.4113 -0.3357 -0.1360
 6332SOL    HW130458   1.915   0.257   5.836 -0.2952 -0.4018  0.5224
 6332SOL    HW230459   1.854   0.341   5.946  2.3962  0.1271 -0.6353
 6333SOL     OW30460   3.210   0.645  16.764 -0.2433  0.2233  0.1529
 6333SOL    HW130461   3.303   0.671  16.765 -0.1046 -0.3041  1.0902
 6333SOL    HW230462   3.214   0.551  16.779  0.8930  0.2753  0.1962
 6334SOL     OW30463   0.889   0.993   1.687  0.2589  0.5354  0.0575
 6334SOL    HW130464   0.922   0.921   1.740 -0.0180  0.7830  0.5739
 6334SOL    HW230465   0.969   1.040   1.664 -0.4827  1.5220 -0.5511
 6335SOL     OW30466   2.846   1.785  11.505  0.3536  0.5697  0.2512
 6335SOL    HW130467   2.776   1.843  11.476 -0.6690  0.1649  1.9437
 6335SOL    HW230468   2.867   1.739  11.423 -0.7581 -0.7035  0.6991
 6336SOL     OW30469   0.669   2.463   6.984  0.3014  0.2019 -0.2038
 6336SOL    HW130470   0.717   2.543   7.006  0.1699 -0.1325  1.2884
 6336SOL    HW230471   0.710   2.401   7.044 -0.3239 -0.2730 -0.2581
 6337SOL     OW30472   3.772   0.527   2.534  0.0848 -0.0791  0.4907
 6337SOL    HW130473   3.737   0.540   2.622 -1.1773 -0.9817  0.1181
 6337SOL    HW230474   3.704   0.572   2.485 -0.2632 -0.9531  0.1629
 6338SOL     OW30475   4.595   0.324  14.205 -0.5168  0.3064  0.0889
 6338SOL    HW130476   4.522   0.308  14.265 -0.4643  3.1183  0.9396
 6338SOL    HW230477   4.652   0.287  14.273 -0.9711 -0.3148  0.1309
 6339SOL     OW30478   2.150   1.873   8.795 -0.7202 -0.4408  0.1873
 6339SOL    HW130479   2.112   1.939   8.851 -0.7358 -1.0984  0.9581
 6339SOL    HW230480   2.202   1.932   8.741 -0.7090 -0.6706 -0.0553
 6340SOL     OW30481   2.883   3.816   4.023 -0.1626 -0.2775  0.5754
 6340SOL    HW130482   2.846   3.739   3.980  1.9552  0.3492 -2.3011
 6340SOL    HW230483   2.971   3.816   3.986 -1.2985  0.6850 -2.1049
 6341SOL     OW30484   4.340   0.079  12.573 -0.4090  0.4936 -0.5961
 6341SOL    HW130485   4.320   0.009  12.511  3.3290 -2.2460  1.3157
 6341SOL    HW230486   4.337   0.033  12.657  2.5770 -0.0897 -0.7823
 6342SOL     OW30487   1.548   4.076   0.582  0.4648  0.1008 -0.0976
 6342SOL    HW130488   1.621   4.025   0.616  1.8477  2.6799  0.8328
 6342SOL    HW230489   1.493   4.019   0.529 -1.3281  1.1692  0.6193
 6343SOL     OW30490   1.758   1.231   1.653 -0.3124  0.5226  0.0695
 6343SOL    HW130491   1.734   1.149   1.696 -0.7842  1.2126  1.1069
 6343SOL    HW230492   1.689   1.234   1.587 -0.1331  3.3842  0.0048
 6344SOL     OW30493   4.368   2.840   3.097 -0.4274  0.8530  0.0385
 6344SOL    HW130494   4.319   2.785   3.036  0.2267  0.7907 -0.4427
 6344SOL    HW230495   4.445   2.850   3.039 -0.0498 -0.1814  0.3575
 6345SOL     OW30496   4.588   3.893   6.200 -0.4116 -0.7486  0.0727
 6345SOL    HW130497   4.621   3.862   6.284  0.5728  0.1472  0.0185
 6345SOL    HW230498   4.662   3.947   6.174 -2.7489  3.4246  2.1906
 6346SOL     OW30499   2.576   3.564   3.071 -0.0581  0.0039 -0.3653
 6346SOL    HW130500   2.612   3.511   3.000 -1.3404 -1.2782 -0.0666
 6346SOL    HW230501   2.609   3.515   3.146  0.1418 -1.7706 -1.5818
 6347SOL     OW30502   1.188   3.696  12.530  0.1019 -0.3917 -0.3883
 6347SOL    HW130503   1.196   3.759  12.602  1.1022 -1.1683  0.1762
 6347SOL    HW230504   1.150   3.759  12.468  0.8053 -1.0502 -1.4867
 6348SOL     OW30505   2.199   2.645   0.803 -0.4724 -0.2120  0.2107
 6348SOL    HW130506   2.269   2.603   0.754 -0.6200  0.5966 -0.6879
 6348SOL    HW230507   2.234   2.732   0.820 -2.4933  0.7037 -0.2421
 6349SOL     OW30508   1.521   1.344   8.540  0.2709 -0.7352  0.0560
 6349SOL    HW130509   1.500   1.340   8.633  1.2944  0.0684  0.3123
 6349SOL    HW230510   1.430   1.339   8.511  0.5652 -1.0432 -0.8237
 6350SOL     OW30511   3.298   4.424  15.193 -0.2150 -0.1578 -0.2255
 6350SOL    HW130512   3.345   4.430  15.110  1.9526  1.9401  1.1459
 6350SOL    HW230513   3.248   4.500  15.167 -0.1103 -0.0579 -0.1337
 6351SOL     OW30514   0.629   2.406   0.589  0.6036 -0.7910  0.2996
 6351SOL    HW130515   0.554   2.369   0.635 -0.3745  3.9000  2.3866
 6351SOL    HW230516   0.587   2.480   0.546  0.6126 -2.0226 -1.8501
 6352SOL     OW30517   4.425   1.891   9.667  0.0328  0.0070  0.4068
 6352SOL    HW130518   4.338   1.928   9.680 -0.1138 -0.7362  1.5233
 6352SOL    HW230519   4.438   1.896   9.572 -1.7826  0.0108  0.1552
 6353SOL     OW30520   3.813   4.128   0.897 -0.0258 -0.1017  0.0763
 6353SOL    HW130521   3.879   4.087   0.839  0.3915 -1.1201  1.2643
 6353SOL    HW230522   3.742   4.147   0.836 -1.7572 -0.6791  1.8912
 6354SOL     OW30523   4.255   2.346   2.945  0.2763 -0.3133 -0.2152
 6354SOL    HW130524   4.329   2.386   2.901 -0.0981  0.6142 -0.0165
 6354SOL    HW230525   4.226   2.279   2.883  0.1740 -1.3435  0.9416
 6355SOL     OW30526   1.050   0.722  17.406 -0.4831 -0.5558  0.0087
 6355SOL    HW130527   1.121   0.657  17.401  0.2614  0.2672 -0.0589
 6355SOL    HW230528   0.994   0.694  17.334  0.9498 -2.0276 -0.5555
 6356SOL     OW30529   2.087   0.091  14.043 -0.5001  0.3674 -0.4459
 6356SOL    HW130530   2.107   0.007  14.001 -1.5489  0.3053 -0.8035
 6356SOL    HW230531   2.034   0.062  14.117 -1.3941  1.3098 -0.7146
 6357SOL     OW30532   2.955   4.640   9.630  0.0231 -0.0171 -0.3117
 6357SOL    HW130533   2.930   4.558   9.671 -2.2613  0.6704 -0.3023
 6357SOL    HW230534   2.935   4.635   9.537  2.8826  0.5404 -0.9437
 6358SOL     OW30535   4.297   1.405  12.643 -0.4415  0.1485  0.4681
 6358SOL    HW130536   4.293   1.501  12.646 -1.2547  0.1648 -1.4266
 6358SOL    HW230537   4.219   1.395  12.589 -1.5975  2.2761  1.7328
 6359SOL     OW30538   2.752   2.031   3.937  0.0698  0.5326 -0.1400
 6359SOL    HW130539   2.681   1.973   3.910  1.1490  0.0499 -1.9896
 6359SOL    HW230540   2.715   2.114   3.906 -2.6018 -0.7201 -0.3236
 6360SOL     OW30541   1.385   3.541   3.891  1.0562 -0.0472  0.1840
 6360SOL    HW130542   1.443   3.608   3.856 -2.2413  2.9187  0.4367
 6360SOL    HW230543   1.298   3.543   3.850  1.1435 -0.1906 -0.0109
 6361SOL     OW30544   0.353   1.973   6.564  0.6825 -0.0248 -0.3937
 6361SOL    HW130545   0.326   2.062   6.540  2.6131  0.6146 -0.1494
 6361SOL    HW230546   0.271   1.933   6.533 -1.0144  2.8460  0.3298
 6362SOL     OW30547   2.964   4.257  13.365 -0.5581 -0.0556  0.0703
 6362SOL    HW130548   3.044   4.250  13.313 -0.3309  0.6780  0.3185
 6362SOL    HW230549   2.971   4.352  13.374 -0.6913  0.1748 -2.3656
 6363SOL     OW30550   3.285   3.038  10.214 -0.1363  0.1426  0.2862
 6363SOL    HW130551   3.328   3.015  10.296  2.6624 -0.4574 -1.3411
 6363SOL    HW230552   3.367   3.079  10.189 -0.0406 -0.4926 -0.4458
 6364SOL     OW30553   0.593   4.512   0.902 -0.1132  0.4879 -0.3484
 6364SOL    HW130554   0.681   4.519   0.939  0.4164  0.9175 -1.7296
 6364SOL    HW230555   0.572   4.424   0.933  0.7741  0.9263  1.5162
 6365SOL     OW30556   0.705   1.720  17.678 -0.1750 -0.2392 -0.1709
 6365SOL    HW130557   0.794   1.742   0.026  0.3631 -1.2754 -1.0342
 6365SOL    HW230558   0.698   1.646   0.058  1.7718  1.7574  2.5272
 6366SOL     OW30559   3.374   0.859   3.726  0.7422 -0.5725 -0.9868
 6366SOL    HW130560   3.462   0.880   3.758 -0.5345  0.1058  2.0460
 6366SOL    HW230561   3.359   0.779   3.777  0.1511  0.8770  1.1152
 6367SOL     OW30562   2.624   2.462   0.002 -0.3777 -0.0308 -0.1778
 6367SOL    HW130563   2.651   2.422   0.085 -0.6217 -2.3586 -1.1940
 6367SOL    HW230564   2.589   2.550   0.015 -2.2009 -1.0807  2.1721
 6368SOL     OW30565   4.608   1.923  14.543 -0.0240 -0.1217  0.2110
 6368SOL    HW130566   4.670   1.934  14.471 -0.3705  2.4340  0.2837
 6368SOL    HW230567   4.530   1.959  14.501 -0.4199 -1.0257  0.1837
 6369SOL     OW30568   0.193   1.669  12.751 -0.4142  0.0525 -0.0688
 6369SOL    HW130569   0.125   1.735  12.766 -0.4079  0.1939 -0.6696
 6369SOL    HW230570   0.267   1.730  12.754 -0.7401  0.6004 -3.2671
 6370SOL     OW30571   1.265   2.080  13.720  0.0398  0.6647  0.3540
 6370SOL    HW130572   1.303   2.051  13.803  3.1366  0.0763 -1.2585
 6370SOL    HW230573   1.243   1.993  13.685 -1.2284  1.5923 -1.1191
 6371SOL     OW30574   1.423   0.180   0.927 -0.1241 -0.0929  0.0445
 6371SOL    HW130575   1.491   0.214   0.868 -1.5786 -0.4616 -1.8479
 6371SOL    HW230576   1.352   0.172   0.864 -0.8875  1.3297  0.7336
 6372SOL     OW30577   4.683   4.383   5.883 -0.3123  0.4143 -0.1434
 6372SOL    HW130578   0.057   4.400   5.877 -0.3118 -0.6189 -2.5813
 6372SOL    HW230579   4.671   4.402   5.977  0.3253 -0.1122  0.0384
 6373SOL     OW30580   1.932   4.416   5.489 -0.0703 -0.1729  0.1561
 6373SOL    HW130581   1.913   4.386   5.400 -2.3843 -0.3395  0.6947
 6373SOL    HW230582   2.003   4.355   5.509  1.1504  0.9991 -0.5733
 6374SOL     OW30583   1.482   0.775   3.149  0.5735  0.1968  0.0651
 6374SOL    HW130584   1.429   0.756   3.071  0.9629 -0.7054  0.0147
 6374SOL    HW230585   1.416   0.790   3.217  0.1583 -0.2880 -0.2317
 6375SOL     OW30586   3.849   1.550  15.239 -0.4876  0.2127  0.7448
 6375SOL    HW130587   3.817   1.626  15.191  0.6445  0.0158 -0.3362
 6375SOL    HW230588   3.787   1.542  15.312  1.1663  0.0750  2.1446
 6376SOL     OW30589   0.069   0.679   3.707 -0.3395 -0.1500  0.0969
 6376SOL    HW130590   4.714   0.729   3.675 -2.1382 -2.5921  0.5009
 6376SOL    HW230591   0.094   0.720   3.790 -0.7404 -0.8052  0.5362
 6377SOL     OW30592   2.184   0.008   4.425  0.0588 -0.0136 -0.1268
 6377SOL    HW130593   2.090   0.020   4.416  0.0261  0.7906  1.2976
 6377SOL    HW230594   2.194   4.674   4.346  0.0071  1.6969 -1.2887
 6378SOL     OW30595   3.888   2.909   4.656 -0.1407 -0.3017  0.3018
 6378SOL    HW130596   3.890   2.892   4.750 -0.2476 -0.5932  0.2504
 6378SOL    HW230597   3.978   2.892   4.628  0.1952 -0.4878  1.4774
 6379SOL     OW30598   0.398   2.206  11.448 -0.0106  0.7319 -0.7828
 6379SOL    HW130599   0.357   2.242  11.526 -0.1265 -1.0507 -0.0227
 6379SOL    HW230600   0.339   2.249  11.386 -1.0560 -0.7771 -0.8496
 6380SOL     OW30601   0.199   0.376   4.851  0.4984  0.2857  1.0148
 6380SOL    HW130602   0.116   0.345   4.886 -1.4224  3.1006 -1.0816
 6380SOL    HW230603   0.166   0.448   4.798  1.5911 -0.4901 -0.7195
 6381SOL     OW30604   2.050   2.707  16.454 -0.3354  0.2183  0.4789
 6381SOL    HW130605   2.094   2.773  16.508  0.2913 -0.0168  0.2639
 6381SOL    HW230606   2.043   2.647  16.528  0.5919  0.9783  1.1991
 6382SOL     OW30607   1.539   3.749   3.827  0.2542  0.1219 -0.6420
 6382SOL    HW130608   1.625   3.783   3.803  0.7813 -1.1774 -0.5927
 6382SOL    HW230609   1.482   3.810   3.780 -0.3827  0.8478  1.0583
 6383SOL     OW30610   0.356   2.090   8.894 -0.5174  0.1499  0.5951
 6383SOL    HW130611   0.340   2.166   8.950 -1.7692 -0.9100  1.6472
 6383SOL    HW230612   0.451   2.090   8.884 -0.5422 -1.5867  0.3294
 6384SOL     OW30613   3.855   0.344   5.867 -0.2646 -0.5848 -0.1084
 6384SOL    HW130614   3.864   0.250   5.880 -0.8252 -0.8328 -1.5856
 6384SOL    HW230615   3.944   0.370   5.891 -0.8328  0.7004  0.6302
 6385SOL     OW30616   0.855   3.508   7.491  1.0997 -0.0950 -0.6885
 6385SOL    HW130617   0.826   3.583   7.543  1.7843 -0.2411 -0.0809
 6385SOL    HW230618   0.822   3.520   7.402 -0.1511 -0.9972 -0.3532
 6386SOL     OW30619   0.804   4.228   1.224 -0.3119  0.1150  0.5763
 6386SOL    HW130620   0.853   4.183   1.155 -3.0775 -0.2616 -1.1011
 6386SOL    HW230621   0.868   4.288   1.262 -1.1811  1.3101  0.1291
 6387SOL     OW30622   0.788   1.415   7.125 -0.2391  0.1823 -0.8945
 6387SOL    HW130623   0.774   1.404   7.219  0.9864 -0.3037 -0.7625
 6387SOL    HW230624   0.696   1.413   7.099 -0.9568 -2.7903  1.9720
 6388SOL     OW30625   0.470   2.500   9.172 -0.3851  0.5606 -0.0435
 6388SOL    HW130626   0.549   2.447   9.163 -1.7441 -1.2994 -0.9430
 6388SOL    HW230627   0.403   2.432   9.168  0.9616 -0.7433 -0.4343
 6389SOL     OW30628   2.658   3.054   9.677  0.5112 -0.1049 -0.2048
 6389SOL    HW130629   2.702   2.970   9.687  0.1173 -0.0056  2.2620
 6389SOL    HW230630   2.720   3.084   9.610 -0.3483 -1.1158 -1.4444
 6390SOL     OW30631   2.184   4.021  10.392  0.2806 -0.0114  0.7754
 6390SOL    HW130632   2.177   4.113  10.417  2.4403  0.6001 -0.9766
 6390SOL    HW230633   2.276   4.007  10.371  0.1911 -1.4722  1.3404
 6391SOL     OW30634   3.462   1.395  10.949  0.3080  0.1855 -0.0872
 6391SOL    HW130635   3.481   1.327  10.885  2.5442  2.8323 -2.2536
 6391SOL    HW230636   3.457   1.480  10.903 -2.0274 -0.4263 -0.9642
 6392SOL     OW30637   1.839   3.367  14.241 -0.2712 -0.4758  0.0049
 6392SOL    HW130638   1.753   3.397  14.272 -1.0514 -1.2404 -1.3997
 6392SOL    HW230639   1.834   3.383  14.146 -0.1296  0.3490  0.1384
 6393SOL     OW30640   0.492   1.885   9.311 -0.0747  0.3377 -0.4842
 6393SOL    HW130641   0.550   1.949   9.269 -0.8105  0.9662 -0.5294
 6393SOL    HW230642   0.529   1.814   9.259 -1.4181  0.3624 -1.4886
 6394SOL     OW30643   0.290   3.775   8.323 -0.1410  0.1163 -0.2271
 6394SOL    HW130644   0.256   3.826   8.397  0.6220  1.2005 -0.6310
 6394SOL    HW230645   0.206   3.735   8.301  0.4688  0.2910 -2.8196
 6395SOL     OW30646   0.108   2.829  15.804  0.4718  0.8126  0.7254
 6395SOL    HW130647   0.172   2.817  15.734  0.8291 -2.0261  1.5569
 6395SOL    HW230648   0.143   2.911  15.839  2.0430  1.1117 -1.5910
 6396SOL     OW30649   0.003   2.683   0.633  0.2450  0.2757 -0.0095
 6396SOL    HW130650   4.713   2.731   0.550  0.3370  1.1279  0.4737
 6396SOL    HW230651   0.018   2.756   0.693  1.5820  2.8563 -3.4596
 6397SOL     OW30652   2.231   2.880  16.549  0.3891 -0.3765  0.1711
 6397SOL    HW130653   2.282   2.936  16.491  1.6189 -1.8467 -0.1905
 6397SOL    HW230654   2.260   2.899  16.638 -1.0755 -1.3084  0.8577
 6398SOL     OW30655   0.345   2.905  17.636  0.5704 -0.1100  0.1490
 6398SOL    HW130656   0.327   2.910  17.543 -0.5539 -0.5511  0.3445
 6398SOL    HW230657   0.283   2.838  17.663 -0.5046 -0.1407 -2.4538
 6399SOL     OW30658   0.860   0.137  11.769 -0.2863 -0.1223  0.3031
 6399SOL    HW130659   0.951   0.154  11.744  0.0811 -1.5630  0.6588
 6399SOL    HW230660   0.872   0.047  11.800  1.6477  0.4717  1.3216
 6400SOL     OW30661   2.210   2.586   3.354  0.2023 -0.1550  0.0716
 6400SOL    HW130662   2.231   2.669   3.310  0.8071 -0.1136  0.4335
 6400SOL    HW230663   2.159   2.537   3.290 -0.2315  0.8592 -0.3606
 6401SOL     OW30664   1.543   1.176   3.200  0.1091 -0.3366 -0.3598
 6401SOL    HW130665   1.465   1.232   3.194 -0.1204 -0.7647 -1.5701
 6401SOL    HW230666   1.490   1.099   3.178 -1.0287  0.3311  0.0587
 6402SOL     OW30667   0.099   2.265   1.709 -0.1557  0.5839  0.0907
 6402SOL    HW130668   0.051   2.215   1.775 -0.3185 -0.8363 -1.1148
 6402SOL    HW230669   0.184   2.233   1.739  1.7010  2.3778 -3.2286
 6403SOL     OW30670   1.161   4.003  16.895  0.0840 -0.3140 -0.0167
 6403SOL    HW130671   1.104   4.033  16.965 -0.2860 -0.3564 -0.2981
 6403SOL    HW230672   1.112   3.926  16.865  0.7864 -0.3333 -1.1374
 6404SOL     OW30673   4.238   2.677   8.961  0.1886 -0.1788  0.0337
 6404SOL    HW130674   4.160   2.654   9.012  1.1756 -0.6744  1.3414
 6404SOL    HW230675   4.291   2.695   9.040 -0.6439  1.7058  0.1730
 6405SOL     OW30676   3.290   0.144  13.124  0.6086  0.0389 -0.5938
 6405SOL    HW130677   3.371   0.126  13.077 -0.0250  0.2560 -1.7565
 6405SOL    HW230678   3.304   0.089  13.201 -3.0887  0.5037  0.4236
 6406SOL     OW30679   4.209   2.917   0.305 -0.0208 -0.0880  0.4159
 6406SOL    HW130680   4.219   2.832   0.260  2.2763  1.2988 -1.7198
 6406SOL    HW230681   4.285   2.961   0.265 -0.3782 -0.6784 -0.9445
 6407SOL     OW30682   2.951   3.659   8.426 -0.2722 -0.2808  0.0135
 6407SOL    HW130683   2.997   3.710   8.359  0.9124  0.3880  1.3195
 6407SOL    HW230684   3.020   3.637   8.489 -0.2066 -0.6453 -0.1865
 6408SOL     OW30685   3.165   0.841   4.078  0.1599  0.1629  0.0719
 6408SOL    HW130686   3.226   0.888   4.022 -0.4723  0.2953 -0.5053
 6408SOL    HW230687   3.081   0.860   4.036  1.4216  0.7206 -2.1562
 6409SOL     OW30688   2.732   2.726  13.372 -0.2504  0.1139  0.4026
 6409SOL    HW130689   2.660   2.696  13.427 -0.3908 -0.1938  0.0499
 6409SOL    HW230690   2.701   2.721  13.282  2.3799  4.1465 -0.7396
 6410SOL     OW30691   1.392   3.933   5.593 -0.2385 -0.1192 -0.0253
 6410SOL    HW130692   1.439   3.852   5.574 -0.2727  0.1862 -1.4678
 6410SOL    HW230693   1.319   3.886   5.633 -0.3724  1.9208  2.1123
 6411SOL     OW30694   2.147   1.237   9.048 -0.1822  0.3570 -0.9603
 6411SOL    HW130695   2.176   1.308   9.105  0.4649  0.3393 -1.2718
 6411SOL    HW230696   2.093   1.283   8.984 -2.0323 -1.0949 -0.4382
 6412SOL     OW30697   4.224   3.476   8.580 -0.1175  0.1031  0.0153
 6412SOL    HW130698   4.318   3.478   8.595 -0.0587 -0.8964 -0.2062
 6412SOL    HW230699   4.209   3.382   8.595 -1.0067  0.1959 -0.2729
 6413SOL     OW30700   0.969   3.610  16.370 -0.8110  0.1812 -0.3421
 6413SOL    HW130701   0.880   3.577  16.382 -0.5581 -0.2955  0.1987
 6413SOL    HW230702   0.975   3.588  16.277 -0.7037 -0.9697 -0.0577
 6414SOL     OW30703   2.425   4.261   6.993 -0.3749 -0.3201  0.2645
 6414SOL    HW130704   2.346   4.225   6.951  0.4381 -0.9082 -0.7472
 6414SOL    HW230705   2.453   4.188   7.047 -2.0353 -2.7690 -2.1705
 6415SOL     OW30706   0.676   1.435   4.968 -0.0027 -0.8024 -0.4655
 6415SOL    HW130707   0.714   1.377   5.034  1.9219  0.9926  0.0210
 6415SOL    HW230708   0.676   1.380   4.890  0.3751 -4.7758  2.3578
 6416SOL     OW30709   0.407   3.519   2.690 -0.5515  0.2434  0.7764
 6416SOL    HW130710   0.472   3.532   2.759 -0.3892  0.4009  0.5924
 6416SOL    HW230711   0.439   3.429   2.682 -1.0996 -0.1058  2.3517
 6417SOL     OW30712   0.552   1.141  11.258  0.0737 -0.6680 -0.2294
 6417SOL    HW130713   0.477   1.092  11.224 -0.6726  0.4520 -0.2048
 6417SOL    HW230714   0.510   1.208  11.313 -1.9767 -1.1340 -1.1999
 6418SOL     OW30715   2.121   4.673   7.705 -0.0330 -0.4276  0.0953
 6418SOL    HW130716   2.168   0.025   7.749 -1.9763 -0.0573  1.5568
 6418SOL    HW230717   2.033   4.691   7.739 -0.6143 -2.2300 -0.4827
 6419SOL     OW30718   1.347   1.977   4.990 -0.1964  0.3596  0.3380
 6419SOL    HW130719   1.310   2.048   5.043 -0.5867 -0.8602  1.6654
 6419SOL    HW230720   1.441   1.983   5.007  0.4306 -1.5115 -2.4753
 6420SOL     OW30721   2.716   3.758   0.502  0.2430  0.3546  0.0201
 6420SOL    HW130722   2.727   3.666   0.477 -0.5704 -0.2471  1.9552
 6420SOL    HW230723   2.771   3.759   0.580  0.7188  0.6317 -0.3189
 6421SOL     OW30724   1.882   4.252   7.583  0.2221  0.3549  0.1772
 6421SOL    HW130725   1.867   4.286   7.495 -2.4998 -0.0396  0.4630
 6421SOL    HW230726   1.790   4.253   7.610  0.1283  1.3994 -0.1807
 6422SOL     OW30727   1.664   3.044   3.101 -0.3055  0.2482  0.2305
 6422SOL    HW130728   1.691   3.103   3.171  1.0842 -1.2939  0.9909
 6422SOL    HW230729   1.605   3.099   3.049 -1.3102  1.5843  2.8109
 6423SOL     OW30730   2.480   4.062  10.114  0.0193 -0.0159  0.0673
 6423SOL    HW130731   2.450   4.010  10.188  3.3715 -0.8644  0.8026
 6423SOL    HW230732   2.405   4.120  10.102 -1.7483 -1.4748  4.3528
 6424SOL     OW30733   3.646   3.669  11.206  1.0871 -0.1984  0.4019
 6424SOL    HW130734   3.666   3.647  11.297  0.9278  0.0169  0.4867
 6424SOL    HW230735   3.674   3.588  11.162 -0.0703  0.7126 -1.9920
 6425SOL     OW30736   4.435   3.804  17.216 -0.3250  0.0716  0.5994
 6425SOL    HW130737   4.426   3.878  17.276 -1.0392 -0.8481  1.6331
 6425SOL    HW230738   4.420   3.852  17.135  0.9623 -0.3524  0.1022
 6426SOL     OW30739   3.945   3.324  14.432 -0.9800 -0.0925 -0.2161
 6426SOL    HW130740   3.902   3.250  14.389 -1.4260  1.9616 -3.3274
 6426SOL    HW230741   3.950   3.294  14.522  0.8882  2.0625  0.3901
 6427SOL     OW30742   2.792   2.174   6.944 -0.4856  0.1216 -0.4097
 6427SOL    HW130743   2.869   2.230   6.947  0.6680 -1.3522 -2.4646
 6427SOL    HW230744   2.787   2.127   6.860  1.7304 -0.6878 -0.0821
 6428SOL     OW30745   2.651   4.566   6.535 -0.5184 -0.6651  0.5294
 6428SOL    HW130746   2.618   4.502   6.598 -1.4057 -0.3238  0.4104
 6428SOL    HW230747   2.577   4.586   6.478  1.0735  1.7003 -0.7403
 6429SOL     OW30748   3.036   1.839  10.713  0.5737  0.0110 -0.5205
 6429SOL    HW130749   3.090   1.761  10.728  0.7044  0.4332  1.2637
 6429SOL    HW230750   2.951   1.800  10.692  0.6215 -1.1282  1.3638
 6430SOL     OW30751   2.589   0.233   3.890  0.1190  0.3348 -0.2176
 6430SOL    HW130752   2.655   0.170   3.919 -1.0836 -1.3931 -1.2427
 6430SOL    HW230753   2.640   0.306   3.855 -0.1080  1.4746  1.8081
 6431SOL     OW30754   1.549   1.581  17.201 -0.1625 -0.6521  0.2479
 6431SOL    HW130755   1.596   1.663  17.187  1.7461 -1.3788  2.3986
 6431SOL    HW230756   1.468   1.596  17.153  1.2143  1.3190 -1.5033
 6432SOL     OW30757   0.653   3.173   8.496 -0.5737  0.2818 -0.3050
 6432SOL    HW130758   0.660   3.220   8.413  0.0842 -1.9019 -1.4652
 6432SOL    HW230759   0.717   3.105   8.476 -0.0261 -0.4129  3.6655
 6433SOL     OW30760   1.764   1.604   8.669  0.8892  0.4892  0.2952
 6433SOL    HW130761   1.676   1.586   8.704  0.8100 -0.5396 -0.4273
 6433SOL    HW230762   1.822   1.594   8.744 -0.2137  0.9961  1.2091
 6434SOL     OW30763   2.806   1.421   8.385 -0.0130  0.1454  0.4451
 6434SOL    HW130764   2.749   1.485   8.344 -0.0387  0.7445  1.4044
 6434SOL    HW230765   2.879   1.410   8.324  0.0426 -2.4165  0.9490
 6435SOL     OW30766   0.027   2.225   4.530 -0.7625  0.6977  0.7066
 6435SOL    HW130767   0.031   2.243   4.624  3.4533  0.3354  0.5999
 6435SOL    HW230768   0.088   2.291   4.497  2.4028 -0.7275  3.7044
 6436SOL     OW30769   2.092   3.352   3.600  0.3046 -0.1413 -0.0407
 6436SOL    HW130770   2.097   3.447   3.616  3.0057 -0.3747  0.6375
 6436SOL    HW230771   2.026   3.326   3.664  0.2095 -0.8167 -0.4145
 6437SOL     OW30772   1.851   3.952  14.734  0.0872 -0.1642  0.0375
 6437SOL    HW130773   1.761   3.938  14.706  0.0517 -1.8654  0.9965
 6437SOL    HW230774   1.875   3.862  14.757  1.4620  0.1998  0.0504
 6438SOL     OW30775   2.136   1.416  11.770  0.6905 -0.0578 -0.1908
 6438SOL    HW130776   2.119   1.500  11.729  2.4125  0.1491 -0.5021
 6438SOL    HW230777   2.232   1.412  11.776  0.5844 -2.2400  0.0638
 6439SOL     OW30778   4.397   2.421   2.227  0.2349  0.0894 -0.3474
 6439SOL    HW130779   4.346   2.500   2.243 -0.3332 -0.7175  1.9495
 6439SOL    HW230780   4.485   2.448   2.199  0.1260  0.4019 -0.3854
 6440SOL     OW30781   2.436   4.410   4.664 -0.0603 -0.8893  0.4008
 6440SOL    HW130782   2.422   4.381   4.754 -0.7389 -1.2938  0.1593
 6440SOL    HW230783   2.351   4.444   4.637 -0.9009 -2.2664  1.3259
 6441SOL     OW30784   4.183   3.087   1.644  0.4295 -0.0260 -0.6353
 6441SOL    HW130785   4.277   3.087   1.629  0.5336  0.2232  0.0166
 6441SOL    HW230786   4.190   3.131   1.728  1.6110  1.5668 -1.5557
 6442SOL     OW30787   0.984   3.511  11.809  0.2900 -0.4309  0.3556
 6442SOL    HW130788   0.915   3.477  11.752  1.9426  0.8211 -2.3375
 6442SOL    HW230789   0.928   3.504  11.887 -1.2101 -1.8491 -0.8356
 6443SOL     OW30790   2.338   4.602  12.326  0.1873 -0.3243  0.2085
 6443SOL    HW130791   2.377   4.573  12.243  0.4988 -3.6312  1.4996
 6443SOL    HW230792   2.397   4.674  12.345 -0.7248  0.5440 -0.2390
 6444SOL     OW30793   0.807   3.758  11.492 -0.6196  0.1908 -0.2839
 6444SOL    HW130794   0.811   3.774  11.398  1.4620  0.5759 -0.1294
 6444SOL    HW230795   0.887   3.782  11.540 -0.0568  0.5997 -1.4451
 6445SOL     OW30796   4.057   4.069   2.539  0.2026  0.1745 -0.1607
 6445SOL    HW130797   3.982   4.056   2.482 -0.2682 -2.1222  1.0006
 6445SOL    HW230798   4.130   4.079   2.478  0.9155  1.3374  0.8653
 6446SOL     OW30799   3.462   0.121   7.504  0.5907 -0.6306 -0.4276
 6446SOL    HW130800   3.487   0.211   7.483 -2.7817  0.8545  1.8116
 6446SOL    HW230801   3.431   0.129   7.595  0.4430  1.2078 -0.6290
 6447SOL     OW30802   4.291   2.396   5.737  0.1523 -0.2923 -0.1775
 6447SOL    HW130803   4.371   2.400   5.686  0.4684  2.4043  0.5440
 6447SOL    HW230804   4.238   2.337   5.683 -1.0870 -0.6008  1.3563
 6448SOL     OW30805   2.470   1.634   7.828 -0.1061  0.8049  0.0317
 6448SOL    HW130806   2.470   1.557   7.884 -1.5261  1.5317  1.0294
 6448SOL    HW230807   2.488   1.598   7.741  2.6301  1.1289  0.4634
 6449SOL     OW30808   0.963   0.305   2.735  0.0199 -0.3309  0.0118
 6449SOL    HW130809   0.978   0.358   2.813  1.8520 -0.8381  0.0080
 6449SOL    HW230810   0.882   0.261   2.762 -1.2223  0.4354 -2.4552
 6450SOL     OW30811   0.823   1.486  15.093  0.2241  1.1423  0.2824
 6450SOL    HW130812   0.885   1.474  15.021 -0.2210 -1.6555  0.3804
 6450SOL    HW230813   0.777   1.565  15.065  0.4632  1.4128  0.6485
 6451SOL     OW30814   2.463   1.073   5.390  0.1604 -0.0741  0.4110
 6451SOL    HW130815   2.547   1.079   5.435  0.3173 -1.5672  0.3046
 6451SOL    HW230816   2.491   1.004   5.330  0.9439  1.3545 -0.8749
 6452SOL     OW30817   4.120   1.754   4.276 -0.1543 -0.2910 -0.2176
 6452SOL    HW130818   4.031   1.788   4.267 -1.0469 -2.2779  1.0507
 6452SOL    HW230819   4.176   1.829   4.255  0.1339 -1.1738 -2.6761
 6453SOL     OW30820   1.559   1.842   0.038 -0.4318  0.0322 -0.2994
 6453SOL    HW130821   1.494   1.854   0.108  1.3454  0.5708  1.2838
 6453SOL    HW230822   1.499   1.829  17.646 -1.5398  0.3835  0.5571
 6454SOL     OW30823   4.238   1.423  10.019  0.7132  0.1443  0.1527
 6454SOL    HW130824   4.212   1.515  10.019  0.7989  0.1694  1.4603
 6454SOL    HW230825   4.185   1.393  10.093  0.4749  0.0567 -0.0509
 6455SOL     OW30826   1.984   2.306   5.823  0.2704 -0.3764  0.0092
 6455SOL    HW130827   1.934   2.249   5.764  0.9476 -0.5602 -0.3807
 6455SOL    HW230828   2.054   2.337   5.766 -1.0372  0.6334 -1.0626
 6456SOL     OW30829   4.136   2.393  14.999  0.7300  0.4620 -0.2441
 6456SOL    HW130830   4.134   2.381  14.904 -0.4895  0.9870 -0.2903
 6456SOL    HW230831   4.073   2.463  15.015 -0.6716 -0.7460 -0.4733
 6457SOL     OW30832   2.577   0.518  10.100 -0.2116 -0.1360  0.1559
 6457SOL    HW130833   2.620   0.447  10.148 -1.1536 -0.7236  0.1115
 6457SOL    HW230834   2.512   0.552  10.161  0.9089  1.0793  0.6908
 6458SOL     OW30835   1.841   0.291  10.485 -0.0185 -0.0679  0.0819
 6458SOL    HW130836   1.788   0.341  10.547  3.1062  0.8475  1.9410
 6458SOL    HW230837   1.861   0.358  10.419  0.8393 -0.9669 -0.5600
 6459SOL     OW30838   1.782   0.865  12.475 -0.4837 -0.3975  0.0532
 6459SOL    HW130839   1.740   0.780  12.469 -1.6561  0.2233 -0.5218
 6459SOL    HW230840   1.747   0.900  12.393  0.2440  0.7880  0.2369
 6460SOL     OW30841   0.583   3.240   4.706  0.4901  0.1434  0.4021
 6460SOL    HW130842   0.566   3.214   4.797 -1.9162 -0.1762 -0.1401
 6460SOL    HW230843   0.538   3.324   4.704  0.8811  0.3494  0.3390
 6461SOL     OW30844   2.446   0.753   7.597  0.5749  0.5029  0.2179
 6461SOL    HW130845   2.487   0.666   7.597 -2.0314 -0.7022  1.5688
 6461SOL    HW230846   2.445   0.768   7.691  1.7091 -0.0675  0.3308
 6462SOL     OW30847   2.575   0.950   4.563 -0.7649 -0.0516  0.1472
 6462SOL    HW130848   2.568   0.954   4.659 -0.5448 -1.5907  0.2158
 6462SOL    HW230849   2.489   0.914   4.540 -0.8666  0.4262 -0.2262
 6463SOL     OW30850   0.460   3.858  11.622 -0.2794 -0.6170 -0.4392
 6463SOL    HW130851   0.525   3.927  11.638 -0.1246 -1.2859  1.8251
 6463SOL    HW230852   0.501   3.778  11.655  0.1630  0.0930  0.7400
 6464SOL     OW30853   1.434   4.714   3.317  0.1642  1.0743 -0.4593
 6464SOL    HW130854   1.416   4.658   3.393 -0.8529  1.1664 -0.6309
 6464SOL    HW230855   1.344   0.013   3.290 -0.3454  0.0487  0.5306
 6465SOL     OW30856   1.727   0.830   1.963  0.2990 -1.0488  0.3215
 6465SOL    HW130857   1.784   0.767   2.007  0.0707 -0.7626  1.0274
 6465SOL    HW230858   1.670   0.774   1.911  0.9930  0.4833 -2.1142
 6466SOL     OW30859   3.117   0.160  11.887  0.4904  0.6130 -0.5388
 6466SOL    HW130860   3.203   0.153  11.928 -0.7787 -0.5933  1.9364
 6466SOL    HW230861   3.061   0.162  11.965 -0.7884  0.4924 -1.4652
 6467SOL     OW30862   4.315   3.398   8.914  0.2663  0.4762 -0.4193
 6467SOL    HW130863   4.321   3.486   8.879 -2.3723  0.0190 -2.0488
 6467SOL    HW230864   4.230   3.392   8.957  1.1349 -0.9639  1.1127
 6468SOL     OW30865   4.345   1.676   6.395 -0.1559 -0.3098  0.2525
 6468SOL    HW130866   4.253   1.684   6.369 -0.4667 -1.1159  1.0992
 6468SOL    HW230867   4.342   1.720   6.480 -5.6811 -0.5024  0.1520
 6469SOL     OW30868   1.917   3.364   1.573  0.1383  0.0968  0.1354
 6469SOL    HW130869   1.902   3.361   1.668 -1.2413 -0.1973 -0.0907
 6469SOL    HW230870   1.977   3.438   1.563  1.6324 -1.4075 -1.9516
 6470SOL     OW30871   3.606   4.050   6.492 -0.0645  0.0994  0.7881
 6470SOL    HW130872   3.590   4.053   6.398  1.5582 -0.0033  0.5021
 6470SOL    HW230873   3.543   4.119   6.516 -2.2184 -0.7434 -2.4638
 6471SOL     OW30874   4.135   0.834   6.075 -0.0674 -0.5271  0.0235
 6471SOL    HW130875   4.070   0.889   6.032  0.2146 -0.7533 -0.7006
 6471SOL    HW230876   4.101   0.745   6.065  0.5873 -0.8210  0.4352
 6472SOL     OW30877   2.858   3.452  12.837 -0.1570  0.0446  0.1377
 6472SOL    HW130878   2.843   3.358  12.830 -0.8152  0.1730 -0.2209
 6472SOL    HW230879   2.934   3.472  12.783 -0.6835  2.1608  0.1734
 6473SOL     OW30880   3.564   3.315   2.172  0.1202  0.2919  0.2292
 6473SOL    HW130881   3.598   3.298   2.084  3.4420  2.7853  1.0386
 6473SOL    HW230882   3.631   3.366   2.218 -0.2302 -0.6147  1.7164
 6474SOL     OW30883   2.916   1.494   3.992 -0.2735 -0.2662 -0.1519
 6474SOL    HW130884   2.883   1.433   3.925  0.2215  0.2477 -0.8622
 6474SOL    HW230885   2.883   1.453   4.072  1.6803 -1.1255  0.2119
 6475SOL     OW30886   3.992   1.666   8.288 -0.6410  0.1730  0.2609
 6475SOL    HW130887   4.062   1.644   8.349 -1.0782  0.1880  0.7709
 6475SOL    HW230888   4.014   1.745   8.238 -0.7619  1.4477  2.2030
 6476SOL     OW30889   2.248   3.533   8.957  0.2237  0.5982 -0.5118
 6476SOL    HW130890   2.335   3.558   8.985  0.8232  0.1282 -1.9478
 6476SOL    HW230891   2.207   3.552   9.042  0.7444  1.4224 -0.4478
 6477SOL     OW30892   1.413   0.336   3.440 -0.0388  0.3778  0.6500
 6477SOL    HW130893   1.406   0.338   3.345 -1.3687  0.6704  0.7631
 6477SOL    HW230894   1.498   0.378   3.456  0.1088  0.9752 -1.7947
 6478SOL     OW30895   4.326   1.033   0.231  0.2309 -0.1254 -0.7166
 6478SOL    HW130896   4.351   1.049   0.322  1.2679  0.2517 -1.0676
 6478SOL    HW230897   4.264   1.106   0.230 -2.0553 -2.0709  0.0973
 6479SOL     OW30898   2.702   1.634   8.214 -0.2246 -0.7650  0.1856
 6479SOL    HW130899   2.620   1.684   8.213  0.7180  0.7534 -0.4154
 6479SOL    HW230900   2.759   1.687   8.160 -1.0045 -0.2625 -0.1526
 6480SOL     OW30901   2.743   4.210  13.225 -0.0911 -0.3518 -0.1152
 6480SOL    HW130902   2.818   4.239  13.278  0.3657  0.0131 -0.9670
 6480SOL    HW230903   2.665   4.240  13.273  1.6710  2.4897  0.9669
 6481SOL     OW30904   0.826   1.107   2.604  0.1087  0.7738  0.8915
 6481SOL    HW130905   0.756   1.137   2.546  0.8727  0.3008 -0.2784
 6481SOL    HW230906   0.776   1.051   2.664  0.5190 -0.6649 -0.0964
 6482SOL     OW30907   3.708   1.196  11.353 -0.0190  0.5867  0.0019
 6482SOL    HW130908   3.623   1.153  11.347 -0.1110  1.2189 -2.9720
 6482SOL    HW230909   3.724   1.168  11.443  3.7516  3.0380  0.1015
 6483SOL     OW30910   4.376   1.614  16.627  0.1311  0.5591 -0.2547
 6483SOL    HW130911   4.299   1.609  16.570 -0.7733  0.5673  0.9845
 6483SOL    HW230912   4.443   1.641  16.565  0.4564 -2.3950 -1.2248
 6484SOL     OW30913   0.741   4.563   4.407 -0.3080 -0.0526 -0.5330
 6484SOL    HW130914   0.771   4.652   4.428 -1.9450  0.5294 -0.6971
 6484SOL    HW230915   0.672   4.546   4.471 -0.6657 -1.2903 -1.2386
 6485SOL     OW30916   3.078   0.035   4.045 -0.4159  0.1161  0.3153
 6485SOL    HW130917   3.049   0.022   4.135  1.4331  0.5397  0.9836
 6485SOL    HW230918   3.089   0.130   4.036 -0.9682  0.0922 -0.6260
 6486SOL     OW30919   2.388   4.657   3.627 -0.7729  0.0861  0.4551
 6486SOL    HW130920   2.469   4.613   3.655  0.7698  2.4284 -0.3200
 6486SOL    HW230921   2.399   0.023   3.668 -1.7464  0.2261  0.4273
 6487SOL     OW30922   4.561   0.719  17.449 -0.4527 -0.0218 -0.0380
 6487SOL    HW130923   4.552   0.776  17.373  0.2859  2.4262  1.7152
 6487SOL    HW230924   4.523   0.641  17.409  0.3794 -1.1280  1.3318
 6488SOL     OW30925   1.615   0.976   4.438 -0.1507  0.2427 -0.2747
 6488SOL    HW130926   1.689   1.024   4.476  0.2159  0.3444 -1.1006
 6488SOL    HW230927   1.618   1.021   4.353  3.0272 -1.1645 -0.9158
 6489SOL     OW30928   0.695   1.932   9.563 -0.3266  0.1896  0.3664
 6489SOL    HW130929   0.628   1.894   9.505 -0.5172  1.5486 -0.2929
 6489SOL    HW230930   0.775   1.915   9.511  0.6072  0.9860  1.5606
 6490SOL     OW30931   2.695   2.888   2.577  0.2816 -0.0782 -0.0808
 6490SOL    HW130932   2.716   2.964   2.631 -1.9287  0.4779 -0.0386
 6490SOL    HW230933   2.739   2.822   2.632  1.6230  0.1631 -0.8554
 6491SOL     OW30934   3.309   4.156  16.392  0.3711 -0.0212 -0.1708
 6491SOL    HW130935   3.257   4.081  16.365  0.0035 -0.6409  2.3025
 6491SOL    HW230936   3.383   4.153  16.331 -0.9301  1.7433 -1.8193
 6492SOL     OW30937   3.115   1.301   2.824  0.2675 -0.2992 -0.7709
 6492SOL    HW130938   3.172   1.262   2.758  2.7057 -2.6213  2.6936
 6492SOL    HW230939   3.179   1.324   2.891  0.1164 -2.0219 -0.0320
 6493SOL     OW30940   0.616   3.076   5.808  0.2158  0.5789  0.0688
 6493SOL    HW130941   0.571   3.066   5.724  0.0736  2.7646 -0.1234
 6493SOL    HW230942   0.640   3.168   5.806 -0.8460  0.8679  0.3512
 6494SOL     OW30943   1.069   3.600   2.256 -0.0343 -0.2222 -0.0368
 6494SOL    HW130944   1.024   3.681   2.280  0.3652  0.0633 -0.2465
 6494SOL    HW230945   1.030   3.580   2.171 -0.0900  0.4220 -0.1632
 6495SOL     OW30946   2.503   1.733  11.641 -0.9859  0.1901  0.4774
 6495SOL    HW130947   2.463   1.805  11.591 -1.5361 -1.1101 -0.9799
 6495SOL    HW230948   2.594   1.731  11.611 -0.0003  2.1094  3.3579
 6496SOL     OW30949   2.480   2.354  10.841  0.2787 -0.6518  0.0894
 6496SOL    HW130950   2.529   2.419  10.791  0.5411  0.7945  2.2150
 6496SOL    HW230951   2.396   2.365  10.796  0.5525 -0.2445 -0.3209
 6497SOL     OW30952   3.032   2.227   5.183  0.0295 -0.2289 -0.4387
 6497SOL    HW130953   3.078   2.167   5.241 -0.3535  0.5977  0.7276
 6497SOL    HW230954   3.100   2.288   5.157  1.1100 -0.8190  1.0102
 6498SOL     OW30955   0.855   0.903   6.687 -0.5004  0.8074 -0.6387
 6498SOL    HW130956   0.811   0.936   6.765  0.9261  0.4733  0.3079
 6498SOL    HW230957   0.781   0.860   6.644  0.0748  0.2517 -1.0795
 6499SOL     OW30958   1.843   3.860  12.771 -0.2999 -0.2705 -0.6015
 6499SOL    HW130959   1.868   3.938  12.722 -1.1642 -0.0656 -0.7047
 6499SOL    HW230960   1.869   3.884  12.860 -1.2504 -1.8486  0.1012
 6500SOL     OW30961   2.514   2.649   7.167 -0.0112 -0.0646  0.2071
 6500SOL    HW130962   2.461   2.598   7.228 -0.9497  1.5132  0.7010
 6500SOL    HW230963   2.449   2.718   7.157  0.1907  0.2284  0.8893
 6501SOL     OW30964   4.366   0.739   6.589  0.1389  0.0822 -0.4099
 6501SOL    HW130965   4.442   0.699   6.547  2.0896  1.1896  2.0704
 6501SOL    HW230966   4.323   0.662   6.625  3.0073 -1.4654 -0.3226
 6502SOL     OW30967   2.680   2.461   3.326  0.2344 -0.1128  0.0852
 6502SOL    HW130968   2.703   2.464   3.419  1.9668  0.0118 -0.3492
 6502SOL    HW230969   2.699   2.370   3.304  0.7827  0.2730 -1.0496
 6503SOL     OW30970   1.799   0.407  10.037 -0.0690 -0.3874  0.1171
 6503SOL    HW130971   1.704   0.398  10.046 -0.0946  0.3829  0.6493
 6503SOL    HW230972   1.827   0.392   9.947 -1.0605 -2.9430  0.2270
 6504SOL     OW30973   1.025   4.320   5.688  0.0755 -1.0478  0.2737
 6504SOL    HW130974   0.967   4.394   5.671 -0.0185 -1.3223 -0.5931
 6504SOL    HW230975   0.963   4.275   5.746 -0.8483 -0.2702 -0.1126
 6505SOL     OW30976   2.714   1.950   3.473  0.3263 -0.1037  0.0622
 6505SOL    HW130977   2.631   1.965   3.517 -0.4527 -2.2039 -0.7191
 6505SOL    HW230978   2.682   1.945   3.383  1.4396 -0.2173 -0.3353
 6506SOL     OW30979   3.881   4.484   5.439  0.0166 -0.2861 -0.2201
 6506SOL    HW130980   3.908   4.475   5.530  1.5532  1.8534 -0.4492
 6506SOL    HW230981   3.864   4.392   5.420  0.3874  0.0160 -2.0441
 6507SOL     OW30982   3.349   0.489   5.987 -0.1513  0.1466  0.1762
 6507SOL    HW130983   3.262   0.451   5.980 -0.4923  0.9120  0.2898
 6507SOL    HW230984   3.368   0.488   5.894 -2.0124 -0.5617 -0.1982
 6508SOL     OW30985   1.150   2.511   2.257  0.3219  0.1508  0.3518
 6508SOL    HW130986   1.165   2.528   2.164 -1.2078  0.1214  0.0894
 6508SOL    HW230987   1.128   2.599   2.288 -0.3941 -0.0525  0.4147
 6509SOL     OW30988   0.920   0.965   8.442 -0.0597  0.0699  0.0950
 6509SOL    HW130989   0.931   0.907   8.518 -0.1061 -1.7883 -1.3292
 6509SOL    HW230990   1.014   0.963   8.420  0.4820  3.7180  2.0360
 6510SOL     OW30991   0.807   2.179   3.063  0.2033  0.4256  0.0593
 6510SOL    HW130992   0.863   2.217   2.995 -1.5592  1.5926 -0.7421
 6510SOL    HW230993   0.835   2.088   3.059 -0.6036  0.1054  1.8568
 6511SOL     OW30994   3.260   3.258   3.634  0.2874 -0.2007 -0.0262
 6511SOL    HW130995   3.203   3.334   3.620  0.7698  0.1110 -0.3453
 6511SOL    HW230996   3.320   3.279   3.706  1.7949 -0.3880 -1.2334
 6512SOL     OW30997   2.828   4.445   5.272  0.2862 -0.1180  0.0008
 6512SOL    HW130998   2.830   4.519   5.211  2.1721 -1.1979 -1.2463
 6512SOL    HW230999   2.759   4.395   5.228 -1.3513  0.0693  2.3801
 6513SOL     OW31000   3.829   1.811   7.632  0.5891 -0.0145  0.1236
 6513SOL    HW131001   3.738   1.834   7.652  0.9928  0.0809  1.8594
 6513SOL    HW231002   3.860   1.795   7.721 -0.4469 -0.7541  0.3505
 6514SOL     OW31003   0.557   2.217   4.490  0.0955  0.1112 -0.0661
 6514SOL    HW131004   0.621   2.154   4.523  1.0576  0.1784 -1.8442
 6514SOL    HW231005   0.509   2.216   4.573  1.6503  1.5430  0.8770
 6515SOL     OW31006   2.395   2.354   6.673  0.0355  0.1382  0.2289
 6515SOL    HW131007   2.453   2.303   6.616 -0.2552  2.1723 -1.8608
 6515SOL    HW231008   2.335   2.390   6.608  1.2425 -0.4059 -1.1714
 6516SOL     OW31009   3.581   3.166   5.392  0.1455 -0.0247  0.0131
 6516SOL    HW131010   3.515   3.232   5.373  1.3240  1.2726  0.4018
 6516SOL    HW231011   3.569   3.106   5.318 -0.4286 -0.5793  0.5481
 6517SOL     OW31012   4.212   0.042   8.033 -0.3593 -0.4933 -0.8794
 6517SOL    HW131013   4.262   0.096   8.093 -1.4007  0.2513 -0.6773
 6517SOL    HW231014   4.255   4.680   8.060 -1.1647 -1.0623 -1.2985
 6518SOL     OW31015   1.898   1.449   1.700  0.3935  0.1465 -0.6128
 6518SOL    HW131016   1.991   1.431   1.688 -0.3058 -2.8987 -1.4655
 6518SOL    HW231017   1.850   1.372   1.669 -0.7638  1.6785 -2.6503
 6519SOL     OW31018   0.971   4.279   5.094  0.0899 -0.5324 -0.4126
 6519SOL    HW131019   1.025   4.252   5.168  0.7873  1.0975 -0.3257
 6519SOL    HW231020   1.034   4.311   5.029 -1.2529  3.0950  0.1133
 6520SOL     OW31021   2.657   2.311   6.346  0.0090 -0.3923  0.3368
 6520SOL    HW131022   2.611   2.253   6.407  0.0861 -1.6152 -0.7536
 6520SOL    HW231023   2.609   2.293   6.265  1.6441  0.4608 -0.8095
 6521SOL     OW31024   1.926   0.063   2.277  0.0995  0.2620  0.5394
 6521SOL    HW131025   1.965   0.110   2.351 -0.0053 -1.0659  1.4416
 6521SOL    HW231026   1.863   0.004   2.319 -1.4206  0.4951 -1.4412
 6522SOL     OW31027   1.732   3.606   7.865 -1.0946  0.4657  0.8753
 6522SOL    HW131028   1.698   3.615   7.776  2.6602 -0.4384 -0.6631
 6522SOL    HW231029   1.817   3.565   7.847 -1.3439 -0.1462  1.0630
 6523SOL     OW31030   2.583   2.576  12.758 -0.3468 -0.1798 -0.1866
 6523SOL    HW131031   2.614   2.663  12.732 -3.0523  0.4937 -1.2205
 6523SOL    HW231032   2.517   2.603  12.823 -2.1334  0.6085 -2.3177
 6524SOL     OW31033   0.594   2.879   8.234 -0.4353 -0.0208  0.4236
 6524SOL    HW131034   0.624   2.967   8.211 -0.2019 -0.2261 -0.0730
 6524SOL    HW231035   0.636   2.820   8.172  0.3129 -0.3436  1.2408
 6525SOL     OW31036   0.606   0.986   0.468  0.4839 -0.3736 -0.4122
 6525SOL    HW131037   0.587   1.067   0.421  3.4303  0.0958 -0.8229
 6525SOL    HW231038   0.521   0.944   0.481  0.6718 -0.6752 -0.1383
 6526SOL     OW31039   1.458   3.949   4.480  0.0528  0.2208  0.0132
 6526SOL    HW131040   1.447   3.983   4.569  2.3889  0.0648  0.3429
 6526SOL    HW231041   1.382   3.987   4.436  0.2215  0.4035 -0.1205
 6527SOL     OW31042   2.695   0.013   2.607  0.0584 -0.0442 -0.2906
 6527SOL    HW131043   2.607   4.701   2.587  0.0870  0.6292 -1.4728
 6527SOL    HW231044   2.678   0.106   2.618 -2.3802 -0.3457 -1.4459
 6528SOL     OW31045   1.875   4.275   3.282  0.2817  0.0847 -0.1801
 6528SOL    HW131046   1.794   4.229   3.304 -0.8155  1.4352 -1.4565
 6528SOL    HW231047   1.919   4.190   3.289 -1.6440 -1.0725 -2.0612
 6529SOL     OW31048   3.712   2.062   3.386 -0.4103  0.6899 -0.4069
 6529SOL    HW131049   3.634   2.101   3.347 -1.2066  0.4695  0.9432
 6529SOL    HW231050   3.733   1.998   3.318  1.9917  0.3207  0.6764
 6530SOL     OW31051   3.757   0.679  14.947  0.1311 -0.2931 -0.4500
 6530SOL    HW131052   3.803   0.604  14.984  0.8591 -0.0285 -0.7999
 6530SOL    HW231053   3.817   0.698  14.874  1.0840 -0.0954  0.3821
 6531SOL     OW31054   1.883   1.661   6.171  0.3408  0.4067  0.1953
 6531SOL    HW131055   1.912   1.570   6.172  0.2169  0.3578 -0.4936
 6531SOL    HW231056   1.842   1.662   6.257 -0.2299 -1.9570 -0.0588
 6532SOL     OW31057   3.876   4.082   3.870 -0.4405 -0.3207 -0.2122
 6532SOL    HW131058   3.967   4.100   3.848 -0.6407  0.6210 -0.2799
 6532SOL    HW231059   3.889   4.013   3.936  1.0353 -0.2311 -0.4170
 6533SOL     OW31060   2.648   0.774   9.511 -0.5307 -0.6335  0.2992
 6533SOL    HW131061   2.740   0.794   9.497 -1.2026  2.8818  0.9183
 6533SOL    HW231062   2.624   0.864   9.534  0.4702 -0.6101  1.2724
 6534SOL     OW31063   3.572   3.958   3.342 -0.0264 -0.0165 -0.1879
 6534SOL    HW131064   3.621   4.010   3.406 -0.4855  2.0553 -1.4945
 6534SOL    HW231065   3.483   3.950   3.375  1.3389  1.0732  3.6594
 6535SOL     OW31066   1.751   3.930   7.456 -0.7665  0.0549  0.2328
 6535SOL    HW131067   1.709   3.938   7.542  0.1670  1.5127  0.5652
 6535SOL    HW231068   1.844   3.940   7.476 -0.5075 -2.0973  0.1685
 6536SOL     OW31069   1.700   3.310  16.245  0.0788  0.3001 -0.0690
 6536SOL    HW131070   1.690   3.326  16.339 -3.7343 -0.4800 -0.3469
 6536SOL    HW231071   1.693   3.399  16.211 -1.9387  0.3394  0.4578
 6537SOL     OW31072   2.317   0.193   8.561 -0.1593  0.4805  0.2576
 6537SOL    HW131073   2.307   0.098   8.554 -0.0927  0.3730  1.6631
 6537SOL    HW231074   2.229   0.216   8.591 -0.0927 -2.8332  3.0305
 6538SOL     OW31075   1.163   3.888   3.437 -0.2728  0.3118  0.5377
 6538SOL    HW131076   1.247   3.853   3.465 -0.5612 -2.7094 -2.4166
 6538SOL    HW231077   1.180   3.933   3.355 -0.9378  0.8976  0.7203
 6539SOL     OW31078   1.620   4.094   7.276  0.2237 -0.1408 -0.2421
 6539SOL    HW131079   1.566   4.043   7.215 -0.1740  1.4203 -1.1831
 6539SOL    HW231080   1.669   4.035   7.334 -2.2910 -1.1177  0.9187
 6540SOL     OW31081   2.914   2.370   0.474  0.3694  0.6555 -0.2400
 6540SOL    HW131082   2.833   2.353   0.426  0.3817 -4.0383  1.3620
 6540SOL    HW231083   2.907   2.309   0.547  1.6608  0.1917 -0.5156
 6541SOL     OW31084   0.086   4.286   4.296  0.1781 -0.1213  0.1712
 6541SOL    HW131085   0.172   4.247   4.309  1.8804  3.7150  0.4675
 6541SOL    HW231086   0.040   4.203   4.286 -1.6660  1.1838 -2.2826
 6542SOL     OW31087   3.466   1.896   9.963  0.7713 -0.6298 -0.0480
 6542SOL    HW131088   3.518   1.884  10.042  2.9797  0.7276 -1.2844
 6542SOL    HW231089   3.381   1.895  10.006  1.5952 -1.1578  1.5660
 6543SOL     OW31090   2.784   0.056   8.669  0.0499 -0.3161 -0.2033
 6543SOL    HW131091   2.815   0.016   8.750  1.6629 -1.9494 -1.5924
 6543SOL    HW231092   2.707   0.093   8.711 -1.9215 -2.8943 -1.4959
 6544SOL     OW31093   3.822   2.190  11.948  0.4191  0.4612  0.2714
 6544SOL    HW131094   3.761   2.150  11.886  0.5245  0.8091 -0.0554
 6544SOL    HW231095   3.773   2.173  12.029  0.0062 -1.5446 -0.3967
 6545SOL     OW31096   1.069   0.551   1.939 -0.2442 -0.0454  0.0348
 6545SOL    HW131097   1.144   0.579   1.886 -0.9389  1.3712 -0.1997
 6545SOL    HW231098   1.117   0.498   2.002  0.5406  0.7489  0.1145
 6546SOL     OW31099   2.699   1.041   5.589  0.0678 -0.2699  0.3162
 6546SOL    HW131100   2.777   1.091   5.612  1.3225 -2.0168 -0.1165
 6546SOL    HW231101   2.702   0.977   5.660  1.9416  0.9548  1.3114
 6547SOL     OW31102   3.796   3.259   5.547  0.0825 -0.1925 -0.1444
 6547SOL    HW131103   3.797   3.349   5.516  1.0676  0.3349  1.4489
 6547SOL    HW231104   3.742   3.222   5.476  0.3484 -2.7612  0.9973
 6548SOL     OW31105   2.866   1.803   7.702 -0.7060 -0.0596 -0.1155
 6548SOL    HW131106   2.837   1.812   7.611 -0.8908 -0.7762 -0.1245
 6548SOL    HW231107   2.961   1.811   7.697 -0.7106 -0.2346 -0.4860
 6549SOL     OW31108   3.919   0.117  15.141  0.8164 -0.2852  0.4561
 6549SOL    HW131109   3.875   0.051  15.088  1.6259 -0.5493  0.1247
 6549SOL    HW231110   3.964   0.170  15.076  1.3639  0.4803  1.4519
 6550SOL     OW31111   4.490   2.902   6.503  0.0742 -0.1350  0.2550
 6550SOL    HW131112   4.439   2.871   6.578 -0.5256 -1.0817 -0.5486
 6550SOL    HW231113   4.568   2.849   6.521 -0.4015 -1.2450 -0.9730
 6551SOL     OW31114   4.171   2.452   8.660 -0.2752  0.2562  0.2092
 6551SOL    HW131115   4.210   2.383   8.607  0.8870 -0.2996  1.8004
 6551SOL    HW231116   4.245   2.488   8.709 -0.1097  0.6616 -0.3418
 6552SOL     OW31117   2.873   0.978  13.521  0.0159 -0.8644 -0.2544
 6552SOL    HW131118   2.807   0.910  13.507 -1.4496  0.9753 -2.2622
 6552SOL    HW231119   2.902   0.988  13.431 -0.4424 -0.7703 -0.3901
 6553SOL     OW31120   1.153   4.315   5.416 -0.3604  0.6060 -0.3241
 6553SOL    HW131121   1.082   4.338   5.476 -1.8711 -1.8256 -1.2088
 6553SOL    HW231122   1.223   4.288   5.475  0.2235  1.0192 -0.8328
 6554SOL     OW31123   0.397   1.036   7.800 -0.2263  0.1316  0.1465
 6554SOL    HW131124   0.478   1.050   7.849 -0.3505  1.8379 -0.1288
 6554SOL    HW231125   0.332   1.090   7.845 -0.6410  2.8911 -3.7406
 6555SOL     OW31126   3.977   0.361   6.563  0.1234 -0.4689 -0.0014
 6555SOL    HW131127   3.994   0.278   6.607  1.6839 -0.9864 -1.5934
 6555SOL    HW231128   4.031   0.346   6.485  0.4926  0.5007  0.0682
 6556SOL     OW31129   2.638   1.121   3.629 -0.2669  0.4820  0.6796
 6556SOL    HW131130   2.645   1.054   3.562 -2.7223  1.2913 -0.3869
 6556SOL    HW231131   2.660   1.194   3.572  0.6442  1.6920  2.5798
 6557SOL     OW31132   3.836   1.975   4.008 -0.3325  0.1391 -0.0766
 6557SOL    HW131133   3.888   1.953   3.931 -0.1576  1.6635 -0.4020
 6557SOL    HW231134   3.746   1.951   3.985 -0.4690 -0.8224  1.5117
 6558SOL     OW31135   4.617   3.410  16.513 -0.8467  0.0506  0.1452
 6558SOL    HW131136   4.542   3.399  16.455  0.4523  0.9218 -1.7197
 6558SOL    HW231137   4.577   3.403  16.599 -3.6744  2.9457 -0.9254
 6559SOL     OW31138   1.466   3.347   5.474 -0.4496  0.0456 -0.0264
 6559SOL    HW131139   1.487   3.267   5.425 -0.1467  0.4234 -0.5072
 6559SOL    HW231140   1.451   3.410   5.403 -0.4053 -0.0398 -0.1125
 6560SOL     OW31141   3.416   0.294   4.042  0.1579 -0.3338 -0.8015
 6560SOL    HW131142   3.371   0.297   4.126  1.5134  0.9487 -0.1302
 6560SOL    HW231143   3.348   0.285   3.975  1.1049 -2.6995 -1.4709
 6561SOL     OW31144   1.047   1.824  16.772  0.4870  0.4736 -0.9099
 6561SOL    HW131145   0.961   1.788  16.750  1.0929 -1.1721 -0.5630
 6561SOL    HW231146   1.067   1.867  16.689  2.4527 -0.9260 -1.1630
 6562SOL     OW31147   2.362   4.603   2.844  0.1520  0.1494 -0.2581
 6562SOL    HW131148   2.307   4.681   2.838  1.0024  0.8399  0.9248
 6562SOL    HW231149   2.450   4.631   2.870  0.0163 -0.1236  0.5158
 6563SOL     OW31150   4.098   4.332   6.709  0.1582  0.6619 -0.5694
 6563SOL    HW131151   4.064   4.359   6.623 -0.5136 -2.0380 -1.1458
 6563SOL    HW231152   4.021   4.316   6.764 -2.9506  0.1073 -5.0050
 6564SOL     OW31153   0.122   0.055   1.741 -0.0117 -0.3659 -0.7428
 6564SOL    HW131154   0.151   4.689   1.774  1.5508 -0.8428 -3.3495
 6564SOL    HW231155   0.080   0.033   1.658 -1.7761 -1.0938  0.3520
 6565SOL     OW31156   4.528   3.848  15.008  0.4058  0.0212 -0.0558
 6565SOL    HW131157   4.602   3.873  14.953  0.7472 -1.2671 -0.1730
 6565SOL    HW231158   4.517   3.756  14.984 -1.5868  1.0752 -3.1165
 6566SOL     OW31159   2.555   0.496   4.190  0.5099 -0.4056  0.0328
 6566SOL    HW131160   2.461   0.517   4.184  1.5073  4.3282  1.0027
 6566SOL    HW231161   2.584   0.556   4.259 -0.2474 -0.0261  0.0274
 6567SOL     OW31162   0.861   1.660  16.690  0.0065  0.0822 -0.2453
 6567SOL    HW131163   0.850   1.572  16.727  1.5781  0.6696  1.6278
 6567SOL    HW231164   0.776   1.700  16.711  0.9724  2.8181 -1.6408
 6568SOL     OW31165   4.477   0.268   5.223 -0.6481  0.8057 -0.5122
 6568SOL    HW131166   4.485   0.327   5.148 -0.6557  2.1993  0.5823
 6568SOL    HW231167   4.561   0.285   5.265 -1.3398  0.7372  0.8822
 6569SOL     OW31168   2.287   2.777   7.158 -0.0781 -0.1842 -0.1276
 6569SOL    HW131169   2.306   2.852   7.214  0.4952 -0.9389  0.6905
 6569SOL    HW231170   2.210   2.759   7.212 -0.1091  1.1042  0.2711
 6570SOL     OW31171   0.575   2.118  11.847  0.0883  0.1686 -0.1209
 6570SOL    HW131172   0.602   2.163  11.766  0.8810 -1.6072 -0.8348
 6570SOL    HW231173   0.551   2.029  11.820  0.9769 -0.6489  1.8180
 6571SOL     OW31174   0.659   4.219   6.705  0.1589  0.2695  0.6668
 6571SOL    HW131175   0.687   4.288   6.764  0.5523 -0.1978  1.0294
 6571SOL    HW231176   0.597   4.174   6.762  0.9289  0.1260  1.3798
 6572SOL     OW31177   0.858   0.575  13.261  0.4546 -0.5574  0.2673
 6572SOL    HW131178   0.794   0.555  13.192 -1.8560 -0.7072  2.4805
 6572SOL    HW231179   0.845   0.495  13.312 -2.2177 -0.8795 -0.9257
 6573SOL     OW31180   0.470   2.364  15.646  0.6606 -0.1077  0.3473
 6573SOL    HW131181   0.522   2.312  15.585 -1.8907 -0.6186 -1.4076
 6573SOL    HW231182   0.521   2.443  15.661  0.6981 -0.4052  1.7545
 6574SOL     OW31183   3.656   4.012   3.677  0.0733 -0.0015  0.1103
 6574SOL    HW131184   3.699   3.933   3.642  0.6854  0.0375  0.7653
 6574SOL    HW231185   3.711   4.022   3.755 -0.1404  0.9311  0.1325
 6575SOL     OW31186   3.912   2.386   4.788 -0.0078 -0.2735 -0.4496
 6575SOL    HW131187   3.907   2.476   4.819 -1.9935  0.0860 -1.8684
 6575SOL    HW231188   3.926   2.326   4.861 -1.1061 -0.3439 -0.3010
 6576SOL     OW31189   0.181   2.206   5.803 -0.2480 -0.5166  0.2624
 6576SOL    HW131190   0.270   2.225   5.835 -0.0262  0.8395 -1.1504
 6576SOL    HW231191   0.193   2.134   5.741 -0.3375 -0.1457 -0.1859
 6577SOL     OW31192   1.229   2.632   6.805  0.4752 -0.3857  0.1038
 6577SOL    HW131193   1.177   2.552   6.810 -2.3492  1.3511 -1.4565
 6577SOL    HW231194   1.317   2.609   6.837 -0.9894 -2.7228  2.4628
 6578SOL     OW31195   4.605   4.176   0.880 -0.7137  0.2364 -0.0576
 6578SOL    HW131196   4.608   4.251   0.940 -1.1194 -0.3737  0.7124
 6578SOL    HW231197   4.628   4.219   0.797  0.4757  0.4510  0.3887
 6579SOL     OW31198   4.547   2.441   5.612  0.5037 -0.3025  0.0733
 6579SOL    HW131199   4.559   2.480   5.699  1.6989 -0.5486  0.0207
 6579SOL    HW231200   4.599   2.361   5.604 -0.1361 -0.7196  0.0692
 6580SOL     OW31201   1.937   1.491   7.678 -0.1919  0.3362 -0.0022
 6580SOL    HW131202   1.936   1.552   7.752  1.3070  1.2503 -0.7519
 6580SOL    HW231203   1.905   1.413   7.723  0.5469 -1.3331 -2.4004
 6581SOL     OW31204   3.725   0.750   1.873 -0.0222 -0.0861 -0.2594
 6581SOL    HW131205   3.706   0.843   1.861 -1.0306 -0.4126 -1.1787
 6581SOL    HW231206   3.691   0.713   1.791 -0.6509 -0.3921  0.1419
 6582SOL     OW31207   3.664   2.642   5.951  0.3469  0.1849 -0.2899
 6582SOL    HW131208   3.642   2.592   6.029  0.1194 -1.0782 -1.1645
 6582SOL    HW231209   3.700   2.720   5.993  1.9815 -0.5593 -0.2967
 6583SOL     OW31210   2.020   0.720   7.296  0.0018  0.1701  0.0087
 6583SOL    HW131211   1.992   0.661   7.226 -0.8190  1.0959 -0.4396
 6583SOL    HW231212   1.945   0.706   7.354 -0.1452 -0.0386 -0.2316
 6584SOL     OW31213   2.782   0.527   0.044 -0.5816 -0.3154 -0.0100
 6584SOL    HW131214   2.820   0.584  17.658  0.4266  0.1855  0.9840
 6584SOL    HW231215   2.693   0.523   0.010 -0.5238  1.7291 -0.4054
 6585SOL     OW31216   2.825   3.658   9.950 -0.0982  0.7459  0.0392
 6585SOL    HW131217   2.873   3.729   9.993 -0.8410  0.3456  1.5488
 6585SOL    HW231218   2.756   3.634  10.012  0.1807 -0.7475 -0.2345
 6586SOL     OW31219   0.230   2.862   4.230 -0.2321  0.3596 -0.4289
 6586SOL    HW131220   0.300   2.896   4.285 -0.8676  1.4557 -0.3051
 6586SOL    HW231221   0.244   2.913   4.150  0.7147 -1.3177 -1.3324
 6587SOL     OW31222   0.616   3.172   0.517  0.2677  0.1451 -0.0689
 6587SOL    HW131223   0.540   3.134   0.560 -1.9531  1.5261 -2.7260
 6587SOL    HW231224   0.583   3.259   0.496 -1.1936  0.1085  2.2084
 6588SOL     OW31225   3.330   0.413  10.910 -0.2546 -0.0765 -0.2809
 6588SOL    HW131226   3.383   0.492  10.916  2.5602 -2.0369  0.8693
 6588SOL    HW231227   3.400   0.351  10.887  0.8547  0.4340  1.6856
 6589SOL     OW31228   3.208   3.406   0.973  0.0227  0.0029  0.1243
 6589SOL    HW131229   3.239   3.316   0.987 -0.6722 -0.4601 -1.2884
 6589SOL    HW231230   3.124   3.400   1.017 -0.6184 -0.5760 -1.1693
 6590SOL     OW31231   0.525   0.317  15.500  0.1788  0.1107  0.1357
 6590SOL    HW131232   0.463   0.388  15.488 -0.9295 -0.9835 -0.5743
 6590SOL    HW231233   0.481   0.253  15.556  3.5244 -2.1101  0.2670
 6591SOL     OW31234   2.726   4.514   1.231  0.8073 -0.0513  0.0299
 6591SOL    HW131235   2.668   4.585   1.204  0.1351 -1.2089 -1.5716
 6591SOL    HW231236   2.672   4.437   1.213  1.4759 -0.7682  1.0955
 6592SOL     OW31237   0.627   1.002  10.178  0.2348 -0.3110  0.0013
 6592SOL    HW131238   0.631   1.092  10.143 -0.4475 -0.3468 -0.1575
 6592SOL    HW231239   0.690   0.958  10.121  0.1888 -3.3975  2.3478
 6593SOL     OW31240   2.881   3.536   9.495 -0.9200  0.0748  0.5439
 6593SOL    HW131241   2.945   3.466   9.507 -2.1721 -1.3417 -1.0147
 6593SOL    HW231242   2.801   3.502   9.456 -0.4822 -1.8214  1.3146
 6594SOL     OW31243   0.701   2.469   8.825 -0.0592 -0.4176 -0.4968
 6594SOL    HW131244   0.726   2.518   8.747 -1.9543  0.4301 -0.5831
 6594SOL    HW231245   0.656   2.543   8.868  0.0896 -0.1237 -0.8482
 6595SOL     OW31246   1.216   3.370   7.075  0.4354 -0.0403  0.0223
 6595SOL    HW131247   1.218   3.389   7.168 -0.1228  0.9458 -0.1615
 6595SOL    HW231248   1.237   3.276   7.075  0.9008  0.0642  0.1866
 6596SOL     OW31249   1.158   3.901   7.055 -0.0999 -0.1499  0.1467
 6596SOL    HW131250   1.143   3.894   6.961  3.5236  0.8965 -0.5291
 6596SOL    HW231251   1.131   3.814   7.083 -1.9983  0.1214 -0.8756
 6597SOL     OW31252   3.042   0.921   7.258 -0.2037  0.0768 -0.9881
 6597SOL    HW131253   3.039   0.964   7.172 -0.0263 -1.1644 -1.6064
 6597SOL    HW231254   3.066   0.832   7.235  1.4225  0.0542  0.7947
 6598SOL     OW31255   1.600   4.313   4.426  0.4017  0.0815 -0.0498
 6598SOL    HW131256   1.614   4.241   4.488 -0.6065  1.5556  1.9052
 6598SOL    HW231257   1.506   4.313   4.405 -0.2803  1.0558  2.9572
 6599SOL     OW31258   3.467   3.929   6.765 -0.1687 -0.0344  0.8818
 6599SOL    HW131259   3.417   3.943   6.685  2.1389  0.6266 -0.4403
 6599SOL    HW231260   3.512   3.850   6.735  0.8807  2.2582 -3.5451
 6600SOL     OW31261   3.607   0.434   4.774  0.4719 -0.2348  0.4159
 6600SOL    HW131262   3.655   0.517   4.779 -1.1694  0.7552 -0.4587
 6600SOL    HW231263   3.569   0.452   4.860  0.2710  1.5514 -0.0367
 6601SOL     OW31264   2.574   2.702   8.290  0.2001 -0.5485 -0.4840
 6601SOL    HW131265   2.542   2.638   8.226 -1.2169  0.0447 -0.3549
 6601SOL    HW231266   2.551   2.782   8.243  1.6173 -0.1971 -0.5828
 6602SOL     OW31267   3.806   0.772   7.054  0.6085 -0.1496  0.0965
 6602SOL    HW131268   3.723   0.805   7.019  1.3546  1.7601  0.1148
 6602SOL    HW231269   3.834   0.848   7.106 -0.7476  0.3563  0.0943
 6603SOL     OW31270   3.085   3.570   4.087  0.3145 -0.1164  0.2521
 6603SOL    HW131271   3.128   3.529   4.162  0.3823  0.2331  0.4038
 6603SOL    HW231272   3.023   3.499   4.074 -1.0066  0.6630  2.3238
 6604SOL     OW31273   1.173   1.048   8.350 -0.0787  0.0227  0.1191
 6604SOL    HW131274   1.188   1.139   8.324  0.1592 -0.9624 -3.1672
 6604SOL    HW231275   1.247   1.033   8.409 -0.3495  0.0595  0.4697
 6605SOL     OW31276   2.484   0.876   6.483 -0.0090  0.2725  0.5563
 6605SOL    HW131277   2.465   0.953   6.537  1.0838  0.5555  0.5496
 6605SOL    HW231278   2.578   0.883   6.466 -0.2794 -1.2043 -1.4015
 6606SOL     OW31279   0.609   1.488   3.763 -0.6515 -0.4063 -0.4184
 6606SOL    HW131280   0.696   1.463   3.792  0.0051  0.8642 -1.3022
 6606SOL    HW231281   0.570   1.533   3.838  0.4563  0.9381 -0.6544
 6607SOL     OW31282   4.012   2.204   3.997  0.2339 -0.4177 -0.4126
 6607SOL    HW131283   3.964   2.126   4.024  1.3032 -0.0470  2.6266
 6607SOL    HW231284   3.982   2.220   3.908  0.1713 -1.6313 -0.6031
 6608SOL     OW31285   2.578   0.845  10.352 -0.2882 -0.0196 -0.2648
 6608SOL    HW131286   2.627   0.779  10.305  0.9819 -0.7959  2.1487
 6608SOL    HW231287   2.563   0.814  10.441 -0.7709  2.1933  0.4257
 6609SOL     OW31288   4.381   3.375   0.002  0.2697 -0.2988  0.4722
 6609SOL    HW131289   4.311   3.331   0.051  0.7528  0.9128  2.2259
 6609SOL    HW231290   4.423   3.427   0.070  2.2632 -2.7709  1.1400
 6610SOL     OW31291   1.720   0.298  10.780  0.3836  0.3460  0.0849
 6610SOL    HW131292   1.626   0.289  10.798  0.3911  1.6072  0.7799
 6610SOL    HW231293   1.744   0.225  10.723  1.3782  0.6518  0.1140
 6611SOL     OW31294   4.172   2.905  13.512 -0.2519  0.7727  0.3912
 6611SOL    HW131295   4.171   2.865  13.425 -0.1376 -2.2560  1.7598
 6611SOL    HW231296   4.080   2.928  13.523 -0.2940  1.0503 -0.5712
 6612SOL     OW31297   4.342   1.950   9.415  0.6245 -0.4383 -1.1121
 6612SOL    HW131298   4.276   1.896   9.373 -0.7144  1.1302 -1.0444
 6612SOL    HW231299   4.288   2.020   9.452  0.4688  0.1292 -2.3964
 6613SOL     OW31300   1.977   1.044   2.251 -0.4431 -0.2355  0.3457
 6613SOL    HW131301   1.889   1.017   2.279 -0.8233 -0.3314 -0.9664
 6613SOL    HW231302   1.999   0.962   2.208 -1.9659 -1.0549  1.1406
 6614SOL     OW31303   0.350   3.026   4.033  0.0458  0.0467 -0.6522
 6614SOL    HW131304   0.259   3.050   4.013 -0.3448 -2.3808 -1.7110
 6614SOL    HW231305   0.401   3.105   4.016  2.1826 -1.3293 -0.6401
 6615SOL     OW31306   3.168   3.680   6.101  0.6656 -0.2869  0.3849
 6615SOL    HW131307   3.223   3.750   6.068 -0.1528  0.5963  0.9053
 6615SOL    HW231308   3.199   3.610   6.043  0.7716 -0.5670  0.7783
 6616SOL     OW31309   3.341   3.098  11.337  0.2548  0.4515 -0.2459
 6616SOL    HW131310   3.361   3.126  11.427 -1.9302  2.7281 -0.4686
 6616SOL    HW231311   3.423   3.117  11.292 -0.3399  0.5276 -1.2951
 6617SOL     OW31312   0.199   1.693   6.429 -0.0859 -0.4076  0.4746
 6617SOL    HW131313   0.289   1.662   6.431  0.0508  0.0202  1.0329
 6617SOL    HW231314   0.186   1.685   6.335 -1.4395  1.8153  0.4608
 6618SOL     OW31315   2.787   2.203   3.125  0.4836  0.0225 -0.5291
 6618SOL    HW131316   2.878   2.177   3.132  0.9902  1.8370 -0.4213
 6618SOL    HW231317   2.745   2.122   3.155  1.7033 -1.0906 -1.9023
 6619SOL     OW31318   3.650   0.534  14.378  0.6409 -0.2226  0.2646
 6619SOL    HW131319   3.684   0.623  14.377 -1.3795  0.5232 -0.2520
 6619SOL    HW231320   3.557   0.535  14.356  0.4363 -3.2100  0.9056
 6620SOL     OW31321   1.732   3.817   0.105  0.4332 -0.0691 -0.2593
 6620SOL    HW131322   1.743   3.881   0.175  2.0864 -0.0526 -0.5413
 6620SOL    HW231323   1.636   3.809   0.103  0.3862  0.1533  0.7816
 6621SOL     OW31324   3.176   0.361  16.791  0.3302  0.1590  0.1509
 6621SOL    HW131325   3.120   0.300  16.837 -1.8790  0.2376 -2.4127
 6621SOL    HW231326   3.238   0.301  16.750 -0.4289 -1.1307  0.8863
 6622SOL     OW31327   1.065   4.638   7.679 -0.1758  0.1407  0.0089
 6622SOL    HW131328   1.088   4.694   7.753  2.3694 -2.6474  1.3111
 6622SOL    HW231329   1.010   4.570   7.718  0.5496  0.6545  1.9151
 6623SOL     OW31330   0.651   0.832   7.482 -0.2529 -0.2322  0.1921
 6623SOL    HW131331   0.709   0.904   7.460  0.7454 -0.9036  0.5998
 6623SOL    HW231332   0.602   0.819   7.401 -1.6902  1.6392  0.7733
 6624SOL     OW31333   0.055   0.291   1.940  0.5027 -0.5628 -0.6033
 6624SOL    HW131334   0.104   0.233   1.882  2.3011 -0.0590  0.4124
 6624SOL    HW231335   0.126   0.328   1.992 -0.2336  0.6652 -0.4745
 6625SOL     OW31336   2.186   0.576  10.090  0.2330  0.1713 -0.1010
 6625SOL    HW131337   2.152   0.498  10.045  0.3410  1.8556 -3.0788
 6625SOL    HW231338   2.206   0.531  10.172 -1.7536 -0.4081  0.0797
 6626SOL     OW31339   1.849   3.876   6.943 -0.0302 -0.0020 -0.0109
 6626SOL    HW131340   1.790   3.808   6.975 -1.2977  0.3800 -1.5322
 6626SOL    HW231341   1.846   3.848   6.851 -3.1858  0.4369 -0.0641
 6627SOL     OW31342   1.110   2.931   0.199 -0.3318 -0.7154 -0.0903
 6627SOL    HW131343   1.065   2.849   0.217  0.5287 -1.7138 -2.6124
 6627SOL    HW231344   1.050   2.995   0.239  0.5578 -0.1990  0.4249
 6628SOL     OW31345   2.437   1.807   3.473  0.0871  0.3819  0.0043
 6628SOL    HW131346   2.458   1.891   3.513  0.4289  0.7145 -0.8631
 6628SOL    HW231347   2.387   1.832   3.395 -0.8102 -1.5946 -0.0597
 6629SOL     OW31348   2.277   4.008  16.095  0.5527  0.6979 -0.2256
 6629SOL    HW131349   2.359   4.008  16.144  3.0791  3.2491 -4.4548
 6629SOL    HW231350   2.303   3.955  16.020  0.8501 -1.6281  1.5166
 6630SOL     OW31351   2.971   0.451  10.809 -0.0689  0.3977 -0.2691
 6630SOL    HW131352   3.007   0.431  10.896 -1.4654 -2.8145 -0.4046
 6630SOL    HW231353   3.051   0.481  10.765  0.2402 -0.7093 -0.4872
 6631SOL     OW31354   1.376   1.864   5.869  0.2068  0.2926 -0.1656
 6631SOL    HW131355   1.455   1.914   5.891 -0.1829  1.2802 -0.9538
 6631SOL    HW231356   1.420   1.781   5.849  1.7538  1.3093 -1.0633
 6632SOL     OW31357   1.220   3.050   4.167 -0.2687 -0.1712 -0.2722
 6632SOL    HW131358   1.302   3.050   4.217 -0.8085 -1.2343  0.6120
 6632SOL    HW231359   1.231   2.962   4.131  0.5663  0.2563 -1.0619
 6633SOL     OW31360   0.986   2.196  16.294  0.3471  0.2402  0.1230
 6633SOL    HW131361   0.968   2.269  16.353 -1.9482 -0.9338  0.8867
 6633SOL    HW231362   0.919   2.136  16.326 -0.6944  1.9643  1.1972
 6634SOL     OW31363   4.222   1.209   6.772  0.0370 -0.5631 -0.3184
 6634SOL    HW131364   4.267   1.126   6.785  3.2271  0.9895 -1.4302
 6634SOL    HW231365   4.130   1.188   6.789 -0.1459  1.0908  0.7421
 6635SOL     OW31366   3.227   0.326   7.583  0.2789  0.3612  0.6394
 6635SOL    HW131367   3.215   0.281   7.499 -0.0577 -0.5244  1.1655
 6635SOL    HW231368   3.184   0.268   7.646 -0.7567 -1.1347 -1.4393
 6636SOL     OW31369   2.997   3.802   3.480 -0.1887 -1.0347  0.0103
 6636SOL    HW131370   2.946   3.880   3.501  1.0452 -0.2318  0.0373
 6636SOL    HW231371   3.017   3.808   3.387  0.5737  0.0981  0.2445
 6637SOL     OW31372   0.847   1.138   3.814 -0.0121  0.3818 -0.1620
 6637SOL    HW131373   0.775   1.159   3.754  1.5614 -0.4010 -2.3047
 6637SOL    HW231374   0.835   1.044   3.829  0.8283  0.1003 -1.2806
 6638SOL     OW31375   0.082   1.205   1.736 -0.2772 -0.6032 -0.5220
 6638SOL    HW131376   0.113   1.117   1.714 -0.6668 -0.1356 -2.9876
 6638SOL    HW231377   0.018   1.216   1.666 -0.3184  2.8691  0.0631
 6639SOL     OW31378   2.067   3.898  10.169  0.0264 -0.0955  0.3544
 6639SOL    HW131379   2.103   3.972  10.121 -0.4475 -0.5504 -0.7115
 6639SOL    HW231380   2.101   3.924  10.254 -2.0404  2.5069  0.3958
 6640SOL     OW31381   2.048   4.344   3.494 -0.3244 -0.0205 -0.2291
 6640SOL    HW131382   1.956   4.371   3.498 -0.3901 -0.2751 -0.0615
 6640SOL    HW231383   2.063   4.352   3.400 -0.8836  1.5044 -0.2038
 6641SOL     OW31384   1.220   2.266   2.719  0.7634 -0.4176 -0.1188
 6641SOL    HW131385   1.234   2.172   2.721  1.1400 -0.3881 -1.3176
 6641SOL    HW231386   1.177   2.274   2.634 -2.6651  0.7350  1.6825
 6642SOL     OW31387   4.216   0.543   7.055  0.9011 -0.1321  0.3775
 6642SOL    HW131388   4.208   0.451   7.079 -0.5252  0.1774  1.0692
 6642SOL    HW231389   4.137   0.545   7.000  0.0488 -1.3911  1.5609
 6643SOL     OW31390   2.201   1.770   7.896 -0.3919  0.4891  0.4701
 6643SOL    HW131391   2.216   1.824   7.973  2.1912  0.4484 -0.0123
 6643SOL    HW231392   2.293   1.748   7.880 -0.3329  1.7456 -0.9610
 6644SOL     OW31393   4.307   2.734   8.477  0.2128 -0.3255  0.1015
 6644SOL    HW131394   4.317   2.752   8.384  0.7728  1.7306  0.5651
 6644SOL    HW231395   4.374   2.670   8.498  0.9178 -0.0149 -1.2023
 6645SOL     OW31396   0.700   4.412   3.407  0.1854  0.0335  0.1200
 6645SOL    HW131397   0.735   4.359   3.335 -0.9762  0.2595 -0.6126
 6645SOL    HW231398   0.771   4.404   3.471 -0.8555  1.0345  1.3939
 6646SOL     OW31399   4.216   2.008   4.517 -0.4726 -0.0175  0.0605
 6646SOL    HW131400   4.155   2.080   4.529 -0.6811 -0.0914 -0.5748
 6646SOL    HW231401   4.240   1.984   4.607 -1.3001 -1.4493 -0.1047
 6647SOL     OW31402   1.541   2.725   7.598 -0.0976 -0.8463  0.4592
 6647SOL    HW131403   1.472   2.790   7.600 -0.0506 -0.7760 -0.0643
 6647SOL    HW231404   1.516   2.666   7.669 -3.4814  1.0445  0.7987
 6648SOL     OW31405   0.525   1.633   2.477 -0.3624 -0.1013 -0.1865
 6648SOL    HW131406   0.538   1.689   2.401  0.9128 -0.7109 -0.4216
 6648SOL    HW231407   0.451   1.574   2.461 -0.2908  0.0249 -0.9887
 6649SOL     OW31408   4.118   0.898   5.118 -0.0713 -0.3635  0.2930
 6649SOL    HW131409   4.175   0.835   5.161 -0.7191 -1.1925 -0.0660
 6649SOL    HW231410   4.087   0.955   5.188  2.5139  0.2548  0.9410
 6650SOL     OW31411   0.877   1.059   5.275 -0.6601 -0.1335 -0.3878
 6650SOL    HW131412   0.959   1.010   5.281 -0.6181  0.1549  1.5601
 6650SOL    HW231413   0.837   1.051   5.362 -1.4525 -0.1873 -0.7568
 6651SOL     OW31414   3.152   2.811   7.811 -0.4207  0.4130 -0.3236
 6651SOL    HW131415   3.065   2.826   7.774  0.2121  0.2606 -1.8710
 6651SOL    HW231416   3.198   2.866   7.747  1.4649  0.1170  0.8011
 6652SOL     OW31417   2.819   1.443   6.183 -0.0411  0.1714 -0.0051
 6652SOL    HW131418   2.749   1.501   6.216 -0.4982 -0.4844  0.1743
 6652SOL    HW231419   2.891   1.501   6.159 -0.7853  1.1609  0.1545
 6653SOL     OW31420   3.421   1.841   3.108  0.3002 -0.6868  0.1577
 6653SOL    HW131421   3.494   1.804   3.158  0.1528 -1.1225  0.0483
 6653SOL    HW231422   3.474   1.911   3.070  0.0588 -2.2303 -3.0873
 6654SOL     OW31423   3.040   3.078  10.127 -0.4324  0.1091  0.1674
 6654SOL    HW131424   3.132   3.058  10.139 -0.4647 -0.4082 -0.4610
 6654SOL    HW231425   3.007   3.035  10.206  1.7795 -2.5343 -0.3816
 6655SOL     OW31426   2.613   1.852   7.818  0.8942 -0.2478  0.6142
 6655SOL    HW131427   2.569   1.768   7.832 -1.7600  0.9962 -0.4389
 6655SOL    HW231428   2.687   1.815   7.770  0.1764 -1.6166  0.5469
 6656SOL     OW31429   2.386   1.459   1.022  0.1995  0.3198 -0.1074
 6656SOL    HW131430   2.390   1.369   0.989  2.3420  0.4705 -0.2702
 6656SOL    HW231431   2.345   1.488   0.941  0.9745  1.2385 -0.1755
 6657SOL     OW31432   3.450   4.534   9.271 -0.0091  0.0809 -0.7220
 6657SOL    HW131433   3.461   4.520   9.177  2.3988 -0.7722 -0.2960
 6657SOL    HW231434   3.357   4.557   9.277 -0.2959 -1.2454 -0.0736
 6658SOL     OW31435   3.297   3.947   7.457 -0.2608  0.0930  0.1184
 6658SOL    HW131436   3.390   3.924   7.455 -0.5929 -1.1614 -1.2291
 6658SOL    HW231437   3.300   4.021   7.397  0.8068  1.5410  1.9666
 6659SOL     OW31438   2.345   4.267   9.795 -0.3177  0.7255 -0.0752
 6659SOL    HW131439   2.404   4.302   9.861 -1.0868  0.9782  0.4756
 6659SOL    HW231440   2.259   4.290   9.828 -0.2559  0.0341  0.5768
 6660SOL     OW31441   1.672   0.058   0.347  0.0619 -0.0574 -0.1818
 6660SOL    HW131442   1.683   0.114   0.424  0.0372 -3.6377  2.4214
 6660SOL    HW231443   1.750   0.003   0.340 -0.2850 -0.8110  1.8536
 6661SOL     OW31444   0.594   0.126  14.304  0.5340  0.0162  0.3029
 6661SOL    HW131445   0.570   0.062  14.236 -0.3408 -0.1429  0.7576
 6661SOL    HW231446   0.544   0.095  14.380 -1.2059 -0.0120 -0.8580
 6662SOL     OW31447   3.021   0.751   1.281 -0.0230 -0.1146  0.6132
 6662SOL    HW131448   3.052   0.664   1.255 -1.3467 -0.3204 -0.2814
 6662SOL    HW231449   2.926   0.745   1.278  0.0109 -0.0962 -0.5185
 6663SOL     OW31450   1.486   3.304  16.811 -0.5294  0.3921  0.0793
 6663SOL    HW131451   1.524   3.336  16.892  2.0138 -0.6424 -0.7051
 6663SOL    HW231452   1.528   3.364  16.748  1.5094 -0.5637  0.5448
 6664SOL     OW31453   3.882   2.910   1.211 -0.4090 -0.2562 -0.4237
 6664SOL    HW131454   3.821   2.865   1.153  0.1577 -3.4802  1.4947
 6664SOL    HW231455   3.906   2.837   1.268 -0.1255 -0.3466 -0.6554
 6665SOL     OW31456   1.241   4.298   2.074 -0.4822 -0.2452 -0.2150
 6665SOL    HW131457   1.199   4.222   2.035 -0.0470 -0.7521  0.3067
 6665SOL    HW231458   1.264   4.257   2.157 -1.7098  0.1891  0.3497
 6666SOL     OW31459   0.128   1.887   0.859 -0.2573  0.1546  0.3309
 6666SOL    HW131460   0.207   1.934   0.886 -0.5423  0.5521  0.4576
 6666SOL    HW231461   0.091   1.881   0.947  2.4427  2.1505  1.6140
 6667SOL     OW31462   0.561   4.360   3.737 -0.5377 -0.3821  0.0984
 6667SOL    HW131463   0.613   4.290   3.698  0.4460  0.2505  0.2836
 6667SOL    HW231464   0.570   4.354   3.832  1.3449  1.2298  0.0245
 6668SOL     OW31465   1.333   1.168   2.625  0.0052 -0.3229 -0.1168
 6668SOL    HW131466   1.404   1.112   2.594 -0.3375 -0.0456 -1.4183
 6668SOL    HW231467   1.257   1.111   2.632  0.4164 -0.9937 -1.0966
 6669SOL     OW31468   4.308   3.955   6.652 -0.0176 -0.1124  0.2101
 6669SOL    HW131469   4.375   3.895   6.621 -0.0578  0.3378 -0.7606
 6669SOL    HW231470   4.306   3.960   6.747 -1.1883  2.4684  0.0606
 6670SOL     OW31471   0.193   4.196  10.451 -0.1531 -0.3047  0.4052
 6670SOL    HW131472   0.152   4.187  10.537  1.7249  4.6834  1.8594
 6670SOL    HW231473   0.207   4.289  10.432  1.8639 -0.7726 -0.3785
 6671SOL     OW31474   0.719   1.137   9.115  0.2550  0.0989  0.2351
 6671SOL    HW131475   0.755   1.213   9.162  2.2502  0.9434 -2.6920
 6671SOL    HW231476   0.633   1.163   9.082  0.2457  0.8082  0.8175
 6672SOL     OW31477   2.329   2.808  15.424  0.0633 -0.0770 -0.6047
 6672SOL    HW131478   2.365   2.720  15.428 -1.8094 -0.6996  2.8943
 6672SOL    HW231479   2.310   2.815  15.330 -0.4811 -1.3604 -0.5856
 6673SOL     OW31480   3.675   2.672   5.642  0.1471  0.0759  0.4625
 6673SOL    HW131481   3.703   2.580   5.642 -1.7495 -0.5126 -0.2875
 6673SOL    HW231482   3.650   2.674   5.734  1.8091  3.4054  0.8105
 6674SOL     OW31483   0.665   0.703   5.192 -0.7440 -0.1461 -0.3786
 6674SOL    HW131484   0.758   0.690   5.211 -0.5565 -1.9061 -2.4944
 6674SOL    HW231485   0.630   0.614   5.199 -0.9878  0.0217  0.5936
 6675SOL     OW31486   2.230   3.745   9.535 -0.3957 -0.2518  0.2960
 6675SOL    HW131487   2.195   3.658   9.553  0.7767 -0.6110  0.8405
 6675SOL    HW231488   2.242   3.771   9.626  1.8492  0.1286 -0.1004
 6676SOL     OW31489   0.175   2.786   7.389 -0.2287 -0.5530  0.0801
 6676SOL    HW131490   0.172   2.835   7.471  0.1562 -1.5893  0.7160
 6676SOL    HW231491   0.264   2.802   7.359  0.3620 -1.8435  1.1072
 6677SOL     OW31492   1.929   3.086   4.270  0.4142  0.0522  0.0055
 6677SOL    HW131493   2.005   3.120   4.221  0.8956 -1.4538 -0.2842
 6677SOL    HW231494   1.906   3.170   4.311 -0.1115  1.1850 -2.6358
 6678SOL     OW31495   1.805   2.656   7.752  0.2576  0.2859  0.4527
 6678SOL    HW131496   1.734   2.686   7.695 -1.9453 -0.8139  2.6682
 6678SOL    HW231497   1.852   2.597   7.692 -1.9934  0.7470 -1.7459
 6679SOL     OW31498   1.208   3.343   2.848  0.1736 -0.3587 -0.1254
 6679SOL    HW131499   1.294   3.366   2.812  0.2517  0.6790  0.7350
 6679SOL    HW231500   1.151   3.410   2.809 -1.1315  0.0825  2.6034
 6680SOL     OW31501   4.030   4.475   6.101  0.5116  0.0018 -0.2784
 6680SOL    HW131502   3.945   4.432   6.104 -1.6966  4.4290  0.8615
 6680SOL    HW231503   4.003   4.562   6.130  1.0417  0.6396 -1.7156
 6681SOL     OW31504   1.934   1.008   2.938  0.1832 -0.1965  0.1209
 6681SOL    HW131505   1.872   1.068   2.980 -0.9649 -1.0873 -0.2781
 6681SOL    HW231506   1.870   0.936   2.934 -1.3889  1.2447 -0.8914
 6682SOL     OW31507   0.358   2.217   4.712 -0.1560 -0.3844 -0.0006
 6682SOL    HW131508   0.417   2.257   4.776 -0.4444 -0.1083  0.0913
 6682SOL    HW231509   0.328   2.299   4.674 -0.7558 -0.4721  0.2838
 6683SOL     OW31510   0.908   3.321  14.571 -0.2604  0.2587  0.1200
 6683SOL    HW131511   0.863   3.392  14.525 -0.0768  0.3378  0.0618
 6683SOL    HW231512   0.855   3.244  14.552  0.7313 -0.6045  0.8866
 6684SOL     OW31513   3.726   4.329   8.239 -0.7400 -0.3699  0.2418
 6684SOL    HW131514   3.671   4.255   8.216 -1.4402 -0.6607  2.9130
 6684SOL    HW231515   3.719   4.380   8.158 -3.1004  1.3479  1.5192
 6685SOL     OW31516   3.083   2.837   9.780  0.5123 -0.6617 -0.5086
 6685SOL    HW131517   3.051   2.771   9.718  0.0424 -3.2284  2.4587
 6685SOL    HW231518   3.173   2.807   9.783  1.0787  1.1590  0.4430
 6686SOL     OW31519   4.210   2.392   3.425 -0.0537  0.2614  0.3311
 6686SOL    HW131520   4.191   2.359   3.337  0.7334  0.1064  0.2212
 6686SOL    HW231521   4.148   2.464   3.425 -1.4288 -0.9274 -1.0150
 6687SOL     OW31522   2.688   3.628  17.626 -0.4216 -0.3850 -0.3543
 6687SOL    HW131523   2.751   3.610  17.556  0.5967  0.3501  0.3864
 6687SOL    HW231524   2.610   3.595  17.581 -1.7562  1.4680  0.5808
 6688SOL     OW31525   0.622   2.586   6.736 -0.4465  0.6728  0.3458
 6688SOL    HW131526   0.703   2.638   6.740  1.0622 -1.6981  1.2504
 6688SOL    HW231527   0.635   2.524   6.809 -0.4965 -0.3377 -0.5074
 6689SOL     OW31528   3.283   2.584  13.320 -0.4436  0.1759 -0.5959
 6689SOL    HW131529   3.318   2.598  13.232  3.7281 -1.9514  0.7070
 6689SOL    HW231530   3.357   2.610  13.376  0.0912  1.0140 -1.6797
 6690SOL     OW31531   0.574   4.552   5.050 -0.2828  0.0813 -0.1345
 6690SOL    HW131532   0.652   4.530   4.998  0.5033  1.4582  0.4506
 6690SOL    HW231533   0.504   4.554   4.985 -0.5408 -2.0662  0.0857
 6691SOL     OW31534   0.023   1.035   6.119 -0.1198  0.3561  0.3134
 6691SOL    HW131535   4.686   1.017   6.044  0.8945 -0.6038 -0.2234
 6691SOL    HW231536   0.013   1.130   6.118  0.4952  0.4405  1.6128
 6692SOL     OW31537   2.116   0.131   4.160  0.4815  0.0705  0.8422
 6692SOL    HW131538   2.159   0.150   4.077 -0.7794  1.2392  0.4560
 6692SOL    HW231539   2.084   0.042   4.147  2.3161 -0.4924  0.1704
 6693SOL     OW31540   2.136   2.441   0.124 -0.1205  0.0005 -0.3912
 6693SOL    HW131541   2.110   2.357   0.162  0.4158 -0.3475 -0.7948
 6693SOL    HW231542   2.118   2.496   0.200  4.1280  0.8481 -0.0048
 6694SOL     OW31543   4.695   2.853   5.748  0.1461 -0.0296 -0.6594
 6694SOL    HW131544   4.630   2.797   5.706 -0.3315  0.0131  0.0144
 6694SOL    HW231545   4.710   2.903   5.668 -0.9682  1.1127 -0.1583
 6695SOL     OW31546   4.175   4.407   5.014  0.0390 -0.0740  0.1484
 6695SOL    HW131547   4.165   4.461   5.092 -3.3210 -1.1665  0.4940
 6695SOL    HW231548   4.166   4.321   5.053 -0.7450  0.0361  0.2103
 6696SOL     OW31549   3.140   3.652   9.886 -0.2831  0.1578  0.5889
 6696SOL    HW131550   3.144   3.669   9.792  0.0443  0.8498  0.7263
 6696SOL    HW231551   3.047   3.664   9.906  0.1167 -0.0719  2.5719
 6697SOL     OW31552   1.221   0.463   6.672 -0.2205  0.7173 -0.4362
 6697SOL    HW131553   1.135   0.491   6.641 -1.3453 -2.0681  0.1214
 6697SOL    HW231554   1.214   0.451   6.767 -1.9433  1.1514 -0.5149
 6698SOL     OW31555   2.631   0.981   8.997  1.0853  0.7239 -0.6344
 6698SOL    HW131556   2.566   0.914   8.975  1.4492  0.6334 -1.4037
 6698SOL    HW231557   2.691   0.974   8.923  2.8967 -1.5059  1.0353
 6699SOL     OW31558   2.233   2.365   4.295  0.0489 -0.5184  0.3239
 6699SOL    HW131559   2.164   2.300   4.309  1.6200 -2.1492  0.6352
 6699SOL    HW231560   2.183   2.437   4.333  1.2149  0.0617  0.7519
 6700SOL     OW31561   3.917   1.323   2.395 -0.2053 -0.4187  0.2303
 6700SOL    HW131562   3.949   1.395   2.451 -0.2795 -0.8767  0.8589
 6700SOL    HW231563   3.945   1.348   2.307  0.4810  0.7433  0.7615
 6701SOL     OW31564   4.079   1.953   1.227  0.0846  0.4189  0.0513
 6701SOL    HW131565   4.109   2.042   1.244 -1.7462  1.4530 -2.1180
 6701SOL    HW231566   4.021   1.981   1.156  0.1734 -2.6498 -1.2674
 6702SOL     OW31567   3.953   3.834  11.859  0.0650 -0.3170 -0.6179
 6702SOL    HW131568   3.870   3.847  11.904  0.7235  2.1282 -0.0926
 6702SOL    HW231569   3.921   3.874  11.778 -1.5035  0.0033  0.1590
 6703SOL     OW31570   2.979   3.864  10.114 -0.1065 -0.3618  0.5112
 6703SOL    HW131571   3.014   3.935  10.168 -1.0563 -0.9267  1.8734
 6703SOL    HW231572   2.896   3.905  10.092 -0.1481 -0.3337  0.7160
 6704SOL     OW31573   2.621   3.923   5.733 -0.1770 -0.1903 -0.3214
 6704SOL    HW131574   2.715   3.934   5.753 -0.0755  0.3424 -1.1163
 6704SOL    HW231575   2.588   3.919   5.823 -0.9941 -1.1522 -0.6785
 6705SOL     OW31576   2.834   4.408  10.910 -0.0329  0.0958 -0.3324
 6705SOL    HW131577   2.776   4.483  10.924  1.5773  1.4307 -0.7856
 6705SOL    HW231578   2.839   4.381  11.002 -1.1534 -2.0357 -0.9081
 6706SOL     OW31579   2.673   0.350   4.719 -0.1602  0.3585  0.1451
 6706SOL    HW131580   2.668   0.422   4.782 -3.3735  0.3786 -0.1366
 6706SOL    HW231581   2.624   0.281   4.763  0.3656  1.4515  2.4310
 6707SOL     OW31582   2.176   2.730   9.605  0.2554 -0.0338 -0.3844
 6707SOL    HW131583   2.094   2.692   9.573  0.3822  0.2628 -1.0699
 6707SOL    HW231584   2.230   2.727   9.526 -1.3360 -0.3898 -1.4592
 6708SOL     OW31585   1.291   2.846   2.126  0.3110 -0.3420 -0.3417
 6708SOL    HW131586   1.321   2.792   2.053  2.0198 -1.0970  0.9280
 6708SOL    HW231587   1.334   2.929   2.105 -0.7129 -0.0012 -1.1297
 6709SOL     OW31588   4.662   2.553  13.843 -0.0083 -0.2132 -0.3660
 6709SOL    HW131589   4.635   2.496  13.772  1.3256  1.4718 -2.2372
 6709SOL    HW231590   4.587   2.552  13.902 -0.1648  0.1169 -0.5612
 6710SOL     OW31591   2.521   3.859   6.565  0.0376  0.4973  0.3182
 6710SOL    HW131592   2.508   3.931   6.502  0.1504  0.1583 -0.0940
 6710SOL    HW231593   2.614   3.838   6.554  0.5177  2.7501 -0.0773
 6711SOL     OW31594   3.973   3.490   2.545 -0.0035 -0.3408 -0.5974
 6711SOL    HW131595   4.037   3.537   2.492  1.9165  0.3039  2.2532
 6711SOL    HW231596   4.034   3.421   2.574  1.4872  0.4772 -1.7848
 6712SOL     OW31597   3.912   2.073   6.552  0.2446 -0.2944  0.3717
 6712SOL    HW131598   3.979   2.121   6.503  0.3680  0.6743  1.4812
 6712SOL    HW231599   3.926   2.099   6.643  1.3956 -1.2221  0.4529
 6713SOL     OW31600   4.467   0.775   0.213  0.2841 -0.3297  0.2976
 6713SOL    HW131601   4.379   0.747   0.237  0.6490 -0.5638  1.3450
 6713SOL    HW231602   4.519   0.713   0.264 -0.7652 -0.8162  0.7694
 6714SOL     OW31603   1.460   1.845   6.794 -0.1643 -0.3356  0.5275
 6714SOL    HW131604   1.396   1.845   6.865 -1.1741 -3.2536 -0.3805
 6714SOL    HW231605   1.422   1.895   6.723 -0.0334  0.3226  0.9235
 6715SOL     OW31606   3.272   1.761  15.878  0.4855  0.6843  0.0998
 6715SOL    HW131607   3.289   1.852  15.900 -1.3022  1.0677 -0.1202
 6715SOL    HW231608   3.220   1.765  15.798 -1.0596 -1.3316  0.9758
 6716SOL     OW31609   0.658   3.358  17.086  0.1432 -0.5005 -0.0992
 6716SOL    HW131610   0.576   3.310  17.076 -0.7684  1.0087  0.1413
 6716SOL    HW231611   0.661   3.391  16.996 -1.5403 -1.2454 -0.4273
 6717SOL     OW31612   0.783   3.583   9.772  0.3328  0.0921  0.0896
 6717SOL    HW131613   0.756   3.504   9.725 -0.3585 -0.1832  0.9585
 6717SOL    HW231614   0.716   3.593   9.839 -0.1954 -0.6571 -0.3286
 6718SOL     OW31615   4.080   0.997   5.419  0.0558  0.9052 -0.1405
 6718SOL    HW131616   4.053   1.000   5.510  0.0219  0.5232 -0.1387
 6718SOL    HW231617   4.164   0.953   5.428  1.1604  3.1240  0.4291
 6719SOL     OW31618   3.897   0.522   7.430  0.2840 -0.1882  0.2080
 6719SOL    HW131619   3.873   0.473   7.352  0.6579  2.1155 -1.3473
 6719SOL    HW231620   3.971   0.577   7.407 -1.0972  0.2596 -3.1059
 6720SOL     OW31621   0.320   2.988   8.079 -0.1272 -0.5398  0.4110
 6720SOL    HW131622   0.360   3.065   8.038 -0.7673  1.6071  3.7344
 6720SOL    HW231623   0.254   3.012   8.144  1.3545 -3.1948  2.9233
 6721SOL     OW31624   2.842   0.226  11.582  0.2758  0.6542  0.1060
 6721SOL    HW131625   2.913   0.192  11.527 -1.4295  0.1931 -1.8337
 6721SOL    HW231626   2.770   0.249  11.522 -0.2219  0.1437  0.5021
 6722SOL     OW31627   2.266   1.939   6.064 -0.4977 -0.4810 -0.1211
 6722SOL    HW131628   2.337   1.940   6.128 -0.7305  0.5971  0.1097
 6722SOL    HW231629   2.256   1.844   6.061  0.8055 -0.5956 -0.8410
 6723SOL     OW31630   0.297   2.255  17.501  0.0226 -0.2263 -0.5562
 6723SOL    HW131631   0.252   2.260  17.585 -2.7884  3.2543 -2.2653
 6723SOL    HW231632   0.379   2.216  17.531 -0.5110 -1.1266 -0.2709
 6724SOL     OW31633   2.678   3.089   5.222  0.7095 -0.0739 -0.7678
 6724SOL    HW131634   2.745   3.127   5.280  0.4288  1.0361 -1.1717
 6724SOL    HW231635   2.647   3.027   5.288 -0.0538  0.2711 -0.8082
 6725SOL     OW31636   1.039   3.407   3.150  0.2520 -0.2217  0.0645
 6725SOL    HW131637   1.122   3.385   3.108  0.0302 -0.1429 -0.4091
 6725SOL    HW231638   1.005   3.476   3.093  0.4701 -0.4323 -0.3133
 6726SOL     OW31639   0.812   1.758   3.263  0.3175  0.2715 -0.5191
 6726SOL    HW131640   0.806   1.850   3.288  0.4773  0.1196  0.0921
 6726SOL    HW231641   0.883   1.727   3.319  1.0715  1.3093 -0.9077
 6727SOL     OW31642   2.442   3.682   8.520  0.2802  0.1569 -0.3965
 6727SOL    HW131643   2.446   3.598   8.565 -2.6772  0.9779  1.3389
 6727SOL    HW231644   2.462   3.653   8.430 -0.0661  0.1938 -0.4827
 6728SOL     OW31645   3.772   0.828   5.822 -0.4155 -0.6595 -0.0512
 6728SOL    HW131646   3.683   0.843   5.854 -0.3266  0.3466 -0.2766
 6728SOL    HW231647   3.765   0.859   5.732  0.2497 -1.4472 -0.3808
 6729SOL     OW31648   2.565   2.375   6.893 -0.3658 -0.1569 -0.2210
 6729SOL    HW131649   2.647   2.327   6.879  0.7214  2.0291 -1.2144
 6729SOL    HW231650   2.517   2.353   6.813  2.2431 -1.0897 -1.5231
 6730SOL     OW31651   2.382   0.249   7.369 -0.0438 -0.3003  0.5474
 6730SOL    HW131652   2.316   0.211   7.312 -2.3175  1.5970  1.9143
 6730SOL    HW231653   2.410   0.179   7.428 -0.3040 -2.2849 -1.6858
 6731SOL     OW31654   0.395   3.252   9.010 -0.2079 -0.2427  0.5153
 6731SOL    HW131655   0.301   3.258   8.993  0.0227 -1.6489 -1.3028
 6731SOL    HW231656   0.399   3.328   9.068  1.6890 -1.2983  1.7781
 6732SOL     OW31657   2.772   2.171   4.637 -0.0789  0.1566 -0.1934
 6732SOL    HW131658   2.711   2.225   4.586 -2.4029 -1.3268  0.9952
 6732SOL    HW231659   2.735   2.084   4.621  2.2760 -0.4927 -2.0967
 6733SOL     OW31660   2.167   0.968  13.484 -0.3108  0.2295  0.0708
 6733SOL    HW131661   2.122   1.031  13.541  0.8888  1.2155 -0.0634
 6733SOL    HW231662   2.111   0.962  13.407 -0.1724  1.1116 -0.0956
 6734SOL     OW31663   3.974   1.477  16.673  0.7529  0.7707  0.6139
 6734SOL    HW131664   3.979   1.548  16.738  0.7730 -0.1445  1.6156
 6734SOL    HW231665   3.894   1.480  16.621 -0.5896 -0.1800  2.6037
 6735SOL     OW31666   3.508   2.955   9.517 -0.1129 -0.3934 -0.2437
 6735SOL    HW131667   3.515   2.992   9.605 -0.1410 -1.5252  0.2358
 6735SOL    HW231668   3.424   2.909   9.522 -0.4446  0.0290 -2.1830
 6736SOL     OW31669   4.053   2.753   1.827  0.0177 -0.2083  0.3128
 6736SOL    HW131670   4.132   2.699   1.834 -0.1298 -0.0136  3.3787
 6736SOL    HW231671   4.080   2.830   1.877  1.3132  1.5459 -3.0794
 6737SOL     OW31672   2.850   1.618  15.050  0.0206  0.1701  0.3156
 6737SOL    HW131673   2.933   1.575  15.031  0.5268  1.1417  0.3549
 6737SOL    HW231674   2.806   1.606  14.966 -0.5445  1.9137  0.3698
 6738SOL     OW31675   4.431   3.112  10.366  0.0588 -0.7683  0.2417
 6738SOL    HW131676   4.392   3.064  10.293  0.3862  0.2963 -0.6324
 6738SOL    HW231677   4.486   3.044  10.404  1.9214 -0.0290 -1.1472
 6739SOL     OW31678   1.866   4.482   5.746  0.4142 -0.1838 -0.1325
 6739SOL    HW131679   1.875   4.447   5.657 -0.2698  1.3897 -0.8031
 6739SOL    HW231680   1.816   4.561   5.729  0.4014 -0.5622 -1.8765
 6740SOL     OW31681   0.600   0.560   6.541  0.4781 -0.2182  0.6572
 6740SOL    HW131682   0.557   0.532   6.622 -0.7919 -2.7312 -0.8724
 6740SOL    HW231683   0.585   0.653   6.556  1.5670  0.0201  0.2673
 6741SOL     OW31684   1.127   2.398   3.271  0.3083 -0.3977  0.4322
 6741SOL    HW131685   1.180   2.376   3.194  0.9859  0.0267  0.7775
 6741SOL    HW231686   1.056   2.443   3.225 -0.3849 -1.1658  0.7396
 6742SOL     OW31687   3.116   0.946   2.943  0.2750  0.0612  0.0123
 6742SOL    HW131688   3.043   0.903   2.899  0.7271 -1.3633  0.6532
 6742SOL    HW231689   3.081   1.035   2.937  0.1751  0.0724  0.7176
 6743SOL     OW31690   0.507   2.163   7.330  0.2394  0.3937  0.2453
 6743SOL    HW131691   0.450   2.117   7.393 -0.8200  1.3790 -0.0024
 6743SOL    HW231692   0.479   2.133   7.244 -3.7026 -2.3693  2.4569
 6744SOL     OW31693   2.461   3.392  13.617  0.5536  0.5328 -0.5291
 6744SOL    HW131694   2.405   3.316  13.602 -0.5364  1.2986 -0.3937
 6744SOL    HW231695   2.544   3.351  13.594  0.7717  0.2659  0.7040
 6745SOL     OW31696   0.500   1.727   6.555  0.2403 -0.0068  0.5336
 6745SOL    HW131697   0.498   1.772   6.471 -2.3471 -0.4637  0.3766
 6745SOL    HW231698   0.443   1.774   6.616  0.6817 -0.6951  1.4838
 6746SOL     OW31699   2.311   3.739   5.821 -0.1125  0.4079  0.0487
 6746SOL    HW131700   2.318   3.670   5.755  1.1160  0.2331  0.3591
 6746SOL    HW231701   2.232   3.715   5.870  1.1712  0.1567  1.9534
 6747SOL     OW31702   3.689   3.663   5.861  0.4216 -0.5816  0.2271
 6747SOL    HW131703   3.714   3.612   5.938 -1.5617 -0.6257  0.8394
 6747SOL    HW231704   3.775   3.692   5.832  0.3309 -0.1000  0.4456
 6748SOL     OW31705   2.626   1.482   3.305  0.0055 -0.3785 -0.2057
 6748SOL    HW131706   2.542   1.437   3.316  0.3338 -0.7266  0.8537
 6748SOL    HW231707   2.595   1.564   3.266  0.1597  0.3380  1.1840
 6749SOL     OW31708   1.165   0.008  16.495  0.2987 -0.2204  0.1458
 6749SOL    HW131709   1.094   0.072  16.488 -1.2340 -1.9346  0.0201
 6749SOL    HW231710   1.159   4.710  16.589  0.2033 -0.3152  0.1212
 6750SOL     OW31711   2.116   4.114   2.940 -0.0287  0.0669 -0.2330
 6750SOL    HW131712   2.054   4.116   3.013  0.7731  1.5373  0.4080
 6750SOL    HW231713   2.138   4.207   2.927 -1.4462  0.4670  0.1654
 6751SOL     OW31714   0.811   3.982  15.831  0.0486 -0.1881 -0.1659
 6751SOL    HW131715   0.767   3.963  15.748  3.6184 -0.0520 -2.0706
 6751SOL    HW231716   0.898   3.945  15.821  0.9680  1.8968  0.2856
 6752SOL     OW31717   2.471   2.042  16.227 -0.1402 -0.2564 -0.0838
 6752SOL    HW131718   2.439   2.131  16.239  0.6999  0.0435 -0.0411
 6752SOL    HW231719   2.514   2.045  16.141  1.5269  2.2888  0.8475
 6753SOL     OW31720   4.656   4.370   5.406 -0.0817 -0.2288  0.0409
 6753SOL    HW131721   4.577   4.368   5.351 -1.3143 -1.3265  1.8338
 6753SOL    HW231722   4.664   4.279   5.435  2.8915  0.4650  1.3254
 6754SOL     OW31723   0.919   4.150   6.588 -0.8660 -0.0806  0.0202
 6754SOL    HW131724   0.839   4.159   6.639 -0.4992 -0.5815  0.6887
 6754SOL    HW231725   0.920   4.237   6.548  0.8211 -0.3063 -0.4185
 6755SOL     OW31726   3.369   2.817  13.059 -0.3516  0.8029  0.1287
 6755SOL    HW131727   3.439   2.882  13.067  0.9567 -0.7246  0.9230
 6755SOL    HW231728   3.353   2.833  12.966 -0.4656  0.3721  0.0763
 6756SOL     OW31729   1.184   0.202   2.588  0.6153 -0.1349 -0.6159
 6756SOL    HW131730   1.106   0.250   2.614 -0.5722 -1.3733 -1.9109
 6756SOL    HW231731   1.245   0.277   2.589 -0.6624  0.8969  0.3425
 6757SOL     OW31732   2.506   4.069   8.412 -0.2698  0.1735  0.9211
 6757SOL    HW131733   2.598   4.092   8.429  0.0066 -1.4954  1.7684
 6757SOL    HW231734   2.488   4.128   8.339  1.3482 -0.3640  0.0888
 6758SOL     OW31735   4.162   0.783   3.723 -0.3600 -0.4353  0.7009
 6758SOL    HW131736   4.119   0.791   3.807 -1.1130  1.2870  0.1524
 6758SOL    HW231737   4.147   0.870   3.684 -2.8063 -0.4169  1.6925
 6759SOL     OW31738   0.214   3.857   2.127  0.4263 -0.8958 -0.0565
 6759SOL    HW131739   0.243   3.941   2.090  0.6627 -0.2026  1.7001
 6759SOL    HW231740   0.300   3.815   2.123  1.0173  0.2926 -0.0710
 6760SOL     OW31741   2.735   4.646   7.985 -0.0813  0.1402 -0.6912
 6760SOL    HW131742   2.704   0.017   7.977 -0.0853  0.2953  1.0994
 6760SOL    HW231743   2.657   4.591   7.986 -1.2394  1.8197  1.3114
 6761SOL     OW31744   2.893   2.300   6.160  0.2495 -0.0412  0.4756
 6761SOL    HW131745   2.830   2.251   6.108  0.1114  1.8127 -1.0806
 6761SOL    HW231746   2.846   2.310   6.243 -1.2133  0.3356 -0.4095
 6762SOL     OW31747   3.099   4.029   8.710  0.3586  0.1050 -0.3775
 6762SOL    HW131748   3.108   4.084   8.787 -1.5274  0.6729 -0.5626
 6762SOL    HW231749   3.011   3.992   8.715 -0.2075  1.7310  1.5780
 6763SOL     OW31750   1.645   2.748   8.947 -0.5113 -0.1450 -0.4709
 6763SOL    HW131751   1.684   2.768   8.862  0.0367 -1.6236 -0.5694
 6763SOL    HW231752   1.724   2.775   8.993 -1.0109  3.0793 -1.5590
 6764SOL     OW31753   2.104   0.194   8.280  0.1835 -0.0291 -0.2471
 6764SOL    HW131754   2.156   0.127   8.236 -0.1416  1.3192 -2.7074
 6764SOL    HW231755   2.081   0.142   8.356 -0.2248  2.5007  1.3603
 6765SOL     OW31756   2.134   1.610   3.733  0.0464  0.2411 -0.5735
 6765SOL    HW131757   2.061   1.670   3.752  0.7433  0.9504 -0.1695
 6765SOL    HW231758   2.121   1.589   3.640  1.0101  4.3760 -1.6500
 6766SOL     OW31759   3.608   2.294   3.727 -0.1198  0.7963 -0.5815
 6766SOL    HW131760   3.529   2.322   3.773  0.1800 -1.9518  1.6057
 6766SOL    HW231761   3.575   2.220   3.676 -2.5384  0.7765  1.0156
 6767SOL     OW31762   3.186   2.159  15.999  0.0702  0.2744  0.3986
 6767SOL    HW131763   3.122   2.116  16.055 -0.7993 -0.6059 -1.2994
 6767SOL    HW231764   3.130   2.199  15.932 -0.0513 -1.2994 -0.4321
 6768SOL     OW31765   3.694   2.149   2.719 -0.1235 -0.9432  0.1386
 6768SOL    HW131766   3.740   2.143   2.803 -0.1131 -1.0556  0.1254
 6768SOL    HW231767   3.760   2.208   2.683  0.1506 -0.6654  1.0807
 6769SOL     OW31768   1.919   2.622   4.539 -0.4987  0.0704  0.1466
 6769SOL    HW131769   2.000   2.655   4.580  0.7155 -3.4210  0.5129
 6769SOL    HW231770   1.946   2.603   4.449 -2.3329  0.5644 -0.4997
 6770SOL     OW31771   4.112   0.091   1.718  0.1872  0.1053  1.1071
 6770SOL    HW131772   4.111   0.150   1.643 -1.1046 -2.7543 -1.1240
 6770SOL    HW231773   4.150   0.151   1.782  0.3304  0.9269  0.2471
 6771SOL     OW31774   2.453   1.959   2.698 -0.7029  0.4649 -0.3247
 6771SOL    HW131775   2.385   1.948   2.632 -1.4560  0.4481  0.4441
 6771SOL    HW231776   2.414   1.916   2.774  0.8221 -0.7328 -0.2213
 6772SOL     OW31777   2.964   3.615  10.276 -0.1092 -0.1851 -0.4199
 6772SOL    HW131778   2.949   3.546  10.211 -0.1530 -1.5592  1.0522
 6772SOL    HW231779   2.933   3.690  10.225 -1.2208  0.0404  0.5678
 6773SOL     OW31780   2.617   2.244  17.522 -0.3115  0.1085  0.2505
 6773SOL    HW131781   2.628   2.320  17.579 -0.5659 -1.5789  2.5565
 6773SOL    HW231782   2.593   2.171  17.579 -0.8038 -0.1922 -0.3439
 6774SOL     OW31783   3.636   0.480  10.479 -0.2326  0.2085 -0.1954
 6774SOL    HW131784   3.574   0.553  10.482 -0.1797  0.2606 -0.3565
 6774SOL    HW231785   3.635   0.460  10.386 -1.6257  1.6848 -0.4905
 6775SOL     OW31786   3.203   2.947   2.866 -0.2534  0.4030  0.1797
 6775SOL    HW131787   3.273   3.008   2.843 -1.4523  0.2584 -3.8749
 6775SOL    HW231788   3.252   2.872   2.900  1.7792  2.1432  1.1255
 6776SOL     OW31789   0.742   1.804   8.686  0.0628 -0.2216 -0.1430
 6776SOL    HW131790   0.807   1.769   8.747  0.1535  1.3664  0.6655
 6776SOL    HW231791   0.663   1.775   8.732 -0.8677 -0.7005 -2.0707
 6777SOL     OW31792   1.005   3.158   0.311  0.0547 -0.1994  0.2357
 6777SOL    HW131793   0.976   3.211   0.385  0.7380 -0.8176  0.9287
 6777SOL    HW231794   1.046   3.223   0.254  0.1535 -1.2057 -0.8472
 6778SOL     OW31795   3.808   1.585   5.594  0.0909  0.1291  0.1664
 6778SOL    HW131796   3.788   1.662   5.541 -1.9067 -1.2638 -1.1380
 6778SOL    HW231797   3.725   1.539   5.608 -0.0268 -0.1098 -1.3432
 6779SOL     OW31798   1.829   2.940   4.934 -0.2842  0.6193 -0.1615
 6779SOL    HW131799   1.915   2.952   4.895  0.1202 -0.8252  0.3061
 6779SOL    HW231800   1.815   3.022   4.983 -0.4971 -0.8771  2.3063
 6780SOL     OW31801   3.508   4.419  11.422  0.4147 -0.5415  0.5081
 6780SOL    HW131802   3.454   4.454  11.493  0.1236  0.8867 -0.4103
 6780SOL    HW231803   3.581   4.480  11.420  1.7052 -2.0788  0.6750
 6781SOL     OW31804   3.863   1.795   2.604  0.0425 -0.1847  0.5638
 6781SOL    HW131805   3.794   1.827   2.546  0.2745  0.6963  0.7656
 6781SOL    HW231806   3.821   1.798   2.690 -2.3085  1.0585 -0.6422
 6782SOL     OW31807   3.732   4.078   1.974 -0.1930 -0.5434 -0.3851
 6782SOL    HW131808   3.700   4.130   1.900  1.0422  1.3241  0.3801
 6782SOL    HW231809   3.667   4.012   1.998 -1.0649 -0.4964 -2.6157
 6783SOL     OW31810   3.663   2.106   6.444 -0.5225  0.1628 -0.2731
 6783SOL    HW131811   3.740   2.078   6.492  1.1806  1.6856 -2.1148
 6783SOL    HW231812   3.600   2.119   6.514 -0.9864 -0.5677 -0.5593
 6784SOL     OW31813   1.394   0.994   4.092  0.0458 -0.0330  0.2599
 6784SOL    HW131814   1.444   1.076   4.092  1.1590 -0.7041  0.4955
 6784SOL    HW231815   1.328   1.002   4.024  2.6969  3.5844 -1.8543
 6785SOL     OW31816   4.456   4.072  11.589  0.9757  0.1959  0.0407
 6785SOL    HW131817   4.537   4.028  11.563  1.4525  0.7481  0.6119
 6785SOL    HW231818   4.488   4.158  11.616 -0.0196  1.0971 -1.6194
 6786SOL     OW31819   3.568   0.889   4.233  1.3516  0.0012  0.3545
 6786SOL    HW131820   3.594   0.869   4.323 -0.3802 -0.8980  0.6584
 6786SOL    HW231821   3.510   0.814   4.219  0.5471  0.5804  0.5534
 6787SOL     OW31822   3.229   0.012   8.134 -0.0381  0.0411  0.4497
 6787SOL    HW131823   3.139   0.031   8.159 -0.6286 -2.1317 -0.0907
 6787SOL    HW231824   3.253   4.651   8.180 -1.3924 -0.1622  0.8060
 6788SOL     OW31825   0.815   1.102   7.743 -0.0874  0.4168  0.2996
 6788SOL    HW131826   0.905   1.129   7.763 -0.3494  2.9507 -2.0109
 6788SOL    HW231827   0.827   1.083   7.650 -2.2882  1.9242 -0.2939
 6789SOL     OW31828   0.393   4.146  10.616  0.3252  0.0755  0.1416
 6789SOL    HW131829   0.361   4.057  10.630 -2.2159  0.8497 -0.6010
 6789SOL    HW231830   0.338   4.163  10.539  1.1260  0.9649 -0.2299
 6790SOL     OW31831   2.472   3.161   2.747 -0.5151 -0.2443 -0.0326
 6790SOL    HW131832   2.420   3.230   2.789  0.8273  0.5891  0.2639
 6790SOL    HW231833   2.520   3.115   2.815  1.4575 -0.8492 -1.8194
 6791SOL     OW31834   1.873   0.943   8.123 -0.0590 -0.3999  0.0284
 6791SOL    HW131835   1.814   0.949   8.048  1.2741  0.5400 -0.9223
 6791SOL    HW231836   1.904   0.853   8.133 -0.5766 -0.5834  0.0044
 6792SOL     OW31837   1.918   0.467   3.376  0.3613 -0.3953  0.0535
 6792SOL    HW131838   1.897   0.395   3.435  0.3661 -0.3553  0.1030
 6792SOL    HW231839   1.839   0.520   3.382  0.4849 -0.1937 -0.0915
 6793SOL     OW31840   0.276   3.076   6.642  0.1100 -0.1319 -0.3391
 6793SOL    HW131841   0.368   3.065   6.616  0.8374 -1.1624  2.6239
 6793SOL    HW231842   0.245   3.135   6.573  1.6881 -0.3606 -1.2556
 6794SOL     OW31843   2.982   3.952   5.433 -0.0193  0.0124 -0.0456
 6794SOL    HW131844   2.961   3.999   5.353 -0.7329 -0.4990 -0.1636
 6794SOL    HW231845   2.959   3.867   5.395 -1.8554  0.4518  0.1094
 6795SOL     OW31846   1.293   1.453  11.428  0.1625 -0.0512 -0.7312
 6795SOL    HW131847   1.205   1.489  11.438 -0.0975 -1.2249  1.0769
 6795SOL    HW231848   1.317   1.437  11.519 -2.3185  0.5604  0.0427
 6796SOL     OW31849   2.992   2.679  14.535 -0.1701 -0.1286  0.5875
 6796SOL    HW131850   2.966   2.630  14.613 -0.3361 -1.5637 -0.3682
 6796SOL    HW231851   3.074   2.714  14.569 -0.2651  0.0962  0.5821
 6797SOL     OW31852   3.686   4.637  12.185  0.1382  0.2731 -0.4140
 6797SOL    HW131853   3.755   4.635  12.251 -0.1910 -0.1166 -0.0843
 6797SOL    HW231854   3.681   4.545  12.159 -1.2771  0.5075 -1.0103
 6798SOL     OW31855   2.209   2.337   1.470 -0.4460  0.1767  0.6370
 6798SOL    HW131856   2.283   2.276   1.461  0.0745  0.6528  1.6931
 6798SOL    HW231857   2.267   2.411   1.453 -0.2536 -0.4412 -1.4949
 6799SOL     OW31858   2.438   2.612  13.839  0.1891 -0.9541 -0.2387
 6799SOL    HW131859   2.472   2.571  13.919  0.4135  1.3741  0.8816
 6799SOL    HW231860   2.375   2.673  13.877  0.2895 -0.3100 -1.1044
 6800SOL     OW31861   2.608   1.737  16.169 -0.1342  0.1940 -0.0977
 6800SOL    HW131862   2.667   1.720  16.095  0.2119 -0.2641  0.2828
 6800SOL    HW231863   2.668   1.793  16.218 -1.0081  0.5957  0.5185
 6801SOL     OW31864   1.050   2.267   4.908  0.1618  0.2353  0.1831
 6801SOL    HW131865   0.969   2.300   4.868 -0.5906 -1.6084  0.1690
 6801SOL    HW231866   1.018   2.201   4.970 -1.8756  0.8955 -0.1491
 6802SOL     OW31867   3.547   1.197   6.170  0.2659 -0.2500  0.0562
 6802SOL    HW131868   3.496   1.268   6.132 -1.9307 -1.9900 -0.2517
 6802SOL    HW231869   3.624   1.242   6.205  0.2780 -0.0736 -0.1967
 6803SOL     OW31870   3.752   0.931   5.573  0.3524  0.4217  0.7126
 6803SOL    HW131871   3.763   0.923   5.479 -1.4326 -1.6844  0.6652
 6803SOL    HW231872   3.663   0.896   5.579  0.6173 -0.2713  0.6780
 6804SOL     OW31873   2.948   1.115   1.933  0.5834  0.3591 -0.4549
 6804SOL    HW131874   2.872   1.161   1.896  0.6942  1.0257  0.1557
 6804SOL    HW231875   2.931   1.122   2.027 -2.9389  0.0896 -1.0501
 6805SOL     OW31876   2.307   0.438   5.909  0.4197 -0.6767  0.2218
 6805SOL    HW131877   2.304   0.441   6.004 -1.5468  0.0117  0.1399
 6805SOL    HW231878   2.287   0.344   5.902 -0.5886 -0.4201 -0.3864
 6806SOL     OW31879   0.548   4.019   8.755 -0.2379  0.1130 -0.3868
 6806SOL    HW131880   0.549   4.072   8.675 -1.3772 -0.5413 -0.8555
 6806SOL    HW231881   0.614   4.059   8.810 -0.0554 -1.2900  0.4120
 6807SOL     OW31882   3.137   2.394   6.515  0.0528  0.3662  0.4326
 6807SOL    HW131883   3.114   2.430   6.429  0.6960  1.0901  0.5553
 6807SOL    HW231884   3.164   2.305   6.497 -0.0136  0.5519 -0.5780
 6808SOL     OW31885   2.536   2.280   8.679  0.4382  0.4148  0.2104
 6808SOL    HW131886   2.600   2.316   8.740  1.4154 -0.8123 -0.0782
 6808SOL    HW231887   2.458   2.308   8.726 -0.8376 -1.2436 -0.8883
 6809SOL     OW31888   0.637   1.045   7.952  0.0488  0.0786  0.4528
 6809SOL    HW131889   0.609   1.126   7.995 -0.7461  0.6533 -1.1417
 6809SOL    HW231890   0.709   1.066   7.892 -0.1367 -0.5050  0.0213
 6810SOL     OW31891   3.042   4.506   3.859  0.7623  0.3068  0.0809
 6810SOL    HW131892   3.058   4.588   3.814 -0.7723  0.3359 -0.4206
 6810SOL    HW231893   3.045   4.530   3.951  1.8171 -0.1349  0.1600
 6811SOL     OW31894   2.180   1.229  14.771  0.4360 -0.3227  0.1027
 6811SOL    HW131895   2.259   1.263  14.730 -0.6167  1.4639 -0.4359
 6811SOL    HW231896   2.171   1.139  14.739  0.6869 -0.0332 -0.7870
 6812SOL     OW31897   1.961   1.677   8.863  0.2581 -0.1188 -0.3320
 6812SOL    HW131898   2.012   1.756   8.849 -1.4343  0.7090 -1.7979
 6812SOL    HW231899   2.036   1.621   8.839  2.0069  2.0184  0.0965
 6813SOL     OW31900   1.269   1.626   8.292 -0.4507 -0.1020 -0.0554
 6813SOL    HW131901   1.189   1.639   8.241 -0.5578  2.5463  0.7639
 6813SOL    HW231902   1.217   1.627   8.373  0.8600  3.7384  0.7899
 6814SOL     OW31903   3.601   4.077   8.152  0.3699 -0.1153 -0.5303
 6814SOL    HW131904   3.653   4.007   8.191  0.1578  0.1072  0.1572
 6814SOL    HW231905   3.566   4.020   8.083 -1.8617  1.3676 -0.6226
 6815SOL     OW31906   4.301   3.115  17.145  0.0980  0.2250  0.2839
 6815SOL    HW131907   4.218   3.070  17.132 -1.3101  2.2526  2.3038
 6815SOL    HW231908   4.267   3.203  17.133 -0.8834 -0.1739  0.1671
 6816SOL     OW31909   3.152   3.157   2.569 -0.0699  0.2687  0.1261
 6816SOL    HW131910   3.071   3.198   2.599 -0.2149  1.0797 -1.3885
 6816SOL    HW231911   3.120   3.078   2.525  1.9580  0.1844 -1.2288
 6817SOL     OW31912   3.884   0.926   2.426 -0.0387 -0.1113 -0.2516
 6817SOL    HW131913   3.957   0.864   2.430 -1.2778 -1.4018  1.8993
 6817SOL    HW231914   3.807   0.877   2.397  1.4542 -2.3209 -0.4996
 6818SOL     OW31915   1.201   0.113   1.324 -0.2572  0.5338 -0.1455
 6818SOL    HW131916   1.201   0.113   1.419 -1.5366  2.8422 -0.1387
 6818SOL    HW231917   1.155   0.194   1.299  0.3385  0.3081 -1.9726
 6819SOL     OW31918   4.325   3.818  13.380  0.9008  0.0036 -0.5364
 6819SOL    HW131919   4.401   3.869  13.408  2.2736 -0.6911 -3.0590
 6819SOL    HW231920   4.301   3.784  13.467  1.5558 -0.4110 -0.5218
 6820SOL     OW31921   2.771   1.041  14.694 -0.3829 -0.6104  0.2830
 6820SOL    HW131922   2.684   1.071  14.670 -0.3474 -0.0290  0.8900
 6820SOL    HW231923   2.755   1.008  14.782  0.3462 -0.1477  0.5931
 6821SOL     OW31924   3.512   1.313   0.135 -0.3575  0.2070 -0.0434
 6821SOL    HW131925   3.607   1.305   0.138 -0.1344  2.1897 -1.8150
 6821SOL    HW231926   3.493   1.225   0.102 -0.5333  0.1645  0.1728
 6822SOL     OW31927   1.626   1.735   3.537 -0.0343  0.2724 -0.2650
 6822SOL    HW131928   1.605   1.692   3.453 -2.5278  1.0608 -0.0355
 6822SOL    HW231929   1.587   1.821   3.527  1.5793  0.9972 -0.3794
 6823SOL     OW31930   0.618   0.226   6.444 -0.1437  0.2513 -0.9427
 6823SOL    HW131931   0.601   0.133   6.459 -0.0767 -0.0497 -2.7637
 6823SOL    HW231932   0.545   0.255   6.390 -0.6644  0.3514 -0.1903
 6824SOL     OW31933   1.314   2.471   8.365 -0.4640  0.2059  0.1446
 6824SOL    HW131934   1.360   2.555   8.374  1.9846 -1.1247  0.0072
 6824SOL    HW231935   1.372   2.398   8.384 -1.4641 -0.8408 -0.8236
 6825SOL     OW31936   1.603   2.331  15.684 -0.4518 -0.3576 -0.5327
 6825SOL    HW131937   1.632   2.293  15.767  0.7052  1.1164 -0.2760
 6825SOL    HW231938   1.515   2.295  15.674 -0.2039 -1.4280  1.1219
 6826SOL     OW31939   4.490   1.232  14.572 -0.5045  0.2033  0.3006
 6826SOL    HW131940   4.496   1.155  14.628 -0.1678 -0.7785 -1.0917
 6826SOL    HW231941   4.447   1.194  14.496 -0.8237  0.3621  0.4012
 6827SOL     OW31942   4.460   2.539   7.920  0.2939 -0.2240 -0.3969
 6827SOL    HW131943   4.551   2.520   7.942  0.3803  1.3115  0.5417
 6827SOL    HW231944   4.453   2.621   7.968  1.7068 -0.8547  0.8639
 6828SOL     OW31945   4.434   1.480   5.682  0.0040  0.4377  0.4107
 6828SOL    HW131946   4.514   1.522   5.715 -0.8390  1.0309  1.6908
 6828SOL    HW231947   4.429   1.400   5.735 -2.7968 -0.1106 -0.6735
 6829SOL     OW31948   4.514   3.035  16.980 -0.3564 -0.4680 -0.1691
 6829SOL    HW131949   4.464   3.010  16.902 -1.1258  0.9497 -0.1234
 6829SOL    HW231950   4.438   3.037  17.038 -0.0033  2.6289  0.1505
 6830SOL     OW31951   1.986   0.707   4.170  0.2499 -0.1485 -0.7449
 6830SOL    HW131952   1.927   0.667   4.106 -0.1019 -1.2558  0.2778
 6830SOL    HW231953   1.995   0.643   4.240  1.3185  2.5205  1.5338
 6831SOL     OW31954   2.955   1.524   7.311  0.6079  0.3447  0.0019
 6831SOL    HW131955   2.920   1.507   7.399  0.3896 -3.3090 -0.8109
 6831SOL    HW231956   2.912   1.457   7.259  2.1960 -0.8049  0.1914
 6832SOL     OW31957   3.036   1.945   5.041 -0.1052 -0.2391 -0.2363
 6832SOL    HW131958   3.040   2.033   5.080 -2.7825  0.1167 -0.7144
 6832SOL    HW231959   2.975   1.960   4.968 -0.8155  2.8583  0.9691
 6833SOL     OW31960   2.809   2.750   9.052 -0.1576  0.1611  0.0969
 6833SOL    HW131961   2.797   2.814   8.981 -0.3167  1.4453  1.2815
 6833SOL    HW231962   2.778   2.666   9.017  2.5204 -1.4191  1.5313
 6834SOL     OW31963   0.038   0.472   9.866 -0.9185  0.3086 -0.2808
 6834SOL    HW131964   0.005   0.404   9.808 -2.1888  0.9784 -0.3495
 6834SOL    HW231965   0.072   0.540   9.807 -0.9818  0.3635 -0.2542
 6835SOL     OW31966   1.149   3.928   0.590  0.0270 -0.4915  0.2488
 6835SOL    HW131967   1.144   3.881   0.673 -1.4680 -0.4995  0.1503
 6835SOL    HW231968   1.092   3.885   0.527  2.1379  0.5185 -2.3472
 6836SOL     OW31969   3.698   2.430   6.787  0.1167 -0.2659 -0.2540
 6836SOL    HW131970   3.714   2.401   6.697  1.6747  0.4632 -0.2045
 6836SOL    HW231971   3.714   2.344   6.827 -0.3535  0.4125  1.3865
 6837SOL     OW31972   0.213   3.981   1.769  0.5368  0.1072 -0.2077
 6837SOL    HW131973   0.128   3.937   1.768  0.8449 -0.5619  2.5023
 6837SOL    HW231974   0.238   3.970   1.677  1.2651  1.8250 -0.2290
 6838SOL     OW31975   4.644   4.623   6.949  0.7154  0.2302 -0.2350
 6838SOL    HW131976   0.016   4.648   6.966  1.0189 -0.9556 -0.1242
 6838SOL    HW231977   4.600   4.636   7.033  3.3595  0.8875  1.0744
 6839SOL     OW31978   2.932   3.906   2.009 -0.5673 -0.0730 -0.2121
 6839SOL    HW131979   3.001   3.848   1.976  0.9899  1.2958  0.6491
 6839SOL    HW231980   2.879   3.909   1.930  0.9187 -0.6096 -1.2365
 6840SOL     OW31981   2.384   3.463   9.454 -0.3626  0.8120  0.0769
 6840SOL    HW131982   2.445   3.428   9.519 -0.8517  0.7126  0.4891
 6840SOL    HW231983   2.301   3.459   9.501 -0.6017  0.0607 -0.4275
 6841SOL     OW31984   4.191   1.926   8.667 -0.2258 -0.1983  0.2568
 6841SOL    HW131985   4.123   1.859   8.666  0.4812 -0.9245  2.0852
 6841SOL    HW231986   4.202   1.936   8.572  1.2225 -2.6919  0.1526
 6842SOL     OW31987   2.482   1.764   5.332  0.3269  0.2386  0.1211
 6842SOL    HW131988   2.487   1.668   5.325 -0.5082  0.1162  1.1860
 6842SOL    HW231989   2.499   1.786   5.423 -1.3735  1.1175  0.2254
 6843SOL     OW31990   1.926   4.016   5.410 -0.3968  0.3158  0.7922
 6843SOL    HW131991   1.845   3.966   5.417 -0.4035  0.5178  2.0836
 6843SOL    HW231992   1.890   4.105   5.410 -2.5116 -0.5433  0.9260
 6844SOL     OW31993   2.837   2.658   0.500 -0.4259  0.0531 -0.5405
 6844SOL    HW131994   2.815   2.660   0.593  3.1018  0.7878  0.2549
 6844SOL    HW231995   2.873   2.570   0.502  1.4432  0.8317 -0.1363
 6845SOL     OW31996   1.893   0.062  10.995 -0.4118 -0.0935 -0.2543
 6845SOL    HW131997   1.916   0.128  10.928 -0.0920  0.3666  0.3066
 6845SOL    HW231998   1.972   0.009  10.999  1.5482  2.9053  1.1047
 6846SOL     OW31999   3.781   3.425   7.189  0.0535  0.5686 -0.4303
 6846SOL    HW132000   3.763   3.393   7.101 -0.3611 -0.6443  0.0942
 6846SOL    HW232001   3.858   3.372   7.212 -0.4016  0.7730  1.5166
 6847SOL     OW32002   2.913   3.203   9.293 -0.3284  0.6097 -0.0409
 6847SOL    HW132003   2.866   3.164   9.219  2.0285 -2.8798  0.3262
 6847SOL    HW232004   2.836   3.226   9.345  0.4331  2.4168  0.2644
 6848SOL     OW32005   0.924   2.204  11.709 -0.2953  0.9157 -0.5853
 6848SOL    HW132006   0.870   2.127  11.690  0.7987  0.0366 -0.1440
 6848SOL    HW232007   0.881   2.240  11.786 -0.9687 -0.3872 -0.3428
 6849SOL     OW32008   1.451   3.963   6.833 -0.1832 -0.3584  0.2465
 6849SOL    HW132009   1.376   4.023   6.840 -1.0813 -1.3940 -0.5105
 6849SOL    HW232010   1.429   3.921   6.750  0.8715  0.6567 -0.5337
 6850SOL     OW32011   1.950   3.774  15.522  0.3368  0.3396  0.0183
 6850SOL    HW132012   1.865   3.736  15.502  0.2904 -0.3617  1.4945
 6850SOL    HW232013   1.940   3.811  15.610 -2.1491 -1.7527  0.5963
 6851SOL     OW32014   0.505   0.931   2.385 -0.5833 -0.3479  0.1289
 6851SOL    HW132015   0.507   0.860   2.449 -0.2044 -0.9925 -0.5997
 6851SOL    HW232016   0.473   1.002   2.440  1.8717  0.2020  0.8526
 6852SOL     OW32017   3.196   0.811   6.863 -0.4819  0.2067  0.7391
 6852SOL    HW132018   3.102   0.821   6.882 -0.6779 -1.2067  0.5291
 6852SOL    HW232019   3.205   0.727   6.908 -0.3201  0.3412  0.9595
 6853SOL     OW32020   1.571   0.143   9.597 -0.0018 -0.2903  0.3019
 6853SOL    HW132021   1.569   0.170   9.505  1.2251  0.6444  0.5546
 6853SOL    HW232022   1.662   0.115   9.605  0.3760  1.1159  0.8935
 6854SOL     OW32023   2.313   2.122   4.849  0.0485 -0.1607  0.4574
 6854SOL    HW132024   2.354   2.038   4.826 -1.0447 -0.1451 -1.5263
 6854SOL    HW232025   2.359   2.179   4.787 -1.6037  1.3700  0.6273
 6855SOL     OW32026   2.832   3.996  17.402  0.0428 -0.0455 -0.1702
 6855SOL    HW132027   2.783   3.989  17.483 -0.7831 -1.2886 -0.7746
 6855SOL    HW232028   2.762   3.960  17.348 -1.1177  0.7111  0.8389
 6856SOL     OW32029   4.139   1.332   6.247  0.4976  0.1266 -0.4522
 6856SOL    HW132030   4.187   1.270   6.302  1.7157 -0.4681 -2.2047
 6856SOL    HW232031   4.141   1.409   6.304  1.5693 -0.1872 -0.0736
 6857SOL     OW32032   2.515   2.831   9.847  0.0380  0.2721  0.0798
 6857SOL    HW132033   2.528   2.822   9.942 -1.4021  1.0647  0.3606
 6857SOL    HW232034   2.600   2.798   9.819 -0.3589  0.7528 -1.6637
 6858SOL     OW32035   2.203   0.936   7.587  0.4880 -0.4648  0.4373
 6858SOL    HW132036   2.158   0.853   7.604 -1.5219 -0.0553 -2.8977
 6858SOL    HW232037   2.148   0.988   7.647 -0.0582  1.0702 -1.3836
 6859SOL     OW32038   1.581   2.195   8.717  0.4308  0.2082 -0.2487
 6859SOL    HW132039   1.673   2.174   8.701  0.5062  0.6806 -0.4178
 6859SOL    HW232040   1.571   2.271   8.660 -0.1246 -0.7328 -1.4032
 6860SOL     OW32041   4.345   3.996   5.214  0.0748 -0.9711  0.1876
 6860SOL    HW132042   4.417   3.937   5.232 -1.4965 -2.6275  0.9887
 6860SOL    HW232043   4.285   3.977   5.287 -0.0892  0.6186  0.4810
 6861SOL     OW32044   1.490   4.602   3.991 -0.0398  0.6734 -0.1755
 6861SOL    HW132045   1.548   4.676   4.008 -0.7120  1.5078 -1.4555
 6861SOL    HW232046   1.408   4.652   3.996  0.2303  1.0288  0.6522
 6862SOL     OW32047   2.878   2.915   3.039 -0.2692  0.3714  0.1153
 6862SOL    HW132048   2.862   2.823   3.019  0.2421 -0.1173  1.9657
 6862SOL    HW232049   2.972   2.914   3.059 -0.4098  0.7772  0.8042
 6863SOL     OW32050   1.644   0.639  13.464  0.2971  0.0357 -0.0156
 6863SOL    HW132051   1.548   0.641  13.458  0.3657 -0.0776 -1.0812
 6863SOL    HW232052   1.660   0.596  13.380 -0.8660 -0.5885  0.0672
 6864SOL     OW32053   2.168   3.628  16.064  0.3808 -0.6076  0.6042
 6864SOL    HW132054   2.119   3.555  16.102 -4.0195  3.0224  1.8571
 6864SOL    HW232055   2.117   3.634  15.983  0.6757 -3.1739  0.2132
 6865SOL     OW32056   2.421   1.933  13.566  0.5017 -0.0452 -0.0675
 6865SOL    HW132057   2.441   2.018  13.526 -0.0714  0.2082  0.1910
 6865SOL    HW232058   2.346   1.955  13.620  1.0195 -1.7496  1.3374
 6866SOL     OW32059   1.621   3.511  17.601 -0.3410 -0.4632  0.4769
 6866SOL    HW132060   1.663   3.570  17.664  2.0945 -2.5840  0.8420
 6866SOL    HW232061   1.600   3.438  17.660 -0.9913 -2.9451 -2.8304
 6867SOL     OW32062   0.271   1.785  10.691 -0.8474 -0.4695  0.1782
 6867SOL    HW132063   0.302   1.701  10.658 -0.1960  0.6524 -2.0734
 6867SOL    HW232064   0.180   1.777  10.718 -1.1802 -1.8117 -1.3814
 6868SOL     OW32065   2.034   2.038   8.117  0.0966  0.5516 -0.4176
 6868SOL    HW132066   2.002   2.077   8.198  0.7679 -1.7246  0.9437
 6868SOL    HW232067   1.965   2.059   8.055  0.1773 -1.2310 -1.1083
 6869SOL     OW32068   2.165   3.707  10.475  0.4910  0.0440  0.0458
 6869SOL    HW132069   2.146   3.660  10.393 -0.8694 -1.1121  1.0177
 6869SOL    HW232070   2.199   3.786  10.434  2.3084 -0.1969  1.1150
 6870SOL     OW32071   2.106   1.969   4.041  0.6389 -0.2073  0.0468
 6870SOL    HW132072   2.062   1.972   3.956 -2.0489 -0.9372  1.4042
 6870SOL    HW232073   2.035   1.989   4.101  1.6917 -0.2245  1.2917
 6871SOL     OW32074   0.325   3.527  11.996  0.3281 -0.5615 -0.5837
 6871SOL    HW132075   0.302   3.556  11.908  1.0556  0.2721 -0.4982
 6871SOL    HW232076   0.420   3.529  11.997  0.3070  1.2276 -1.4681
 6872SOL     OW32077   4.541   4.109  15.342  0.3403 -0.1610 -0.1645
 6872SOL    HW132078   4.495   4.033  15.306 -0.5723  0.7328 -0.8781
 6872SOL    HW232079   4.550   4.076  15.432 -0.8722  1.1374  0.4245
 6873SOL     OW32080   4.589   2.347  11.755  0.3807 -0.1225  0.7000
 6873SOL    HW132081   4.606   2.426  11.806  0.5472  0.4302 -0.2199
 6873SOL    HW232082   4.494   2.344  11.767  0.5850 -2.7679  1.8933
 6874SOL     OW32083   0.921   4.415   0.228 -0.0203  0.0067  0.0395
 6874SOL    HW132084   0.951   4.351   0.164  1.1820  0.0159  0.5831
 6874SOL    HW232085   0.848   4.452   0.178 -0.4289  0.9892  1.3535
 6875SOL     OW32086   2.068   2.996   2.062  0.6631 -0.0650  0.1889
 6875SOL    HW132087   1.984   2.955   2.082  1.0767 -1.3458 -0.6657
 6875SOL    HW232088   2.083   3.033   2.149  1.8314  0.5182 -0.2634
 6876SOL     OW32089   0.094   1.378   5.526  0.1535  0.2708  0.1753
 6876SOL    HW132090   0.065   1.341   5.442 -0.9409 -0.2183  0.7776
 6876SOL    HW232091   0.095   1.469   5.497  1.1917  0.3757  0.5254
 6877SOL     OW32092   2.772   3.535  13.569  0.3592 -0.3552 -0.6225
 6877SOL    HW132093   2.732   3.451  13.593  1.9200 -1.6474 -2.4189
 6877SOL    HW232094   2.736   3.539  13.480  0.3214 -0.3336 -0.6056
 6878SOL     OW32095   0.294   0.212  17.425 -0.0060  0.3574  0.0342
 6878SOL    HW132096   0.210   0.236  17.463 -0.0028  1.4959 -0.6824
 6878SOL    HW232097   0.301   0.282  17.361 -0.4172  0.1611 -0.2206
 6879SOL     OW32098   3.257   1.915   4.318 -0.1058  0.0867 -0.1389
 6879SOL    HW132099   3.266   1.920   4.223 -0.1271  0.2086 -0.1347
 6879SOL    HW232100   3.302   1.991   4.354 -0.1262  0.7820 -1.5980
 6880SOL     OW32101   2.686   2.414   1.376  0.0898  0.7809 -0.0544
 6880SOL    HW132102   2.642   2.422   1.292 -0.2047 -0.6696 -0.0290
 6880SOL    HW232103   2.656   2.330   1.411  3.5152 -0.2243  0.4794
 6881SOL     OW32104   4.522   3.657  12.346 -0.0675  0.0821 -0.4406
 6881SOL    HW132105   4.441   3.656  12.295 -0.9579  0.3680  0.9709
 6881SOL    HW232106   4.487   3.677  12.433 -1.6148 -3.4842 -0.2302
 6882SOL     OW32107   3.900   2.892  14.162  0.1224 -1.0140  0.0656
 6882SOL    HW132108   3.978   2.859  14.119 -0.2003 -0.8748 -0.6395
 6882SOL    HW232109   3.831   2.852  14.109  1.2389 -0.9847 -1.4165
 6883SOL     OW32110   4.205   2.057   2.020  0.3512 -0.6498  0.0001
 6883SOL    HW132111   4.196   2.078   2.113  3.6758 -0.3667  0.2799
 6883SOL    HW232112   4.226   2.142   1.983 -0.4133 -0.0634  0.9409
 6884SOL     OW32113   2.965   1.205   5.587 -0.1978 -0.2772 -1.0265
 6884SOL    HW132114   3.035   1.155   5.545 -0.7256 -0.9441 -1.0979
 6884SOL    HW232115   2.953   1.271   5.518  1.2076  0.9964 -0.0423
 6885SOL     OW32116   0.759   3.023  14.091 -0.3859  0.4208  0.1467
 6885SOL    HW132117   0.730   3.113  14.077  2.5939  1.3869  0.2206
 6885SOL    HW232118   0.704   3.014  14.169 -0.3375 -0.1418  0.1163
 6886SOL     OW32119   3.292   1.370   8.967  0.0103 -0.8679 -0.3042
 6886SOL    HW132120   3.271   1.316   9.044 -1.1772 -0.8845 -0.6359
 6886SOL    HW232121   3.335   1.305   8.911  0.9844 -1.2583  0.8917
 6887SOL     OW32122   3.238   2.628   4.128 -0.4051  0.4374  0.5541
 6887SOL    HW132123   3.266   2.539   4.148 -0.5278  0.3582  0.3680
 6887SOL    HW232124   3.157   2.610   4.079 -0.5620  1.1961  0.5308
 6888SOL     OW32125   0.967   4.460  15.144  0.0765 -0.2257 -0.5263
 6888SOL    HW132126   1.014   4.533  15.104  0.7332 -0.1025  0.4551
 6888SOL    HW232127   0.885   4.464  15.094 -0.3300  1.3900  0.2515
 6889SOL     OW32128   2.733   2.520   8.961  0.2605 -0.1482 -0.1188
 6889SOL    HW132129   2.731   2.465   8.882  1.2743 -1.0112  0.4537
 6889SOL    HW232130   2.656   2.573   8.938  0.7173  0.1156 -1.0484
 6890SOL     OW32131   2.110   2.176  14.800 -0.0446  0.5639  0.0467
 6890SOL    HW132132   2.053   2.243  14.763 -0.6214 -0.1998 -0.4365
 6890SOL    HW232133   2.085   2.183  14.892  1.9698 -0.5031  0.6918
 6891SOL     OW32134   3.532   4.055  16.230  0.1898  0.0243  0.5668
 6891SOL    HW132135   3.573   4.129  16.275 -2.6994  1.7901  0.2863
 6891SOL    HW232136   3.489   4.109  16.163  2.3223 -1.2759 -1.8326
 6892SOL     OW32137   3.126   0.882   7.516 -0.7705 -0.0361  0.0917
 6892SOL    HW132138   3.205   0.936   7.506 -1.4714  0.4123 -3.1201
 6892SOL    HW232139   3.089   0.881   7.428 -0.9842 -2.3704  0.2073
 6893SOL     OW32140   2.244   4.083   5.399 -0.3042 -0.2393 -0.5273
 6893SOL    HW132141   2.272   4.049   5.484 -0.4158  0.6679 -0.1232
 6893SOL    HW232142   2.171   4.023   5.385 -2.4190  2.1775  0.2892
 6894SOL     OW32143   2.287   1.373   3.047 -0.6643  0.2938 -0.0218
 6894SOL    HW132144   2.320   1.284   3.056 -1.0689 -0.1698 -2.9471
 6894SOL    HW232145   2.231   1.356   2.972 -2.0792 -1.5420  1.4731
 6895SOL     OW32146   0.096   3.160   6.227 -0.0145 -0.3582 -0.1321
 6895SOL    HW132147   0.019   3.133   6.176 -1.7685  1.5965  1.5085
 6895SOL    HW232148   0.065   3.186   6.313 -1.5297  2.2883 -1.4845
 6896SOL     OW32149   4.270   3.378   2.919  0.0204  0.2779  0.4400
 6896SOL    HW132150   4.294   3.389   3.010  0.1227  2.2329  0.1677
 6896SOL    HW232151   4.360   3.365   2.887 -0.5585  1.1944 -1.5702
 6897SOL     OW32152   0.764   1.008  13.595  0.5741 -0.0956 -0.4654
 6897SOL    HW132153   0.775   0.930  13.540 -2.2375 -0.4166 -0.5491
 6897SOL    HW232154   0.684   1.042  13.555  0.1386 -0.2192  0.2924
 6898SOL     OW32155   3.289   0.865   4.947 -0.3343 -0.2303 -0.2768
 6898SOL    HW132156   3.292   0.820   5.032  1.4557  0.1098 -0.1639
 6898SOL    HW232157   3.229   0.938   4.962  1.6002  1.1497  0.6501
 6899SOL     OW32158   3.383   2.197   5.344  0.0773  0.5352  0.1584
 6899SOL    HW132159   3.393   2.154   5.259 -5.2911 -0.4416 -0.0359
 6899SOL    HW232160   3.391   2.291   5.328 -0.7053  0.7213  0.8372
 6900SOL     OW32161   2.360   3.257   4.410  0.2133 -0.0697  1.0873
 6900SOL    HW132162   2.342   3.295   4.496  0.3083  0.8891  0.6838
 6900SOL    HW232163   2.432   3.315   4.385  1.3000 -1.9698 -0.1782
 6901SOL     OW32164   2.862   0.935   4.531  0.1050  0.3543 -0.4746
 6901SOL    HW132165   2.767   0.930   4.535  0.1796 -0.1339  0.9383
 6901SOL    HW232166   2.891   1.021   4.562 -3.7420  2.5909 -3.2140
 6902SOL     OW32167   0.354   1.251   3.498  0.4040 -0.4353 -0.6276
 6902SOL    HW132168   0.396   1.292   3.574  1.8519  0.5794 -1.9784
 6902SOL    HW232169   0.266   1.222   3.521 -0.0758  0.7356 -0.9849
 6903SOL     OW32170   1.938   1.809  10.449 -0.2464  0.7242  0.0711
 6903SOL    HW132171   1.967   1.884  10.501  1.6296 -0.2314  0.4005
 6903SOL    HW232172   1.971   1.732  10.494 -1.1652 -0.1813 -0.8076
 6904SOL     OW32173   4.043   2.218   0.817  0.1220  0.7628 -0.2577
 6904SOL    HW132174   4.099   2.252   0.886 -0.7720  0.4709  0.6193
 6904SOL    HW232175   4.081   2.133   0.795 -0.6555  0.4967 -0.6086
 6905SOL     OW32176   1.075   3.708   4.420  0.1888  0.4739 -0.3150
 6905SOL    HW132177   1.113   3.625   4.450 -1.7442 -0.8581 -1.4649
 6905SOL    HW232178   1.017   3.722   4.494 -0.8734  4.1883 -1.8452
 6906SOL     OW32179   3.795   2.437  10.487  0.2958 -0.0844 -0.0557
 6906SOL    HW132180   3.875   2.451  10.538  0.6288 -1.1996 -0.2760
 6906SOL    HW232181   3.781   2.352  10.527  1.0711  0.6475  1.7520
 6907SOL     OW32182   0.818   0.535   7.521 -0.3064  0.3309 -0.7110
 6907SOL    HW132183   0.846   0.618   7.482  1.1752 -0.6861 -1.8124
 6907SOL    HW232184   0.811   0.547   7.616  0.7766 -2.0696 -0.3121
 6908SOL     OW32185   2.843   1.784   8.047 -0.6230 -0.0849  0.4364
 6908SOL    HW132186   2.922   1.731   8.029 -0.8244  0.1299 -1.1151
 6908SOL    HW232187   2.806   1.794   7.959  5.4538 -1.4398 -2.3359
 6909SOL     OW32188   0.867   0.259  16.083  0.0523 -0.4213 -0.3424
 6909SOL    HW132189   0.894   0.170  16.106  3.1366  1.1850  2.2440
 6909SOL    HW232190   0.803   0.236  16.016 -0.8162  0.8156  0.0657
 6910SOL     OW32191   0.543   3.764   1.093 -0.2436  0.2096 -1.2131
 6910SOL    HW132192   0.490   3.684   1.093  1.2897 -0.7802  0.6511
 6910SOL    HW232193   0.499   3.817   1.159  0.6355  0.0136 -0.4786
 6911SOL     OW32194   0.814   0.190   2.488  0.1084  1.0918 -0.2273
 6911SOL    HW132195   0.724   0.217   2.470  0.4534  2.4670  0.1079
 6911SOL    HW232196   0.848   0.277   2.510 -0.3665  1.6837 -1.7995
 6912SOL     OW32197   1.392   3.264   6.638  0.4068 -0.6309 -0.4981
 6912SOL    HW132198   1.464   3.233   6.694  0.9687 -0.0981 -0.9243
 6912SOL    HW232199   1.319   3.270   6.699  1.2125  0.2860  0.3818
 6913SOL     OW32200   3.224   0.370   5.211 -0.1359 -0.2101 -0.0217
 6913SOL    HW132201   3.186   0.359   5.298  0.8027 -1.3398  0.2523
 6913SOL    HW232202   3.170   0.310   5.159 -0.1438  0.0744 -0.3440
 6914SOL     OW32203   2.661   1.780  15.151 -0.0459 -0.8174 -0.4281
 6914SOL    HW132204   2.674   1.789  15.245  0.4689  0.0694 -0.5818
 6914SOL    HW232205   2.740   1.734  15.122 -0.3576 -1.6518  0.0582
 6915SOL     OW32206   3.302   3.442   7.213 -0.1921  0.4365 -0.3600
 6915SOL    HW132207   3.340   3.386   7.145 -0.4875 -1.3672  0.9595
 6915SOL    HW232208   3.365   3.513   7.218  0.7550 -0.2922 -2.3253
 6916SOL     OW32209   4.433   1.702   7.707  0.0100 -0.0480 -1.3567
 6916SOL    HW132210   4.432   1.798   7.712 -0.6029 -0.0889 -0.6264
 6916SOL    HW232211   4.523   1.694   7.737 -0.1183  1.9792 -0.3864
 6917SOL     OW32212   2.737   1.752   5.203  0.1750 -0.1931  0.1245
 6917SOL    HW132213   2.704   1.841   5.209  1.4438  0.2679  0.2961
 6917SOL    HW232214   2.668   1.706   5.250 -1.3003  1.0499 -0.8487
 6918SOL     OW32215   3.414   0.092  10.105 -0.1764 -0.1323 -0.2872
 6918SOL    HW132216   3.393   0.014  10.054 -0.7291  0.2207 -0.6024
 6918SOL    HW232217   3.335   0.146  10.114  1.1027  1.8469 -0.8403
 6919SOL     OW32218   0.065   1.341   6.654  0.1453  0.1493  0.4615
 6919SOL    HW132219   0.069   1.316   6.562 -2.3190  0.9569  0.1207
 6919SOL    HW232220   0.047   1.433   6.637  1.5904  1.1151  4.0169
 6920SOL     OW32221   0.164   0.028  11.560  0.6192  0.1943 -0.8544
 6920SOL    HW132222   0.151   0.048  11.467 -2.1358 -0.2967 -0.5527
 6920SOL    HW232223   0.143   4.655  11.566  1.4452 -0.0389 -1.5073
 6921SOL     OW32224   4.120   0.887   6.574  0.0524 -0.0084 -0.4788
 6921SOL    HW132225   4.208   0.852   6.567  0.0003 -0.2761  0.2173
 6921SOL    HW232226   4.080   0.805   6.601  0.6041 -0.7162 -1.7978
 6922SOL     OW32227   3.221   4.675   2.295 -0.3320 -0.4312  0.3493
 6922SOL    HW132228   3.167   0.027   2.328 -1.5149 -0.9011 -0.6002
 6922SOL    HW232229   3.223   4.606   2.362  0.3257 -0.9558 -0.1997
 6923SOL     OW32230   3.197   0.368  11.509  0.6123 -0.1558  0.6620
 6923SOL    HW132231   3.213   0.453  11.468  1.7253 -1.3748 -1.4694
 6923SOL    HW232232   3.167   0.322  11.430 -0.1154  1.6014 -0.0713
 6924SOL     OW32233   0.749   3.388  15.814 -0.0929 -0.2109 -0.4665
 6924SOL    HW132234   0.838   3.353  15.805  0.4114  0.9513 -0.0471
 6924SOL    HW232235   0.742   3.389  15.910  0.6646 -1.2568 -0.4005
 6925SOL     OW32236   4.585   1.582   0.160 -0.6770 -0.0686  0.7412
 6925SOL    HW132237   4.548   1.557   0.245 -0.0023  2.2985  1.7259
 6925SOL    HW232238   4.499   1.570   0.119 -0.6803  2.3215  0.0571
 6926SOL     OW32239   0.905   4.286   1.759 -0.2202 -0.0519  0.2582
 6926SOL    HW132240   0.835   4.242   1.711 -0.0278  2.3992 -2.3249
 6926SOL    HW232241   0.914   4.227   1.833  2.6878 -0.4749 -0.4163
 6927SOL     OW32242   2.181   0.793   8.877  0.3970 -0.0771 -0.3676
 6927SOL    HW132243   2.087   0.777   8.868  0.7425 -2.4953  0.4232
 6927SOL    HW232244   2.185   0.795   8.973 -1.4785  0.1230 -0.2908
 6928SOL     OW32245   2.716   2.659  14.444 -0.2307  0.6632 -0.8589
 6928SOL    HW132246   2.786   2.599  14.468 -1.9469 -1.2201 -0.6097
 6928SOL    HW232247   2.710   2.712  14.523  0.0652  0.6311 -0.8143
 6929SOL     OW32248   3.195   2.372   4.890 -0.3457 -0.2862  0.9160
 6929SOL    HW132249   3.281   2.361   4.848 -1.7557  1.4481 -2.4090
 6929SOL    HW232250   3.134   2.333   4.827  0.5848 -2.8752  1.6129
 6930SOL     OW32251   0.267   3.330   8.708 -1.1380  0.4829  0.0469
 6930SOL    HW132252   0.308   3.244   8.696  1.6504  1.8657 -0.3126
 6930SOL    HW232253   0.227   3.318   8.794  0.2972 -1.0148  0.5042
 6931SOL     OW32254   2.244   3.020   4.700  0.1630  0.4907  0.0008
 6931SOL    HW132255   2.167   2.973   4.732  0.3395  1.4635  1.8648
 6931SOL    HW232256   2.219   3.021   4.608  0.7946 -3.0898 -0.2067
 6932SOL     OW32257   0.573   0.321   2.443 -0.2902  0.1821  0.6578
 6932SOL    HW132258   0.525   0.392   2.400 -0.8135  0.0863  1.0872
 6932SOL    HW232259   0.508   0.251   2.439  0.3966 -0.3518 -1.1441
 6933SOL     OW32260   4.087   3.774   2.005 -0.0977 -0.7185  0.0784
 6933SOL    HW132261   4.053   3.863   2.016 -0.2069 -0.8452  0.7170
 6933SOL    HW232262   4.108   3.774   1.911  0.4449  0.9748  0.1967
 6934SOL     OW32263   4.509   3.791   1.056  0.0312  0.4561 -0.4878
 6934SOL    HW132264   4.537   3.705   1.086 -2.0706  0.2459  0.8634
 6934SOL    HW232265   4.555   3.797   0.972  0.1753 -1.4362 -0.5426
 6935SOL     OW32266   1.042   0.579   4.349 -0.0328 -0.6057 -0.5566
 6935SOL    HW132267   0.948   0.561   4.338  0.1470  0.0619 -3.0955
 6935SOL    HW232268   1.084   0.493   4.342  0.2657 -0.5158  0.0873
 6936SOL     OW32269   0.663   2.886  15.772  0.4856  0.0243 -0.6023
 6936SOL    HW132270   0.624   2.807  15.810  0.6667 -1.3183 -3.2521
 6936SOL    HW232271   0.707   2.928  15.846 -1.6989  0.8728  0.2119
 6937SOL     OW32272   3.404   3.299   7.014 -0.3637 -0.3494 -0.2967
 6937SOL    HW132273   3.435   3.209   7.018  1.7686  0.3342 -1.3493
 6937SOL    HW232274   3.394   3.313   6.920  0.7354  0.7429 -0.2603
 6938SOL     OW32275   1.763   3.367   7.453  0.2347  0.1892 -0.6848
 6938SOL    HW132276   1.716   3.399   7.376  0.1620 -3.9561 -2.3704
 6938SOL    HW232277   1.689   3.369   7.514  1.0491 -2.2311  0.3783
 6939SOL     OW32278   4.658   2.709  11.633  0.9795 -0.0173 -0.4869
 6939SOL    HW132279   4.660   2.699  11.728  1.3375  0.0830 -0.4853
 6939SOL    HW232280   4.581   2.660  11.605 -0.3697  1.0710  1.3707
 6940SOL     OW32281   2.105   4.437   0.334  0.4008 -0.0205  0.0242
 6940SOL    HW132282   2.050   4.515   0.340 -0.7812 -0.6993 -2.1587
 6940SOL    HW232283   2.162   4.462   0.407  0.6909 -1.5914  0.3363
 6941SOL     OW32284   3.610   3.867   1.281 -0.2305  0.2817  0.3019
 6941SOL    HW132285   3.662   3.903   1.210 -0.2674  0.0312  0.1467
 6941SOL    HW232286   3.578   3.785   1.243  1.8531 -0.9606  1.2306
 6942SOL     OW32287   4.511   1.676   3.656 -0.4572 -0.0473 -0.3067
 6942SOL    HW132288   4.502   1.718   3.571 -1.2736  1.1480  0.3728
 6942SOL    HW232289   4.564   1.600   3.634 -2.3087 -0.9982 -1.5080
 6943SOL     OW32290   0.356   3.704   6.113  0.3126 -0.2538  0.2222
 6943SOL    HW132291   0.346   3.611   6.092 -0.0175 -0.1530 -0.0774
 6943SOL    HW232292   0.340   3.747   6.029  0.9438 -1.1756 -0.3769
 6944SOL     OW32293   1.673   1.165   5.341  0.3513 -0.3953 -0.3479
 6944SOL    HW132294   1.642   1.093   5.287 -0.3571  1.3466 -2.2874
 6944SOL    HW232295   1.765   1.147   5.356  0.3873 -0.1487 -0.2638
 6945SOL     OW32296   4.113   4.697   9.001 -0.1079 -0.3868 -0.2511
 6945SOL    HW132297   4.120   4.647   9.082 -1.5680 -0.8520 -0.3980
 6945SOL    HW232298   4.045   0.038   9.029  0.2756 -0.5597  1.0568
 6946SOL     OW32299   0.427   0.501   2.305  0.0725  0.3238  0.1781
 6946SOL    HW132300   0.334   0.493   2.283  0.3544  0.5562 -1.0782
 6946SOL    HW232301   0.463   0.514   2.218 -0.4148 -0.7742 -0.1909
 6947SOL     OW32302   1.198   0.976  13.586  0.0483  0.0170 -0.5239
 6947SOL    HW132303   1.159   1.048  13.538 -0.4046  0.8897  1.1554
 6947SOL    HW232304   1.146   0.901  13.558 -0.6244 -0.6141  2.3750
 6948SOL     OW32305   1.726   4.231  12.876  0.0904 -0.5698 -0.2581
 6948SOL    HW132306   1.643   4.184  12.866 -0.2985 -0.3841  2.0325
 6948SOL    HW232307   1.759   4.208  12.789  1.2214 -1.1722  0.3181
 6949SOL     OW32308   0.951   4.414  13.855  0.3909  0.2570  0.5778
 6949SOL    HW132309   1.018   4.410  13.787 -0.7516  0.6178 -0.5743
 6949SOL    HW232310   0.905   4.338  13.820 -1.4754  1.1463  1.0677
 6950SOL     OW32311   3.320   1.780   9.607 -0.8024  0.2069 -0.3060
 6950SOL    HW132312   3.254   1.827   9.658 -2.0849 -2.1249  0.1915
 6950SOL    HW232313   3.288   1.690   9.613  0.0014  0.0337  1.5065
 6951SOL     OW32314   3.195   1.342  12.567  0.6133  0.1995 -0.1611
 6951SOL    HW132315   3.183   1.431  12.601  0.3865  0.1468 -0.1108
 6951SOL    HW232316   3.119   1.334  12.510 -0.0054  0.2902  0.6570
 6952SOL     OW32317   0.389   3.037   2.553 -0.1364 -0.2874  0.4300
 6952SOL    HW132318   0.302   3.074   2.568 -0.8130 -2.2833  1.4813
 6952SOL    HW232319   0.389   2.969   2.621 -0.1851 -1.3902 -0.6784
 6953SOL     OW32320   3.049   3.560   0.812 -0.0221 -0.0975 -0.3716
 6953SOL    HW132321   3.073   3.493   0.876 -0.1939 -0.3126 -0.5303
 6953SOL    HW232322   3.023   3.499   0.743 -1.1589 -0.7061  0.5948
 6954SOL     OW32323   0.565   1.274   8.075  0.0143  0.4015  0.1590
 6954SOL    HW132324   0.486   1.241   8.119 -0.3161  0.4053 -0.4241
 6954SOL    HW232325   0.523   1.337   8.017  1.2516 -0.3792 -1.5722
 6955SOL     OW32326   3.063   3.425  14.881 -0.4013  0.0151 -0.0912
 6955SOL    HW132327   3.120   3.492  14.917 -1.3014  1.4828 -1.4158
 6955SOL    HW232328   3.067   3.349  14.940 -0.5073  1.1875  1.4094
 6956SOL     OW32329   2.429   0.825   7.087  0.1174 -0.1091 -0.1380
 6956SOL    HW132330   2.462   0.837   7.176 -1.6799 -1.7669  0.7644
 6956SOL    HW232331   2.401   0.913   7.062 -0.4589 -0.4200 -0.5857
 6957SOL     OW32332   0.775   3.321   7.247  0.1465  0.1322 -0.3740
 6957SOL    HW132333   0.863   3.315   7.284 -0.9331 -1.5697  1.9074
 6957SOL    HW232334   0.804   3.358   7.164 -0.8332  0.2436 -0.6594
 6958SOL     OW32335   1.099   4.693   6.792  0.1323 -0.3594  0.7786
 6958SOL    HW132336   1.190   4.718   6.811  0.1168 -0.5699  1.1358
 6958SOL    HW232337   1.059   0.003   6.874 -2.5636  1.0434 -1.0328
 6959SOL     OW32338   3.076   0.138   8.435 -0.4432  0.4399  0.4329
 6959SOL    HW132339   3.124   0.198   8.492 -0.3944 -2.5358  3.5689
 6959SOL    HW232340   3.147   0.078   8.410 -0.2368  0.5156  0.8236
 6960SOL     OW32341   1.069   4.147   8.774 -0.0450 -0.1843 -0.1962
 6960SOL    HW132342   1.049   4.129   8.866  4.0752 -1.2782  0.4981
 6960SOL    HW232343   0.996   4.202   8.745  0.7766  1.7749  1.4339
 6961SOL     OW32344   0.932   2.618   2.010  0.3805  0.6166  0.5514
 6961SOL    HW132345   0.950   2.701   1.967  0.4045  0.1279 -0.3942
 6961SOL    HW232346   1.022   2.589   2.023  0.8859  2.7424  1.7621
 6962SOL     OW32347   2.135   1.394  10.881  0.0601  0.7839 -0.0687
 6962SOL    HW132348   2.147   1.391  10.976 -1.4699  0.7710  0.1304
 6962SOL    HW232349   2.221   1.430  10.857 -0.1408 -0.4423 -2.5577
 6963SOL     OW32350   3.521   3.346   5.950 -0.0003  0.0132 -0.4252
 6963SOL    HW132351   3.583   3.343   6.023 -0.4461 -0.7009 -0.0731
 6963SOL    HW232352   3.573   3.312   5.877  0.5057  0.4494 -0.2635
 6964SOL     OW32353   4.422   4.048  13.190 -0.8260  0.3036 -0.2190
 6964SOL    HW132354   4.417   3.970  13.135 -0.1920 -1.7720  2.6724
 6964SOL    HW232355   4.483   4.018  13.257 -0.5747  0.0963 -0.5393
 6965SOL     OW32356   0.518   2.327   6.095  0.4009  0.2161  0.0223
 6965SOL    HW132357   0.534   2.352   6.186  2.9628 -0.4332 -0.2547
 6965SOL    HW232358   0.567   2.395   6.048 -0.3239  0.7490  0.0330
 6966SOL     OW32359   3.482   4.060  10.397 -0.7367 -0.1340  0.3049
 6966SOL    HW132360   3.528   4.136  10.363  0.7586 -0.3722  1.7776
 6966SOL    HW232361   3.413   4.105  10.445  0.4245 -1.9597  3.6933
 6967SOL     OW32362   0.630   1.119  17.146 -0.2057 -0.4855 -0.0004
 6967SOL    HW132363   0.700   1.056  17.167  0.0934 -0.1011  0.1543
 6967SOL    HW232364   0.676   1.153  17.070 -0.9962 -1.7715 -1.0608
 6968SOL     OW32365   1.905   1.074   8.995 -0.0414 -0.1214 -0.0394
 6968SOL    HW132366   1.982   1.132   9.001 -1.1085  1.1751  0.9124
 6968SOL    HW232367   1.890   1.054   9.087 -0.5955  3.5965  0.6741
 6969SOL     OW32368   4.594   1.438   2.170 -0.3073 -0.0353  0.3661
 6969SOL    HW132369   4.658   1.475   2.231 -1.5643 -1.9243  2.8333
 6969SOL    HW232370   4.537   1.398   2.236  0.4586 -2.5458 -0.4914
 6970SOL     OW32371   0.404   2.569   2.695 -0.0970 -0.2790 -0.4967
 6970SOL    HW132372   0.486   2.535   2.657 -1.4414 -1.6036 -2.2206
 6970SOL    HW232373   0.434   2.659   2.710 -1.5262 -0.3126  2.5508
 6971SOL     OW32374   0.594   2.602   1.391  0.0338 -0.1245 -0.4826
 6971SOL    HW132375   0.505   2.568   1.383 -0.3614  0.8855 -0.2915
 6971SOL    HW232376   0.581   2.695   1.374  2.4700  0.2515 -0.2493
 6972SOL     OW32377   0.468   4.706   6.393 -0.0035  0.2870 -0.3022
 6972SOL    HW132378   0.507   4.654   6.463 -0.4903  2.1479  1.3634
 6972SOL    HW232379   0.375   4.695   6.412  1.0614 -1.0509  4.0548
 6973SOL     OW32380   2.827   0.965   9.909  0.0488 -0.3372 -0.1092
 6973SOL    HW132381   2.765   1.032   9.879  1.4118  0.2109 -1.7228
 6973SOL    HW232382   2.766   0.907   9.954  1.8078 -0.5187  2.0097
 6974SOL     OW32383   0.046   0.789  16.530 -0.6097 -0.0382  0.1525
 6974SOL    HW132384   0.053   0.864  16.471 -0.0597 -0.7037 -0.6284
 6974SOL    HW232385   0.105   0.812  16.601  0.6519 -0.6750 -0.6842
 6975SOL     OW32386   1.495   4.070   5.905 -0.0855  0.0690 -0.8303
 6975SOL    HW132387   1.452   4.087   5.988 -3.4039 -0.4404 -2.4495
 6975SOL    HW232388   1.431   4.018   5.856  0.0640 -0.8354 -0.0745
 6976SOL     OW32389   0.023   1.581   4.090  0.1772  0.1879 -0.1553
 6976SOL    HW132390   4.686   1.511   4.058 -0.0718 -0.3012  1.3754
 6976SOL    HW232391   0.085   1.595   4.019 -1.7618 -2.5231 -2.3683
 6977SOL     OW32392   3.225   2.328   8.103  0.5465  0.1596  0.8168
 6977SOL    HW132393   3.236   2.235   8.083 -1.9750 -0.3209  1.6558
 6977SOL    HW232394   3.130   2.323   8.114  0.1232 -1.7200 -3.6516
 6978SOL     OW32395   0.799   3.646   3.243  0.4872  0.0751  0.3616
 6978SOL    HW132396   0.826   3.737   3.245 -2.3017  0.9315 -0.5761
 6978SOL    HW232397   0.840   3.609   3.165 -0.8243 -0.5626 -0.0338
 6979SOL     OW32398   0.599   1.974  16.404  0.1067  0.1823 -0.0409
 6979SOL    HW132399   0.552   2.057  16.408  0.1886  0.2277 -0.0178
 6979SOL    HW232400   0.522   1.919  16.393  0.6050 -0.8168  1.4860
 6980SOL     OW32401   4.609   4.235   2.120  0.1153 -0.5257 -0.1122
 6980SOL    HW132402   4.653   4.156   2.153 -1.1201  0.6637  4.4568
 6980SOL    HW232403   4.552   4.260   2.193  1.1493  0.8467  0.2188
 6981SOL     OW32404   3.156   0.481   8.365 -0.3770  0.1650  1.0529
 6981SOL    HW132405   3.178   0.500   8.456  0.0109  0.3269  0.9260
 6981SOL    HW232406   3.075   0.530   8.351 -0.1741  0.3487  0.5262
 6982SOL     OW32407   0.094   1.279   6.403 -0.2143  0.0040 -0.1388
 6982SOL    HW132408   0.039   1.296   6.326 -1.3405 -0.5150  0.5428
 6982SOL    HW232409   0.183   1.296   6.372 -0.4558  1.6266  0.0568
 6983SOL     OW32410   3.785   0.919  11.142 -0.1019  0.3310  0.3208
 6983SOL    HW132411   3.837   0.990  11.180  2.7507 -0.8438 -1.3738
 6983SOL    HW232412   3.726   0.961  11.078 -1.7582 -1.4160  0.7105
 6984SOL     OW32413   4.177   3.228   2.292 -0.7093 -0.2057  0.0776
 6984SOL    HW132414   4.231   3.158   2.256  0.5999  0.1329  1.3722
 6984SOL    HW232415   4.135   3.187   2.368  0.7301 -1.2077  0.3322
 6985SOL     OW32416   2.471   0.896  12.752 -0.0128 -0.3861  0.0848
 6985SOL    HW132417   2.408   0.965  12.775 -0.3788 -0.1728 -1.5964
 6985SOL    HW232418   2.477   0.850  12.836  1.0965  0.2818  0.3798
 6986SOL     OW32419   4.098   1.522   2.781  0.4379  1.0469 -0.1519
 6986SOL    HW132420   4.170   1.458   2.785  2.5171  3.4540  0.7197
 6986SOL    HW232421   4.049   1.516   2.863 -1.2749 -1.9626 -1.4005
 6987SOL     OW32422   0.432   4.321  14.166  0.0385 -0.9893  0.5872
 6987SOL    HW132423   0.435   4.226  14.161  2.8578 -0.8141 -1.1022
 6987SOL    HW232424   0.482   4.330  14.247 -1.3045  0.6559  1.2381
 6988SOL     OW32425   1.828   1.059  15.494 -0.3039  0.4618 -0.0061
 6988SOL    HW132426   1.759   1.114  15.533 -0.9795 -0.7345  0.5127
 6988SOL    HW232427   1.779   0.977  15.485  0.4651 -0.0342  0.3406
 6989SOL     OW32428   0.409   2.386   2.365 -0.3694 -0.1421 -0.2278
 6989SOL    HW132429   0.385   2.341   2.446 -0.1752  2.4864  1.3123
 6989SOL    HW232430   0.498   2.420   2.378 -0.5837  0.9962 -1.7212
 6990SOL     OW32431   1.146   3.646   5.182  0.6280  0.1755 -0.2798
 6990SOL    HW132432   1.097   3.606   5.254  1.5932  0.6290  0.6366
 6990SOL    HW232433   1.089   3.721   5.167  0.3280  0.2415  1.1958
 6991SOL     OW32434   0.502   2.288   3.645 -0.5761  0.1111 -0.1877
 6991SOL    HW132435   0.500   2.384   3.649  1.9574  0.2307 -1.6796
 6991SOL    HW232436   0.503   2.274   3.740  1.1193 -2.9585 -0.6646
 6992SOL     OW32437   1.749   2.415   4.608  0.3211  0.1973  0.4135
 6992SOL    HW132438   1.675   2.434   4.551  0.8828  1.2073  0.0313
 6992SOL    HW232439   1.816   2.475   4.574  0.3487 -0.3358 -0.4733
 6993SOL     OW32440   3.720   0.610   1.282  0.0119  0.5017 -0.0338
 6993SOL    HW132441   3.636   0.592   1.241  0.4582 -0.7849 -0.3677
 6993SOL    HW232442   3.689   0.685   1.332  0.4237  1.4010 -1.1118
 6994SOL     OW32443   3.212   2.541   2.757  0.0305 -0.3555 -0.0748
 6994SOL    HW132444   3.160   2.497   2.689 -0.7549  0.2778  0.1137
 6994SOL    HW232445   3.245   2.606   2.694 -1.7452 -0.9496 -1.6394
 6995SOL     OW32446   1.928   2.985  15.994  0.1518  0.2647 -0.4121
 6995SOL    HW132447   1.911   3.068  16.039 -0.4667 -0.3121  0.4160
 6995SOL    HW232448   1.955   2.934  16.071 -2.0699 -0.3400 -0.0382
 6996SOL     OW32449   3.969   3.666  17.245  0.8883 -0.8131 -0.0241
 6996SOL    HW132450   3.911   3.709  17.182 -0.2175 -1.6029  0.4549
 6996SOL    HW232451   3.905   3.643  17.312  1.2402 -0.9747  0.2554
 6997SOL     OW32452   4.389   0.921   4.592  0.2534  0.1042 -0.6650
 6997SOL    HW132453   4.340   0.910   4.673 -0.4229 -0.4749 -1.1505
 6997SOL    HW232454   4.339   0.999   4.568  1.5469  1.7257  1.9251
 6998SOL     OW32455   2.494   0.470  11.583  0.2848  0.6629 -0.1605
 6998SOL    HW132456   2.459   0.517  11.659 -0.0743 -1.4679  0.9907
 6998SOL    HW232457   2.493   0.383  11.624 -3.6392  1.2127  0.9601
 6999SOL     OW32458   3.200   0.941  15.971 -0.0119 -0.2037  0.1373
 6999SOL    HW132459   3.191   0.887  16.049 -1.5955  1.7978  1.3456
 6999SOL    HW232460   3.156   0.882  15.911  0.5449 -0.4774 -0.0050
 7000SOL     OW32461   3.563   0.303   3.182  0.0830 -0.4928  0.7346
 7000SOL    HW132462   3.485   0.319   3.130  1.1451 -0.2480 -0.7943
 7000SOL    HW232463   3.573   0.208   3.184  3.5542 -0.1203  1.3097
 7001SOL     OW32464   3.689   1.447  15.434 -0.3561 -0.1461  0.1278
 7001SOL    HW132465   3.755   1.379  15.450 -1.0446 -0.6246  0.9113
 7001SOL    HW232466   3.619   1.399  15.478  0.1871 -0.6523  0.4484
 7002SOL     OW32467   3.740   3.522   5.449 -0.2853 -0.9309 -0.6157
 7002SOL    HW132468   3.812   3.577   5.481 -1.3677  0.0646  0.1215
 7002SOL    HW232469   3.669   3.575   5.486  2.1265  1.4982  0.5302
 7003SOL     OW32470   0.478   4.090   6.861 -0.3240  0.0684 -0.3300
 7003SOL    HW132471   0.406   4.051   6.812  0.0894  0.5163 -1.2948
 7003SOL    HW232472   0.524   4.014   6.896 -0.3308 -0.5775 -1.7470
 7004SOL     OW32473   4.101   0.239   1.479 -0.0024 -0.0670 -0.3117
 7004SOL    HW132474   4.044   0.317   1.479 -0.2904 -0.2763 -1.0929
 7004SOL    HW232475   4.051   0.181   1.422  0.8917 -1.5046  0.3773
 7005SOL     OW32476   1.040   4.226  14.883 -0.2541 -0.3485  0.6873
 7005SOL    HW132477   1.004   4.261  14.802  0.4636  1.9809  1.3737
 7005SOL    HW232478   1.083   4.148  14.847 -1.1858  0.2468 -1.7135
 7006SOL     OW32479   1.448   0.716   6.246 -0.1261  0.1482  0.0567
 7006SOL    HW132480   1.537   0.722   6.212  0.6285 -2.0282  1.6318
 7006SOL    HW232481   1.396   0.767   6.183 -1.4068  0.6634  1.5280
 7007SOL     OW32482   4.304   1.157   7.557  0.4062  0.0404  0.3372
 7007SOL    HW132483   4.328   1.172   7.465 -2.4385 -2.1318 -0.7509
 7007SOL    HW232484   4.360   1.228   7.588  0.1542  1.2338 -1.8944
 7008SOL     OW32485   2.168   2.168  14.535  0.5797  0.0271 -0.1231
 7008SOL    HW132486   2.171   2.170  14.631  0.9812  0.3292 -0.1400
 7008SOL    HW232487   2.255   2.130  14.521  0.8074  0.4697  0.0821
 7009SOL     OW32488   1.059   0.331   3.332 -0.1943  0.7236 -0.3437
 7009SOL    HW132489   1.050   0.263   3.265  0.0133  1.8261 -1.5111
 7009SOL    HW232490   1.085   0.271   3.402  0.3478  1.3657  0.0098
 7010SOL     OW32491   4.348   0.184   2.057 -0.2738  0.3846  0.3144
 7010SOL    HW132492   4.418   0.164   2.119  0.7116 -0.8153 -1.1845
 7010SOL    HW232493   4.346   0.279   2.071 -1.0429  0.2283  1.2253
 7011SOL     OW32494   2.752   1.366   3.511  0.1719 -0.1363  0.0440
 7011SOL    HW132495   2.689   1.368   3.439  0.2389 -1.1643 -0.0363
 7011SOL    HW232496   2.748   1.459   3.536  2.0847  0.6968 -2.7824
 7012SOL     OW32497   1.038   2.819   2.706  0.5906 -0.2558  0.0438
 7012SOL    HW132498   0.944   2.801   2.702  0.4159  0.5373  0.4629
 7012SOL    HW232499   1.042   2.910   2.735  1.9028 -0.4926  0.5909
 7013SOL     OW32500   2.673   3.228   4.201  0.1592  0.0866  0.1002
 7013SOL    HW132501   2.682   3.295   4.269  0.9957  1.5627 -1.5018
 7013SOL    HW232502   2.728   3.269   4.135 -0.2173  0.9523  0.3217
 7014SOL     OW32503   2.294   3.675   2.391 -0.2733 -0.0195  0.1170
 7014SOL    HW132504   2.306   3.747   2.329  0.0834 -1.0962 -1.0623
 7014SOL    HW232505   2.353   3.605   2.365  1.3452  0.6792  1.8936
 7015SOL     OW32506   0.573   4.198  11.954 -0.5400 -0.5249  0.1308
 7015SOL    HW132507   0.656   4.156  11.977 -0.3028 -0.7276 -1.0709
 7015SOL    HW232508   0.552   4.251  12.031  2.2445  1.3880 -0.4160
 7016SOL     OW32509   3.458   0.960   8.308 -0.4711  0.4022 -0.9174
 7016SOL    HW132510   3.372   1.001   8.318  0.7260  1.9133  3.2424
 7016SOL    HW232511   3.485   1.023   8.241  1.5650  0.3219 -0.1733
 7017SOL     OW32512   0.462   1.093   6.918 -0.1710 -0.0863  0.0093
 7017SOL    HW132513   0.387   1.135   6.877 -1.0634 -0.6398  1.0638
 7017SOL    HW232514   0.452   0.999   6.899  0.4658 -0.0840 -0.3507
 7018SOL     OW32515   1.521   1.038   6.379  0.5067 -0.1619 -0.8130
 7018SOL    HW132516   1.445   1.088   6.411  0.3729 -0.2510 -0.9953
 7018SOL    HW232517   1.524   1.071   6.289 -0.9591 -1.1127 -1.1984
 7019SOL     OW32518   1.204   3.155   9.222  0.6418  0.0870  0.5003
 7019SOL    HW132519   1.192   3.176   9.315  1.2008  1.2370  0.3184
 7019SOL    HW232520   1.261   3.225   9.189 -0.6817  0.4753 -0.9128
 7020SOL     OW32521   3.555   3.671   6.729 -0.1984 -0.0387 -0.3191
 7020SOL    HW132522   3.630   3.637   6.777  0.8691 -0.8520 -2.5606
 7020SOL    HW232523   3.478   3.631   6.770 -1.6683  2.6364 -0.4953
 7021SOL     OW32524   0.465   2.675  13.845 -0.1746  0.4259  0.6786
 7021SOL    HW132525   0.548   2.679  13.893 -0.2398 -1.0663  0.8983
 7021SOL    HW232526   0.394   2.679  13.909 -0.0020 -2.6018  1.0428
 7022SOL     OW32527   0.111   3.346   4.324 -0.0209 -0.8999  0.8617
 7022SOL    HW132528   0.202   3.351   4.353 -0.2236 -0.6063  1.4480
 7022SOL    HW232529   0.066   3.371   4.405  0.7398 -0.0347  1.0132
 7023SOL     OW32530   2.110   4.471   3.164  0.0925  0.0018  0.2771
 7023SOL    HW132531   2.098   4.537   3.096  1.8997 -1.8055 -1.7881
 7023SOL    HW232532   2.022   4.459   3.199 -0.4688  2.9304 -0.2002
 7024SOL     OW32533   2.736   2.273  14.293 -0.0632 -0.1697  0.1326
 7024SOL    HW132534   2.642   2.263  14.277 -0.0887  1.4288 -0.7203
 7024SOL    HW232535   2.732   2.282  14.388 -1.8999  1.3150 -0.0773
 7025SOL     OW32536   1.944   1.659   4.591 -0.0502  0.5140 -0.2737
 7025SOL    HW132537   1.925   1.739   4.543 -0.6552 -0.6804 -2.0217
 7025SOL    HW232538   1.861   1.612   4.595 -0.5101  1.2224 -1.5446
 7026SOL     OW32539   3.341   2.157  17.535  0.3526 -0.4137 -0.0036
 7026SOL    HW132540   3.348   2.252  17.549  0.0700 -0.5011  0.7156
 7026SOL    HW232541   3.253   2.150  17.498  0.9486  1.6937 -1.8319
 7027SOL     OW32542   1.588   2.461  11.457 -0.3378 -0.2548 -0.2097
 7027SOL    HW132543   1.626   2.399  11.395  1.4454 -0.5048  1.1223
 7027SOL    HW232544   1.499   2.425  11.457 -0.8206  0.9380  2.6647
 7028SOL     OW32545   4.418   3.613   4.424  0.3648  0.5197 -0.3163
 7028SOL    HW132546   4.413   3.518   4.416 -1.2106  0.6706 -1.0818
 7028SOL    HW232547   4.481   3.639   4.491  1.2875 -1.1277 -0.5613
 7029SOL     OW32548   3.786   0.218   9.677  0.2251  0.3762 -0.0884
 7029SOL    HW132549   3.705   0.197   9.724  0.7365  0.6105  0.8893
 7029SOL    HW232550   3.848   0.189   9.744  0.0101 -0.2759 -0.1711
 7030SOL     OW32551   4.131   2.897  14.038  0.0407  0.6894  0.7128
 7030SOL    HW132552   4.195   2.955  13.998 -1.2454  1.0352 -0.8256
 7030SOL    HW232553   4.161   2.813  14.004 -1.2116  0.3650  0.4064
 7031SOL     OW32554   4.595   4.637  16.062 -0.2913  0.1930  0.2050
 7031SOL    HW132555   4.639   4.552  16.056  0.7424  0.8620 -1.9277
 7031SOL    HW232556   4.511   4.608  16.028  0.4445 -1.4393 -0.1864
 7032SOL     OW32557   3.495   4.665  14.781  0.1410  0.1481  0.4794
 7032SOL    HW132558   3.497   4.634  14.691 -0.1276  2.4934 -0.3304
 7032SOL    HW232559   3.505   0.038  14.759  2.9786  0.4172  2.7863
 7033SOL     OW32560   0.887   4.132  10.457 -0.4950  0.0027 -0.0006
 7033SOL    HW132561   0.954   4.067  10.478  0.6767  0.3010 -2.8281
 7033SOL    HW232562   0.949   4.202  10.436  0.8763 -1.1314  0.2898
 7034SOL     OW32563   1.595   0.017   8.876  0.8167 -0.1292 -0.2074
 7034SOL    HW132564   1.606   4.702   8.788 -1.5339  1.0131 -0.9701
 7034SOL    HW232565   1.500   0.006   8.877  1.0251 -1.6310  1.6020
 7035SOL     OW32566   4.519   1.557   6.189  0.1078 -0.2533 -0.5123
 7035SOL    HW132567   4.580   1.630   6.189 -1.2425  0.8711 -0.0071
 7035SOL    HW232568   4.456   1.580   6.257  0.1269 -0.5309 -0.3992
 7036SOL     OW32569   1.639   0.615   7.818 -0.3259  0.2603 -0.4410
 7036SOL    HW132570   1.588   0.657   7.748  0.5473 -2.3121 -2.6376
 7036SOL    HW232571   1.623   0.521   7.815  0.0566  0.0803  3.0699
 7037SOL     OW32572   1.412   3.601   4.574 -0.6380  0.1359 -0.7063
 7037SOL    HW132573   1.360   3.552   4.510 -1.1405  1.1596 -1.0752
 7037SOL    HW232574   1.351   3.661   4.617 -3.2427 -1.9991 -1.3833
 7038SOL     OW32575   4.472   0.561   1.983  0.2326 -0.2525  0.2476
 7038SOL    HW132576   4.456   0.624   1.912  0.3995  0.5409  0.9162
 7038SOL    HW232577   4.468   0.479   1.933  0.6354 -0.4002  0.4594
 7039SOL     OW32578   2.730   2.016   1.432 -0.7354  0.1536 -0.0393
 7039SOL    HW132579   2.721   1.922   1.420 -0.1180 -0.1360  1.7613
 7039SOL    HW232580   2.647   2.052   1.400 -0.4774  0.9052  0.1320
 7040SOL     OW32581   0.882   0.002   9.189  0.3732  0.1990  0.0368
 7040SOL    HW132582   0.832   4.670   9.252  0.8394  0.2923  0.4822
 7040SOL    HW232583   0.839   0.088   9.193 -0.2053 -0.0460 -0.8972
 7041SOL     OW32584   4.279   2.857   0.604  0.1433 -0.0770 -0.0532
 7041SOL    HW132585   4.297   2.848   0.510  3.4667 -0.4054  0.6356
 7041SOL    HW232586   4.214   2.787   0.612 -0.3500  0.0859 -2.5808
 7042SOL     OW32587   2.421   1.114   3.040 -0.1935  0.7958  0.1732
 7042SOL    HW132588   2.447   1.071   3.122 -2.4158 -0.6916  0.1005
 7042SOL    HW232589   2.336   1.071   3.028 -0.6294  2.0437 -1.0772
 7043SOL     OW32590   4.093   1.072   1.580  0.2707  0.0942 -0.3397
 7043SOL    HW132591   4.069   0.996   1.633 -0.3534  1.2569  1.0791
 7043SOL    HW232592   4.152   1.118   1.640  0.2648 -1.3132  0.7413
 7044SOL     OW32593   3.322   0.557   1.932 -0.2877  0.1948  0.3294
 7044SOL    HW132594   3.401   0.571   1.880  1.1540 -1.3217  2.1375
 7044SOL    HW232595   3.254   0.608   1.888 -0.4675  0.3359  0.7681
 7045SOL     OW32596   1.956   1.312   4.884 -0.4983 -0.1484 -0.5577
 7045SOL    HW132597   2.041   1.269   4.879  1.3425  3.1248  2.4457
 7045SOL    HW232598   1.976   1.403   4.859 -0.4263 -0.2299 -0.7931
 7046SOL     OW32599   0.635   3.126  13.026 -0.6558 -0.2602  0.8187
 7046SOL    HW132600   0.648   3.084  12.941  1.1399  1.9645  0.0051
 7046SOL    HW232601   0.563   3.184  13.000 -2.1587 -2.2257  0.5944
 7047SOL     OW32602   2.245   3.859   4.180  0.5106 -0.4539 -0.5367
 7047SOL    HW132603   2.288   3.943   4.193  0.6943 -0.4192 -1.3736
 7047SOL    HW232604   2.162   3.904   4.162  0.6114 -1.0339 -2.4948
 7048SOL     OW32605   2.405   1.299   3.337  0.5460 -0.1098 -0.0787
 7048SOL    HW132606   2.326   1.289   3.389  0.6989 -1.0627 -0.0316
 7048SOL    HW232607   2.455   1.219   3.355  0.1208 -0.8712 -2.3171
 7049SOL     OW32608   0.432   0.926  13.281  0.5108  0.7644  0.7807
 7049SOL    HW132609   0.348   0.881  13.284  1.1712 -0.5796 -0.5327
 7049SOL    HW232610   0.466   0.924  13.370  1.4405 -0.5317  0.3930
 7050SOL     OW32611   0.999   1.861   8.266  0.3282 -0.3443 -0.0059
 7050SOL    HW132612   1.073   1.922   8.257  0.7986 -1.4512 -3.3189
 7050SOL    HW232613   0.928   1.923   8.287  2.0181  1.0587  1.5977
 7051SOL     OW32614   2.743   3.841   7.182  0.5012 -0.4670  0.3073
 7051SOL    HW132615   2.755   3.935   7.176 -1.9078 -0.1655  0.2027
 7051SOL    HW232616   2.752   3.806   7.094  0.6282  1.9798 -0.6516
 7052SOL     OW32617   2.131   1.116   6.734  0.1280  0.7046  0.6924
 7052SOL    HW132618   2.077   1.087   6.807  1.6542  2.4232  2.5325
 7052SOL    HW232619   2.120   1.211   6.739  0.5916  0.8687 -1.5797
 7053SOL     OW32620   0.609   1.025   5.209  0.0836  0.4971 -0.6787
 7053SOL    HW132621   0.632   0.933   5.221  0.0376  0.5959  0.1873
 7053SOL    HW232622   0.676   1.055   5.148 -0.1666 -2.6183 -2.4625
 7054SOL     OW32623   0.702   3.758  11.242 -0.3568 -0.2676  0.4177
 7054SOL    HW132624   0.679   3.683  11.187 -0.5646 -1.1859  1.7514
 7054SOL    HW232625   0.619   3.762  11.290 -0.0474  0.3952  0.8881
 7055SOL     OW32626   2.115   0.623   4.437  0.5345 -0.0636 -0.2526
 7055SOL    HW132627   2.057   0.552   4.464  2.0690 -0.9476  0.7518
 7055SOL    HW232628   2.189   0.579   4.397 -0.2090  1.0482 -2.8342
 7056SOL     OW32629   3.317   0.215   2.513  0.3584  0.2758  0.5650
 7056SOL    HW132630   3.402   0.255   2.496  1.3338 -1.8813  0.3508
 7056SOL    HW232631   3.269   0.244   2.435  1.2270  1.1752  0.3620
 7057SOL     OW32632   3.750   3.994   2.658 -0.2257 -0.0033  0.6103
 7057SOL    HW132633   3.823   3.956   2.706  0.1723 -1.4411 -1.1016
 7057SOL    HW232634   3.765   3.945   2.577  0.5889  1.2538  0.0064
 7058SOL     OW32635   2.521   0.422  15.797  0.3392  0.0081 -0.4763
 7058SOL    HW132636   2.602   0.469  15.779 -0.2447 -0.0045 -3.0448
 7058SOL    HW232637   2.510   0.377  15.714  0.0571 -0.2074 -0.3225
 7059SOL     OW32638   3.128   2.948   3.143 -0.8081 -0.3240  0.4863
 7059SOL    HW132639   3.098   2.876   3.199  1.5887 -1.1531  0.7032
 7059SOL    HW232640   3.215   2.970   3.176 -1.3410  0.5066  1.3319
 7060SOL     OW32641   1.845   3.800  11.818  0.4870 -0.5020 -0.2170
 7060SOL    HW132642   1.776   3.805  11.752  0.1088  0.6401  0.2812
 7060SOL    HW232643   1.870   3.891  11.826  1.5347 -0.7541 -0.6760
 7061SOL     OW32644   3.258   0.400   2.331  0.3865 -0.8533  0.4370
 7061SOL    HW132645   3.342   0.441   2.350  1.2506 -1.9915 -0.9633
 7061SOL    HW232646   3.196   0.449   2.385  1.1546  0.4343  0.1400
 7062SOL     OW32647   0.823   0.456   6.890 -0.4125 -0.0584  0.3550
 7062SOL    HW132648   0.876   0.532   6.915 -0.5753  0.4025 -0.7081
 7062SOL    HW232649   0.794   0.446   6.981  1.5747 -1.2879  0.8528
 7063SOL     OW32650   2.961   2.923   6.458 -0.5686  0.0120 -0.0807
 7063SOL    HW132651   3.022   2.850   6.471 -1.4486 -0.7871 -0.3920
 7063SOL    HW232652   2.990   2.992   6.518 -3.2823  2.0815 -1.1794
 7064SOL     OW32653   2.417   2.334   4.591 -0.2401  0.1456  0.9484
 7064SOL    HW132654   2.439   2.279   4.516  0.7035 -0.7060  1.8414
 7064SOL    HW232655   2.322   2.338   4.598 -0.4743 -1.0875 -1.4931
 7065SOL     OW32656   2.896   2.184   1.564  0.0994 -0.0151 -0.4289
 7065SOL    HW132657   2.851   2.109   1.525  0.3310  1.0162 -2.7212
 7065SOL    HW232658   2.984   2.150   1.574 -0.0663 -0.2660  0.1593
 7066SOL     OW32659   1.639   2.155   4.198 -0.2039  0.2533 -0.2891
 7066SOL    HW132660   1.612   2.172   4.288 -0.0227  1.0761 -0.3862
 7066SOL    HW232661   1.590   2.074   4.182 -0.6364  0.7083 -1.2808
 7067SOL     OW32662   3.655   1.930   2.181 -0.0589  0.4935  0.5934
 7067SOL    HW132663   3.696   2.017   2.187  1.1019 -0.0078 -0.0415
 7067SOL    HW232664   3.724   1.878   2.139 -0.3409 -0.3423  1.1617
 7068SOL     OW32665   3.044   1.669  14.749 -0.3799 -0.2534 -0.5607
 7068SOL    HW132666   3.023   1.580  14.776 -1.1883 -0.1884 -0.9629
 7068SOL    HW232667   2.955   1.704  14.762  0.8378  2.7091 -0.0710
 7069SOL     OW32668   2.210   2.270   1.164 -0.2687  0.0654 -0.1317
 7069SOL    HW132669   2.196   2.336   1.096  0.9121  0.3268 -0.1193
 7069SOL    HW232670   2.130   2.286   1.214 -0.1704 -0.6879  0.2668
 7070SOL     OW32671   3.380   0.172  16.713 -0.3465 -0.0852  0.3272
 7070SOL    HW132672   3.431   0.108  16.763  1.5052  0.1234 -1.2829
 7070SOL    HW232673   3.443   0.206  16.649 -0.2875  1.1436  1.0505
 7071SOL     OW32674   1.028   0.043   8.134  0.1250  0.2296  0.0558
 7071SOL    HW132675   0.950   0.090   8.164  0.0317  0.6458 -0.8431
 7071SOL    HW232676   1.062   0.016   8.220  3.0869  0.7530 -0.9386
 7072SOL     OW32677   1.101   0.951   1.403 -0.1962  0.2176  0.7429
 7072SOL    HW132678   1.057   0.902   1.334  2.5683  0.4028 -1.1067
 7072SOL    HW232679   1.176   0.994   1.363 -0.1651 -1.1896 -0.6884
 7073SOL     OW32680   1.965   3.606   3.520  0.2682  0.4078  0.6927
 7073SOL    HW132681   1.946   3.640   3.433 -0.6146  1.4753  1.3057
 7073SOL    HW232682   2.056   3.634   3.533  0.5791 -0.3719  0.2305
 7074SOL     OW32683   1.053   3.286   5.859  0.7518  0.3455 -0.3260
 7074SOL    HW132684   1.133   3.292   5.911  1.2757  1.5672 -1.2717
 7074SOL    HW232685   1.094   3.227   5.795  1.3981 -0.0286  0.4300
 7075SOL     OW32686   2.916   2.895  14.806 -0.3693  0.3081 -0.3079
 7075SOL    HW132687   2.874   2.868  14.724  0.2246  0.3533 -0.6272
 7075SOL    HW232688   2.841   2.900  14.865 -0.0734  0.0441  0.0913
 7076SOL     OW32689   4.273   2.542   1.614 -0.2020  0.3993  0.4243
 7076SOL    HW132690   4.363   2.528   1.582 -0.3144 -0.8433  0.6440
 7076SOL    HW232691   4.235   2.473   1.559 -0.1681 -1.2722  2.5140
 7077SOL     OW32692   2.249   2.817   3.195 -0.4610  1.0022  0.0594
 7077SOL    HW132693   2.231   2.910   3.178 -2.3003  0.6180 -0.0813
 7077SOL    HW232694   2.216   2.780   3.113 -1.1527  0.0631  0.7548
 7078SOL     OW32695   3.781   1.425   3.737 -0.6026  0.4217 -0.1803
 7078SOL    HW132696   3.720   1.354   3.755  1.7970 -0.7761  3.2234
 7078SOL    HW232697   3.816   1.433   3.826  1.1603 -2.1940 -0.6316
 7079SOL     OW32698   4.576   1.135   0.808  0.7045 -0.8523  0.0515
 7079SOL    HW132699   4.543   1.164   0.893  0.1375  0.5393 -0.6446
 7079SOL    HW232700   4.513   1.163   0.742  1.5938  0.6178 -0.1573
 7080SOL     OW32701   1.223   3.888   0.061 -0.3140  0.3181 -0.0589
 7080SOL    HW132702   1.152   3.940   0.098 -0.4531  1.1826 -1.5702
 7080SOL    HW232703   1.175   3.824   0.008 -0.6278  0.4888  0.0246
 7081SOL     OW32704   0.860   1.984   1.313  0.5580  0.5340 -0.2807
 7081SOL    HW132705   0.878   1.958   1.403  0.9620  0.0888 -0.4852
 7081SOL    HW232706   0.883   1.908   1.259  1.6909 -0.7377  2.0361
 7082SOL     OW32707   0.134   3.481   5.349  0.1329 -0.1569 -0.0329
 7082SOL    HW132708   0.140   3.575   5.333  0.0905 -0.0230  0.7133
 7082SOL    HW232709   0.227   3.461   5.337  0.3080 -0.2551  1.4398
 7083SOL     OW32710   0.442   4.352  12.143  0.7822  0.4130  0.6248
 7083SOL    HW132711   0.450   4.352  12.238 -1.8318 -0.4019  0.8634
 7083SOL    HW232712   0.475   4.438  12.121 -0.7570 -0.0359 -3.4772
 7084SOL     OW32713   0.287   4.717  15.390  0.5580 -0.0500  0.7243
 7084SOL    HW132714   0.315   4.633  15.426 -3.5109 -1.0851  1.5426
 7084SOL    HW232715   0.279   0.047  15.471  2.5748  1.6767 -0.1201
 7085SOL     OW32716   1.765   3.432  16.709 -0.7512 -0.2618 -0.4172
 7085SOL    HW132717   1.750   3.388  16.793 -2.4252 -1.2722 -1.2394
 7085SOL    HW232718   1.766   3.521  16.743 -1.1802 -0.0149 -1.0356
 7086SOL     OW32719   2.494   0.253  11.237 -0.2023 -0.1351  0.7526
 7086SOL    HW132720   2.530   0.279  11.152 -0.2875  1.1212  1.1003
 7086SOL    HW232721   2.446   0.173  11.216 -0.3647 -0.0437  0.7724
 7087SOL     OW32722   1.668   0.416  13.948 -0.7679  0.2607 -0.2941
 7087SOL    HW132723   1.636   0.495  13.991 -0.6183  0.2689 -0.1981
 7087SOL    HW232724   1.720   0.452  13.877 -1.9867  1.4282 -0.6044
 7088SOL     OW32725   1.126   2.075   2.224 -0.2332  0.3426 -0.7310
 7088SOL    HW132726   1.149   1.988   2.256  0.2396  0.4016 -0.9092
 7088SOL    HW232727   1.177   2.105   2.149  0.2168 -3.2003 -1.8405
 7089SOL     OW32728   1.413   2.778   6.204 -0.0887 -0.3631 -0.0738
 7089SOL    HW132729   1.378   2.692   6.228  0.3763 -1.3682 -2.9710
 7089SOL    HW232730   1.489   2.768   6.261 -0.7660 -0.6035  0.7970
 7090SOL     OW32731   0.801   1.403   0.803  0.0551  0.0751  0.1973
 7090SOL    HW132732   0.887   1.434   0.833 -0.1549  1.3822 -0.5406
 7090SOL    HW232733   0.751   1.484   0.795  1.4255  0.9587  0.5711
 7091SOL     OW32734   1.852   2.393   8.474 -0.6413  0.1958  0.8282
 7091SOL    HW132735   1.773   2.395   8.420  1.2921  1.1103 -1.9676
 7091SOL    HW232736   1.882   2.483   8.483  2.2415 -0.6351 -0.3103
 7092SOL     OW32737   3.208   0.076   1.582  0.5253  0.6884 -0.2466
 7092SOL    HW132738   3.245   0.144   1.638 -2.2224  1.3011  0.7942
 7092SOL    HW232739   3.191   0.013   1.651 -1.0130  0.8071 -0.5133
 7093SOL     OW32740   0.220   0.867   3.451 -0.3010  0.0415  0.3034
 7093SOL    HW132741   0.192   0.844   3.539  0.6685  0.6059  0.7586
 7093SOL    HW232742   0.147   0.917   3.414 -1.0206  0.2166  1.9590
 7094SOL     OW32743   2.907   3.931   5.763 -0.3144 -0.5852 -0.0072
 7094SOL    HW132744   2.979   3.927   5.826 -1.3213  1.4667  1.2737
 7094SOL    HW232745   2.949   3.929   5.678 -3.2361  0.2907 -1.4735
 7095SOL     OW32746   3.262   4.306   1.418  0.4180 -0.2074  0.5326
 7095SOL    HW132747   3.237   4.317   1.510 -1.4761  0.6580 -0.0853
 7095SOL    HW232748   3.212   4.226   1.405  0.3923 -0.1162  0.0632
 7096SOL     OW32749   4.623   1.732   6.974  0.2089 -0.1574 -0.3942
 7096SOL    HW132750   4.554   1.690   6.924 -1.9923  1.7762  1.0276
 7096SOL    HW232751   4.618   1.681   7.055 -0.7504 -0.7765 -0.8409
 7097SOL     OW32752   2.171   1.484   8.726  0.5587  0.1527 -0.1435
 7097SOL    HW132753   2.253   1.437   8.711  1.7999  2.0731  0.5506
 7097SOL    HW232754   2.123   1.412   8.766 -0.1248  1.4242  1.3335
 7098SOL     OW32755   0.737   4.237   2.186 -1.2603 -0.0583  0.3165
 7098SOL    HW132756   0.799   4.165   2.178 -2.1085 -0.3467 -3.3474
 7098SOL    HW232757   0.681   4.196   2.252 -0.3525 -1.0523  0.4681
 7099SOL     OW32758   4.014   2.803  15.923 -0.3007 -0.2733 -0.0906
 7099SOL    HW132759   4.063   2.764  15.850 -1.4964 -1.9740  0.0230
 7099SOL    HW232760   4.061   2.775  16.002 -1.5197 -0.2103  0.6604
 7100SOL     OW32761   0.985   3.177  15.831  0.0433 -0.4403 -0.1495
 7100SOL    HW132762   0.911   3.118  15.824 -0.2487 -0.0843 -0.0344
 7100SOL    HW232763   1.056   3.119  15.857  1.3798  1.2871  0.0967
 7101SOL     OW32764   1.042   2.179   1.291  0.6203  0.6227  0.1542
 7101SOL    HW132765   1.109   2.147   1.351  0.7292  0.1085 -0.2418
 7101SOL    HW232766   0.967   2.123   1.310  2.1263 -1.4074  0.1245
 7102SOL     OW32767   1.123   2.146   8.829  0.3487 -0.0645  0.1864
 7102SOL    HW132768   1.191   2.124   8.893 -1.1376 -1.4371  1.2831
 7102SOL    HW232769   1.176   2.162   8.751  1.7341 -0.8883  0.9528
 7103SOL     OW32770   3.915   3.005  14.699  0.5259 -0.0418 -0.2911
 7103SOL    HW132771   3.935   3.095  14.671  1.2012  0.6714  2.5048
 7103SOL    HW232772   3.964   2.960  14.630  0.4938  0.0666 -0.3851
 7104SOL     OW32773   1.186   1.044  10.585 -0.3742 -0.0100  0.2567
 7104SOL    HW132774   1.143   0.986  10.647  0.7720 -0.4797  0.6140
 7104SOL    HW232775   1.146   1.129  10.604 -0.0617  0.4780 -1.2239
 7105SOL     OW32776   4.110   0.446   8.502  0.2994  0.0693  0.8231
 7105SOL    HW132777   4.105   0.392   8.424 -1.9943 -0.3565  1.2691
 7105SOL    HW232778   4.077   0.528   8.465 -0.4251  0.4210  2.2347
 7106SOL     OW32779   2.595   3.641  15.281 -0.4169  0.5643 -0.0163
 7106SOL    HW132780   2.679   3.600  15.302 -1.6042 -2.6157 -1.4702
 7106SOL    HW232781   2.541   3.569  15.247 -1.5699  1.6359 -0.4555
 7107SOL     OW32782   1.254   3.640   3.184 -0.2136  0.6319  0.6022
 7107SOL    HW132783   1.236   3.580   3.256 -1.2246  0.6358  0.3642
 7107SOL    HW232784   1.174   3.646   3.131  0.9718  2.8194 -0.9340
 7108SOL     OW32785   3.012   1.969   4.460  0.3783 -0.7109 -0.1527
 7108SOL    HW132786   3.099   1.960   4.421  0.5507  2.2626 -0.4518
 7108SOL    HW232787   2.996   2.063   4.458 -0.9069 -0.9407 -0.3529
 7109SOL     OW32788   2.358   1.574   4.721  0.4349  0.1851 -0.1874
 7109SOL    HW132789   2.397   1.542   4.640  1.9815  1.9267 -0.1275
 7109SOL    HW232790   2.404   1.519   4.785  0.7297 -1.2386 -1.6372
 7110SOL     OW32791   0.684   2.852  10.240 -0.2376 -0.1472 -0.2567
 7110SOL    HW132792   0.601   2.839  10.193  1.0069 -1.0797 -2.1647
 7110SOL    HW232793   0.740   2.818  10.171 -0.6721  0.7363 -1.0433
 7111SOL     OW32794   3.032   3.987  11.110 -0.5532 -0.2480  0.9482
 7111SOL    HW132795   3.046   4.072  11.151 -0.1548  0.8933 -1.5143
 7111SOL    HW232796   3.034   4.012  11.017  2.2325  2.4637  1.7664
 7112SOL     OW32797   1.390   3.676   0.153  0.0602 -0.0239  0.1175
 7112SOL    HW132798   1.324   3.665   0.221 -0.1648  1.8136  0.1934
 7112SOL    HW232799   1.342   3.738   0.098 -1.4209  0.9532  2.4946
 7113SOL     OW32800   2.756   1.420   1.773  0.2425 -0.2646 -0.1303
 7113SOL    HW132801   2.777   1.435   1.865  1.0354  2.4681 -0.7564
 7113SOL    HW232802   2.705   1.339   1.776  0.3943 -0.3871 -0.9066
 7114SOL     OW32803   3.896   0.593  17.330 -0.0664  0.9130  0.0839
 7114SOL    HW132804   3.841   0.514  17.325  0.0104  0.8413  0.3763
 7114SOL    HW232805   3.854   0.644  17.399 -2.4320 -0.5783 -0.2584
 7115SOL     OW32806   2.647   4.197   8.036 -0.5326 -0.2412 -0.4248
 7115SOL    HW132807   2.571   4.232   8.083 -0.7226 -1.8265  0.4777
 7115SOL    HW232808   2.607   4.123   7.990  1.3718 -2.0550  0.8257
 7116SOL     OW32809   3.808   0.720   4.332  0.3737 -0.5536  0.4236
 7116SOL    HW132810   3.845   0.632   4.344  0.0210 -0.5836  1.3384
 7116SOL    HW232811   3.718   0.689   4.323 -0.0793  1.8131 -2.9782
 7117SOL     OW32812   0.186   3.305  12.091  0.3010  0.3158 -0.0907
 7117SOL    HW132813   0.094   3.318  12.064 -0.2262 -0.0963  1.5114
 7117SOL    HW232814   0.230   3.383  12.055  0.4901  0.4152  0.3621
 7118SOL     OW32815   2.311   1.573  12.051  0.4400  0.6990  0.2797
 7118SOL    HW132816   2.304   1.550  11.958  1.9541  0.2024  0.2948
 7118SOL    HW232817   2.400   1.606  12.050  0.7809 -0.2184  0.2582
 7119SOL     OW32818   2.454   1.143  15.659  0.5615 -0.7150 -0.1306
 7119SOL    HW132819   2.461   1.056  15.697 -0.5152  0.5649  3.0763
 7119SOL    HW232820   2.544   1.175  15.666  0.1377  1.0003 -2.4638
 7120SOL     OW32821   4.340   1.120  14.302  0.2065 -0.5247  0.1508
 7120SOL    HW132822   4.425   1.134  14.260  0.2097  0.4617  0.5089
 7120SOL    HW232823   4.299   1.083  14.223  0.2560  1.5727 -0.8455
 7121SOL     OW32824   4.495   1.380  11.647  0.5686  0.3987 -0.2562
 7121SOL    HW132825   4.510   1.468  11.680  2.0885  0.7051 -1.7786
 7121SOL    HW232826   4.536   1.325  11.714  1.1599  1.4261  0.2213
 7122SOL     OW32827   0.821   3.570   6.562  0.4255 -0.5342  0.1229
 7122SOL    HW132828   0.854   3.529   6.482 -0.7165  0.1285 -0.6937
 7122SOL    HW232829   0.731   3.583   6.532 -0.2965  0.5879  2.8058
 7123SOL     OW32830   0.953   3.839  11.206 -0.3981 -0.2120 -0.0692
 7123SOL    HW132831   0.858   3.832  11.208 -0.5896  1.5436 -2.9490
 7123SOL    HW232832   0.965   3.850  11.111  1.3117  1.2501  0.2997
 7124SOL     OW32833   3.953   2.688   8.107 -0.7724 -0.6272  0.0066
 7124SOL    HW132834   3.970   2.596   8.128 -0.7287 -1.2061 -2.6176
 7124SOL    HW232835   3.899   2.715   8.182 -1.8305  1.9448 -1.6857
 7125SOL     OW32836   4.252   1.961  14.776 -0.4472  0.3277  0.7100
 7125SOL    HW132837   4.304   2.008  14.711 -0.9783  0.6914  0.5509
 7125SOL    HW232838   4.185   2.028  14.777 -0.2777  0.4813  1.4611
 7126SOL     OW32839   2.141   3.267  13.750 -0.2586  0.0404 -0.2562
 7126SOL    HW132840   2.092   3.185  13.751  0.2733 -0.2611  2.3153
 7126SOL    HW232841   2.158   3.281  13.844 -0.9606  0.8487 -0.2479
 7127SOL     OW32842   2.684   2.857   7.163  0.3363  0.4440 -0.0100
 7127SOL    HW132843   2.758   2.814   7.207  0.6878  0.8405 -0.2158
 7127SOL    HW232844   2.630   2.780   7.149  0.8418 -0.1064  1.0224
 7128SOL     OW32845   4.520   0.959  17.617 -0.0663  0.1683  0.0552
 7128SOL    HW132846   4.529   0.900  17.542  1.4934 -1.0428  1.2077
 7128SOL    HW232847   4.455   1.017  17.578 -2.2773 -0.1155  3.3719
 7129SOL     OW32848   1.915   1.856   2.188  0.2182 -0.3000  1.0321
 7129SOL    HW132849   1.852   1.826   2.253  1.5232 -2.6707  1.2172
 7129SOL    HW232850   1.901   1.950   2.195 -1.0137 -0.5609  1.8993
 7130SOL     OW32851   3.325   2.783   4.539 -0.1499  0.7425 -0.2582
 7130SOL    HW132852   3.291   2.814   4.455 -1.4537  1.1661  0.4339
 7130SOL    HW232853   3.414   2.752   4.519 -0.5535 -1.3841  1.3049
 7131SOL     OW32854   3.117   1.191   6.219  0.1739  0.6293 -0.2903
 7131SOL    HW132855   3.079   1.135   6.151  0.4787 -0.7991  0.6994
 7131SOL    HW232856   3.195   1.146   6.252  0.9293  1.2832 -1.1911
 7132SOL     OW32857   4.506   2.456   5.337  0.5115 -0.1091  0.3401
 7132SOL    HW132858   4.534   2.372   5.301 -0.3909  1.3156 -3.7073
 7132SOL    HW232859   4.526   2.449   5.431  1.6409 -1.0990  0.0260
 7133SOL     OW32860   1.820   4.537   6.808 -0.2659 -0.4431 -0.2096
 7133SOL    HW132861   1.852   4.617   6.849 -0.0513 -1.3286  1.3409
 7133SOL    HW232862   1.780   4.576   6.730  0.1401 -0.9709 -0.6858
 7134SOL     OW32863   1.354   2.751   2.383  0.0720 -0.3125  0.1140
 7134SOL    HW132864   1.319   2.758   2.294  1.6387 -0.0767 -0.4836
 7134SOL    HW232865   1.383   2.842   2.392  0.8896 -0.3122 -2.6602
 7135SOL     OW32866   4.537   1.852   0.375  0.0949 -0.1353 -0.2272
 7135SOL    HW132867   4.493   1.784   0.426  0.5102  0.7327  1.2719
 7135SOL    HW232868   4.630   1.832   0.388  0.1528 -1.1118 -2.0683
 7136SOL     OW32869   1.161   1.848  16.498  0.0642 -0.9903  0.8395
 7136SOL    HW132870   1.235   1.792  16.473 -0.2373 -0.9502 -0.1458
 7136SOL    HW232871   1.125   1.861  16.410 -1.5284 -4.1354  1.0205
 7137SOL     OW32872   1.462   0.648   8.422 -0.0390  0.3996 -0.0519
 7137SOL    HW132873   1.503   0.726   8.385  1.0732  0.1041  0.5574
 7137SOL    HW232874   1.534   0.591   8.397  0.0323 -0.1154  1.3326
 7138SOL     OW32875   1.027   0.851   7.718 -0.4112  0.0675 -0.3610
 7138SOL    HW132876   1.049   0.761   7.694 -1.9808 -0.5002  0.4056
 7138SOL    HW232877   1.059   0.863   7.807 -2.5176  0.1186  0.3666
 7139SOL     OW32878   0.525   0.175   1.209 -0.4272  0.0620 -0.0823
 7139SOL    HW132879   0.488   0.221   1.134 -0.8806 -0.1725 -0.0037
 7139SOL    HW232880   0.596   0.127   1.167 -1.8697 -1.3488 -0.9201
 7140SOL     OW32881   2.865   3.308   4.651  0.4012 -0.1601 -0.0834
 7140SOL    HW132882   2.779   3.270   4.668 -0.3595  1.5707  0.0027
 7140SOL    HW232883   2.904   3.248   4.588 -0.5415 -0.2404 -0.5877
 7141SOL     OW32884   2.057   0.807  10.174  0.1694 -0.0051  0.0934
 7141SOL    HW132885   1.994   0.779  10.240  1.2919 -0.1472  1.1078
 7141SOL    HW232886   2.088   0.722  10.142 -0.7064 -0.5354  0.6708
 7142SOL     OW32887   1.493   1.931   6.258 -0.1857  0.4118  0.9687
 7142SOL    HW132888   1.445   2.012   6.276 -2.1218 -0.5455  0.1122
 7142SOL    HW232889   1.523   1.947   6.169  1.0458  0.7091  1.4354
 7143SOL     OW32890   2.687   0.445   8.906  0.6518  0.3208  0.4609
 7143SOL    HW132891   2.738   0.526   8.909 -1.2603  1.6132 -1.8114
 7143SOL    HW232892   2.622   0.470   8.840 -1.8343 -2.6028  1.8127
 7144SOL     OW32893   0.414   1.567  13.686  0.5859 -0.2704  0.2386
 7144SOL    HW132894   0.363   1.492  13.655 -0.1503 -0.0853  1.0095
 7144SOL    HW232895   0.348   1.623  13.728  1.0463  0.5441 -0.1221
 7145SOL     OW32896   1.189   1.359  16.498  0.1022 -0.5463  0.0948
 7145SOL    HW132897   1.265   1.417  16.490 -0.4135  0.0596 -0.3456
 7145SOL    HW232898   1.121   1.395  16.442  1.5554  1.0748 -0.6181
 7146SOL     OW32899   2.139   3.121  16.729  0.5659  0.6303  0.1055
 7146SOL    HW132900   2.047   3.115  16.755  0.9799  0.6649  1.6020
 7146SOL    HW232901   2.179   3.043  16.768 -0.1081 -0.1118 -0.6973
 7147SOL     OW32902   4.154   1.750   9.321 -0.4682  0.1668  0.5550
 7147SOL    HW132903   4.077   1.741   9.265  0.0248 -0.4649 -0.0172
 7147SOL    HW232904   4.161   1.677   9.382 -0.3606 -1.0785 -0.9601
 7148SOL     OW32905   4.432   2.200  15.472 -0.1486 -0.4867 -0.0177
 7148SOL    HW132906   4.452   2.258  15.399 -1.5075 -1.0394 -0.8322
 7148SOL    HW232907   4.505   2.218  15.531  0.3620 -0.3363 -0.6952
 7149SOL     OW32908   0.112   3.636   7.965 -0.2487  0.2161  0.2538
 7149SOL    HW132909   0.124   3.624   7.871 -0.1137  1.9478  0.0550
 7149SOL    HW232910   0.133   3.546   7.988  0.3327  0.7416  1.8324
 7150SOL     OW32911   1.363   3.887   0.451 -0.1219  0.3460 -0.4671
 7150SOL    HW132912   1.286   3.915   0.501  1.4424  0.7162  1.7492
 7150SOL    HW232913   1.330   3.802   0.422 -0.4768  0.5943 -0.7862
 7151SOL     OW32914   0.728   1.178   6.807 -0.1193 -0.8666  0.1541
 7151SOL    HW132915   0.640   1.180   6.843  0.5670 -1.1185  1.8200
 7151SOL    HW232916   0.780   1.222   6.874  1.4131  1.3513 -2.4361
 7152SOL     OW32917   4.035   1.289   1.834  0.1192  0.3653  0.0229
 7152SOL    HW132918   4.086   1.355   1.786  1.4490 -1.0653 -0.5370
 7152SOL    HW232919   4.107   1.226   1.839  0.9261  1.1745 -1.3676
 7153SOL     OW32920   2.071   0.689   7.580  0.0478  0.0181 -0.3328
 7153SOL    HW132921   2.026   0.604   7.576 -1.7654  0.9094  0.8308
 7153SOL    HW232922   2.096   0.705   7.490  0.1854 -0.9216 -0.4682
 7154SOL     OW32923   3.335   0.987  12.766  0.2889 -0.5705 -0.3604
 7154SOL    HW132924   3.316   0.900  12.802 -0.6635 -0.3172 -0.2499
 7154SOL    HW232925   3.249   1.030  12.774  0.0140 -1.2866  0.6042
 7155SOL     OW32926   2.317   2.539   8.992 -0.0015 -0.0773  0.3365
 7155SOL    HW132927   2.315   2.593   9.071 -1.5761  2.5301 -1.5087
 7155SOL    HW232928   2.229   2.501   8.986 -0.5542  0.8179  2.8112
 7156SOL     OW32929   2.250   2.021   3.764 -0.1789  0.3622  0.2456
 7156SOL    HW132930   2.156   2.003   3.767 -0.2645  0.7863  0.1285
 7156SOL    HW232931   2.288   1.933   3.770 -3.2362 -1.0721 -1.2583
 7157SOL     OW32932   2.871   0.307   2.905 -0.0120  0.1617  0.5017
 7157SOL    HW132933   2.936   0.312   2.835 -0.8268  0.5220 -0.2222
 7157SOL    HW232934   2.928   0.309   2.983 -0.4147  1.2965  0.7594
 7158SOL     OW32935   0.998   2.512  14.045  0.2395  0.5124 -0.0723
 7158SOL    HW132936   0.941   2.437  14.055  0.0203  0.1385 -3.8251
 7158SOL    HW232937   1.069   2.465  14.001 -1.7117  0.2094 -2.8748
 7159SOL     OW32938   0.363   0.136   3.401  0.7832  0.7294  0.1595
 7159SOL    HW132939   0.321   0.050   3.394 -1.9034  2.1812 -1.3987
 7159SOL    HW232940   0.360   0.154   3.495 -1.3516 -1.8020  0.5883
 7160SOL     OW32941   4.516   3.501   8.542 -0.0096 -0.5449 -0.1189
 7160SOL    HW132942   4.533   3.594   8.553 -1.4498 -0.1954 -0.7883
 7160SOL    HW232943   4.603   3.464   8.556 -0.3765 -0.6364  1.8572
 7161SOL     OW32944   3.736   0.154   8.315 -1.0492  0.0092 -0.2297
 7161SOL    HW132945   3.693   0.078   8.356  1.3362 -1.4611 -0.4450
 7161SOL    HW232946   3.826   0.123   8.309 -1.1382 -0.4405  0.7738
 7162SOL     OW32947   1.911   2.477   7.581  0.4776  0.6972  0.1546
 7162SOL    HW132948   1.940   2.478   7.490 -0.6954 -0.6251 -0.2407
 7162SOL    HW232949   1.869   2.393   7.596 -1.0759  1.3708 -0.4021
 7163SOL     OW32950   2.258   4.699   8.156 -0.3043  0.0944  0.1098
 7163SOL    HW132951   2.312   4.662   8.226 -1.3208  0.5924  1.1791
 7163SOL    HW232952   2.250   4.620   8.103  1.8319  0.4772 -0.7701
 7164SOL     OW32953   1.808   4.431   8.648  0.2444 -0.3099 -0.4553
 7164SOL    HW132954   1.839   4.369   8.582  2.7341  0.9943 -0.5161
 7164SOL    HW232955   1.719   4.405   8.671  0.4854  0.3591  1.2326
 7165SOL     OW32956   2.028   2.353  11.982 -0.3201  0.0516 -0.0361
 7165SOL    HW132957   2.035   2.445  12.008  1.3746  0.0033 -0.3542
 7165SOL    HW232958   1.999   2.364  11.891  0.1087  0.6688 -0.0954
 7166SOL     OW32959   3.707   4.493   4.205  0.5731 -0.1614 -0.2916
 7166SOL    HW132960   3.767   4.566   4.219  0.8100 -0.4170  0.0389
 7166SOL    HW232961   3.771   4.440   4.159  0.9447  1.1624 -1.2904
 7167SOL     OW32962   0.463   2.188   8.120 -0.9116  0.0631 -0.2627
 7167SOL    HW132963   0.476   2.152   8.208  1.5108  0.2082 -0.5645
 7167SOL    HW232964   0.370   2.208   8.130 -0.7292  0.6068  0.3126
 7168SOL     OW32965   3.176   3.302   6.427  0.2404 -0.2687  0.0645
 7168SOL    HW132966   3.146   3.281   6.338  0.4301  0.1301 -0.0932
 7168SOL    HW232967   3.261   3.259   6.417  1.0099  0.8125  1.9677
 7169SOL     OW32968   2.506   4.137   8.965 -0.5417 -0.0602 -0.0990
 7169SOL    HW132969   2.437   4.100   8.911  0.1720 -1.2893 -0.1745
 7169SOL    HW232970   2.516   4.066   9.030  1.6390  1.9431  1.7553
 7170SOL     OW32971   2.503   4.309  13.326 -0.1069  0.5299 -0.0534
 7170SOL    HW132972   2.437   4.258  13.374 -0.4032 -1.6396 -2.7605
 7170SOL    HW232973   2.460   4.384  13.285  0.6862  0.0936 -1.6988
 7171SOL     OW32974   4.376   0.126  12.127 -0.0446  0.5321  0.4161
 7171SOL    HW132975   4.431   0.050  12.144  0.7623  1.0045 -0.0513
 7171SOL    HW232976   4.420   0.170  12.054 -2.0043 -1.1086 -1.7549
 7172SOL     OW32977   4.372   0.929   6.187 -0.3245 -0.0327 -0.1599
 7172SOL    HW132978   4.409   0.843   6.169  0.4890 -0.0805  1.7339
 7172SOL    HW232979   4.284   0.906   6.157 -0.7711  0.3171  0.8632
 7173SOL     OW32980   0.623   4.084  11.699 -0.5086 -0.0228  0.0590
 7173SOL    HW132981   0.612   4.136  11.778  3.0239  0.7164  0.0690
 7173SOL    HW232982   0.712   4.052  11.712 -0.1516  0.8609 -0.2030
 7174SOL     OW32983   1.551   3.141   5.278  0.1797  0.3326  0.3242
 7174SOL    HW132984   1.579   3.177   5.193 -3.1418 -1.7273 -1.6478
 7174SOL    HW232985   1.637   3.140   5.319  1.1459 -0.9135 -1.7064
 7175SOL     OW32986   0.832   2.361   7.421 -0.5406 -0.5136  0.0209
 7175SOL    HW132987   0.927   2.362   7.431 -0.6390 -1.8919  1.1458
 7175SOL    HW232988   0.808   2.275   7.454 -1.2663 -0.0390  0.7412
 7176SOL     OW32989   4.699   1.737   7.554 -0.0361 -0.2175 -0.3787
 7176SOL    HW132990   4.675   1.740   7.461  1.0584 -0.9207 -0.6883
 7176SOL    HW232991   0.003   1.645   7.568 -4.2721 -1.1450  0.8880
 7177SOL     OW32992   1.971   2.950   9.543  0.2590  0.2450  0.0101
 7177SOL    HW132993   1.986   2.934   9.450  0.8931 -1.5914  0.4294
 7177SOL    HW232994   1.946   2.858   9.557  1.5075  0.0434  0.8683
 7178SOL     OW32995   3.118   3.487   8.879 -0.0935 -0.9289  0.4595
 7178SOL    HW132996   3.120   3.392   8.889 -2.8465 -0.9168  1.1327
 7178SOL    HW232997   3.209   3.500   8.853 -0.7981  1.0147 -1.0038
 7179SOL     OW32998   2.892   4.471   6.465 -0.1388  0.2279 -0.2158
 7179SOL    HW132999   2.808   4.504   6.499 -0.0266 -0.5010  0.7682
 7179SOL    HW233000   2.944   4.482   6.544 -2.0731  2.0471  0.8179
 7180SOL     OW33001   2.902   3.259   0.931  0.0088  0.3927 -0.4648
 7180SOL    HW133002   2.822   3.289   0.976  0.2834  0.0317  0.2635
 7180SOL    HW233003   2.897   3.168   0.960 -0.6425  0.7792  0.6791
 7181SOL     OW33004   0.348   2.836  16.938 -0.1387 -0.0324  0.0010
 7181SOL    HW133005   0.302   2.790  16.867  0.6078 -0.2399 -0.3474
 7181SOL    HW233006   0.323   2.928  16.944  3.4900  0.9969 -0.6715
 7182SOL     OW33007   1.631   4.594   2.145 -0.2376 -0.0970 -0.2766
 7182SOL    HW133008   1.654   4.636   2.227 -2.9499 -1.9768  1.4367
 7182SOL    HW233009   1.574   4.525   2.179  0.8681 -0.9643 -0.1904
 7183SOL     OW33010   2.596   2.057   8.006  0.5061 -0.3950  0.1344
 7183SOL    HW133011   2.516   2.100   7.977 -1.3961 -2.3640  2.4160
 7183SOL    HW233012   2.593   1.981   7.948 -3.3004 -1.2256  1.3597
 7184SOL     OW33013   3.423   0.256   2.836  0.2673  0.3421 -0.1689
 7184SOL    HW133014   3.347   0.242   2.892  0.0573 -1.0619 -0.8090
 7184SOL    HW233015   3.376   0.295   2.762  0.4283 -0.7016 -0.8267
 7185SOL     OW33016   0.240   2.840   4.632  0.7464 -0.3351 -0.6578
 7185SOL    HW133017   0.256   2.764   4.688  1.5268  0.2211 -0.1368
 7185SOL    HW233018   0.322   2.888   4.634  0.5828 -0.0332 -1.0756
 7186SOL     OW33019   1.950   0.972   6.326 -0.4202 -0.0125 -0.4454
 7186SOL    HW133020   2.030   0.929   6.356 -0.3684  0.3334 -0.0848
 7186SOL    HW233021   1.900   0.977   6.407  2.4077  1.5820  1.1847
 7187SOL     OW33022   3.428   0.785   2.479  0.1119  0.5975 -0.2986
 7187SOL    HW133023   3.471   0.834   2.549 -0.5216  1.6487 -0.6427
 7187SOL    HW233024   3.445   0.849   2.409 -0.7567  0.1317 -0.9387
 7188SOL     OW33025   0.209   2.179  13.688 -0.0315 -0.1326  0.4500
 7188SOL    HW133026   0.288   2.144  13.730  1.2108 -0.2426 -1.9813
 7188SOL    HW233027   0.221   2.274  13.696  1.9608 -0.4007  0.8362
 7189SOL     OW33028   2.065   4.099  14.868 -0.0758 -0.0519  0.5864
 7189SOL    HW133029   2.093   4.079  14.779 -0.3036  1.2582  0.2155
 7189SOL    HW233030   1.971   4.103  14.849  0.1545 -0.5582 -0.6494
 7190SOL     OW33031   3.521   2.675   3.718 -0.3849  0.6212 -0.0734
 7190SOL    HW133032   3.595   2.636   3.673 -0.3276  1.3899 -0.6352
 7190SOL    HW233033   3.484   2.609   3.776 -0.8704 -1.4639 -2.7928
 7191SOL     OW33034   3.543   2.192   7.924 -0.1648  0.4029 -0.6450
 7191SOL    HW133035   3.458   2.152   7.943 -1.4319  2.2594 -2.3840
 7191SOL    HW233036   3.536   2.264   7.987  0.3586 -1.2689  1.3149
 7192SOL     OW33037   1.601   2.005   5.153 -0.2083  0.4125 -0.2655
 7192SOL    HW133038   1.690   1.972   5.149 -1.0786 -1.9662  0.1254
 7192SOL    HW233039   1.605   2.077   5.089  2.2042  1.2759  0.8668
 7193SOL     OW33040   1.165   3.974   7.901  0.3589 -0.2960 -0.3376
 7193SOL    HW133041   1.177   3.975   7.806  2.1380  0.1967 -0.1031
 7193SOL    HW233042   1.130   3.887   7.919 -0.3499  0.0542  0.0089
 7194SOL     OW33043   0.538   0.528   7.511  0.3719  0.2526 -0.0335
 7194SOL    HW133044   0.520   0.615   7.475 -1.2292 -0.8249 -1.8948
 7194SOL    HW233045   0.630   0.523   7.487 -0.4762 -3.2881 -2.6116
 7195SOL     OW33046   4.205   1.686  15.591 -0.2824  0.4739 -0.4385
 7195SOL    HW133047   4.146   1.753  15.555  1.1005  0.6395 -2.4220
 7195SOL    HW233048   4.286   1.719  15.550  2.0789 -2.9730  1.4151
 7196SOL     OW33049   2.851   1.811   6.902 -0.1116 -0.7477  0.6721
 7196SOL    HW133050   2.865   1.867   6.978 -2.3959 -0.1184  0.6302
 7196SOL    HW233051   2.843   1.721   6.931  0.7459 -1.5887 -1.7418
 7197SOL     OW33052   4.593   1.294   7.191 -0.4898 -0.3871  0.0144
 7197SOL    HW133053   4.610   1.383   7.161  2.5099 -0.8308  0.3948
 7197SOL    HW233054   4.664   1.267   7.250 -2.2946 -2.5027  1.2075
 7198SOL     OW33055   2.110   0.739   5.342  0.3574 -0.2716  0.3540
 7198SOL    HW133056   2.054   0.744   5.265  2.9680 -4.3004 -1.8577
 7198SOL    HW233057   2.048   0.756   5.413  0.8722  0.0479  0.7287
 7199SOL     OW33058   3.754   2.125   2.390 -0.4187  0.1929  0.1823
 7199SOL    HW133059   3.668   2.165   2.377 -0.6211  0.5550  2.6516
 7199SOL    HW233060   3.734   2.063   2.460 -0.6639 -1.8473 -1.6898
 7200SOL     OW33061   2.780   4.279  14.343  0.4432 -0.3298 -0.4045
 7200SOL    HW133062   2.847   4.292  14.409 -0.6068 -2.8069  1.1672
 7200SOL    HW233063   2.697   4.277  14.392  1.0728  0.4740  0.6848
 7201SOL     OW33064   2.105   0.000  10.639  0.2521  0.6639  0.5306
 7201SOL    HW133065   2.186   4.692  10.595 -1.6379 -0.9908 -1.9323
 7201SOL    HW233066   2.096   4.649  10.702  0.0833  0.9789  0.8586
 7202SOL     OW33067   1.331   3.114  16.556 -0.4365 -0.4393  0.2872
 7202SOL    HW133068   1.376   3.067  16.626 -1.3729  0.2304  1.3304
 7202SOL    HW233069   1.403   3.177  16.545 -0.5161 -0.7868 -2.1347
 7203SOL     OW33070   2.518   0.170   4.827 -0.2855 -0.0680 -0.1083
 7203SOL    HW133071   2.516   0.093   4.884  0.6860 -0.2397 -0.3065
 7203SOL    HW233072   2.439   0.156   4.775 -0.1231 -1.0591 -0.0958
 7204SOL     OW33073   0.093   2.038   7.622  0.0459  0.0211  0.3008
 7204SOL    HW133074   0.013   1.987   7.633 -0.0563 -0.3493 -2.0644
 7204SOL    HW233075   0.072   2.125   7.656 -0.2386  0.6020 -1.3586
 7205SOL     OW33076   2.343   3.848  14.695 -0.1859  0.2396 -0.5609
 7205SOL    HW133077   2.260   3.896  14.699 -0.7827 -0.7967 -0.5263
 7205SOL    HW233078   2.405   3.921  14.700  0.3656 -0.2544 -0.1359
 7206SOL     OW33079   3.818   4.225   6.164 -0.0819  0.4753 -0.3575
 7206SOL    HW133080   3.820   4.273   6.081  0.8430 -0.5855 -0.9426
 7206SOL    HW233081   3.774   4.288   6.221 -0.5751  0.0209 -0.2404
 7207SOL     OW33082   2.921   1.790   5.710 -0.3396 -0.2338 -0.8983
 7207SOL    HW133083   3.008   1.831   5.713 -0.2579 -0.2778 -2.4672
 7207SOL    HW233084   2.933   1.696   5.699  0.8529 -0.2648  0.7377
 7208SOL     OW33085   4.238   1.522  15.195 -0.0660  0.3325 -0.0250
 7208SOL    HW133086   4.256   1.534  15.288  1.4752  1.1275 -0.4349
 7208SOL    HW233087   4.147   1.492  15.199 -0.0905  0.1942 -1.5792
 7209SOL     OW33088   0.901   0.235   9.362 -0.8393  0.0058  0.2609
 7209SOL    HW133089   0.855   0.223   9.446  0.1164 -1.3582  0.6005
 7209SOL    HW233090   0.983   0.261   9.404  0.3352 -0.1133 -2.0032
 7210SOL     OW33091   2.952   3.341   2.597  0.2608  0.0798  0.1376
 7210SOL    HW133092   2.945   3.426   2.554  0.0842  0.0139  0.0359
 7210SOL    HW233093   2.959   3.377   2.685 -3.7688 -1.0058  0.8914
 7211SOL     OW33094   0.870   1.412   8.391  0.5162 -0.3519  0.2749
 7211SOL    HW133095   0.899   1.415   8.300  1.3904 -0.5066  0.5444
 7211SOL    HW233096   0.796   1.472   8.394  0.6988 -0.1194  0.1368
 7212SOL     OW33097   3.342   2.842   6.171 -0.1926  0.1475  0.6384
 7212SOL    HW133098   3.306   2.768   6.121 -2.7449  0.9815  1.2260
 7212SOL    HW233099   3.359   2.899   6.096 -0.9676 -1.4522 -0.7458
 7213SOL     OW33100   4.499   0.871   7.201 -0.2056  0.0018  0.9540
 7213SOL    HW133101   4.455   0.814   7.137 -0.0496 -0.7372  1.4985
 7213SOL    HW233102   4.593   0.854   7.191 -0.5397  0.0802 -2.1309
 7214SOL     OW33103   1.791   1.258   6.621 -0.0535  0.0575 -0.6840
 7214SOL    HW133104   1.789   1.342   6.575 -1.3560  0.2217 -0.3308
 7214SOL    HW233105   1.788   1.275   6.715 -0.4127  0.4957 -0.7742
 7215SOL     OW33106   3.421   1.771   2.361 -0.4566 -0.0967 -0.8360
 7215SOL    HW133107   3.492   1.714   2.332  0.2711  0.0006  0.7533
 7215SOL    HW233108   3.376   1.800   2.281 -0.5242 -1.4406 -1.2916
 7216SOL     OW33109   0.422   2.091  12.088 -0.1559 -0.0707  0.2980
 7216SOL    HW133110   0.446   2.006  12.124 -0.2063  1.0207  2.8833
 7216SOL    HW233111   0.497   2.109  12.032 -1.0042 -0.1657 -0.8989
 7217SOL     OW33112   0.297   0.892  11.933  0.4813 -0.5186  0.2107
 7217SOL    HW133113   0.249   0.886  11.850 -0.2014 -0.2226  0.5810
 7217SOL    HW233114   0.278   0.805  11.968  0.2679 -1.5308 -2.4302
 7218SOL     OW33115   2.839   4.132   6.160  0.1111 -0.6181  0.1176
 7218SOL    HW133116   2.890   4.051   6.167 -0.1905 -0.7513  0.8084
 7218SOL    HW233117   2.751   4.098   6.179  0.1116 -0.9974 -0.5409
 7219SOL     OW33118   4.014   0.464   2.052  0.3690 -0.2937 -0.1016
 7219SOL    HW133119   4.074   0.445   1.980 -0.0378  1.4758 -0.8976
 7219SOL    HW233120   4.079   0.465   2.122 -0.0896  0.1894  0.3151
 7220SOL     OW33121   2.168   2.536   7.805  0.3421  0.6657 -0.2433
 7220SOL    HW133122   2.129   2.449   7.797 -0.2374  1.0593 -1.7350
 7220SOL    HW233123   2.176   2.566   7.715 -1.6270  0.3452 -0.5122
 7221SOL     OW33124   4.586   0.672   6.459 -0.1102 -0.2445  0.0969
 7221SOL    HW133125   4.576   0.718   6.376 -2.9349 -0.5654  0.2648
 7221SOL    HW233126   4.680   0.651   6.462 -0.3778 -1.1877  2.0420
 7222SOL     OW33127   3.662   3.824   8.245  0.2615 -0.4874 -0.0290
 7222SOL    HW133128   3.683   3.758   8.312  2.7423  1.4949  1.1416
 7222SOL    HW233129   3.571   3.796   8.233 -0.8367  2.5966  0.8907
 7223SOL     OW33130   4.391   0.787   5.203 -0.1319  0.1518 -0.3006
 7223SOL    HW133131   4.360   0.721   5.265  1.9962 -1.6453 -1.1261
 7223SOL    HW233132   4.464   0.743   5.158  2.2289  0.9560  2.7038
 7224SOL     OW33133   2.738   0.630   5.298  0.0451 -0.1806 -0.2394
 7224SOL    HW133134   2.728   0.584   5.381 -0.2337  3.0049  1.4949
 7224SOL    HW233135   2.737   0.564   5.228 -1.1296  0.0792 -0.4756
 7225SOL     OW33136   3.239   0.013   9.691 -0.1107 -0.3749 -0.3730
 7225SOL    HW133137   3.218   0.063   9.770  1.9448  0.1628 -0.1697
 7225SOL    HW233138   3.151   4.708   9.664  0.2075  0.1618 -1.9134
 7226SOL     OW33139   0.689   2.474   2.637 -0.4241  0.4284  0.2847
 7226SOL    HW133140   0.741   2.446   2.712  0.9199  1.6054 -0.2137
 7226SOL    HW233141   0.733   2.547   2.594 -1.7872  2.0308  1.6374
 7227SOL     OW33142   3.778   0.694  17.580 -0.4698  0.0520 -0.1974
 7227SOL    HW133143   3.774   0.790  17.571 -1.0002  0.0803  0.4027
 7227SOL    HW233144   3.696   0.682  17.627 -0.5470  1.3129  0.0011
 7228SOL     OW33145   3.695   0.343   4.003  0.2460  0.2264 -0.2758
 7228SOL    HW133146   3.601   0.338   4.017  0.1765  2.0051 -0.1754
 7228SOL    HW233147   3.725   0.305   4.085 -0.2966  1.7892  0.6342
 7229SOL     OW33148   1.449   0.422   1.450 -0.1629  0.1635  0.6708
 7229SOL    HW133149   1.409   0.508   1.443 -0.9146 -0.2478 -0.0173
 7229SOL    HW233150   1.403   0.380   1.523 -0.5767  0.0672  0.3533
 7230SOL     OW33151   4.127   2.910   6.787 -0.0204 -0.4278 -0.3330
 7230SOL    HW133152   4.205   2.939   6.834 -1.0044  1.4849  0.0893
 7230SOL    HW233153   4.058   2.947   6.841 -0.0688 -0.1177 -0.6100
 7231SOL     OW33154   2.375   1.620   6.497 -0.2437 -0.4795  0.3076
 7231SOL    HW133155   2.346   1.704   6.461 -0.0457 -0.1999  0.7954
 7231SOL    HW233156   2.383   1.647   6.588  2.1977  0.1162 -0.0926
 7232SOL     OW33157   4.384   4.524  17.643 -0.2399  0.1879 -0.1035
 7232SOL    HW133158   4.351   4.613  17.627  1.7559  0.7464 -1.2591
 7232SOL    HW233159   4.406   4.500  17.553  1.9354 -1.6522  0.9135
 7233SOL     OW33160   2.131   4.133   2.368 -0.6374 -0.3009  0.2261
 7233SOL    HW133161   2.172   4.170   2.446  2.0357 -2.7791 -0.0028
 7233SOL    HW233162   2.200   4.139   2.302 -1.8189  1.4514 -0.8631
 7234SOL     OW33163   0.681   2.860  14.903  0.3550 -0.3110  0.0192
 7234SOL    HW133164   0.660   2.947  14.870 -0.6577 -0.6452 -0.2130
 7234SOL    HW233165   0.599   2.831  14.943  1.5696  0.4177  2.9513
 7235SOL     OW33166   3.446   3.995   6.224 -0.5673 -0.2988  0.4365
 7235SOL    HW133167   3.396   4.074   6.209  0.1615  0.6430  2.8854
 7235SOL    HW233168   3.416   3.939   6.152 -0.9115  1.3759 -0.7236
 7236SOL     OW33169   4.511   4.010   4.510  0.1908  0.0935  0.3409
 7236SOL    HW133170   4.493   3.962   4.429 -1.6612  1.5780 -0.1272
 7236SOL    HW233171   4.423   4.047   4.511  0.0680 -0.1940  0.0526
 7237SOL     OW33172   0.069   0.307   6.002  0.2937 -0.0602 -0.4906
 7237SOL    HW133173   0.132   0.238   5.980 -0.6497 -1.0387 -0.1460
 7237SOL    HW233174   0.120   0.346   6.072  0.2987 -1.2549  0.1687
 7238SOL     OW33175   0.570   4.585  15.652 -0.5526  0.2380 -0.6006
 7238SOL    HW133176   0.515   4.524  15.700 -1.0070  1.6834  0.7232
 7238SOL    HW233177   0.639   4.521  15.633 -0.5865  0.6400 -2.0829
 7239SOL     OW33178   0.010   1.980   3.152 -0.3820 -0.1570  0.1383
 7239SOL    HW133179   4.643   2.014   3.175 -0.2149 -0.9742  2.0015
 7239SOL    HW233180   0.065   1.997   3.229 -0.1411  3.1041 -0.7582
 7240SOL     OW33181   2.687   3.401   1.608  0.0985  0.5274  0.2873
 7240SOL    HW133182   2.648   3.472   1.557 -0.2135 -0.0946 -0.3288
 7240SOL    HW233183   2.611   3.350   1.635  0.6362 -0.5591 -0.2579
 7241SOL     OW33184   3.210   1.528  12.986  0.0406  0.0809  0.2631
 7241SOL    HW133185   3.257   1.609  12.962  0.7649  0.0886  1.6796
 7241SOL    HW233186   3.277   1.464  13.010  0.2042  0.1301 -0.0667
 7242SOL     OW33187   3.416   1.928  11.252 -0.1825 -0.1027  0.1031
 7242SOL    HW133188   3.376   1.918  11.339 -2.1693  0.9475 -0.6894
 7242SOL    HW233189   3.342   1.925  11.192 -1.0728 -2.8011  1.3113
 7243SOL     OW33190   3.649   0.049   6.862 -0.2088  0.2762  0.0748
 7243SOL    HW133191   3.619   0.128   6.817 -0.0789 -0.2212 -0.8734
 7243SOL    HW233192   3.732   0.087   6.891 -0.5046  2.2205 -1.5921
 7244SOL     OW33193   3.424   3.819  13.805  0.7887  0.1380 -0.4211
 7244SOL    HW133194   3.463   3.906  13.812  1.2844 -0.2544  1.6808
 7244SOL    HW233195   3.446   3.777  13.888 -0.8576  0.4207  0.1585
 7245SOL     OW33196   1.076   0.765  12.526 -0.0229 -0.2020 -0.2536
 7245SOL    HW133197   1.089   0.677  12.561 -2.1984 -0.5008 -0.2335
 7245SOL    HW233198   0.989   0.753  12.488 -0.3311  1.6459 -0.1515
 7246SOL     OW33199   2.468   0.394   8.461  0.3696  0.2315  0.0205
 7246SOL    HW133200   2.540   0.335   8.437  0.8236  0.5247  0.6739
 7246SOL    HW233201   2.405   0.332   8.495  0.0181  0.1212 -0.8296
 7247SOL     OW33202   2.960   2.675   9.572 -0.1601 -0.1955  0.1655
 7247SOL    HW133203   2.976   2.581   9.569  0.9537  0.0142 -0.7613
 7247SOL    HW233204   2.939   2.693   9.480  0.8115  0.9268  0.1616
 7248SOL     OW33205   4.642   2.199   5.905  0.3827 -0.7292  0.8880
 7248SOL    HW133206   4.587   2.172   5.832 -0.5769  0.6036  1.1277
 7248SOL    HW233207   0.006   2.197   5.860 -0.2518  0.4056 -0.3238
 7249SOL     OW33208   1.926   1.613  17.071 -0.5334 -0.3366  0.1248
 7249SOL    HW133209   1.973   1.640  17.150 -1.3735  0.5159  0.3455
 7249SOL    HW233210   1.845   1.664  17.085  0.6585  1.0179  1.9830
 7250SOL     OW33211   3.350   0.584   3.889  0.4118  0.0799  1.0543
 7250SOL    HW133212   3.270   0.543   3.856 -0.3670  1.6519  1.0016
 7250SOL    HW233213   3.411   0.511   3.878 -0.7628 -0.8739  0.8391
 7251SOL     OW33214   4.224   4.140  17.134 -0.2128 -0.0854  0.2600
 7251SOL    HW133215   4.142   4.158  17.088 -0.9954 -0.7048  1.4062
 7251SOL    HW233216   4.267   4.079  17.074 -1.9185 -0.9812 -0.0574
 7252SOL     OW33217   1.803   0.572   4.016 -0.1503 -0.1457 -0.1396
 7252SOL    HW133218   1.812   0.477   4.011  2.2446  0.1018 -0.5993
 7252SOL    HW233219   1.812   0.593   3.923  0.0259  2.3216  0.4441
 7253SOL     OW33220   3.555   3.142   2.527  0.1631  0.1734 -0.3977
 7253SOL    HW133221   3.636   3.139   2.476  0.1259 -0.5180 -0.4123
 7253SOL    HW233222   3.526   3.233   2.528  1.7612  0.6209  2.3034
 7254SOL     OW33223   3.839   0.265  13.767  0.4259 -0.1374 -0.2965
 7254SOL    HW133224   3.924   0.275  13.724  1.0603 -0.6383  0.8359
 7254SOL    HW233225   3.787   0.219  13.701 -0.8081 -1.4394  1.5958
 7255SOL     OW33226   3.756   2.604  17.004 -0.2353 -0.0123  0.0525
 7255SOL    HW133227   3.846   2.590  16.973  0.7540  2.8065  1.6713
 7255SOL    HW233228   3.712   2.650  16.933  0.3654 -0.8094 -0.8404
 7256SOL     OW33229   4.446   2.061   7.428  0.0103 -0.0606  0.2210
 7256SOL    HW133230   4.517   2.121   7.450 -1.2303  2.1807 -1.8390
 7256SOL    HW233231   4.365   2.111   7.444  1.4278  2.5711 -0.8670
 7257SOL     OW33232   4.497   0.690   6.170  0.5313 -0.2035  0.2929
 7257SOL    HW133233   4.584   0.721   6.196 -0.3866  1.4645  1.3747
 7257SOL    HW233234   4.524   0.621   6.110  0.8489  0.5808 -0.4720
 7258SOL     OW33235   1.720   3.462  11.837 -0.1027  0.3379  0.3450
 7258SOL    HW133236   1.632   3.428  11.826 -0.1477  0.4734  0.2878
 7258SOL    HW233237   1.741   3.444  11.746  0.0877  0.3998  0.3765
 7259SOL     OW33238   1.169   1.899   9.011  0.5492  0.4230  0.8963
 7259SOL    HW133239   1.236   1.862   8.953 -1.4235 -0.2987 -0.9358
 7259SOL    HW233240   1.216   1.894   9.094 -0.2955 -0.1794  1.3346
 7260SOL     OW33241   3.139   0.696   9.489 -0.1994 -0.8997 -0.6614
 7260SOL    HW133242   3.168   0.748   9.564  1.4788 -1.7639 -0.7052
 7260SOL    HW233243   3.073   0.748   9.443 -0.7191 -0.8964  0.0870
 7261SOL     OW33244   1.657   1.362   4.720 -0.2796 -0.3983  0.3443
 7261SOL    HW133245   1.635   1.389   4.631 -1.5395 -3.0217 -0.1332
 7261SOL    HW233246   1.627   1.440   4.767  0.0915 -0.0457 -0.0077
 7262SOL     OW33247   2.420   0.695   1.794  0.0819  0.0454 -0.1837
 7262SOL    HW133248   2.334   0.654   1.783  1.0045 -1.8181 -0.5793
 7262SOL    HW233249   2.402   0.769   1.851 -0.4872 -0.3063  0.1006
 7263SOL     OW33250   0.884   1.294   8.091  1.0436  0.0679  0.3260
 7263SOL    HW133251   0.930   1.217   8.058  1.4018  0.5530 -0.3010
 7263SOL    HW233252   0.790   1.278   8.094  1.0321 -0.2241 -2.0725
 7264SOL     OW33253   1.070   1.165   0.765 -0.0422 -0.7310  0.0445
 7264SOL    HW133254   1.017   1.175   0.686 -0.3942 -0.7796  0.2785
 7264SOL    HW233255   1.007   1.141   0.832 -0.6389 -2.2447 -1.0682
 7265SOL     OW33256   0.740   2.343   8.426  0.0761 -0.0523  0.4469
 7265SOL    HW133257   0.828   2.310   8.448  0.0572  0.0071  0.6098
 7265SOL    HW233258   0.748   2.429   8.469  0.2136 -0.1379  0.5956
 7266SOL     OW33259   4.356   3.333  17.396 -0.6877  0.0389  0.0113
 7266SOL    HW133260   4.323   3.373  17.476  1.7873  3.0273 -0.4583
 7266SOL    HW233261   4.296   3.375  17.335  0.0985  1.7841  0.4483
 7267SOL     OW33262   0.434   0.114  15.673  0.2060  0.5372  0.4173
 7267SOL    HW133263   0.508   0.064  15.638  0.2943  0.2016  1.0868
 7267SOL    HW233264   0.400   0.055  15.740 -2.6031  2.5178  0.7048
 7268SOL     OW33265   0.968   4.246  16.670 -0.3459  0.1294  0.6760
 7268SOL    HW133266   0.998   4.326  16.626  1.5740 -0.7593  0.3809
 7268SOL    HW233267   1.033   4.184  16.638 -0.0035  0.0181  1.5791
 7269SOL     OW33268   3.347   3.114   9.019 -0.4136  0.2249 -0.7104
 7269SOL    HW133269   3.383   3.079   8.938  0.2454  0.3925 -0.4854
 7269SOL    HW233270   3.346   3.040   9.080 -1.8554  1.3354  0.6265
 7270SOL     OW33271   1.919   4.382   8.300 -0.4796 -0.8820 -0.0325
 7270SOL    HW133272   1.961   4.301   8.269  2.4134  1.7731 -3.0109
 7270SOL    HW233273   1.834   4.356   8.335 -0.3965 -0.4113  0.5180
 7271SOL     OW33274   0.154   4.162  14.871  0.4788  0.3265 -0.8021
 7271SOL    HW133275   0.128   4.114  14.950 -1.0052 -0.1109 -1.5582
 7271SOL    HW233276   0.078   4.215  14.846 -1.8313 -2.0098  1.3085
 7272SOL     OW33277   0.215   1.147   7.949 -0.6139 -0.2897 -1.1961
 7272SOL    HW133278   0.195   1.186   8.034  0.7157  0.4575 -1.2313
 7272SOL    HW233279   0.203   1.055   7.971 -0.3434 -0.1453 -0.4309
 7273SOL     OW33280   1.294   1.297   4.819 -0.4172 -0.0586  0.1379
 7273SOL    HW133281   1.375   1.349   4.816 -1.1444  1.1215  0.9322
 7273SOL    HW233282   1.246   1.335   4.745 -1.1459 -3.5579 -1.1557
 7274SOL     OW33283   2.348   2.368   7.052  0.1439 -0.0646 -0.0093
 7274SOL    HW133284   2.432   2.383   7.008  0.3668  0.1255  0.4846
 7274SOL    HW233285   2.350   2.417   7.134  0.0060  1.3517 -0.8331
 7275SOL     OW33286   1.567   4.701   1.462  0.0346 -0.0192 -0.5867
 7275SOL    HW133287   1.496   4.662   1.413 -1.6963  1.0926  1.0489
 7275SOL    HW233288   1.637   4.642   1.434  1.4387  1.7381 -0.7844
 7276SOL     OW33289   0.027   2.637  16.738 -0.8577 -0.0929 -0.4229
 7276SOL    HW133290   0.042   2.731  16.727  1.7700 -0.5454 -0.7553
 7276SOL    HW233291   0.078   2.603  16.812  0.4784  1.7285 -0.5237
 7277SOL     OW33292   4.569   2.514   1.886  0.0832  0.1904 -0.3476
 7277SOL    HW133293   4.540   2.430   1.849  0.5538  0.3996 -1.2039
 7277SOL    HW233294   4.586   2.491   1.977 -0.0145 -0.0469 -0.3887
 7278SOL     OW33295   1.772   1.481   9.576  0.2049 -0.2026  0.2712
 7278SOL    HW133296   1.722   1.540   9.633 -2.8113 -2.8747  0.3660
 7278SOL    HW233297   1.828   1.442   9.644 -1.1178  0.4810  1.7515
 7279SOL     OW33298   2.541   4.096   2.057 -0.1859  0.6687  0.5632
 7279SOL    HW133299   2.496   4.130   2.135  0.4174 -0.0677  1.2403
 7279SOL    HW233300   2.471   4.089   1.992  1.1476 -0.2554 -0.7659
 7280SOL     OW33301   1.469   0.079  15.714 -0.2652 -0.2769 -0.3030
 7280SOL    HW133302   1.470   0.152  15.776 -3.6204 -1.6261  1.3139
 7280SOL    HW233303   1.469   0.114  15.625 -0.5721  1.4942  0.3825
 7281SOL     OW33304   2.931   0.641   8.368 -0.2204  0.0148 -0.1860
 7281SOL    HW133305   2.912   0.732   8.349  0.0182  0.0475 -0.2717
 7281SOL    HW233306   2.848   0.624   8.413  0.6493  2.7138  2.4498
 7282SOL     OW33307   0.163   3.380   8.357 -0.0191 -0.1661 -0.3762
 7282SOL    HW133308   0.124   3.450   8.409  0.3892  0.2860 -0.6871
 7282SOL    HW233309   0.129   3.313   8.417 -2.1535  0.1931 -1.1928
 7283SOL     OW33310   0.294   2.297   9.147 -0.2409  0.2756  0.4468
 7283SOL    HW133311   0.305   2.233   9.217  0.4942 -2.4544 -2.1509
 7283SOL    HW233312   0.204   2.326   9.161 -0.2260  0.7372 -0.4427
 7284SOL     OW33313   0.522   0.006   7.732  0.1084  0.0125  0.6138
 7284SOL    HW133314   0.603   4.688   7.698 -1.1068 -0.4347 -1.8240
 7284SOL    HW233315   0.548   0.098   7.730 -0.4244  0.1676  0.7874
 7285SOL     OW33316   2.290   3.839   7.849 -0.0268  0.2613  0.3485
 7285SOL    HW133317   2.268   3.922   7.806  1.6829  1.3514  1.5961
 7285SOL    HW233318   2.213   3.791   7.817  0.0975  0.4659 -0.2705
 7286SOL     OW33319   4.538   4.230  17.280 -0.3500 -0.2510  0.1087
 7286SOL    HW133320   4.609   4.168  17.264 -0.5656 -0.2878 -0.6853
 7286SOL    HW233321   4.479   4.169  17.325  0.7489 -1.8052 -0.5869
 7287SOL     OW33322   3.019   0.425  12.557 -0.2061 -0.3215  0.5843
 7287SOL    HW133323   2.978   0.375  12.486  1.1514  0.7869 -0.9947
 7287SOL    HW233324   2.998   0.366  12.629 -2.3377 -1.6655 -1.1358
 7288SOL     OW33325   3.296   4.120   7.217  0.2070  0.3528  0.1595
 7288SOL    HW133326   3.246   4.200   7.230  0.5595  0.2517  2.2820
 7288SOL    HW233327   3.224   4.070   7.180  0.4471 -2.1389  2.9671
 7289SOL     OW33328   4.284   3.299   7.377  0.7019 -0.2109 -0.2471
 7289SOL    HW133329   4.338   3.283   7.455  0.1304 -0.6990  0.0424
 7289SOL    HW233330   4.193   3.302   7.405  0.6222  0.4246 -0.5649
 7290SOL     OW33331   1.492   4.236   8.575  0.2663  0.5305  0.2912
 7290SOL    HW133332   1.429   4.177   8.535  2.5820 -1.8999  0.2191
 7290SOL    HW233333   1.470   4.232   8.668 -0.8041 -0.0647  0.0046
 7291SOL     OW33334   0.366   1.326   7.284 -0.1249 -0.2691 -0.5131
 7291SOL    HW133335   0.360   1.237   7.251  1.1975 -0.5604  0.0112
 7291SOL    HW233336   0.451   1.316   7.328 -0.2530 -0.4649 -0.3123
 7292SOL     OW33337   3.890   4.615   8.519  0.2890 -0.1419  0.2203
 7292SOL    HW133338   3.958   4.647   8.579 -0.9380 -0.8022  1.9593
 7292SOL    HW233339   3.872   4.528   8.555 -0.5237 -0.0290  0.0987
 7293SOL     OW33340   0.992   0.730  12.147 -0.5040  0.2138  0.3829
 7293SOL    HW133341   0.984   0.715  12.052 -0.0706 -1.7094  0.6465
 7293SOL    HW233342   1.039   0.654  12.180 -0.6128  0.1152  0.3105
 7294SOL     OW33343   3.428   1.771   3.586 -0.0759 -0.5755 -0.0190
 7294SOL    HW133344   3.376   1.733   3.657  0.9521 -1.0217  0.4878
 7294SOL    HW233345   3.510   1.723   3.587  1.5058  2.1621 -0.1611
 7295SOL     OW33346   1.929   2.909   0.759  0.4500 -0.8282 -0.0444
 7295SOL    HW133347   1.834   2.910   0.774  0.5729  1.2099  0.6260
 7295SOL    HW233348   1.938   3.002   0.740 -0.7124 -0.7587 -0.2625
 7296SOL     OW33349   0.320   1.721   1.494 -0.1879  0.7849  0.2877
 7296SOL    HW133350   0.366   1.643   1.522  0.5631  0.9553 -0.4660
 7296SOL    HW233351   0.228   1.701   1.514 -0.5429  3.5724  1.4271
 7297SOL     OW33352   3.202   0.822   9.730 -0.1443 -0.3317  0.0838
 7297SOL    HW133353   3.171   0.863   9.811 -2.4191  0.4218 -1.1889
 7297SOL    HW233354   3.284   0.783   9.760 -0.4310 -0.0092  1.2887
 7298SOL     OW33355   0.114   0.015   4.966  0.1219  0.2237  0.2951
 7298SOL    HW133356   0.043   0.075   4.947  1.6705  2.8257  2.6219
 7298SOL    HW233357   0.186   0.078   4.957  2.2713 -2.2549 -0.1037
 7299SOL     OW33358   2.886   0.257   5.554 -0.6252 -0.2111  0.2559
 7299SOL    HW133359   2.800   0.219   5.538 -0.1469 -1.5345  0.8400
 7299SOL    HW233360   2.864   0.348   5.572 -2.1350 -0.4376 -0.4697
 7300SOL     OW33361   0.616   1.695   9.177 -0.7135  0.0045 -0.1898
 7300SOL    HW133362   0.645   1.679   9.267  1.0372  0.5738 -0.6404
 7300SOL    HW233363   0.672   1.631   9.134  0.9154  0.4017  1.3410
 7301SOL     OW33364   0.294   0.526   8.731  0.0571  0.2342  0.2723
 7301SOL    HW133365   0.382   0.488   8.722 -0.3761 -0.6057 -0.3955
 7301SOL    HW233366   0.255   0.469   8.665 -3.2270  1.1620  1.4299
 7302SOL     OW33367   1.202   3.330  14.612 -0.7716 -0.3975 -0.8238
 7302SOL    HW133368   1.122   3.327  14.665  0.6613  0.6854  1.4377
 7302SOL    HW233369   1.206   3.242  14.576  1.2872  0.1663 -1.9984
 7303SOL     OW33370   0.519   2.886   7.846  0.0627  0.3055 -0.0302
 7303SOL    HW133371   0.456   2.904   7.916 -0.6071 -0.4047 -0.4465
 7303SOL    HW233372   0.475   2.940   7.780 -1.2133  0.4841  0.9599
 7304SOL     OW33373   1.454   0.303  10.417 -0.1054 -0.1503  0.8242
 7304SOL    HW133374   1.493   0.386  10.389  1.1816  0.0900  3.2897
 7304SOL    HW233375   1.360   0.319  10.402 -0.3867 -2.0611  0.6147
 7305SOL     OW33376   1.420   0.387   5.789  0.1435 -0.2612 -0.4039
 7305SOL    HW133377   1.325   0.384   5.778  0.2038 -1.9001 -0.5187
 7305SOL    HW233378   1.426   0.437   5.870 -1.4102  1.1274 -1.1487
 7306SOL     OW33379   4.645   3.188   8.266  0.7064 -0.2865 -0.0688
 7306SOL    HW133380   4.615   3.101   8.291 -0.7829  0.5949  1.1944
 7306SOL    HW233381   4.663   3.226   8.352  1.8095 -0.4285 -0.2323
 7307SOL     OW33382   1.261   3.011   6.169 -1.1306 -0.1865  0.1651
 7307SOL    HW133383   1.314   2.931   6.163 -1.6316 -0.3743 -1.7110
 7307SOL    HW233384   1.264   3.032   6.262  0.0413  1.0717 -0.1523
 7308SOL     OW33385   3.580   1.457  12.612 -0.0910 -0.1929  0.0697
 7308SOL    HW133386   3.535   1.514  12.550 -2.2331 -1.2412  0.6775
 7308SOL    HW233387   3.517   1.388  12.630 -0.9610  0.7305  0.5991
 7309SOL     OW33388   1.158   0.757   4.153 -0.4492 -0.1936  0.2860
 7309SOL    HW133389   1.112   0.839   4.135  0.0886  0.6996  2.9957
 7309SOL    HW233390   1.119   0.715   4.230 -2.0350 -1.1692 -1.0579
 7310SOL     OW33391   3.018   4.031   2.511 -0.1425 -0.0162 -0.3683
 7310SOL    HW133392   3.010   4.125   2.531 -1.2884 -0.2670  0.3470
 7310SOL    HW233393   3.110   4.028   2.484 -0.1241  1.5134 -0.4940
 7311SOL     OW33394   4.652   4.372  16.600 -0.1756  0.1325  0.0599
 7311SOL    HW133395   4.646   4.348  16.507 -1.9363 -0.7220  0.3953
 7311SOL    HW233396   4.661   4.467  16.592 -0.4187  0.0886 -0.6946
 7312SOL     OW33397   3.521   3.961   2.330  0.5231 -0.2488 -0.0867
 7312SOL    HW133398   3.441   3.949   2.381 -0.5501  1.6122 -1.3122
 7312SOL    HW233399   3.490   4.035   2.277  0.9035  0.2795  0.4395
 7313SOL     OW33400   3.205   1.254   1.394  1.1733  0.4127 -0.2707
 7313SOL    HW133401   3.191   1.170   1.350  0.4958  1.0802 -1.3160
 7313SOL    HW233402   3.122   1.255   1.441  1.7469  0.0881  0.7566
 7314SOL     OW33403   0.386   1.989   7.773 -0.2864  0.3506 -0.6001
 7314SOL    HW133404   0.413   2.076   7.800 -2.4172  0.2605  1.8284
 7314SOL    HW233405   0.325   2.015   7.703  0.0740  0.2115 -0.9671
 7315SOL     OW33406   4.185   1.934   4.792  0.2099  0.0973  0.2724
 7315SOL    HW133407   4.109   1.973   4.836  1.1529  2.0356  0.1400
 7315SOL    HW233408   4.130   1.865   4.754 -0.5310  1.5804 -1.3190
 7316SOL     OW33409   3.802   3.867   2.430  0.4234  0.2913 -0.0603
 7316SOL    HW133410   3.739   3.891   2.362  0.7450  1.2624 -0.0192
 7316SOL    HW233411   3.867   3.828   2.371  2.5682  1.5403  1.4866
 7317SOL     OW33412   3.182   3.910   4.315 -0.3104 -0.3283  0.0078
 7317SOL    HW133413   3.229   3.987   4.285  0.0821 -0.1869  0.9947
 7317SOL    HW233414   3.092   3.942   4.306 -1.0236 -2.3134  0.1417
 7318SOL     OW33415   1.850   0.205   4.725  0.1365 -0.0739 -0.1580
 7318SOL    HW133416   1.803   0.286   4.744  0.4588  0.0421  0.1411
 7318SOL    HW233417   1.942   0.230   4.727  0.2026 -0.3935  0.6628
 7319SOL     OW33418   0.865   0.861   3.873  0.3537 -0.9553 -0.4478
 7319SOL    HW133419   0.854   0.784   3.818  1.9035  0.3403 -2.6059
 7319SOL    HW233420   0.815   0.834   3.949 -0.4812  2.0500  0.0983
 7320SOL     OW33421   4.242   2.653   3.582 -0.6654 -0.9591 -0.8334
 7320SOL    HW133422   4.168   2.696   3.540  0.8335  1.5108 -0.9463
 7320SOL    HW233423   4.303   2.647   3.509 -0.1073 -0.6273 -0.4016
 7321SOL     OW33424   3.950   1.523   4.202  0.3498 -0.0552 -0.0365
 7321SOL    HW133425   3.925   1.534   4.294 -0.1741  2.8409 -0.5241
 7321SOL    HW233426   3.988   1.609   4.187  1.2964 -0.9156 -2.6078
 7322SOL     OW33427   3.884   0.237  15.392 -0.4578 -0.2561 -0.2297
 7322SOL    HW133428   3.846   0.196  15.314  2.3095 -1.0866 -1.1637
 7322SOL    HW233429   3.971   0.198  15.402 -0.1994  0.2925 -0.3424
 7323SOL     OW33430   3.498   4.487  10.049 -0.5034  0.4564  0.0726
 7323SOL    HW133431   3.519   4.397  10.027 -0.6408  0.4679 -0.1088
 7323SOL    HW233432   3.405   4.486  10.026 -0.8019  2.9537  1.1343
 7324SOL     OW33433   3.169   4.580   9.304 -0.0866  0.1693  0.8587
 7324SOL    HW133434   3.145   4.519   9.374 -3.4348  2.0020  1.3078
 7324SOL    HW233435   3.138   4.529   9.229  2.1884 -0.7180  0.5084
 7325SOL     OW33436   3.776   3.349   6.582 -0.5601 -0.3762  0.0186
 7325SOL    HW133437   3.817   3.429   6.615  0.9077 -1.0195 -0.2258
 7325SOL    HW233438   3.793   3.299   6.662  1.4168  0.2249 -0.0113
 7326SOL     OW33439   4.247   3.309  14.533 -0.0341 -0.2003  0.6037
 7326SOL    HW133440   4.249   3.347  14.446 -0.5123 -0.0929  0.6412
 7326SOL    HW233441   4.303   3.366  14.586  2.1417 -1.7799  0.0134
 7327SOL     OW33442   3.915   2.847   7.675  0.7914 -0.3020  0.2912
 7327SOL    HW133443   3.829   2.808   7.696  1.1355 -1.4240 -0.3709
 7327SOL    HW233444   3.881   2.933   7.649  0.6406 -0.6668 -0.7035
 7328SOL     OW33445   4.200   4.332   2.617 -0.4885  0.0634  0.1304
 7328SOL    HW133446   4.132   4.269   2.593 -1.7046  0.9104  1.3145
 7328SOL    HW233447   4.162   4.370   2.697 -0.7895  0.2059 -0.0824
 7329SOL     OW33448   2.753   1.011   7.201 -0.0624  0.1424  0.1383
 7329SOL    HW133449   2.719   1.000   7.290  1.1892  0.9165  0.7207
 7329SOL    HW233450   2.800   0.930   7.183 -0.1645 -0.0718  0.8283
 7330SOL     OW33451   2.610   1.876   4.894  0.4700  0.2481  0.2627
 7330SOL    HW133452   2.551   1.830   4.954  0.2065  0.4525  0.1583
 7330SOL    HW233453   2.639   1.941   4.958  0.6662 -0.5623  0.9984
 7331SOL     OW33454   1.965   2.084   5.611 -0.2180  0.1031 -0.0965
 7331SOL    HW133455   1.999   2.039   5.688 -1.5035 -1.0023 -0.1735
 7331SOL    HW233456   2.048   2.103   5.566  0.1089 -0.3824  0.3073
 7332SOL     OW33457   0.739   1.668   7.607  0.7166  0.3076  0.2571
 7332SOL    HW133458   0.674   1.693   7.672 -0.6356  1.2958 -1.4563
 7332SOL    HW233459   0.822   1.673   7.653  1.1396 -1.4996 -0.3031
 7333SOL     OW33460   2.699   3.463   6.135  0.1797  0.3359  0.2660
 7333SOL    HW133461   2.637   3.397   6.104  1.0414 -0.4170  0.1377
 7333SOL    HW233462   2.782   3.442   6.092 -0.7543 -1.9662 -0.4021
 7334SOL     OW33463   2.657   2.926   7.861  0.1318 -0.0875  0.0495
 7334SOL    HW133464   2.681   2.834   7.846  1.6303 -0.3316  4.0058
 7334SOL    HW233465   2.646   2.958   7.771 -1.8448 -0.6168  0.0953
 7335SOL     OW33466   2.538   1.997   2.370 -0.7029  0.5199 -0.4299
 7335SOL    HW133467   2.462   2.049   2.344  1.3735  2.5422 -2.4799
 7335SOL    HW233468   2.569   2.065   2.430 -1.3347 -1.2534  1.9092
 7336SOL     OW33469   3.854   0.036   7.296 -0.1527 -0.1573  0.2153
 7336SOL    HW133470   3.766   0.041   7.258  0.9551  1.4290 -2.0521
 7336SOL    HW233471   3.841   4.677   7.351  0.3109 -0.7205 -0.4843
 7337SOL     OW33472   3.465   4.183   5.557  0.7613 -0.4271 -0.0128
 7337SOL    HW133473   3.370   4.172   5.550  0.3429  2.8882  0.3686
 7337SOL    HW233474   3.474   4.139   5.641 -1.1839  0.5942  0.7431
 7338SOL     OW33475   0.057   4.213  15.199 -0.3168  0.5869 -0.0153
 7338SOL    HW133476   4.713   4.187  15.266 -0.7055 -3.4998 -1.9649
 7338SOL    HW233477   4.718   4.249  15.132 -2.0835 -1.2290  0.5177
 7339SOL     OW33478   2.059   3.216   9.174  0.1750 -0.2262 -0.1482
 7339SOL    HW133479   1.964   3.224   9.165 -0.1175 -0.2710  3.0499
 7339SOL    HW233480   2.087   3.202   9.083  1.0737 -1.3811  0.2987
 7340SOL     OW33481   0.674   3.195   7.608 -0.7248  0.1235 -0.2833
 7340SOL    HW133482   0.754   3.206   7.556  0.9820 -0.6625  2.2134
 7340SOL    HW233483   0.638   3.113   7.572 -0.8020  0.8967 -1.9555
 7341SOL     OW33484   0.198   4.464   6.074 -0.7176  0.1094  0.0148
 7341SOL    HW133485   0.192   4.413   6.154 -0.3753 -0.9006 -0.5949
 7341SOL    HW233486   0.270   4.424   6.025 -0.2787  1.1197 -0.1707
 7342SOL     OW33487   1.882   2.913   5.385  0.0723  0.0826  0.2679
 7342SOL    HW133488   1.796   2.871   5.380 -0.4105  1.1541 -0.4091
 7342SOL    HW233489   1.856   3.004   5.379  1.6703  0.6190  1.4599
 7343SOL     OW33490   0.865   4.590   4.078  0.4572 -0.2865 -0.4381
 7343SOL    HW133491   0.781   4.546   4.088 -0.2308  1.0580 -0.1686
 7343SOL    HW233492   0.916   4.561   4.154  1.8924  1.4875 -0.7005
 7344SOL     OW33493   0.960   0.790   1.858  0.1595  0.1584 -0.4250
 7344SOL    HW133494   0.869   0.763   1.846 -0.3041  2.1049 -1.3566
 7344SOL    HW233495   0.995   0.719   1.911 -0.1696 -1.4145 -2.3055
 7345SOL     OW33496   0.688   4.094   4.050  0.2486  0.4810  0.2088
 7345SOL    HW133497   0.617   4.140   4.006  0.4359  1.3080  0.7843
 7345SOL    HW233498   0.683   4.128   4.139 -1.2325 -0.3367  0.4366
 7346SOL     OW33499   4.146   2.614   2.640  0.0721 -0.3115  1.0913
 7346SOL    HW133500   4.195   2.535   2.615  3.6928  1.9382  1.0501
 7346SOL    HW233501   4.059   2.590   2.609  0.6134 -0.6949 -0.1082
 7347SOL     OW33502   2.747   1.414  12.393  0.1192  0.1249 -0.2231
 7347SOL    HW133503   2.714   1.455  12.313 -2.9738 -2.3096 -0.1849
 7347SOL    HW233504   2.692   1.336  12.392  0.7383 -0.3269  0.6212
 7348SOL     OW33505   2.976   0.138   2.023 -0.3892  0.2588 -0.5179
 7348SOL    HW133506   3.036   0.063   2.023  1.5826  1.8259  0.5861
 7348SOL    HW233507   2.899   0.082   2.009 -0.8620  0.5230  1.0391
 7349SOL     OW33508   2.077   2.972   7.893  0.4673  0.5316 -0.0529
 7349SOL    HW133509   2.119   2.979   7.807 -0.2178  2.2603 -0.2478
 7349SOL    HW233510   1.997   3.023   7.879 -0.3333 -0.3704  1.3372
 7350SOL     OW33511   1.984   3.667   2.786 -0.0203 -0.1251 -0.1449
 7350SOL    HW133512   2.024   3.664   2.699  2.5410 -0.6155  1.0641
 7350SOL    HW233513   1.949   3.578   2.783  0.4650 -0.3430  0.6075
 7351SOL     OW33514   3.964   3.943   8.785  0.5899 -0.6124 -0.3976
 7351SOL    HW133515   3.925   3.943   8.698  1.5781  0.2098 -0.8457
 7351SOL    HW233516   3.991   3.851   8.785  1.9055 -0.2426  2.6097
 7352SOL     OW33517   2.662   1.890  11.350 -0.0929  0.7454 -0.4212
 7352SOL    HW133518   2.679   1.816  11.292  1.6284  1.2610 -0.5768
 7352SOL    HW233519   2.667   1.959  11.283 -1.5696  1.0748 -0.2058
 7353SOL     OW33520   1.470   4.518   3.133  0.2763 -0.1467 -0.6215
 7353SOL    HW133521   1.452   4.586   3.197 -1.3603 -1.4508  0.3049
 7353SOL    HW233522   1.399   4.455   3.143  1.3681 -0.7131  3.6215
 7354SOL     OW33523   2.017   2.414   6.669 -0.2866 -0.5382  0.0617
 7354SOL    HW133524   2.074   2.422   6.592  0.6385 -1.6893  0.6326
 7354SOL    HW233525   2.030   2.493   6.720 -0.8836 -0.2169 -0.2869
 7355SOL     OW33526   1.997   0.986   8.743 -0.7366  0.2989  0.4289
 7355SOL    HW133527   1.940   1.004   8.669 -0.6748  3.1974  1.0556
 7355SOL    HW233528   1.939   0.998   8.818 -1.4753 -2.3975  0.2694
 7356SOL     OW33529   3.825   3.427  12.828  0.6766  1.0548  1.1817
 7356SOL    HW133530   3.819   3.488  12.754 -0.5882  1.2137  1.4144
 7356SOL    HW233531   3.917   3.402  12.830  1.1819  2.7822 -0.6903
 7357SOL     OW33532   2.272   0.381   3.506 -0.0315 -0.0775  0.3241
 7357SOL    HW133533   2.277   0.292   3.471 -2.6675 -0.2874  0.4373
 7357SOL    HW233534   2.197   0.418   3.459  0.5967 -0.3705 -0.9264
 7358SOL     OW33535   2.089   0.136   9.089  0.0441 -0.0236  0.4339
 7358SOL    HW133536   2.149   0.167   9.022 -1.3496  1.1878 -0.2670
 7358SOL    HW233537   2.025   0.092   9.033  0.0069  0.0282  0.4359
 7359SOL     OW33538   3.625   2.894   3.510  0.3727 -0.0189 -0.1694
 7359SOL    HW133539   3.566   2.965   3.486  0.2781 -0.1254 -0.2505
 7359SOL    HW233540   3.625   2.906   3.605  1.1729 -1.0729 -0.0350
 7360SOL     OW33541   0.927   3.788   3.486 -0.3217  0.1244 -0.3507
 7360SOL    HW133542   1.009   3.838   3.491 -1.4092  1.8478  0.4961
 7360SOL    HW233543   0.963   3.710   3.445  0.6045 -1.5122  3.5116
 7361SOL     OW33544   3.188   4.115   5.499  0.2670  0.1906 -0.2160
 7361SOL    HW133545   3.151   4.188   5.449 -2.4923 -0.8936  0.2903
 7361SOL    HW233546   3.127   4.047   5.473  0.2117  0.1864 -0.0770
 7362SOL     OW33547   4.140   0.593  16.986 -0.8583 -0.1903  0.5287
 7362SOL    HW133548   4.138   0.641  17.068 -0.7283  1.6839 -0.5714
 7362SOL    HW233549   4.072   0.646  16.944  0.8533  2.9080  1.6681
 7363SOL     OW33550   2.022   0.869  10.751  0.3291 -0.6441 -0.4632
 7363SOL    HW133551   2.027   0.961  10.726  0.4698 -0.4916  0.1325
 7363SOL    HW233552   1.982   0.873  10.838  2.4995  1.2844  0.4394
 7364SOL     OW33553   1.503   1.476   4.245  0.6389 -0.4679  0.2842
 7364SOL    HW133554   1.590   1.437   4.236  1.0993  0.4102  0.8907
 7364SOL    HW233555   1.477   1.472   4.153 -1.9336  1.6867  0.9202
 7365SOL     OW33556   4.261   0.895  13.449  0.6509 -0.1048  0.1102
 7365SOL    HW133557   4.252   0.835  13.375  0.3460  0.4104 -0.2684
 7365SOL    HW233558   4.316   0.959  13.404 -0.0726 -1.4697 -2.7682
 7366SOL     OW33559   3.501   4.682   9.594 -0.0900 -0.6451 -0.0768
 7366SOL    HW133560   3.424   4.712   9.643  0.2334  0.3793 -0.2032
 7366SOL    HW233561   3.562   4.661   9.665  2.5022  0.0259 -2.1107
 7367SOL     OW33562   1.897   0.099  15.060  0.4584 -0.3814  0.9774
 7367SOL    HW133563   1.894   0.137  14.972  1.0300  0.8731  1.4907
 7367SOL    HW233564   1.862   0.011  15.052  1.5382 -0.9266  2.2590
 7368SOL     OW33565   2.342   2.892  13.361 -1.1257 -0.0807 -0.0263
 7368SOL    HW133566   2.421   2.934  13.326 -1.8669  0.1961 -1.3788
 7368SOL    HW233567   2.390   2.856  13.436 -0.9135 -1.7261 -0.9476
 7369SOL     OW33568   1.385   1.947   3.237 -0.3792 -0.0014 -0.3509
 7369SOL    HW133569   1.449   1.905   3.179 -0.1090  2.0175 -1.5229
 7369SOL    HW233570   1.438   1.977   3.311  0.4135 -1.2994 -0.3997
 7370SOL     OW33571   4.525   0.332   1.827  0.0672  0.3426 -0.1262
 7370SOL    HW133572   4.528   0.273   1.752 -1.8140  1.3260 -0.9788
 7370SOL    HW233573   4.606   0.305   1.871 -0.7822 -0.5403  0.9144
 7371SOL     OW33574   0.020   3.783   1.755 -0.0871 -0.1750 -0.2576
 7371SOL    HW133575   0.029   3.711   1.817  0.6164 -0.1809 -0.3695
 7371SOL    HW233576   4.713   3.727   1.682  1.9763 -0.4836 -0.7637
 7372SOL     OW33577   2.386   4.225  14.967 -0.5498  0.0957 -0.1061
 7372SOL    HW133578   2.344   4.160  15.023  3.6079 -0.0932  2.7827
 7372SOL    HW233579   2.353   4.306  15.007  2.7831  1.1120  0.5503
 7373SOL     OW33580   0.797   4.170  13.362  0.1259  0.0214  0.2245
 7373SOL    HW133581   0.716   4.127  13.388 -0.1630 -0.2229 -1.0881
 7373SOL    HW233582   0.765   4.252  13.323  0.4456  0.3929  0.7354
 7374SOL     OW33583   1.593   2.685   3.950  0.1370  0.5067  0.9978
 7374SOL    HW133584   1.597   2.612   4.011 -2.9371  0.1083  0.6963
 7374SOL    HW233585   1.613   2.645   3.865  1.6557  1.4925  0.8728
 7375SOL     OW33586   1.971   3.349   4.367  0.5238  0.1771 -0.3013
 7375SOL    HW133587   2.035   3.419   4.374 -0.0104  0.8492 -2.1558
 7375SOL    HW233588   1.915   3.392   4.303  0.3865  0.5298  0.0510
 7376SOL     OW33589   4.652   3.404   4.527  0.0363  0.0739  0.2681
 7376SOL    HW133590   4.586   3.336   4.539 -0.5563  0.5979 -0.0303
 7376SOL    HW233591   4.608   3.479   4.567  0.9359  0.0875  1.2682
 7377SOL     OW33592   0.774   3.051   2.687 -0.7442 -0.2164  0.0494
 7377SOL    HW133593   0.843   3.117   2.681 -1.7785  0.5445 -3.3455
 7377SOL    HW233594   0.718   3.096   2.623 -1.6165  0.0358  0.9979
 7378SOL     OW33595   2.749   1.749   1.390  0.0252 -0.1294  0.1542
 7378SOL    HW133596   2.816   1.705   1.444  1.4286  4.2021  1.9084
 7378SOL    HW233597   2.670   1.696   1.396  0.9777 -1.6615 -0.7836
 7379SOL     OW33598   4.348   0.063   7.523  0.5133 -0.3459  0.3023
 7379SOL    HW133599   4.331   0.036   7.433 -0.2958 -1.3478  0.7592
 7379SOL    HW233600   4.349   0.159   7.517 -0.6908 -0.4888 -2.3770
 7380SOL     OW33601   1.787   0.290   3.999  0.3023  0.1536  0.1027
 7380SOL    HW133602   1.693   0.307   4.013  0.2432  1.0654 -1.4150
 7380SOL    HW233603   1.792   0.258   3.909  2.3562  2.0880 -0.4742
 7381SOL     OW33604   3.937   4.382   2.744  0.1187  0.4061  0.3239
 7381SOL    HW133605   3.879   4.455   2.721 -2.8684 -2.4933 -1.3721
 7381SOL    HW233606   3.868   4.316   2.755  1.1221 -0.4898  1.1822
 7382SOL     OW33607   0.078   1.750  14.921  0.2916  0.4458  0.6242
 7382SOL    HW133608   0.059   1.688  14.851  1.7865  1.6911 -0.8708
 7382SOL    HW233609   0.173   1.760  14.922  0.3950 -0.5128  0.9757
 7383SOL     OW33610   2.762   2.570   6.415 -0.2598 -0.1909 -0.1484
 7383SOL    HW133611   2.699   2.631   6.375 -0.2024 -0.2230 -0.2890
 7383SOL    HW233612   2.726   2.491   6.375 -0.9255  0.2571 -0.4424
 7384SOL     OW33613   4.169   1.878   3.630 -0.6941 -0.1243  0.5611
 7384SOL    HW133614   4.226   1.911   3.561 -1.7595  0.7131  0.0610
 7384SOL    HW233615   4.218   1.903   3.708  0.1752 -0.1189  0.0047
 7385SOL     OW33616   3.651   2.762   3.275  0.4051 -0.0156  0.4584
 7385SOL    HW133617   3.636   2.818   3.351  0.0465  0.0259  0.3546
 7385SOL    HW233618   3.701   2.829   3.229  0.6882 -0.2583  0.4108
 7386SOL     OW33619   0.690   1.634   4.421 -0.3383  0.0240 -0.8630
 7386SOL    HW133620   0.773   1.675   4.397  1.4323 -3.0441  0.1095
 7386SOL    HW233621   0.718   1.589   4.501  0.8302  2.4733  0.0948
 7387SOL     OW33622   2.033   1.885   9.217 -0.1677 -0.2175 -0.6139
 7387SOL    HW133623   2.122   1.854   9.202  0.9141  1.0512  3.1262
 7387SOL    HW233624   2.022   1.940   9.140 -0.6858 -0.5630 -0.7870
 7388SOL     OW33625   4.255   2.889   9.934 -0.5144  0.4935  0.4459
 7388SOL    HW133626   4.296   2.807   9.907 -3.4327 -1.2502  1.3777
 7388SOL    HW233627   4.193   2.908   9.863  0.5577 -0.3472 -0.7270
 7389SOL     OW33628   0.589   2.348   4.098  0.5464 -0.4787  0.0370
 7389SOL    HW133629   0.599   2.439   4.069 -3.0205 -0.3038 -0.6419
 7389SOL    HW233630   0.559   2.313   4.014 -2.0515  0.4156  0.5833
 7390SOL     OW33631   4.069   4.484   7.934  0.1113 -0.1962 -0.2374
 7390SOL    HW133632   4.029   4.568   7.952 -1.7882 -1.3848  1.0648
 7390SOL    HW233633   4.122   4.479   8.014 -0.3601  0.9700  0.1356
 7391SOL     OW33634   1.689   2.717   3.495 -0.0609  0.3786  0.2565
 7391SOL    HW133635   1.628   2.749   3.429 -1.7636 -0.8933  1.1821
 7391SOL    HW233636   1.768   2.718   3.442  0.1516 -1.4175  0.5413
 7392SOL     OW33637   4.020   1.459  13.512  0.2534  0.1502  0.1432
 7392SOL    HW133638   3.958   1.531  13.504 -1.0492 -0.9748  0.1728
 7392SOL    HW233639   4.105   1.504  13.510 -1.0980  2.6005 -2.3242
 7393SOL     OW33640   2.157   3.103   2.644  0.4847 -0.3391  0.2354
 7393SOL    HW133641   2.226   3.137   2.701 -0.3151 -1.4858  1.8970
 7393SOL    HW233642   2.091   3.098   2.714 -0.0147 -0.9965 -0.2909
 7394SOL     OW33643   2.777   4.416   8.594  0.6594  0.2979 -0.6161
 7394SOL    HW133644   2.827   4.451   8.521 -1.4534 -0.5854 -2.4572
 7394SOL    HW233645   2.832   4.343   8.622  0.7882  0.5892 -0.1005
 7395SOL     OW33646   4.653   1.997   7.005  0.1334  0.6870  0.3082
 7395SOL    HW133647   4.684   1.906   7.006  0.7536  0.8974  0.2227
 7395SOL    HW233648   4.573   2.002   7.056 -0.6055 -2.3942 -0.5309
 7396SOL     OW33649   4.608   4.019   3.864  0.2660  0.6136 -0.3939
 7396SOL    HW133650   4.619   4.093   3.805 -0.3371 -0.2767 -1.6252
 7396SOL    HW233651   4.604   4.076   3.941 -0.6674 -0.4875  0.3806
 7397SOL     OW33652   2.632   1.703  13.267  0.5759 -0.7796  0.3035
 7397SOL    HW133653   2.716   1.740  13.239  1.4818 -1.6277  1.9548
 7397SOL    HW233654   2.636   1.618  13.223  0.0151  0.2389 -1.7278
 7398SOL     OW33655   1.127   1.967   2.594 -0.1768  0.9279 -0.1545
 7398SOL    HW133656   1.050   2.006   2.554  1.0090  0.1740 -3.1654
 7398SOL    HW233657   1.088   1.882   2.611 -2.6773  2.2212  0.4931
 7399SOL     OW33658   1.493   3.038  16.788 -0.4315 -0.2004 -0.5892
 7399SOL    HW133659   1.506   3.131  16.806  0.1157 -0.2946 -0.5195
 7399SOL    HW233660   1.505   3.004  16.876  2.0207  1.7549 -0.1788
 7400SOL     OW33661   3.408   1.083   7.271  0.0525  0.1775  0.0112
 7400SOL    HW133662   3.385   1.001   7.315  1.2009  0.6515  1.4691
 7400SOL    HW233663   3.345   1.081   7.199 -1.5683 -0.2055  1.4363
 7401SOL     OW33664   3.941   1.105   6.656  0.5868  0.9347 -0.2978
 7401SOL    HW133665   4.017   1.051   6.639 -2.4569 -2.9449 -1.6431
 7401SOL    HW233666   3.881   1.033   6.675 -0.5195  1.7071 -0.8585
 7402SOL     OW33667   2.640   0.559   9.323 -0.0409  0.1228  0.2203
 7402SOL    HW133668   2.574   0.552   9.255  0.1145 -1.6824  0.2389
 7402SOL    HW233669   2.588   0.613   9.382 -0.4075  2.0738 -1.8995
 7403SOL     OW33670   2.583   3.433  13.910  0.4602  0.2001  0.1774
 7403SOL    HW133671   2.587   3.348  13.955  4.3616  0.9112  1.1415
 7403SOL    HW233672   2.551   3.397  13.827  0.8265  3.4427 -1.3560
 7404SOL     OW33673   1.262   4.104   0.289 -0.0529 -0.3753 -0.4564
 7404SOL    HW133674   1.344   4.054   0.284  0.1089 -0.0970 -0.5745
 7404SOL    HW233675   1.211   4.030   0.322 -1.1190  0.1945 -0.8430
 7405SOL     OW33676   3.855   0.906   2.729 -0.1060  0.3490 -0.2497
 7405SOL    HW133677   3.914   0.914   2.654 -1.7349  2.0141 -1.3212
 7405SOL    HW233678   3.910   0.848   2.782  0.4393  0.9915 -0.1068
 7406SOL     OW33679   0.000   3.359  11.302  0.1796 -0.2593  0.1218
 7406SOL    HW133680   4.638   3.386  11.262 -1.6117  0.0605  3.9497
 7406SOL    HW233681   0.047   3.442  11.296  0.1322 -0.1110  1.6519
 7407SOL     OW33682   2.729   4.546  13.271 -0.0885  0.2084 -0.3679
 7407SOL    HW133683   2.656   4.496  13.306 -0.2426  0.4907 -0.2828
 7407SOL    HW233684   2.792   4.554  13.342  0.5836  1.5266 -1.1063
 7408SOL     OW33685   3.530   4.195  11.029 -0.5125  0.3726 -0.0558
 7408SOL    HW133686   3.492   4.276  11.064  1.3031  1.4085 -0.4944
 7408SOL    HW233687   3.542   4.221  10.937  0.3069 -0.8107 -0.2902
 7409SOL     OW33688   3.665   0.052   2.998  0.1796 -0.0178  0.2629
 7409SOL    HW133689   3.652   0.039   3.092 -0.8628  1.1705  0.2794
 7409SOL    HW233690   3.584   0.089   2.963  1.7948  0.0410 -3.3490
 7410SOL     OW33691   0.631   4.435   1.225 -0.4763  0.2259 -0.0934
 7410SOL    HW133692   0.671   4.348   1.221  0.8641  0.9515 -2.3710
 7410SOL    HW233693   0.673   4.491   1.160  1.1484 -0.2976  0.5232
 7411SOL     OW33694   1.390   3.706  17.068 -0.0849  0.0988 -0.0823
 7411SOL    HW133695   1.462   3.673  17.121  0.5274  0.3993 -0.7296
 7411SOL    HW233696   1.425   3.687  16.981  1.2876 -1.0838  0.7338
 7412SOL     OW33697   4.117   3.125   6.223 -0.0983 -0.1532  0.3573
 7412SOL    HW133698   4.135   3.214   6.252 -0.0473  0.0837 -0.4052
 7412SOL    HW233699   4.181   3.078   6.277  1.2536  1.2191 -0.0518
 7413SOL     OW33700   2.554   2.799   9.496 -0.2117  0.1075  0.1311
 7413SOL    HW133701   2.509   2.802   9.581  1.6703  1.4731  1.0906
 7413SOL    HW233702   2.627   2.743   9.524 -2.0370 -1.0717  2.5277
 7414SOL     OW33703   0.493   4.188   6.172  0.4230  0.4221 -0.6742
 7414SOL    HW133704   0.587   4.181   6.153  0.2908 -0.2247 -1.0907
 7414SOL    HW233705   0.488   4.237   6.255  0.6760 -0.6813 -0.0026
 7415SOL     OW33706   4.663   3.235   3.688 -0.4224  0.3787 -0.4235
 7415SOL    HW133707   4.605   3.254   3.761 -1.6616 -0.3328 -1.2287
 7415SOL    HW233708   4.658   3.140   3.680  0.0060  0.4015 -0.9583
 7416SOL     OW33709   4.324   4.517   8.125 -0.1123 -0.1360  0.6615
 7416SOL    HW133710   4.361   4.477   8.046  0.0268  1.6057 -0.1467
 7416SOL    HW233711   4.313   4.438   8.179  2.4712 -1.5989 -0.9826
 7417SOL     OW33712   0.100   0.942  14.737  0.2671 -0.1033 -0.0902
 7417SOL    HW133713   0.040   0.915  14.668 -0.6386 -0.9940  1.0305
 7417SOL    HW233714   0.136   0.855  14.759 -0.0814  0.1275  1.4289
 7418SOL     OW33715   0.554   0.129  14.789 -0.9813  0.4225 -0.4503
 7418SOL    HW133716   0.559   0.084  14.704  3.1660  1.3864 -0.7034
 7418SOL    HW233717   0.518   0.062  14.847  0.6444  0.1138  0.2009
 7419SOL     OW33718   2.415   4.482   1.162  0.3617  0.2850  0.3884
 7419SOL    HW133719   2.441   4.438   1.081 -0.2635 -2.0188  1.4413
 7419SOL    HW233720   2.449   4.570   1.144 -2.6926  1.1138 -1.2593
 7420SOL     OW33721   3.742   2.731   7.922 -0.6058 -0.0537  0.4931
 7420SOL    HW133722   3.834   2.705   7.922 -0.8461 -0.9111 -0.3770
 7420SOL    HW233723   3.719   2.722   8.014  1.4189 -0.7075  0.9286
 7421SOL     OW33724   2.341   1.506   8.171 -0.4362  0.5564  0.0124
 7421SOL    HW133725   2.375   1.586   8.212  0.6805  0.6579 -1.0932
 7421SOL    HW233726   2.247   1.518   8.165 -0.1624  2.2830 -0.8345
 7422SOL     OW33727   4.195   3.791   9.026 -0.1072  0.0675 -0.4311
 7422SOL    HW133728   4.184   3.861   9.091  0.2223  0.8349 -1.1973
 7422SOL    HW233729   4.104   3.785   8.997  0.1098 -0.4684 -1.0088
 7423SOL     OW33730   0.166   2.595   9.781 -0.0466 -0.4698 -0.2760
 7423SOL    HW133731   0.073   2.593   9.802  0.1826  1.6533  0.8656
 7423SOL    HW233732   0.182   2.506   9.749 -0.2895 -1.2446  1.7912
 7424SOL     OW33733   4.189   2.038   0.696 -0.1530 -0.0926  0.0830
 7424SOL    HW133734   4.285   2.044   0.697 -0.0787 -0.8431 -2.9556
 7424SOL    HW233735   4.174   1.945   0.681 -0.4658 -0.0244 -0.0185
 7425SOL     OW33736   4.527   2.086  16.396 -0.1007 -0.3223  0.3360
 7425SOL    HW133737   4.576   2.020  16.347 -1.3642 -1.2830  0.3779
 7425SOL    HW233738   4.479   2.136  16.330  2.0567  1.2946 -0.0167
 7426SOL     OW33739   1.681   1.334  17.220  0.5446 -0.2530 -0.5275
 7426SOL    HW133740   1.613   1.297  17.276 -0.4608  0.5031 -1.2317
 7426SOL    HW233741   1.648   1.422  17.204  1.2022  0.6121  2.8963
 7427SOL     OW33742   1.543   1.349   5.031 -0.2658  0.1268  0.1839
 7427SOL    HW133743   1.526   1.411   4.960 -0.1738 -0.8086 -0.6526
 7427SOL    HW233744   1.614   1.292   5.000  0.0837 -0.0502  1.3057
 7428SOL     OW33745   4.562   1.201   4.976 -0.6053 -0.2840 -0.0454
 7428SOL    HW133746   4.546   1.216   4.883  1.0556  2.4681  0.1216
 7428SOL    HW233747   4.533   1.287   5.006 -1.2224 -0.1790 -0.9476
 7429SOL     OW33748   2.776   2.997   8.767 -0.4906 -0.0338 -0.2457
 7429SOL    HW133749   2.779   2.981   8.673  0.3491 -0.1406 -0.1981
 7429SOL    HW233750   2.688   3.025   8.794 -0.9528 -1.2049 -0.5575
 7430SOL     OW33751   0.637   4.286   8.779  0.0114  0.7949  0.3409
 7430SOL    HW133752   0.568   4.322   8.723  0.2420 -0.6644 -0.8867
 7430SOL    HW233753   0.609   4.316   8.865 -0.3163 -0.9099  0.8239
 7431SOL     OW33754   1.001   0.804  17.071  0.2902  0.7354 -0.3069
 7431SOL    HW133755   1.054   0.804  16.991 -1.5064  4.7153 -1.5076
 7431SOL    HW233756   0.989   0.711  17.090 -1.8768  1.1370  0.3235
 7432SOL     OW33757   0.988   4.715   2.217  0.4124 -0.2733 -0.1010
 7432SOL    HW133758   0.909   4.667   2.193  0.1097 -0.2755  0.8912
 7432SOL    HW233759   1.037   0.008   2.136 -1.1044  1.2349 -0.7675
 7433SOL     OW33760   2.123   0.435   5.394  0.4953 -0.4047 -0.3711
 7433SOL    HW133761   2.166   0.516   5.367 -2.1465  0.4046 -2.1788
 7433SOL    HW233762   2.031   0.446   5.371  0.6890  0.2046 -0.8589
 7434SOL     OW33763   2.765   3.062   3.779  0.1202 -0.7731  0.2720
 7434SOL    HW133764   2.742   2.997   3.712 -0.4530  0.4856 -0.7487
 7434SOL    HW233765   2.859   3.049   3.767 -0.0617  0.5733 -2.4673
 7435SOL     OW33766   1.060   0.786   8.623  0.6860 -0.1111 -0.3002
 7435SOL    HW133767   1.066   0.849   8.695 -2.1908  1.5351 -1.4963
 7435SOL    HW233768   1.132   0.729   8.649  0.8559 -0.0407 -0.6291
 7436SOL     OW33769   2.246   3.604   1.102 -0.0303  1.0955  0.0639
 7436SOL    HW133770   2.231   3.513   1.126  0.3201  1.0610  0.1497
 7436SOL    HW233771   2.167   3.654   1.127 -1.3052  0.2202 -2.1962
 7437SOL     OW33772   1.431   0.868   1.713 -0.4860 -0.4126 -0.2664
 7437SOL    HW133773   1.341   0.861   1.683 -0.9757  2.6135  0.4582
 7437SOL    HW233774   1.451   0.779   1.741  0.7321  0.8674  2.9526
 7438SOL     OW33775   0.398   1.999   9.735 -0.0756 -0.0421 -0.1980
 7438SOL    HW133776   0.305   2.016   9.718  0.3100  1.4293 -0.8223
 7438SOL    HW233777   0.410   1.936   9.664 -0.8934  0.1634 -0.5207
 7439SOL     OW33778   1.502   0.265  12.454  0.4843 -0.7725  0.1012
 7439SOL    HW133779   1.465   0.305  12.533 -1.5438 -0.0708 -1.2283
 7439SOL    HW233780   1.547   0.187  12.486 -0.0662 -0.9052  0.5553
 7440SOL     OW33781   3.092   3.140   8.610 -0.3175  0.1457  0.2320
 7440SOL    HW133782   3.111   3.214   8.552  2.9250 -1.7770 -1.1154
 7440SOL    HW233783   3.030   3.182   8.670 -1.0586  1.4051 -1.3892
 7441SOL     OW33784   2.424   1.198   7.213  0.4872 -0.2755  0.7694
 7441SOL    HW133785   2.338   1.165   7.190  0.1656  0.0445  1.5039
 7441SOL    HW233786   2.421   1.174   7.306 -0.0704 -1.3036  0.4792
 7442SOL     OW33787   3.044   2.983   2.080 -0.5070 -0.0991 -0.1983
 7442SOL    HW133788   2.982   3.014   2.014 -0.1761 -3.8326 -2.2327
 7442SOL    HW233789   3.070   2.903   2.034  0.4937 -0.3330  0.7764
 7443SOL     OW33790   3.741   1.500   2.615 -0.1293  0.3452 -0.1135
 7443SOL    HW133791   3.771   1.423   2.663 -0.9940  0.2134  0.2145
 7443SOL    HW233792   3.824   1.538   2.586  0.0430 -0.5963 -0.8467
 7444SOL     OW33793   3.077   0.158   7.790  0.2153 -0.1096 -0.2891
 7444SOL    HW133794   3.116   0.169   7.877  1.9307 -1.8560 -0.8318
 7444SOL    HW233795   3.091   0.064   7.774  2.1697 -0.0280  0.9741
 7445SOL     OW33796   4.213   4.496   8.432 -0.2200  0.0360  1.0440
 7445SOL    HW133797   4.170   4.530   8.510 -0.6651  3.0033 -0.4849
 7445SOL    HW233798   4.140   4.483   8.372  0.4615 -2.0061  0.6512
 7446SOL     OW33799   0.803   4.373   6.149 -0.3221 -0.1453  0.1908
 7446SOL    HW133800   0.838   4.412   6.068  1.1958  1.6116  1.6986
 7446SOL    HW233801   0.722   4.424   6.146  0.1732  0.5585 -1.2741
 7447SOL     OW33802   1.163   2.182  11.096 -0.3662  0.9136  0.3747
 7447SOL    HW133803   1.146   2.241  11.022  1.9464  2.1042  0.7959
 7447SOL    HW233804   1.126   2.102  11.060  2.1164  0.6877 -1.6561
 7448SOL     OW33805   0.770   0.623   7.786  0.7087 -0.5314  0.7810
 7448SOL    HW133806   0.796   0.693   7.847 -0.7146 -0.9136  1.8339
 7448SOL    HW233807   0.683   0.652   7.757  0.2361 -2.4658  0.3091
 7449SOL     OW33808   0.677   3.624   8.854 -0.0462  0.1462 -0.6824
 7449SOL    HW133809   0.690   3.655   8.765 -0.5558  0.5476 -0.6148
 7449SOL    HW233810   0.753   3.664   8.897  1.0091 -2.1368 -0.4234
 7450SOL     OW33811   2.136   0.213  15.399  0.1920  0.0828  0.5566
 7450SOL    HW133812   2.161   0.147  15.464 -2.1243 -3.3981 -2.0848
 7450SOL    HW233813   2.221   0.251  15.379  0.1015  1.3620  2.6371
 7451SOL     OW33814   1.593   4.097   3.949  0.1104 -0.5462  0.7132
 7451SOL    HW133815   1.578   4.104   4.044  1.0750  0.7341  0.7647
 7451SOL    HW233816   1.617   4.188   3.935  2.3693 -1.1412  0.7710
 7452SOL     OW33817   1.750   1.180   3.034 -0.3284  0.1814 -0.2755
 7452SOL    HW133818   1.696   1.170   2.956 -1.9150 -1.2379  1.0005
 7452SOL    HW233819   1.691   1.193   3.108  0.9992 -0.8409  0.9622
 7453SOL     OW33820   1.252   0.427   2.082  0.0479 -0.1123  0.5767
 7453SOL    HW133821   1.287   0.348   2.041 -0.0930  0.5377 -0.8023
 7453SOL    HW233822   1.322   0.429   2.147 -0.4710 -3.3608  1.1996
 7454SOL     OW33823   3.688   2.764   5.234 -0.3463 -0.0124 -0.0612
 7454SOL    HW133824   3.718   2.844   5.192  1.0153 -0.9032 -0.7915
 7454SOL    HW233825   3.616   2.801   5.285  0.6367  1.3559  0.3378
 7455SOL     OW33826   4.695   0.349   7.655 -0.0781 -0.2676 -0.5346
 7455SOL    HW133827   0.011   0.261   7.650  2.3148  0.6536  0.2673
 7455SOL    HW233828   4.644   0.354   7.574 -0.0990  0.9768 -0.4460
 7456SOL     OW33829   0.970   1.350   7.559  0.2489  0.0189 -0.2811
 7456SOL    HW133830   0.996   1.286   7.625  1.0409  1.6252  0.9702
 7456SOL    HW233831   1.046   1.353   7.501  0.8065 -0.0405  0.4353
 7457SOL     OW33832   1.119   1.124   1.610  0.7573  0.1261  0.5063
 7457SOL    HW133833   1.213   1.116   1.594  0.9238  1.6594  0.6319
 7457SOL    HW233834   1.090   1.079   1.531 -0.7357 -0.8555  1.6333
 7458SOL     OW33835   4.232   1.317  14.667  0.3587 -0.1370 -0.0599
 7458SOL    HW133836   4.203   1.299  14.578  0.8321  1.1899 -0.4721
 7458SOL    HW233837   4.222   1.231  14.709  1.1541  0.2011  0.8276
 7459SOL     OW33838   2.847   2.905  10.279  0.0587 -0.0058  0.5172
 7459SOL    HW133839   2.752   2.904  10.288 -0.1122 -1.4605 -1.2868
 7459SOL    HW233840   2.867   2.815  10.251 -0.5919 -0.3856  1.2746
 7460SOL     OW33841   4.038   2.339   1.768 -0.0826 -0.0339 -0.3717
 7460SOL    HW133842   4.058   2.254   1.730  0.6415 -0.7516  1.6298
 7460SOL    HW233843   4.113   2.350   1.826 -1.5162 -0.3484  1.5323
 7461SOL     OW33844   4.647   2.607   4.573  0.5801 -0.2818  0.1105
 7461SOL    HW133845   4.704   2.562   4.511  0.8732  1.6082 -0.9942
 7461SOL    HW233846   4.690   2.585   4.656  1.6970 -2.4507 -1.0455
 7462SOL     OW33847   0.450   2.900   3.218  0.1376  0.1985 -0.0781
 7462SOL    HW133848   0.540   2.932   3.214  0.5287 -0.8619  0.3745
 7462SOL    HW233849   0.456   2.842   3.143 -1.9686  2.2690 -1.8371
 7463SOL     OW33850   4.162   1.400   3.463  0.4463  0.5681 -0.1876
 7463SOL    HW133851   4.191   1.428   3.550 -0.9466 -0.1431  0.4942
 7463SOL    HW233852   4.083   1.349   3.480  1.0825 -0.6054 -0.7127
 7464SOL     OW33853   1.621   2.937   0.543 -0.5930 -0.2942  0.7098
 7464SOL    HW133854   1.591   2.851   0.570 -1.7362  0.1388  0.8254
 7464SOL    HW233855   1.635   2.969   0.632 -0.0567  1.9821 -0.1643
 7465SOL     OW33856   1.284   2.665   7.786  0.0892 -0.5775 -0.2819
 7465SOL    HW133857   1.220   2.612   7.834 -1.1361  0.3301 -0.8966
 7465SOL    HW233858   1.314   2.599   7.724  0.4141  1.2576 -2.0840
 7466SOL     OW33859   2.481   1.593   2.684 -0.0518 -0.1046  0.4918
 7466SOL    HW133860   2.388   1.615   2.674 -0.5541 -2.5215 -0.3133
 7466SOL    HW233861   2.482   1.516   2.626  0.5850 -1.1993  1.9775
 7467SOL     OW33862   0.118   4.445   2.722  0.5375 -0.6061 -0.0552
 7467SOL    HW133863   0.144   4.526   2.765 -2.7770  0.5037 -0.1948
 7467SOL    HW233864   0.208   4.420   2.701  0.5426  1.1825 -2.1917
 7468SOL     OW33865   4.136   2.831   6.505  0.2393  0.5941 -0.3810
 7468SOL    HW133866   4.225   2.796   6.519 -2.2456 -4.9998  1.3831
 7468SOL    HW233867   4.128   2.896   6.575  1.5084 -1.0659  1.3337
 7469SOL     OW33868   2.859   1.097  11.646 -0.2099 -0.5547  0.4319
 7469SOL    HW133869   2.860   1.112  11.551  0.6318  0.0300  0.5243
 7469SOL    HW233870   2.952   1.116  11.662 -0.3643 -0.2894  1.0002
 7470SOL     OW33871   3.400   3.640   8.725  0.6833  0.0691  0.3364
 7470SOL    HW133872   3.406   3.616   8.817  0.3947 -1.6774 -0.0990
 7470SOL    HW233873   3.371   3.730   8.736 -0.0420  0.1029 -1.7251
 7471SOL     OW33874   1.004   1.103   0.085 -0.6521  0.7483  0.3888
 7471SOL    HW133875   1.079   1.051   0.055 -0.6502  0.5245  0.7822
 7471SOL    HW233876   1.042   1.112   0.173 -2.7437  0.7211  1.2925
 7472SOL     OW33877   3.120   3.661  12.723 -0.3656  0.3263  0.2433
 7472SOL    HW133878   3.138   3.626  12.810 -1.1356 -0.3671  0.1274
 7472SOL    HW233879   3.165   3.745  12.728  0.4872 -0.0380 -1.3911
 7473SOL     OW33880   1.549   1.877   4.712  0.2823 -0.1487 -0.0264
 7473SOL    HW133881   1.529   1.968   4.731  0.8906  0.4167 -2.0511
 7473SOL    HW233882   1.614   1.862   4.781  0.4071  1.8865  0.2882
 7474SOL     OW33883   3.276   3.229   4.604 -0.7650  0.2982 -0.2733
 7474SOL    HW133884   3.210   3.231   4.673  1.7704  1.4403  2.1350
 7474SOL    HW233885   3.288   3.322   4.585  1.4780 -0.1325 -0.9959
 7475SOL     OW33886   2.496   1.999  10.766 -0.0676 -0.1416 -0.1877
 7475SOL    HW133887   2.556   2.044  10.827 -0.4160 -0.6330  0.5104
 7475SOL    HW233888   2.443   2.076  10.744  2.4938  1.4463 -0.9250
 7476SOL     OW33889   1.041   0.999  17.458  0.0630 -0.1226 -0.2538
 7476SOL    HW133890   1.045   0.909  17.426  0.0198 -0.0760 -0.3898
 7476SOL    HW233891   1.113   0.998  17.522 -3.0363  1.9237  3.2534
 7477SOL     OW33892   3.564   4.467   3.144 -0.1691  0.2265 -0.4194
 7477SOL    HW133893   3.545   4.551   3.186  0.2226  1.5175 -2.8116
 7477SOL    HW233894   3.659   4.459   3.141 -0.1804 -0.6685  1.3664
 7478SOL     OW33895   2.514   2.561   2.016 -0.4233  0.6584  0.6701
 7478SOL    HW133896   2.485   2.611   2.093 -1.7088  2.6068 -1.0802
 7478SOL    HW233897   2.466   2.603   1.945 -1.9133  1.0062  1.8707
 7479SOL     OW33898   4.460   2.616   2.539  0.1493  0.2575  0.3751
 7479SOL    HW133899   4.550   2.619   2.571 -0.3784 -2.2826  2.1312
 7479SOL    HW233900   4.419   2.686   2.588 -0.1726 -0.1078  0.6269
 7480SOL     OW33901   1.792   3.848   6.680 -0.1369 -0.1763 -0.0558
 7480SOL    HW133902   1.858   3.834   6.612 -0.1195 -2.5857  0.4526
 7480SOL    HW233903   1.741   3.922   6.647 -1.4082 -1.0610 -0.0936
 7481SOL     OW33904   0.852   0.465   5.803 -0.0938 -0.0643  0.4509
 7481SOL    HW133905   0.869   0.516   5.882 -0.1579  2.2526 -1.0172
 7481SOL    HW233906   0.850   0.538   5.741  1.8998 -2.6981 -2.6834
 7482SOL     OW33907   3.275   3.140  11.057 -0.1342 -0.2532  0.3498
 7482SOL    HW133908   3.363   3.163  11.087  0.4833  0.1946 -1.7853
 7482SOL    HW233909   3.219   3.136  11.135 -1.6777 -0.3100 -0.7450
 7483SOL     OW33910   2.474   3.611   3.862 -0.6951 -0.5955 -0.0126
 7483SOL    HW133911   2.380   3.632   3.868 -0.8671 -1.2135 -0.5884
 7483SOL    HW233912   2.491   3.624   3.955 -3.1137 -1.6334  0.5735
 7484SOL     OW33913   2.164   2.147   3.354 -0.2327  0.0924 -0.5296
 7484SOL    HW133914   2.134   2.222   3.302  2.2372 -1.0196 -3.5605
 7484SOL    HW233915   2.080   2.116   3.388  0.8391 -2.2267 -0.0210
 7485SOL     OW33916   3.995   3.038  10.976  0.5581  0.5487  0.0267
 7485SOL    HW133917   4.045   3.096  11.033  0.4196 -0.7061  1.3931
 7485SOL    HW233918   4.042   2.958  10.999 -3.5470 -1.8905 -0.1139
 7486SOL     OW33919   1.932   0.220   1.656 -0.5904 -0.5035 -0.9474
 7486SOL    HW133920   2.008   0.279   1.657 -2.0820  1.4370 -1.4756
 7486SOL    HW233921   1.973   0.141   1.691 -0.3285 -0.4915 -1.2188
 7487SOL     OW33922   0.887   1.939   2.446  0.1544  0.5732  0.3787
 7487SOL    HW133923   0.891   1.886   2.366 -1.0784  1.5831 -0.3505
 7487SOL    HW233924   0.814   1.998   2.430 -2.6794 -2.9369  0.2007
 7488SOL     OW33925   2.792   2.087  12.727 -0.7019 -0.2852  0.2674
 7488SOL    HW133926   2.877   2.095  12.684 -2.2129  1.8811 -2.2617
 7488SOL    HW233927   2.752   2.173  12.717 -0.4334 -0.1532  0.3266
 7489SOL     OW33928   3.867   3.644   4.881  0.3959  0.3914  0.1133
 7489SOL    HW133929   3.852   3.738   4.888 -0.8807  0.4409 -3.2374
 7489SOL    HW233930   3.838   3.626   4.792  0.4924  0.4059  0.0788
 7490SOL     OW33931   4.008   2.184   5.810 -0.0424  0.6295  0.4121
 7490SOL    HW133932   3.958   2.143   5.880 -1.5469 -0.7553 -1.4800
 7490SOL    HW233933   3.992   2.274   5.838 -0.6222  0.9870 -1.0674
 7491SOL     OW33934   0.075   1.569   1.765  0.0059 -0.2756 -0.1124
 7491SOL    HW133935   0.153   1.516   1.778  0.3171 -0.3526 -2.2828
 7491SOL    HW233936   0.090   1.623   1.687  0.0365  2.8269  2.0257
 7492SOL     OW33937   2.226   0.501   7.832 -0.4225 -0.4616 -0.2041
 7492SOL    HW133938   2.258   0.591   7.832 -0.1100 -0.5706 -0.6996
 7492SOL    HW233939   2.266   0.449   7.762 -0.9125 -2.3942  0.9449
 7493SOL     OW33940   4.387   2.574   4.720  0.4477  0.1161  0.1487
 7493SOL    HW133941   4.447   2.589   4.647  0.8017 -1.2314  0.1610
 7493SOL    HW233942   4.443   2.523   4.779  1.2768 -0.2424 -0.9643
 7494SOL     OW33943   2.054   1.053   8.319  0.3956 -0.3284  0.3508
 7494SOL    HW133944   1.990   1.054   8.390 -0.0284 -0.8020 -0.0209
 7494SOL    HW233945   1.989   1.037   8.251  2.1768 -1.1405 -1.1392
 7495SOL     OW33946   4.110   4.698   8.649 -0.0494 -0.2035  0.2019
 7495SOL    HW133947   4.093   0.063   8.690  0.7938 -0.5227  1.1932
 7495SOL    HW233948   4.093   4.633   8.717  0.8458 -0.6040  0.0371
 7496SOL     OW33949   3.150   0.883   7.887 -0.2835  0.0885  0.0694
 7496SOL    HW133950   3.086   0.953   7.900  0.3337  0.8635 -1.0502
 7496SOL    HW233951   3.237   0.923   7.896 -0.4752  0.7039 -0.8247
 7497SOL     OW33952   3.267   0.808   5.957  0.5053 -0.2765 -0.0286
 7497SOL    HW133953   3.313   0.731   5.989 -0.9970 -0.3255  2.0139
 7497SOL    HW233954   3.267   0.789   5.864  1.3841 -1.9271  0.3104
 7498SOL     OW33955   4.583   0.442  10.887 -0.5434  0.1250 -0.7731
 7498SOL    HW133956   4.566   0.511  10.951 -0.0309 -1.3261  0.9273
 7498SOL    HW233957   4.548   0.478  10.806 -1.3779  1.1435  0.0359
 7499SOL     OW33958   0.279   0.379   5.443 -0.4663 -0.2433  0.1355
 7499SOL    HW133959   0.237   0.336   5.518 -1.0622 -0.7593 -0.5002
 7499SOL    HW233960   0.367   0.342   5.449 -0.1313  0.5517  0.1501
 7500SOL     OW33961   3.459   0.503   5.716 -0.5020  0.0552 -0.1566
 7500SOL    HW133962   3.550   0.516   5.741 -1.0759  1.4242  1.2017
 7500SOL    HW233963   3.477   0.445   5.642  3.2205  0.0628  0.7507
 7501SOL     OW33964   1.034   0.056   7.419  0.2585 -0.3558  0.4347
 7501SOL    HW133965   0.967   0.124   7.433 -0.0600 -0.8424  1.3123
 7501SOL    HW233966   1.055   0.023   7.506  3.0084 -0.0803 -0.1372
 7502SOL     OW33967   0.105   1.690  15.234  0.3373 -0.3099  0.4153
 7502SOL    HW133968   0.114   1.664  15.142 -1.6945 -2.2361  0.7641
 7502SOL    HW233969   0.017   1.727  15.232  0.4943  0.0708  0.5912
 7503SOL     OW33970   0.968   0.058  10.485 -0.2007 -0.0869 -0.2978
 7503SOL    HW133971   1.055   0.086  10.513 -0.1815  2.3670 -2.8388
 7503SOL    HW233972   0.936   4.718  10.553 -2.0483  1.6220  0.3151
 7504SOL     OW33973   0.980   1.330   6.334  0.0920  0.4972  0.4484
 7504SOL    HW133974   1.010   1.385   6.406  1.2314 -1.2582  1.3070
 7504SOL    HW233975   0.899   1.298   6.373  1.5675 -1.1083  2.2039
 7505SOL     OW33976   3.192   2.749  11.075 -0.3013 -0.2263 -0.2853
 7505SOL    HW133977   3.200   2.808  11.150 -1.4141  0.2996 -0.5818
 7505SOL    HW233978   3.150   2.670  11.109 -0.7433 -0.0641 -0.4546
 7506SOL     OW33979   3.549   2.159   6.204  0.0276 -0.1109 -0.0387
 7506SOL    HW133980   3.506   2.073   6.201 -0.4040  0.0769  0.8246
 7506SOL    HW233981   3.608   2.148   6.279 -0.1282  1.1890  0.2662
 7507SOL     OW33982   4.310   3.693   7.985 -0.3334  0.5464  0.0455
 7507SOL    HW133983   4.239   3.732   7.933 -0.7821 -0.8562 -0.3789
 7507SOL    HW233984   4.378   3.761   7.986  0.6456 -0.4274 -0.8776
 7508SOL     OW33985   2.430   1.145   6.577 -0.5924 -0.1556 -0.4604
 7508SOL    HW133986   2.363   1.175   6.516 -1.1897 -0.9764 -0.1994
 7508SOL    HW233987   2.394   1.173   6.661 -1.7258  0.0045 -0.9925
 7509SOL     OW33988   4.706   1.865  13.011 -0.3940 -0.0358  0.1487
 7509SOL    HW133989   4.703   1.807  12.934 -2.3240 -2.0178  1.7017
 7509SOL    HW233990   4.700   1.802  13.083 -0.9741 -1.1006 -0.8183
 7510SOL     OW33991   4.702   2.519  10.385  0.6793 -0.4316 -0.0545
 7510SOL    HW133992   4.678   2.583  10.318  0.8098  0.4655  0.7628
 7510SOL    HW233993   4.680   2.438  10.339  1.6126 -1.6229  1.6251
 7511SOL     OW33994   2.607   4.400  16.923 -0.4401 -0.5549  0.5901
 7511SOL    HW133995   2.556   4.438  16.852 -0.3110  2.1647  1.9586
 7511SOL    HW233996   2.635   4.487  16.953 -1.7856  0.4941 -1.1674
 7512SOL     OW33997   2.741   0.571   6.373 -0.0171 -0.0420 -0.2816
 7512SOL    HW133998   2.746   0.664   6.395 -1.4892  0.0410 -0.3095
 7512SOL    HW233999   2.751   0.535   6.462 -0.1730  0.6749  0.0211
 7513SOL     OW34000   3.771   2.336  15.035 -0.1155 -0.1615  0.3819
 7513SOL    HW134001   3.852   2.385  15.050  0.9241 -1.4709 -1.0070
 7513SOL    HW234002   3.765   2.344  14.940 -0.5497  1.1536  0.5185
 7514SOL     OW34003   3.433   3.582   0.987 -0.1341 -0.1236 -0.1443
 7514SOL    HW134004   3.357   3.536   1.021  0.5383 -2.7933 -2.2308
 7514SOL    HW234005   3.506   3.526   1.015 -0.6681 -2.1103 -2.7156
 7515SOL     OW34006   4.039   2.068   9.435  0.4869 -0.3496  0.2877
 7515SOL    HW134007   3.987   2.070   9.354  0.1702 -1.3091  0.4729
 7515SOL    HW234008   4.019   2.149   9.483 -0.3432 -1.2381  1.4334
 7516SOL     OW34009   0.335   4.289   4.121 -0.0917  0.1646 -0.1129
 7516SOL    HW134010   0.285   4.257   4.047  1.5068 -0.0612 -1.1074
 7516SOL    HW234011   0.322   4.222   4.188 -1.1202 -0.3328 -0.8128
 7517SOL     OW34012   0.345   2.156   5.263 -0.4711  0.0419 -0.2713
 7517SOL    HW134013   0.343   2.122   5.353  0.1555 -0.2171 -0.3528
 7517SOL    HW234014   0.432   2.195   5.271 -0.6317 -0.0407  1.9162
 7518SOL     OW34015   2.310   1.401   1.606  0.3810  0.1148 -0.2829
 7518SOL    HW134016   2.264   1.447   1.536 -0.9148 -0.3147  0.2916
 7518SOL    HW234017   2.394   1.447   1.609  0.0520  0.7081 -0.0327
 7519SOL     OW34018   1.300   1.925   5.406  0.5002  0.2272 -0.4516
 7519SOL    HW134019   1.281   1.874   5.327 -1.5948 -0.0598  0.2461
 7519SOL    HW234020   1.396   1.929   5.412  0.3295  1.4133  1.3084
 7520SOL     OW34021   0.803   4.414   0.644 -0.0396 -0.1837 -0.6983
 7520SOL    HW134022   0.820   4.323   0.618 -1.0164 -0.7134  0.4953
 7520SOL    HW234023   0.857   4.414   0.723  1.1233 -1.7468 -1.4840
 7521SOL     OW34024   0.137   2.422  16.534  0.4573  0.6186  0.9132
 7521SOL    HW134025   0.184   2.359  16.588  1.5555 -0.0208 -0.7716
 7521SOL    HW234026   0.134   2.495  16.596  0.1061 -0.0272  1.6514
 7522SOL     OW34027   1.844   0.565   0.980 -0.3272 -0.0470 -0.4502
 7522SOL    HW134028   1.769   0.514   0.949  1.8812 -1.8391 -2.8052
 7522SOL    HW234029   1.879   0.514   1.054  0.7351  0.7614 -0.3974
 7523SOL     OW34030   3.511   3.110  15.726 -0.7036 -0.0223  0.3562
 7523SOL    HW134031   3.444   3.157  15.775 -1.1920 -2.3339  1.9196
 7523SOL    HW234032   3.502   3.021  15.760 -0.2911 -0.4789 -0.7394
 7524SOL     OW34033   3.967   3.844   7.541 -0.0663 -0.2981  0.2048
 7524SOL    HW134034   3.983   3.769   7.485  0.7956 -0.2709  0.4116
 7524SOL    HW234035   3.973   3.912   7.474 -2.2988  0.1747  0.4932
 7525SOL     OW34036   4.427   3.223   5.172  0.4240 -0.3752 -0.1959
 7525SOL    HW134037   4.504   3.278   5.157  0.5197 -0.7975 -1.2414
 7525SOL    HW234038   4.386   3.272   5.243  2.8857  0.7619  0.4514
 7526SOL     OW34039   2.685   0.518   3.369  0.1008  0.2200  0.1936
 7526SOL    HW134040   2.676   0.430   3.407  0.3300 -0.0110 -0.2890
 7526SOL    HW234041   2.620   0.522   3.299 -0.2802  1.4090  0.6158
 7527SOL     OW34042   1.492   1.657   8.131  0.1998 -0.1548  0.1502
 7527SOL    HW134043   1.417   1.661   8.190 -0.4034  0.6908 -0.6701
 7527SOL    HW234044   1.543   1.594   8.181  0.7072  0.6002  0.5788
 7528SOL     OW34045   4.639   2.818  10.703 -0.2500 -0.3981 -0.5325
 7528SOL    HW134046   4.571   2.757  10.674  0.5214 -1.2751 -0.5035
 7528SOL    HW234047   4.701   2.762  10.750  1.3447  2.0994  0.3070
 7529SOL     OW34048   1.087   1.635  16.953  0.1108  0.0910 -0.1949
 7529SOL    HW134049   1.079   1.695  16.878 -2.2396 -0.2853 -0.2444
 7529SOL    HW234050   1.018   1.578  16.918 -1.9918  2.5986 -0.1403
 7530SOL     OW34051   4.699   4.274   7.119  0.1021 -0.1919 -0.0638
 7530SOL    HW134052   0.053   4.326   7.152 -0.3029 -1.1978  2.3763
 7530SOL    HW234053   4.673   4.342   7.057  0.5714  0.3075  0.2817
 7531SOL     OW34054   1.670   3.854  15.581  0.2913  0.0502  0.1459
 7531SOL    HW134055   1.600   3.902  15.625  1.8161 -0.2048  2.8321
 7531SOL    HW234056   1.714   3.931  15.545 -0.6058  1.0670  1.2608
 7532SOL     OW34057   0.649   3.975   4.709  0.3539  0.0686  0.1027
 7532SOL    HW134058   0.614   3.911   4.648 -1.0646 -0.3005  1.3127
 7532SOL    HW234059   0.625   3.934   4.792  0.8593 -2.0724 -0.8020
 7533SOL     OW34060   4.121   1.230  16.726  0.0170 -0.2019 -0.4269
 7533SOL    HW134061   4.045   1.281  16.701 -0.6032 -0.3828  1.1065
 7533SOL    HW234062   4.176   1.304  16.751 -0.1004 -0.2550 -0.0249
 7534SOL     OW34063   2.404   2.012  15.779  0.0080 -0.0522 -0.1863
 7534SOL    HW134064   2.332   2.075  15.783 -0.0008 -0.1556  1.2594
 7534SOL    HW234065   2.475   2.057  15.826 -0.4492  1.3438 -0.8298
 7535SOL     OW34066   1.660   2.099   2.990 -0.3404  0.0539 -0.6293
 7535SOL    HW134067   1.624   2.166   2.931 -2.1558  0.0855  0.5329
 7535SOL    HW234068   1.605   2.023   2.972  2.0383 -1.5710 -1.0664
 7536SOL     OW34069   0.422   0.497   4.549 -0.2650 -0.1424  0.5346
 7536SOL    HW134070   0.384   0.445   4.478  2.4926  0.2826 -1.2479
 7536SOL    HW234071   0.346   0.547   4.577  0.3146  0.5049  0.9574
 7537SOL     OW34072   4.328   2.568   9.428 -0.4236  0.3240  0.5624
 7537SOL    HW134073   4.233   2.573   9.417 -0.3033  0.0052 -0.5648
 7537SOL    HW234074   4.331   2.473   9.415 -1.9156 -0.1195  3.5606
 7538SOL     OW34075   0.296   2.446  14.040  0.5504 -0.1396  0.1436
 7538SOL    HW134076   0.289   2.528  14.088  2.1761 -0.0572  0.2530
 7538SOL    HW234077   0.263   2.383  14.104 -1.3376 -2.2059 -2.8009
 7539SOL     OW34078   4.407   0.928   9.999  0.1157  0.0244  0.2581
 7539SOL    HW134079   4.483   0.894  10.046 -1.1476 -1.4702  1.2244
 7539SOL    HW234080   4.418   1.023  10.008  1.2213  0.0576 -1.5043
 7540SOL     OW34081   0.201   0.389   7.042  0.4377 -0.6348 -0.3262
 7540SOL    HW134082   0.135   0.395   6.973  0.1155  0.8366  0.1122
 7540SOL    HW234083   0.277   0.365   6.990  1.2755 -1.3624  1.2300
 7541SOL     OW34084   3.438   3.581   3.777  0.2642 -0.0692  0.2541
 7541SOL    HW134085   3.474   3.601   3.863  0.4808  1.1772 -0.1216
 7541SOL    HW234086   3.508   3.526   3.741  0.4016 -0.2873  0.8516
 7542SOL     OW34087   4.159   4.005  15.298 -0.2024  0.2334  0.1021
 7542SOL    HW134088   4.235   3.949  15.281  0.1909  0.3314  1.5771
 7542SOL    HW234089   4.130   3.979  15.385 -1.2933 -2.2095 -0.9587
 7543SOL     OW34090   1.931   0.653  10.623  0.1349 -0.0530 -0.0031
 7543SOL    HW134091   1.941   0.737  10.668 -0.2746 -0.8013  1.4829
 7543SOL    HW234092   1.940   0.592  10.695  1.1297  1.3585  1.0732
 7544SOL     OW34093   0.768   1.852   2.056  0.0524  0.0001  0.5192
 7544SOL    HW134094   0.792   1.937   2.095  1.1801  0.2956 -0.8486
 7544SOL    HW234095   0.857   1.821   2.071  0.7994  1.1990 -1.4063
 7545SOL     OW34096   2.808   2.418   7.768  0.0387  0.0020 -0.3597
 7545SOL    HW134097   2.803   2.412   7.864  1.4127  1.9472 -0.1795
 7545SOL    HW234098   2.821   2.512   7.762 -2.5025  0.4208  0.7960
 7546SOL     OW34099   4.114   1.228  13.411  0.5324  0.0095 -0.0304
 7546SOL    HW134100   4.082   1.316  13.433 -0.6848  0.1570 -2.3874
 7546SOL    HW234101   4.030   1.182  13.409  0.4964  0.0363  1.0088
 7547SOL     OW34102   1.821   3.694   5.652 -0.3950 -0.3376 -0.0008
 7547SOL    HW134103   1.879   3.645   5.593 -1.9526 -1.0185 -0.9762
 7547SOL    HW234104   1.781   3.629   5.710  1.0628 -2.2557 -1.1807
 7548SOL     OW34105   3.737   4.362   9.921  0.4238 -0.2941 -0.3512
 7548SOL    HW134106   3.727   4.396   9.832  1.1457  2.0964  0.4676
 7548SOL    HW234107   3.784   4.438   9.955 -0.4093 -0.0628  0.2797
 7549SOL     OW34108   0.473   4.510  15.270 -0.4540 -0.0243  0.3783
 7549SOL    HW134109   0.438   4.497  15.358 -1.2249 -0.0926  0.0614
 7549SOL    HW234110   0.419   4.452  15.216 -0.4090 -1.2157  1.6171
 7550SOL     OW34111   0.016   2.555   8.025 -0.1795 -0.2334 -0.9681
 7550SOL    HW134112   0.089   2.611   8.052 -3.0615  2.1418  1.9567
 7550SOL    HW234113   4.668   2.601   8.075  2.8441  2.1906  0.8999
 7551SOL     OW34114   0.697   1.468   1.098  0.0104 -0.4937 -0.0810
 7551SOL    HW134115   0.641   1.449   1.022 -0.5013  1.5782 -0.2407
 7551SOL    HW234116   0.722   1.382   1.131  1.3445  0.5037  1.5093
 7552SOL     OW34117   2.301   2.653   1.494 -0.0578  0.4496 -0.0896
 7552SOL    HW134118   2.296   2.634   1.588  4.1275 -0.0427  0.0326
 7552SOL    HW234119   2.230   2.600   1.458  0.4194  0.1017 -0.5132
 7553SOL     OW34120   0.992   0.440   5.496 -0.2157  0.4820  0.4659
 7553SOL    HW134121   0.981   0.400   5.410  0.9611  0.3460  0.3749
 7553SOL    HW234122   0.970   0.377   5.564  0.7197  0.5598  0.8406
 7554SOL     OW34123   2.745   1.337   3.823  0.4696 -0.3439 -0.3195
 7554SOL    HW134124   2.745   1.241   3.824  3.3162 -0.3527 -0.4841
 7554SOL    HW234125   2.759   1.351   3.729  1.2280  0.8676 -0.0169
 7555SOL     OW34126   1.170   4.148   6.823 -0.4752 -0.7298 -0.1014
 7555SOL    HW134127   1.123   4.178   6.900 -1.7729 -1.3429 -0.6555
 7555SOL    HW234128   1.243   4.209   6.826 -2.1500  1.2124  0.6573
 7556SOL     OW34129   3.220   2.300   2.058 -0.0337  0.2374 -0.4842
 7556SOL    HW134130   3.166   2.371   2.023 -0.1739  0.0794 -0.5855
 7556SOL    HW234131   3.251   2.266   1.974  3.3562  0.4895  0.6394
 7557SOL     OW34132   0.821   0.503  14.904  0.1886  0.4589 -0.3400
 7557SOL    HW134133   0.874   0.424  14.914 -0.0014  0.4263  0.4115
 7557SOL    HW234134   0.731   0.472  14.899  0.7365 -0.8449 -2.2206
 7558SOL     OW34135   0.798   0.424   1.426  0.4021 -0.1419  0.2545
 7558SOL    HW134136   0.835   0.512   1.416 -1.7455  0.8395  0.9472
 7558SOL    HW234137   0.823   0.394   1.514 -3.5010 -2.1401  0.6677
 7559SOL     OW34138   3.808   0.079  16.789 -0.4113 -0.3015 -0.5248
 7559SOL    HW134139   3.847   0.165  16.773 -1.8557  0.3304 -0.5912
 7559SOL    HW234140   3.859   0.045  16.863 -2.1983 -0.3311  0.6861
 7560SOL     OW34141   3.542   4.587   4.542 -0.7915  0.0211  0.0228
 7560SOL    HW134142   3.577   4.603   4.629 -0.9990  0.5037  0.0212
 7560SOL    HW234143   3.460   4.541   4.560  0.0352 -1.2070  0.6235
 7561SOL     OW34144   3.083   3.340   2.226  0.6974 -0.0493  0.1667
 7561SOL    HW134145   3.067   3.340   2.131 -0.8466  1.6943  0.4217
 7561SOL    HW234146   3.008   3.295   2.264  0.6728 -1.1860 -1.2238
 7562SOL     OW34147   2.568   1.110  11.386  0.0748  0.1973  0.0239
 7562SOL    HW134148   2.656   1.141  11.366 -1.4162  4.6230  0.2994
 7562SOL    HW234149   2.532   1.191  11.423 -0.1805  1.3902 -2.8560
 7563SOL     OW34150   1.423   0.454   3.177  0.1458  0.4080  0.0250
 7563SOL    HW134151   1.375   0.477   3.098 -1.6619 -0.2314  0.9424
 7563SOL    HW234152   1.498   0.410   3.137 -0.3260  0.1065 -0.5198
 7564SOL     OW34153   0.819   1.074  16.678 -0.0168 -0.0975  0.1352
 7564SOL    HW134154   0.910   1.092  16.653  0.0628  0.2918  0.7029
 7564SOL    HW234155   0.770   1.068  16.595  0.0820 -0.7581  0.1258
 7565SOL     OW34156   3.423   3.886   3.686  0.3551  0.7581 -0.2418
 7565SOL    HW134157   3.508   3.930   3.684 -0.0578  1.5956  0.9797
 7565SOL    HW234158   3.421   3.856   3.777 -1.3606 -2.3991 -1.2870
 7566SOL     OW34159   4.500   2.337   4.255  0.2094  0.1213 -0.9925
 7566SOL    HW134160   4.485   2.270   4.321 -1.6062  1.1355 -0.3748
 7566SOL    HW234161   4.592   2.357   4.276  0.2103  0.0385 -0.9176
 7567SOL     OW34162   3.543   3.752   2.836 -0.1613 -0.3113 -0.3987
 7567SOL    HW134163   3.514   3.796   2.756  0.2329 -0.4680 -0.6260
 7567SOL    HW234164   3.621   3.798   2.867 -0.9675  1.6307 -1.2124
 7568SOL     OW34165   4.043   0.292   4.229 -0.3436  0.0632  0.2561
 7568SOL    HW134166   4.095   0.349   4.173  0.1495  0.8159  1.4685
 7568SOL    HW234167   4.036   0.211   4.178  1.4231  0.4960 -0.6616
 7569SOL     OW34168   3.379   4.495   1.981 -0.2079 -0.8283 -0.3811
 7569SOL    HW134169   3.332   4.443   2.046 -1.6813  0.2492 -0.5923
 7569SOL    HW234170   3.415   4.423   1.929  0.8035  0.0791 -0.9381
 7570SOL     OW34171   1.320   1.333   8.274 -0.1656 -0.1567  0.1231
 7570SOL    HW134172   1.298   1.425   8.289  1.7283  0.3608 -0.3789
 7570SOL    HW234173   1.279   1.326   8.188  0.1273  0.7968 -0.0968
 7571SOL     OW34174   1.331   1.893   9.235  0.1556 -0.1363  0.0641
 7571SOL    HW134175   1.425   1.889   9.250  0.0807 -2.0047  0.0400
 7571SOL    HW234176   1.315   1.835   9.310  0.1674  1.5374  1.3604
 7572SOL     OW34177   2.409   1.944  11.502  0.2261 -0.2980  0.0204
 7572SOL    HW134178   2.362   2.026  11.492  1.0046  0.0239 -0.9951
 7572SOL    HW234179   2.444   1.935  11.413 -1.5164 -0.6838 -0.6233
 7573SOL     OW34180   0.165   1.346   7.763  0.1790  0.2959  0.3520
 7573SOL    HW134181   0.250   1.387   7.780 -0.0251  1.7122 -2.0885
 7573SOL    HW234182   0.149   1.280   7.831 -0.8030 -2.6437 -2.7365
 7574SOL     OW34183   2.684   3.241  17.534 -0.1629 -0.5046 -0.3340
 7574SOL    HW134184   2.765   3.227  17.486 -1.0761 -1.7923 -1.4971
 7574SOL    HW234185   2.626   3.284  17.471 -1.0371 -0.4382  0.5129
 7575SOL     OW34186   2.830   1.519   2.891 -0.2904  0.1518  0.1206
 7575SOL    HW134187   2.752   1.473   2.922 -1.0866  2.5073  1.6413
 7575SOL    HW234188   2.809   1.606   2.927 -0.5736  0.1874 -0.1271
 7576SOL     OW34189   1.067   0.068   1.953 -0.0117  0.6394 -0.2968
 7576SOL    HW134190   1.035   4.716   1.897 -1.7069  0.7639  0.4865
 7576SOL    HW234191   0.986   0.119   1.954  0.1319  0.8687 -0.6573
 7577SOL     OW34192   0.873   4.047   1.026 -0.4368  0.1720 -0.1370
 7577SOL    HW134193   0.821   4.033   0.947  1.9526  0.9550 -1.8253
 7577SOL    HW234194   0.956   4.059   0.981 -0.2426  1.5933  0.6060
 7578SOL     OW34195   2.832   3.446   4.412 -0.8904  0.2250  0.3863
 7578SOL    HW134196   2.871   3.359   4.400  0.6920  1.1449 -1.0277
 7578SOL    HW234197   2.847   3.461   4.505 -1.1377  0.1835  0.4320
 7579SOL     OW34198   2.763   2.771   9.761  0.2167  0.2612  0.0982
 7579SOL    HW134199   2.840   2.769   9.704 -0.0809  0.1076 -0.3045
 7579SOL    HW234200   2.803   2.805   9.840  0.4322 -0.5274  0.3229
 7580SOL     OW34201   2.690   2.906  14.981 -0.2287  0.4078  0.5766
 7580SOL    HW134202   2.595   2.892  14.983 -0.0237 -0.9844 -0.2227
 7580SOL    HW234203   2.696   3.002  14.980 -0.9012  0.4428 -0.0168
 7581SOL     OW34204   2.476   2.971   8.792 -0.1407  0.7662 -0.2202
 7581SOL    HW134205   2.482   2.879   8.817  1.7932  0.4240 -1.9372
 7581SOL    HW234206   2.485   2.971   8.697  0.2316  0.8601 -0.1865
 7582SOL     OW34207   3.050   2.773   4.763 -0.1955 -0.0098 -0.0620
 7582SOL    HW134208   2.997   2.841   4.804  3.2198  2.1713  0.6780
 7582SOL    HW234209   3.111   2.826   4.711 -0.8786 -0.2333 -1.0951
 7583SOL     OW34210   1.998   2.724   6.416  0.1123  0.3344  0.3482
 7583SOL    HW134211   1.983   2.680   6.332  0.3789  2.6505 -0.9181
 7583SOL    HW234212   1.930   2.681   6.470 -1.4403  2.9168  0.4542
 7584SOL     OW34213   2.620   3.273   8.826  0.2554  0.4964  0.2168
 7584SOL    HW134214   2.555   3.221   8.872 -0.8793  1.5324 -0.2043
 7584SOL    HW234215   2.603   3.364   8.851 -2.0509  0.4545 -1.0770
 7585SOL     OW34216   3.544   3.167  11.176  0.3859  0.2225  0.1797
 7585SOL    HW134217   3.627   3.135  11.139 -0.3611 -0.6338 -0.7863
 7585SOL    HW234218   3.577   3.214  11.252 -2.2938  2.0546  0.2154
 7586SOL     OW34219   4.458   3.268  16.714  0.4971  0.2103  0.0750
 7586SOL    HW134220   4.402   3.193  16.736 -1.2013  1.1094 -1.1594
 7586SOL    HW234221   4.509   3.279  16.794 -1.5100 -1.2248  1.5640
 7587SOL     OW34222   0.895   2.980   3.654  0.2701  0.5106 -0.0687
 7587SOL    HW134223   0.822   3.037   3.677  0.3434  0.0776  1.2283
 7587SOL    HW234224   0.946   3.007   3.731 -1.5466  1.2243  0.8884
 7588SOL     OW34225   0.260   2.000  16.006 -0.1619 -0.1405 -0.7090
 7588SOL    HW134226   0.337   1.991  15.951 -1.5403  0.1643 -2.7116
 7588SOL    HW234227   0.297   2.018  16.093 -3.2516  0.3992  0.5077
 7589SOL     OW34228   1.010   0.057   5.347 -0.0984  0.1288  0.3531
 7589SOL    HW134229   1.001   0.146   5.313 -1.3276 -0.6969 -1.4438
 7589SOL    HW234230   0.966   0.070   5.431  2.2014 -1.7982  1.8642
 7590SOL     OW34231   3.510   0.074   9.323  0.2035 -0.1075 -0.6862
 7590SOL    HW134232   3.444   0.066   9.392  0.2981 -0.4314 -0.6344
 7590SOL    HW234233   3.522   4.703   9.294 -0.8874 -1.0981  1.9604
 7591SOL     OW34234   3.642   0.268   2.444 -0.0746  0.3558 -0.2829
 7591SOL    HW134235   3.691   0.266   2.362  0.5272  1.6831  0.0454
 7591SOL    HW234236   3.579   0.338   2.426 -0.0136  0.1189 -1.3866
 7592SOL     OW34237   0.200   4.191   3.914  0.7354  0.3774  0.0532
 7592SOL    HW134238   0.130   4.256   3.916 -1.4002 -1.9382 -0.3918
 7592SOL    HW234239   0.229   4.197   3.823 -0.3359  1.4820 -0.2235
 7593SOL     OW34240   2.024   1.070  15.326 -0.1244  0.1550  0.1361
 7593SOL    HW134241   2.042   1.163  15.341  1.6697 -0.3674  1.2875
 7593SOL    HW234242   1.955   1.061  15.392 -1.2316 -1.9051 -1.2939
 7594SOL     OW34243   2.113   3.578   8.612 -0.2876  0.5295 -0.5256
 7594SOL    HW134244   2.094   3.620   8.528  1.6885  1.5835 -0.4363
 7594SOL    HW234245   2.119   3.654   8.671 -0.1449  0.9881 -1.1308
 7595SOL     OW34246   4.042   1.652   8.696  0.3851 -0.2438 -0.3508
 7595SOL    HW134247   3.951   1.628   8.716  0.2864 -0.6493 -1.2673
 7595SOL    HW234248   4.069   1.682   8.783  0.4847 -3.1429  0.5920
 7596SOL     OW34249   3.784   2.783   3.984 -0.1025 -0.1989  0.7292
 7596SOL    HW134250   3.770   2.736   4.066  1.6235 -1.8819  0.0437
 7596SOL    HW234251   3.820   2.708   3.937  1.7449  2.1566 -1.6652
 7597SOL     OW34252   4.535   4.533   8.717 -0.3148 -0.3734 -0.6475
 7597SOL    HW134253   4.491   4.580   8.788  0.3230  0.1005 -0.5679
 7597SOL    HW234254   4.485   4.453   8.699 -0.7687 -0.5331  1.4084
 7598SOL     OW34255   4.678   0.228   4.873  0.2918 -0.2152 -0.3782
 7598SOL    HW134256   4.600   0.174   4.862 -0.9993  1.5172  0.3370
 7598SOL    HW234257   4.642   0.307   4.913  0.5591 -0.6565  0.7334
 7599SOL     OW34258   2.917   2.192   0.727  0.1671 -0.0559  0.6953
 7599SOL    HW134259   2.971   2.114   0.725  0.6670  0.3415 -1.4175
 7599SOL    HW234260   2.977   2.255   0.769 -0.8816  2.2378 -1.2335
 7600SOL     OW34261   0.091   0.586   1.949  0.0068 -0.0348 -0.6578
 7600SOL    HW134262   0.011   0.545   1.915 -1.2364  0.4414  1.6300
 7600SOL    HW234263   0.154   0.531   1.903 -0.5192  0.4960 -2.0170
 7601SOL     OW34264   0.538   3.603   6.463  0.1476  0.2682  0.5100
 7601SOL    HW134265   0.577   3.641   6.384 -1.2485 -1.7602 -1.1416
 7601SOL    HW234266   0.497   3.519   6.445 -1.9940  1.1737  1.1251
 7602SOL     OW34267   3.088   3.742   0.564  0.3097  0.2797  0.5517
 7602SOL    HW134268   3.074   3.749   0.658 -1.4141  1.4198  0.1936
 7602SOL    HW234269   3.060   3.651   0.549 -0.1285  0.7242 -1.3250
 7603SOL     OW34270   2.501   4.163  14.073  0.3394 -0.1966 -0.0221
 7603SOL    HW134271   2.490   4.082  14.024  2.0576  0.3638 -1.3634
 7603SOL    HW234272   2.498   4.123  14.160 -1.3181  0.2490  0.1201
 7604SOL     OW34273   4.381   2.444  13.207  0.2739  0.2670 -0.0793
 7604SOL    HW134274   4.457   2.418  13.155  0.6417  0.1114  0.5414
 7604SOL    HW234275   4.391   2.539  13.209  0.9972  0.1822  0.2765
 7605SOL     OW34276   3.721   0.424  10.209  0.5048 -0.0462  0.6914
 7605SOL    HW134277   3.749   0.448  10.121  0.2836 -2.0860  0.0683
 7605SOL    HW234278   3.800   0.381  10.241 -0.1454 -0.5809  1.5936
 7606SOL     OW34279   3.854   0.690   8.123  0.3929  0.3453  0.0198
 7606SOL    HW134280   3.788   0.758   8.128 -0.8101 -0.7818 -0.5930
 7606SOL    HW234281   3.810   0.617   8.167 -0.2572 -0.1486 -1.4826
 7607SOL     OW34282   4.500   3.691   0.463  0.2950  0.1193  0.0412
 7607SOL    HW134283   4.563   3.762   0.477  0.2195  0.1565  0.1863
 7607SOL    HW234284   4.491   3.658   0.552  2.1776 -1.2598 -0.2738
 7608SOL     OW34285   0.806   4.329  16.869  0.3342 -0.0060  0.3126
 7608SOL    HW134286   0.858   4.307  16.792 -1.3200  0.5745 -0.9571
 7608SOL    HW234287   0.820   4.249  16.919 -1.8924 -0.2761  0.5190
 7609SOL     OW34288   2.678   3.760   1.117 -0.1863  0.4888 -0.5394
 7609SOL    HW134289   2.729   3.684   1.091  0.7488  0.3899  1.6459
 7609SOL    HW234290   2.747   3.827   1.116 -0.3033  0.6243  1.0568
 7610SOL     OW34291   0.683   3.127  14.560  0.3107 -0.3620  0.5134
 7610SOL    HW134292   0.592   3.099  14.570  0.3128 -0.5379  0.0352
 7610SOL    HW234293   0.719   3.131  14.649  0.7598  1.8128  0.2230
 7611SOL     OW34294   1.708   4.074   6.580 -0.2124  0.1184 -0.2770
 7611SOL    HW134295   1.757   4.071   6.498  2.2710  0.5350  1.2047
 7611SOL    HW234296   1.741   4.158   6.611 -0.1131 -0.4221  1.0508
 7612SOL     OW34297   0.702   0.172   5.102  0.2592  0.3269  0.3526
 7612SOL    HW134298   0.620   0.210   5.070 -0.5253 -1.9686 -0.3146
 7612SOL    HW234299   0.680   0.086   5.136  1.6867 -0.1943 -0.0505
 7613SOL     OW34300   3.018   2.577   4.977 -0.5733  0.5134 -0.1473
 7613SOL    HW134301   3.009   2.625   4.895 -0.8169 -0.9915 -1.0086
 7613SOL    HW234302   3.074   2.504   4.949 -1.1990 -0.1539  0.3546
 7614SOL     OW34303   0.050   0.493   0.887  0.4686  0.3791  0.0179
 7614SOL    HW134304   0.051   0.470   0.980 -2.6155  0.8971  0.1945
 7614SOL    HW234305   4.675   0.507   0.876  0.1420 -0.6879  1.4473
 7615SOL     OW34306   2.161   2.712   4.642 -0.4782 -0.5720  0.2136
 7615SOL    HW134307   2.211   2.684   4.564  0.7828 -1.9078  1.5030
 7615SOL    HW234308   2.225   2.708   4.712  1.5269  0.7170 -1.5491
 7616SOL     OW34309   0.540   2.007   0.586  0.3171  0.4750  0.2102
 7616SOL    HW134310   0.536   1.929   0.530  0.1942  0.2041  0.5903
 7616SOL    HW234311   0.628   2.041   0.571  0.6468 -0.4975 -0.0717
 7617SOL     OW34312   3.024   4.617   8.612 -0.2575  0.4215  0.1710
 7617SOL    HW134313   3.009   4.554   8.542  1.3150  0.6476 -0.3629
 7617SOL    HW234314   2.989   4.696   8.571 -0.2099 -0.0759 -0.8106
 7618SOL     OW34315   0.156   2.470   6.010 -0.1950 -0.2024  0.2907
 7618SOL    HW134316   0.154   2.490   6.104 -3.0498  2.0973 -0.2576
 7618SOL    HW234317   0.146   2.375   6.008  0.2104 -0.2511  0.5708
 7619SOL     OW34318   4.048   4.585   4.209  0.6273 -0.6764 -0.8138
 7619SOL    HW134319   3.996   4.650   4.162  0.7133 -2.6407 -3.6119
 7619SOL    HW234320   4.010   4.591   4.296  0.6901  1.1378 -0.8971
 7620SOL     OW34321   2.140   0.096   9.631 -0.0491 -0.4762 -0.3290
 7620SOL    HW134322   2.183   0.182   9.627  0.4870 -0.7242 -0.0133
 7620SOL    HW234323   2.191   0.055   9.702 -0.1807  0.2832  0.2104
 7621SOL     OW34324   2.181   0.324  14.123 -0.2735 -0.5649  0.0402
 7621SOL    HW134325   2.154   0.240  14.085 -1.4072  0.9255 -2.3738
 7621SOL    HW234326   2.103   0.333  14.177 -0.0907  0.3048  0.1535
 7622SOL     OW34327   0.023   3.866  14.828 -0.4284 -0.0685  0.0736
 7622SOL    HW134328   0.069   3.914  14.760  4.7312 -1.4049  2.5664
 7622SOL    HW234329   4.679   3.827  14.768 -1.0190 -0.4436  0.9247
 7623SOL     OW34330   2.402   1.738   5.035 -0.2328  0.0934 -0.1046
 7623SOL    HW134331   2.403   1.774   5.124  2.0904  0.9124 -0.4586
 7623SOL    HW234332   2.403   1.644   5.055 -1.4082  0.4095  1.4167
 7624SOL     OW34333   1.406   3.695  17.514  0.2532  0.4089 -0.3177
 7624SOL    HW134334   1.451   3.612  17.527  0.3066  0.4717 -0.1121
 7624SOL    HW234335   1.470   3.766  17.507  2.8202 -1.9263 -0.5290
 7625SOL     OW34336   3.602   4.716   3.253  0.0538  0.8538 -0.1261
 7625SOL    HW134337   3.541   4.716   3.327  0.3288 -3.8020  0.1079
 7625SOL    HW234338   3.688   4.714   3.295 -0.4372  3.0543  0.9540
 7626SOL     OW34339   2.550   2.702   1.363 -0.3040  0.2655  0.3414
 7626SOL    HW134340   2.472   2.691   1.418  0.3450  1.3769  1.5114
 7626SOL    HW234341   2.585   2.613   1.366  1.2168  0.8655  0.7264
 7627SOL     OW34342   1.793   2.464  16.417  0.1309 -0.3853  0.1522
 7627SOL    HW134343   1.745   2.381  16.411 -0.6250 -0.0093  1.0851
 7627SOL    HW234344   1.742   2.493  16.492  0.7118 -0.6480  0.6478
 7628SOL     OW34345   4.029   3.220   7.502 -0.2200 -0.0951  0.0658
 7628SOL    HW134346   3.946   3.200   7.546 -1.5332 -1.8645 -3.1736
 7628SOL    HW234347   4.081   3.155   7.547 -0.0555 -0.1281 -0.1721
 7629SOL     OW34348   4.311   2.209   7.862  0.7785 -0.2162  0.0578
 7629SOL    HW134349   4.364   2.276   7.818  2.6350 -0.8724  1.3300
 7629SOL    HW234350   4.229   2.220   7.813  0.7777  0.8735  0.3193
 7630SOL     OW34351   0.245   3.718   7.261  0.1923 -0.6530 -0.2499
 7630SOL    HW134352   0.213   3.634   7.294  1.1495 -1.8118 -2.2505
 7630SOL    HW234353   0.284   3.755   7.341 -0.8225 -0.0246 -0.0503
 7631SOL     OW34354   0.315   1.742  14.285 -0.3494  0.1288 -0.2379
 7631SOL    HW134355   0.378   1.810  14.308 -1.0608  0.4873  0.6847
 7631SOL    HW234356   0.285   1.721  14.374 -0.9331 -1.9903 -0.9310
 7632SOL     OW34357   3.862   1.083   1.898  0.2257 -0.5540  0.0264
 7632SOL    HW134358   3.909   1.159   1.863  0.4310 -0.2187  1.0284
 7632SOL    HW234359   3.774   1.122   1.896  0.0189 -1.1738 -2.4304
 7633SOL     OW34360   4.245   0.861   2.702 -0.1858 -0.5141 -0.1435
 7633SOL    HW134361   4.215   0.802   2.772  0.5820 -1.5154 -0.6620
 7633SOL    HW234362   4.181   0.832   2.637 -1.2478  2.6743 -0.5258
 7634SOL     OW34363   0.964   3.661   0.133 -0.1584 -0.2553  0.1963
 7634SOL    HW134364   0.929   3.572   0.140 -0.0388 -0.2955  0.2810
 7634SOL    HW234365   1.007   3.644   0.050  0.6081 -1.5573  0.8516
 7635SOL     OW34366   1.184   2.313  13.965  0.5089  0.7021  0.1540
 7635SOL    HW134367   1.157   2.240  14.020 -0.8478  1.3558  0.3591
 7635SOL    HW234368   1.201   2.261  13.887 -3.1957 -1.5405  0.8830
 7636SOL     OW34369   3.384   4.411   4.721  0.2969 -0.0155 -0.3537
 7636SOL    HW134370   3.313   4.364   4.679 -0.2644  0.4049  0.1295
 7636SOL    HW234371   3.335   4.492   4.737  2.8039  1.6976 -1.2911
 7637SOL     OW34372   2.412   1.789   9.444  0.0743  0.0588  0.0345
 7637SOL    HW134373   2.347   1.770   9.376  0.6269  0.6268 -0.6458
 7637SOL    HW234374   2.446   1.700   9.452  2.6500  0.9260 -1.1146
 7638SOL     OW34375   1.492   1.576   4.837  0.2863  0.1098  0.2513
 7638SOL    HW134376   1.554   1.649   4.836  1.1811 -0.6352  0.4637
 7638SOL    HW234377   1.414   1.631   4.833  0.3395 -0.0118 -2.2255
 7639SOL     OW34378   2.067   1.163  11.095  0.4115  0.6253 -0.6899
 7639SOL    HW134379   2.053   1.253  11.124  1.7862  1.2049 -1.8321
 7639SOL    HW234380   2.151   1.175  11.050  0.9211 -0.3106 -0.0085
 7640SOL     OW34381   0.710   4.151   0.759 -0.7924 -0.0997 -0.3404
 7640SOL    HW134382   0.790   4.152   0.706  0.1495 -0.4955  1.0812
 7640SOL    HW234383   0.704   4.056   0.767  2.5839 -0.5898 -3.2475
 7641SOL     OW34384   4.709   2.861   0.404  0.0501 -0.4692  0.1405
 7641SOL    HW134385   4.629   2.856   0.352  0.8833 -0.9621 -1.0988
 7641SOL    HW234386   0.052   2.832   0.337 -1.8133 -0.0543 -1.7751
 7642SOL     OW34387   2.424   3.991   5.184 -0.1242 -0.1330  0.1002
 7642SOL    HW134388   2.417   4.061   5.249 -3.0231 -0.2375 -0.0826
 7642SOL    HW234389   2.410   3.913   5.236 -0.9402  0.2588  0.4675
 7643SOL     OW34390   0.901   1.658   8.866 -0.0498  0.5656 -0.4661
 7643SOL    HW134391   0.884   1.565   8.881 -1.8494  0.8195 -0.9033
 7643SOL    HW234392   0.979   1.654   8.811  0.6564 -2.3687  0.7146
 7644SOL     OW34393   2.274   1.926  16.969 -0.0601 -0.1539 -0.5402
 7644SOL    HW134394   2.348   1.871  16.996 -0.5041 -0.8145 -0.6642
 7644SOL    HW234395   2.215   1.864  16.927  1.8400 -1.1811 -1.7017
 7645SOL     OW34396   4.700   4.046   4.208  0.0317  0.0196  0.4373
 7645SOL    HW134397   4.677   3.954   4.215  2.3006 -0.5465  0.1412
 7645SOL    HW234398   4.629   4.067   4.147  1.0097 -1.8157 -1.3274
 7646SOL     OW34399   0.805   2.558   8.591  0.3150 -0.0143  0.2169
 7646SOL    HW134400   0.901   2.550   8.596  0.1293 -1.8917  0.9701
 7646SOL    HW234401   0.801   2.634   8.534 -1.5140 -0.2166  0.0769
 7647SOL     OW34402   4.359   0.535   8.101 -0.7872 -0.3114 -0.1119
 7647SOL    HW134403   4.267   0.561   8.108 -0.3972  1.2081 -0.6233
 7647SOL    HW234404   4.380   0.578   8.018  0.9849 -1.4413 -0.2392
 7648SOL     OW34405   4.430   4.533   4.429  0.0360 -0.5194  0.3241
 7648SOL    HW134406   4.369   4.601   4.402 -0.5107 -0.9522  0.4782
 7648SOL    HW234407   4.387   4.460   4.385  0.2396 -0.5442  0.1653
 7649SOL     OW34408   4.049   1.025  17.308  0.1105 -1.1257 -0.2566
 7649SOL    HW134409   3.978   1.082  17.337  1.4744  1.2215 -1.5156
 7649SOL    HW234410   4.025   1.021  17.215 -2.2472 -0.0759  0.2948
 7650SOL     OW34411   2.667   0.048   5.551  0.1031 -0.4116  0.2355
 7650SOL    HW134412   2.592   0.061   5.609 -0.3671  0.4416 -0.5496
 7650SOL    HW234413   2.665   4.675   5.527  2.5997 -0.1015 -1.0799
 7651SOL     OW34414   4.351   1.246   0.673  0.7119  0.2556 -0.3496
 7651SOL    HW134415   4.314   1.241   0.585  1.1303 -0.6602 -0.4748
 7651SOL    HW234416   4.284   1.296   0.720  0.7411  1.4540 -1.5700
 7652SOL     OW34417   2.887   0.475  13.166  0.8274 -0.3438 -0.1864
 7652SOL    HW134418   2.834   0.515  13.235  1.4608  2.6956 -1.4592
 7652SOL    HW234419   2.965   0.449  13.216  0.5291  2.1786  1.5820
 7653SOL     OW34420   0.179   2.339   2.619  0.1591  0.2487  0.0657
 7653SOL    HW134421   0.270   2.312   2.617  0.1323 -0.0987  3.3849
 7653SOL    HW234422   0.168   2.305   2.708 -1.2591 -1.3093 -0.6825
 7654SOL     OW34423   2.381   3.041  10.848  0.2609  0.5313 -0.1095
 7654SOL    HW134424   2.372   3.122  10.798  0.6767  1.6366  1.6241
 7654SOL    HW234425   2.384   3.081  10.934  0.1819  0.7994 -0.2341
 7655SOL     OW34426   3.293   0.301  12.623 -0.1108  0.2403 -0.4325
 7655SOL    HW134427   3.309   0.259  12.539 -0.6273 -1.8281  0.4845
 7655SOL    HW234428   3.210   0.347  12.608 -1.0396 -1.0349  0.6645
 7656SOL     OW34429   3.067   0.661   1.874  0.9067 -0.0159  0.1178
 7656SOL    HW134430   3.076   0.713   1.794 -1.1606  1.0458  0.5914
 7656SOL    HW234431   3.002   0.596   1.848  1.3524 -0.3109 -0.2493
 7657SOL     OW34432   0.632   3.367   5.810  0.4162  0.2834 -0.2557
 7657SOL    HW134433   0.621   3.422   5.733 -1.2446 -1.1274 -1.0397
 7657SOL    HW234434   0.627   3.432   5.880 -0.2661 -1.0284  0.9226
 7658SOL     OW34435   3.449   1.659   8.351 -0.1345  0.2020  0.5506
 7658SOL    HW134436   3.545   1.660   8.345 -0.1118  0.8479  1.0058
 7658SOL    HW234437   3.446   1.679   8.444  1.0806 -2.4963  1.1630
 7659SOL     OW34438   4.106   3.755   2.563  0.5970 -0.1770 -0.2497
 7659SOL    HW134439   4.195   3.787   2.551  0.2558  0.4401 -1.1240
 7659SOL    HW234440   4.072   3.759   2.474 -0.2864  1.6897  0.1530
 7660SOL     OW34441   1.766   2.743  13.515 -0.4256 -0.0166 -0.9815
 7660SOL    HW134442   1.688   2.734  13.569  1.0192 -1.4131  0.8883
 7660SOL    HW234443   1.828   2.719  13.584  0.1355  0.0182 -1.4762
 7661SOL     OW34444   1.590   0.473   0.984  0.4717 -0.6139  0.1831
 7661SOL    HW134445   1.574   0.430   0.900  2.8472 -1.8979  0.4028
 7661SOL    HW234446   1.530   0.433   1.047 -1.1121  1.3685 -0.0388
 7662SOL     OW34447   0.931   4.195   6.999 -0.2521 -0.6187 -0.2724
 7662SOL    HW134448   0.896   4.135   7.064 -0.4276 -0.5526 -0.3055
 7662SOL    HW234449   0.879   4.274   7.014  0.7953 -0.1778  1.0477
 7663SOL     OW34450   2.049   2.434   8.992  0.4646 -0.6302  0.4171
 7663SOL    HW134451   2.002   2.355   8.967 -3.1437  1.1785  1.4545
 7663SOL    HW234452   1.974   2.478   9.033  1.3568  2.1726 -0.9503
 7664SOL     OW34453   0.818   1.896  15.792 -0.3328  0.2194 -0.7466
 7664SOL    HW134454   0.786   1.826  15.735  1.1243 -1.0328 -0.0536
 7664SOL    HW234455   0.837   1.976  15.743 -0.3069  0.5133 -0.2528
 7665SOL     OW34456   3.198   3.714   6.388 -0.3538 -0.1090  0.0459
 7665SOL    HW134457   3.184   3.690   6.296  2.7889 -0.8304 -0.2518
 7665SOL    HW234458   3.125   3.665   6.424 -1.7240  1.4407 -0.6273
 7666SOL     OW34459   1.347   3.218   7.965  0.8903  0.1824 -0.0814
 7666SOL    HW134460   1.342   3.141   7.910  1.3564  0.7116 -0.8608
 7666SOL    HW234461   1.349   3.175   8.051 -0.2690 -0.3755 -0.3272
 7667SOL     OW34462   3.578   2.405   5.016 -0.3164 -0.2662  0.1736
 7667SOL    HW134463   3.611   2.318   5.040  1.7081  0.2089 -0.8812
 7667SOL    HW234464   3.649   2.462   5.046 -0.0132 -1.4644  1.7388
 7668SOL     OW34465   0.990   1.613   2.385 -0.1252 -0.4185 -0.3519
 7668SOL    HW134466   1.045   1.539   2.360 -1.0747 -0.4752 -2.2509
 7668SOL    HW234467   0.903   1.586   2.356  0.0797 -0.6227 -0.7779
 7669SOL     OW34468   4.391   0.006  17.225  0.4093  0.0193 -0.2669
 7669SOL    HW134469   4.468   4.689  17.270  0.1133  0.7418  0.8162
 7669SOL    HW234470   4.377   4.664  17.153 -0.7240 -2.0605  1.7565
 7670SOL     OW34471   0.886   0.651   6.031 -0.2274 -0.1852 -0.3779
 7670SOL    HW134472   0.925   0.739   6.037 -2.9223  1.0303 -0.3617
 7670SOL    HW234473   0.963   0.595   6.030 -0.0833  0.0034  0.3642
 7671SOL     OW34474   1.810   0.077   8.394  0.3404  0.1908 -0.0759
 7671SOL    HW134475   1.754   0.008   8.361  1.7652 -0.7213 -0.5737
 7671SOL    HW234476   1.897   0.042   8.375 -1.2314 -2.8016 -1.7274
 7672SOL     OW34477   2.506   1.610   4.165 -0.1015 -0.0791  0.3429
 7672SOL    HW134478   2.416   1.641   4.151  0.3607  1.4743  0.7903
 7672SOL    HW234479   2.531   1.578   4.078  0.4518 -0.0894  0.5038
 7673SOL     OW34480   3.689   4.401  14.717 -0.3219  0.2674  0.1540
 7673SOL    HW134481   3.594   4.408  14.708 -0.4368 -1.8117 -0.1644
 7673SOL    HW234482   3.687   4.412  14.812 -0.3498 -0.1537  0.2032
 7674SOL     OW34483   0.872   0.103   5.576  0.0071  0.1922 -0.1020
 7674SOL    HW134484   0.898   0.125   5.665 -1.5829 -0.9043  0.6343
 7674SOL    HW234485   0.776   0.111   5.570 -0.1177 -1.6194 -0.6548
 7675SOL     OW34486   4.355   4.247   0.268 -0.1468 -0.2844 -0.0461
 7675SOL    HW134487   4.290   4.180   0.288  0.6258 -0.5751  1.4950
 7675SOL    HW234488   4.421   4.204   0.323  1.5003  2.6389  0.2881
 7676SOL     OW34489   0.700   4.626   8.185  0.0203 -0.0959 -0.5171
 7676SOL    HW134490   0.633   4.677   8.230 -1.0973 -1.9266 -0.1066
 7676SOL    HW234491   0.706   4.690   8.113 -1.0019  1.5154  0.8238
 7677SOL     OW34492   1.433   1.392  10.657  0.1075  0.7342 -0.0656
 7677SOL    HW134493   1.453   1.432  10.572 -0.8041  1.1817 -0.0594
 7677SOL    HW234494   1.506   1.332  10.673 -0.4613  0.8365  2.7461
 7678SOL     OW34495   4.686   1.328  10.845 -1.0240 -0.8970 -0.1875
 7678SOL    HW134496   4.653   1.401  10.792 -1.9753 -1.6407 -0.6249
 7678SOL    HW234497   4.623   1.313  10.916  0.2334  0.0573  1.1280
 7679SOL     OW34498   4.032   1.994   3.119  0.2693 -0.0330 -0.2275
 7679SOL    HW134499   4.014   1.901   3.131  0.1402  0.0016 -0.1571
 7679SOL    HW234500   4.123   1.991   3.089 -0.1991 -1.0599 -1.5476
 7680SOL     OW34501   2.563   4.438   3.905  0.2270 -0.3438 -0.5123
 7680SOL    HW134502   2.644   4.450   3.855  0.0358  1.2116 -0.4526
 7680SOL    HW234503   2.611   4.438   3.988  1.9133 -0.7850 -1.4795
 7681SOL     OW34504   0.675   2.712   5.327  0.0864 -0.3661  0.2002
 7681SOL    HW134505   0.705   2.765   5.401 -0.4735 -2.9492  2.2736
 7681SOL    HW234506   0.729   2.750   5.258 -0.0787 -1.7286 -0.6736
 7682SOL     OW34507   0.365   0.292   3.672 -0.1900  0.7748 -1.0224
 7682SOL    HW134508   0.415   0.359   3.625  0.5974 -0.3891 -1.8520
 7682SOL    HW234509   0.283   0.339   3.684  0.3701  1.5661 -0.2849
 7683SOL     OW34510   4.372   4.517   0.244 -0.0725  0.1532  0.0526
 7683SOL    HW134511   4.352   4.527   0.151  1.3072  1.4317 -0.1230
 7683SOL    HW234512   4.368   4.422   0.244  0.3064  0.1384  0.9992
 7684SOL     OW34513   4.573   2.685   8.184  1.0477  0.3211 -0.6738
 7684SOL    HW134514   4.505   2.727   8.131 -0.6618 -1.0560  0.4203
 7684SOL    HW234515   4.573   2.733   8.267 -0.0809 -2.8212  1.1280
 7685SOL     OW34516   1.720   2.189  16.464 -0.2317  0.3671  0.8298
 7685SOL    HW134517   1.634   2.187  16.421  1.3979  2.4042 -2.4332
 7685SOL    HW234518   1.714   2.117  16.527 -2.9847  0.7734  1.0439
 7686SOL     OW34519   2.499   4.607   8.253 -0.5522 -0.0284  0.1071
 7686SOL    HW134520   2.463   4.577   8.337  0.7292 -0.0068  0.6526
 7686SOL    HW234521   2.565   4.672   8.276  0.8412 -0.8268 -1.6122
 7687SOL     OW34522   3.969   0.996  17.018  0.3706  0.2156 -0.0243
 7687SOL    HW134523   4.054   1.001  16.976  0.4026 -1.9657 -0.2411
 7687SOL    HW234524   3.933   0.907  17.008  0.7977  0.0274  0.1254
 7688SOL     OW34525   4.101   1.782   5.615  0.1278 -0.3051 -0.4160
 7688SOL    HW134526   4.125   1.853   5.556  1.7712 -0.2623  0.3072
 7688SOL    HW234527   4.012   1.802   5.645  0.7403  0.9426  0.6016
 7689SOL     OW34528   1.589   3.719   0.363  0.5229  0.1710  0.7861
 7689SOL    HW134529   1.577   3.639   0.414  0.1304 -0.4784 -0.3085
 7689SOL    HW234530   1.526   3.708   0.291  3.2264 -2.1902 -1.2183
 7690SOL     OW34531   2.989   3.733   5.250  0.0911  0.3667  0.4081
 7690SOL    HW134532   2.964   3.642   5.235  2.8031 -0.2036 -0.6186
 7690SOL    HW234533   2.948   3.775   5.174  0.0821  1.7009  1.1620
 7691SOL     OW34534   1.155   4.668   6.453 -0.2784 -0.0048 -0.4955
 7691SOL    HW134535   1.083   0.007   6.432  0.4161  0.9633 -0.1897
 7691SOL    HW234536   1.209   4.675   6.374  0.8268  0.0717  0.2647
 7692SOL     OW34537   3.250   3.440   4.264  0.0260 -0.1184  0.3325
 7692SOL    HW134538   3.198   3.360   4.260  0.6889 -0.5665  0.5903
 7692SOL    HW234539   3.340   3.414   4.243 -1.1120 -2.8876 -1.1402
 7693SOL     OW34540   2.336   0.155   7.818  0.2934  0.1639 -0.3835
 7693SOL    HW134541   2.329   0.167   7.723  0.7675  1.6482 -0.2324
 7693SOL    HW234542   2.430   0.143   7.825  0.3901  1.8006  1.2379
 7694SOL     OW34543   0.734   4.664  15.300  0.0813 -0.5827  0.0312
 7694SOL    HW134544   0.752   0.021  15.353 -2.0385 -0.4962  0.6370
 7694SOL    HW234545   0.698   4.608  15.368 -0.9035 -2.9479 -2.4016
 7695SOL     OW34546   0.552   0.985   5.891  0.9540 -0.3486 -0.6430
 7695SOL    HW134547   0.463   0.955   5.873  0.7750 -0.2015 -0.0062
 7695SOL    HW234548   0.560   1.063   5.836  0.0850 -0.1119 -0.4348
 7696SOL     OW34549   1.291   2.269   7.856 -0.0746  0.2616 -0.3371
 7696SOL    HW134550   1.386   2.258   7.864 -0.2932  0.1571  2.1078
 7696SOL    HW234551   1.263   2.224   7.936 -2.4967  1.0001 -0.7758
 7697SOL     OW34552   2.574   1.467  13.148 -0.5772 -0.3550 -0.0074
 7697SOL    HW134553   2.667   1.458  13.124 -0.0162 -0.3938  2.1256
 7697SOL    HW234554   2.534   1.441  13.065 -0.9159  1.8562 -0.5262
 7698SOL     OW34555   0.095   4.120   7.620 -0.3147  0.3526 -0.2954
 7698SOL    HW134556   0.081   4.037   7.666 -4.1090  1.4728  0.5469
 7698SOL    HW234557   0.021   4.119   7.559 -2.1899  0.7305  1.9666
 7699SOL     OW34558   1.806   0.706   6.710 -0.0279  0.0925 -0.2296
 7699SOL    HW134559   1.741   0.755   6.659  1.8312  1.9484 -0.8365
 7699SOL    HW234560   1.780   0.723   6.801  1.1868  0.7131  0.0086
 7700SOL     OW34561   0.800   1.664   2.760 -0.5771  0.5147 -0.3854
 7700SOL    HW134562   0.813   1.665   2.855 -1.9826 -0.7825 -0.1913
 7700SOL    HW234563   0.797   1.760   2.753 -0.9949  0.7031  2.0499
 7701SOL     OW34564   2.669   2.663   7.931  0.2659 -0.3194  0.3708
 7701SOL    HW134565   2.718   2.672   8.013 -2.4102  1.8105  1.7508
 7701SOL    HW234566   2.580   2.638   7.957  0.4489 -0.4470  0.8835
 7702SOL     OW34567   0.135   4.697   5.601 -0.2126  0.5156  0.5554
 7702SOL    HW134568   0.080   4.706   5.523  0.1111 -1.7680  0.0672
 7702SOL    HW234569   0.073   4.680   5.672  0.4144 -0.6940  0.8034
 7703SOL     OW34570   0.549   3.828   1.615  0.5755  0.2787 -0.2921
 7703SOL    HW134571   0.632   3.844   1.572  0.9139  0.3754  0.3912
 7703SOL    HW234572   0.568   3.754   1.673 -0.5073  0.5128  0.3815
 7704SOL     OW34573   0.196   3.917   8.524  0.1984 -0.8912 -0.6563
 7704SOL    HW134574   0.202   3.867   8.605 -2.5136  1.4019  0.9717
 7704SOL    HW234575   0.126   3.973   8.557  1.0751  0.4425 -1.0454
 7705SOL     OW34576   0.527   2.722   5.002 -0.3479 -0.2745  0.9566
 7705SOL    HW134577   0.480   2.770   5.069 -2.1031  2.8644 -2.5425
 7705SOL    HW234578   0.609   2.772   4.997  0.1803 -1.3180 -1.0248
 7706SOL     OW34579   2.471   4.054   0.827  0.0779  0.1363  0.3319
 7706SOL    HW134580   2.427   3.994   0.767  1.2185 -0.2947 -0.0644
 7706SOL    HW234581   2.537   4.087   0.767 -0.4127 -0.9656 -0.8172
 7707SOL     OW34582   0.587   0.239  12.227  0.2468  0.6782  0.6164
 7707SOL    HW134583   0.681   0.249  12.212  0.0087  0.4340 -1.0512
 7707SOL    HW234584   0.581   0.218  12.320 -1.9374 -1.4339 -0.0069
 7708SOL     OW34585   0.847   4.013   6.338  0.7793 -0.1961  0.1709
 7708SOL    HW134586   0.891   3.937   6.377  0.5974 -0.3609  0.0552
 7708SOL    HW234587   0.854   4.078   6.408 -1.5742  1.0854 -0.8181
 7709SOL     OW34588   0.778   0.175  15.415  0.2878 -0.0413 -0.0989
 7709SOL    HW134589   0.694   0.211  15.446 -1.1184 -2.7273 -0.8564
 7709SOL    HW234590   0.798   0.241  15.348 -1.0474  0.5440  0.0832
 7710SOL     OW34591   4.424   1.719   3.896  0.2720 -0.1861  0.6271
 7710SOL    HW134592   4.437   1.814   3.899 -1.1202  0.0379 -0.7275
 7710SOL    HW234593   4.461   1.701   3.809  0.7819  1.5703  0.4655
 7711SOL     OW34594   1.807   3.489   4.196  0.2307  0.1147 -0.0274
 7711SOL    HW134595   1.770   3.571   4.163  1.6859 -0.5421 -3.2830
 7711SOL    HW234596   1.746   3.424   4.161  1.5778 -2.5108  2.5107
 7712SOL     OW34597   2.404   1.517  11.790  0.5736 -0.4206  0.7115
 7712SOL    HW134598   2.491   1.479  11.774  0.2376 -0.9568  0.1500
 7712SOL    HW234599   2.411   1.608  11.764  0.8308 -0.6394  0.0103
 7713SOL     OW34600   2.483   0.108   2.443 -0.4164  0.1284  0.1060
 7713SOL    HW134601   2.419   0.164   2.400 -0.2590  1.3434  1.4364
 7713SOL    HW234602   2.537   0.085   2.368 -0.0351  3.8513 -0.7606
 7714SOL     OW34603   2.328   1.217  16.825 -0.2038 -0.4701  0.1008
 7714SOL    HW134604   2.380   1.297  16.827 -2.5820  1.1389 -2.2970
 7714SOL    HW234605   2.356   1.168  16.747 -0.3880 -0.0250 -0.2423
 7715SOL     OW34606   3.349   4.349   1.160 -0.4574  0.2483  0.3510
 7715SOL    HW134607   3.329   4.366   1.252 -2.5286 -0.9518  0.1006
 7715SOL    HW234608   3.262   4.330   1.127 -1.6456  2.2534  2.3495
 7716SOL     OW34609   2.820   4.664  12.180 -0.3875  0.3456 -0.3869
 7716SOL    HW134610   2.770   4.605  12.236 -2.0026 -0.0973 -2.2776
 7716SOL    HW234611   2.863   4.598  12.124 -1.1516 -2.4843  2.3838
 7717SOL     OW34612   0.280   0.159  14.661  0.2915 -0.5050 -0.3110
 7717SOL    HW134613   0.357   0.175  14.715 -0.1966  1.8023 -0.2843
 7717SOL    HW234614   0.312   0.124  14.578 -0.0091  0.5883 -0.8925
 7718SOL     OW34615   1.122   0.513   6.086 -0.6884 -0.1608 -0.0159
 7718SOL    HW134616   1.178   0.518   6.163  0.3576 -1.2327 -0.7118
 7718SOL    HW234617   1.134   0.423   6.057  0.1115 -0.5533  1.5477
 7719SOL     OW34618   1.756   3.796   0.557 -0.2692 -0.0062  0.0973
 7719SOL    HW134619   1.683   3.795   0.495  1.7030  1.5021 -2.2412
 7719SOL    HW234620   1.756   3.704   0.585 -2.3094 -0.6736 -2.1079
 7720SOL     OW34621   1.869   4.715   8.978  0.4816 -0.6452 -0.2127
 7720SOL    HW134622   1.774   4.703   8.974  0.0466  2.9208  0.0113
 7720SOL    HW234623   1.894   4.681   8.891 -0.1324  1.7054 -1.2912
 7721SOL     OW34624   2.231   1.110   8.510 -0.0270 -0.1346 -0.3598
 7721SOL    HW134625   2.290   1.170   8.465 -0.4232  1.4906  1.2732
 7721SOL    HW234626   2.165   1.078   8.448 -1.3911 -2.7503  2.4527
 7722SOL     OW34627   0.253   1.624  14.515 -0.5783 -0.1610  0.0660
 7722SOL    HW134628   0.282   1.616  14.606  1.3255 -2.4046 -0.7473
 7722SOL    HW234629   0.159   1.611  14.519 -0.3562 -2.1988 -1.4684
 7723SOL     OW34630   2.998   3.060   5.660 -0.5462 -0.2850  0.4662
 7723SOL    HW134631   3.042   3.073   5.576 -1.0585 -0.7616  0.1284
 7723SOL    HW234632   3.066   3.005   5.699  0.3830 -1.7853 -3.2911
 7724SOL     OW34633   1.666   1.859   8.069  0.5712  0.0339  0.0389
 7724SOL    HW134634   1.730   1.828   8.133 -0.1174 -1.1593  0.1333
 7724SOL    HW234635   1.599   1.792   8.077  1.0461 -0.3530  0.8288
 7725SOL     OW34636   1.472   1.696   7.604  0.2288  0.2978  0.0405
 7725SOL    HW134637   1.509   1.608   7.603  1.4244  0.7955 -0.0675
 7725SOL    HW234638   1.488   1.725   7.514 -1.4882  1.7237  0.1821
 7726SOL     OW34639   4.473   4.690  13.954  0.1132 -0.6394 -0.3629
 7726SOL    HW134640   4.508   4.602  13.965  0.6744 -0.3285  0.2965
 7726SOL    HW234641   4.422   4.674  13.874  1.9194  0.1773 -1.6676
 7727SOL     OW34642   0.440   4.665  11.079  0.3926  0.0913  0.2476
 7727SOL    HW134643   0.500   4.697  11.147  2.4971  1.2212 -2.1627
 7727SOL    HW234644   0.381   4.615  11.135 -1.1147 -0.9352 -2.2723
 7728SOL     OW34645   3.132   3.808   7.644 -0.0419 -0.1437 -0.4120
 7728SOL    HW134646   3.195   3.856   7.591  3.4147 -3.5632  0.6523
 7728SOL    HW234647   3.055   3.855   7.610 -1.2744 -2.3326 -0.6664
 7729SOL     OW34648   1.396   1.739  16.450  0.1552 -0.0388  0.2484
 7729SOL    HW134649   1.393   1.682  16.526  1.3338 -1.4328 -0.7449
 7729SOL    HW234650   1.460   1.689  16.400 -1.1345  0.6789 -2.1412
 7730SOL     OW34651   3.141   0.629  12.692  0.0737  0.4788  0.0028
 7730SOL    HW134652   3.078   0.559  12.709 -0.6033  0.7904 -1.1997
 7730SOL    HW234653   3.156   0.673  12.776 -2.4114 -0.4077  0.9336
 7731SOL     OW34654   1.380   2.006  14.007  0.1897  0.0425  0.2233
 7731SOL    HW134655   1.405   2.071  14.073 -1.7259  0.5200  0.4622
 7731SOL    HW234656   1.442   1.937  14.034 -0.4750  0.0852  1.8736
 7732SOL     OW34657   2.585   3.647   1.793 -0.1947  0.0730 -0.5223
 7732SOL    HW134658   2.511   3.607   1.840 -0.2772  1.0639  0.2066
 7732SOL    HW234659   2.659   3.598   1.828 -0.8213 -0.8570 -0.4925
 7733SOL     OW34660   4.191   2.733   5.523 -0.1162  0.1761  0.3081
 7733SOL    HW134661   4.122   2.779   5.571 -0.3050  0.0065  0.1980
 7733SOL    HW234662   4.150   2.651   5.497 -0.3524  0.6416 -0.7609
 7734SOL     OW34663   0.476   3.781   5.259 -0.3298 -0.6557 -0.5602
 7734SOL    HW134664   0.507   3.742   5.341 -2.1296  0.2120  0.5302
 7734SOL    HW234665   0.560   3.818   5.232 -1.1398 -0.0769 -2.3165
 7735SOL     OW34666   4.127   4.025  13.325  0.4988  0.1548 -0.2939
 7735SOL    HW134667   4.200   3.962  13.327 -0.3641 -0.8662 -1.7496
 7735SOL    HW234668   4.128   4.068  13.411 -2.2033  2.9716 -1.6841
 7736SOL     OW34669   2.629   3.676   7.651 -0.2951  0.4815 -0.0240
 7736SOL    HW134670   2.541   3.657   7.684  0.9430  1.9856  4.1808
 7736SOL    HW234671   2.616   3.745   7.586  0.3940  0.7338  0.1002
 7737SOL     OW34672   1.557   2.120   4.787  0.1343 -0.1543 -0.5753
 7737SOL    HW134673   1.541   2.178   4.862 -1.3521  0.1195 -1.1171
 7737SOL    HW234674   1.650   2.107   4.808 -0.0989 -0.8085  0.0768
 7738SOL     OW34675   1.207   2.551   5.448  0.2759  0.4031  0.4252
 7738SOL    HW134676   1.293   2.590   5.466 -0.3106  1.5325  0.7221
 7738SOL    HW234677   1.143   2.621   5.452 -0.2354 -0.1463  2.1790
 7739SOL     OW34678   3.217   3.507  16.110  0.1852  0.1403 -0.2006
 7739SOL    HW134679   3.272   3.429  16.102 -1.4691 -1.0716  0.2033
 7739SOL    HW234680   3.141   3.483  16.056  1.4423 -1.4796 -1.2585
 7740SOL     OW34681   3.377   4.638   3.422 -0.1363  0.4451  0.4712
 7740SOL    HW134682   3.369   4.673   3.511 -0.6443 -0.8607  0.9389
 7740SOL    HW234683   3.287   4.651   3.392  0.8630  2.9956 -1.4167
 7741SOL     OW34684   4.362   2.300   9.026 -0.1855 -0.7378  0.0776
 7741SOL    HW134685   4.282   2.340   8.994  0.8481  1.5055  0.2705
 7741SOL    HW234686   4.339   2.209   9.006 -1.0006 -1.2561  3.3972
 7742SOL     OW34687   4.694   0.832   9.516  0.1849 -0.3185  0.2046
 7742SOL    HW134688   0.015   0.912   9.484  0.0241 -0.5651 -0.6039
 7742SOL    HW234689   4.633   0.877   9.575 -0.3695 -0.1596 -0.4870
 7743SOL     OW34690   4.522   4.336   9.538 -0.0203  0.3788  0.0426
 7743SOL    HW134691   4.437   4.300   9.565  0.1489 -1.9625 -2.5869
 7743SOL    HW234692   4.579   4.260   9.532 -1.0830 -0.6461  2.6186
 7744SOL     OW34693   4.385   2.467   3.153 -0.4789 -0.7960 -0.0081
 7744SOL    HW134694   4.318   2.445   3.089 -0.3905 -1.5051  0.1452
 7744SOL    HW234695   4.456   2.481   3.089  0.0613 -1.4080  0.4563
 7745SOL     OW34696   0.726   1.182   8.495 -0.0430 -0.2189  0.1816
 7745SOL    HW134697   0.799   1.123   8.478  0.7994  1.6555 -2.6894
 7745SOL    HW234698   0.754   1.261   8.448 -2.4050  0.3862 -0.1897
 7746SOL     OW34699   2.996   4.312   6.761  0.4350 -0.1560  0.4641
 7746SOL    HW134700   3.074   4.258   6.773 -1.0625 -2.6163 -1.0629
 7746SOL    HW234701   2.925   4.264   6.719  0.1719 -0.0207  0.7457
 7747SOL     OW34702   3.421   2.649   9.519  0.1462 -0.4458  0.1490
 7747SOL    HW134703   3.382   2.689   9.442 -2.0957  0.4313  1.7611
 7747SOL    HW234704   3.436   2.561   9.484 -0.6023 -1.0266  1.2912
 7748SOL     OW34705   3.317   4.330   8.291 -0.3040 -0.4363  1.0479
 7748SOL    HW134706   3.242   4.285   8.250  0.1195 -1.0410  0.9359
 7748SOL    HW234707   3.354   4.370   8.212 -1.0424  0.2872  1.0716
 7749SOL     OW34708   1.667   0.975  10.631  0.2870 -0.0338  0.6650
 7749SOL    HW134709   1.646   1.067  10.647 -0.2195 -0.0951  0.3528
 7749SOL    HW234710   1.591   0.943  10.582  0.2880  0.7544  0.1542
 7750SOL     OW34711   3.599   3.492   9.910 -0.0124  0.2202 -0.1659
 7750SOL    HW134712   3.623   3.400   9.897 -3.2635 -0.7925  1.0608
 7750SOL    HW234713   3.504   3.480   9.897 -0.2667  0.9796  1.0165
 7751SOL     OW34714   2.866   1.704  12.896  0.1384 -0.3308 -0.6947
 7751SOL    HW134715   2.777   1.694  12.928  0.3946 -1.0386 -0.2108
 7751SOL    HW234716   2.859   1.649  12.818  0.3017 -0.1788 -0.8158
 7752SOL     OW34717   1.949   2.439   5.513 -0.0526  0.6168  0.1164
 7752SOL    HW134718   1.988   2.527   5.515  2.0579 -0.3094 -0.0884
 7752SOL    HW234719   2.028   2.386   5.522 -0.0406  0.5363 -0.4764
 7753SOL     OW34720   2.657   1.402  11.749  0.4976 -0.1174 -0.0240
 7753SOL    HW134721   2.699   1.485  11.773 -0.8409  0.4789  0.2512
 7753SOL    HW234722   2.698   1.348  11.817 -0.5490  1.2163  1.6681
 7754SOL     OW34723   0.694   1.865   8.052 -0.0407 -0.3235  0.3518
 7754SOL    HW134724   0.687   1.939   7.992 -0.7052 -1.1058 -0.5405
 7754SOL    HW234725   0.757   1.896   8.117 -1.6624  2.3226  0.6807
 7755SOL     OW34726   4.375   4.654   1.293  0.5571 -0.0231 -0.2611
 7755SOL    HW134727   4.298   4.630   1.344  0.7068  0.5116  0.2281
 7755SOL    HW234728   4.369   0.026   1.323 -2.6907 -0.0815 -0.7725
 7756SOL     OW34729   0.936   1.729   4.324  0.6338 -0.2465  0.3764
 7756SOL    HW134730   0.910   1.713   4.233  1.4957 -2.9449  0.6192
 7756SOL    HW234731   0.928   1.825   4.325  0.0739 -0.2661 -1.9903
 7757SOL     OW34732   0.228   3.468   3.449  0.5456 -0.1790 -0.0742
 7757SOL    HW134733   0.137   3.443   3.430  0.4364 -0.0861  0.3090
 7757SOL    HW234734   0.285   3.413   3.396  0.8069  0.2812 -0.2664
 7758SOL     OW34735   3.579   2.828   6.365 -0.2131  0.0437  0.3887
 7758SOL    HW134736   3.613   2.755   6.313  0.5693  0.9245 -0.3369
 7758SOL    HW234737   3.489   2.838   6.332 -0.4607 -1.4460  0.6108
 7759SOL     OW34738   2.821   1.077   5.319 -0.3895 -0.3483 -0.6423
 7759SOL    HW134739   2.802   1.076   5.413  1.1328  1.5613 -0.3419
 7759SOL    HW234740   2.843   1.168   5.300 -1.2270  0.0511  0.2969
 7760SOL     OW34741   1.291   1.140   6.532 -0.2356  0.3881  0.7627
 7760SOL    HW134742   1.199   1.164   6.520  0.2728  1.7891 -0.3648
 7760SOL    HW234743   1.328   1.227   6.519  0.8237 -0.4158 -1.4894
 7761SOL     OW34744   3.251   0.707   1.523  0.0128  0.1978  0.0530
 7761SOL    HW134745   3.166   0.748   1.541  0.1119  0.3394  0.1907
 7761SOL    HW234746   3.225   0.617   1.501  2.4906 -0.5821  0.3519
 7762SOL     OW34747   3.578   0.470   0.870 -0.1683  0.1059 -0.0340
 7762SOL    HW134748   3.552   0.560   0.891  0.0347  0.5771 -1.7722
 7762SOL    HW234749   3.508   0.447   0.808  0.4469 -2.9913  0.4434
 7763SOL     OW34750   1.574   1.012   8.459  0.1838  0.5335  0.0504
 7763SOL    HW134751   1.496   1.007   8.514 -0.2803  0.4441 -0.6212
 7763SOL    HW234752   1.555   1.097   8.420 -3.0934 -1.1476 -2.0052
 7764SOL     OW34753   4.516   0.291  16.257  0.2815  0.6093 -0.3413
 7764SOL    HW134754   4.549   0.300  16.168 -0.3906  3.9713 -0.2598
 7764SOL    HW234755   4.504   0.381  16.288  3.0597  1.4066 -1.5373
 7765SOL     OW34756   0.591   3.948  14.702  0.4894  0.3564  0.1438
 7765SOL    HW134757   0.596   3.900  14.785  0.8169 -0.2598 -0.2295
 7765SOL    HW234758   0.528   4.016  14.725  1.8614  2.2339 -1.7471
 7766SOL     OW34759   0.513   4.703   4.101  0.6085  0.3213 -0.2508
 7766SOL    HW134760   0.594   0.034   4.097  1.5964 -1.2722 -0.1016
 7766SOL    HW234761   0.539   4.612   4.117  0.7746  0.3173 -0.5394
 7767SOL     OW34762   3.640   1.505   4.798 -0.0119 -0.2616  0.1764
 7767SOL    HW134763   3.635   1.556   4.878 -1.4463 -0.6315  0.3320
 7767SOL    HW234764   3.735   1.506   4.786 -0.1204 -2.6140 -0.8715
 7768SOL     OW34765   4.136   4.197   6.442  0.8356  0.2808  0.1421
 7768SOL    HW134766   4.221   4.240   6.451  0.6043  0.6346  0.6748
 7768SOL    HW234767   4.122   4.166   6.532 -1.4002  2.1329  0.4293
 7769SOL     OW34768   0.765   0.686   2.324  0.4896  0.1411  0.1375
 7769SOL    HW134769   0.773   0.612   2.384  1.1256  0.2150  0.1390
 7769SOL    HW234770   0.762   0.646   2.237  0.6413  2.3220 -0.8926
 7770SOL     OW34771   1.136   4.327  16.257 -0.8765 -0.0931 -0.4840
 7770SOL    HW134772   1.180   4.402  16.217 -1.3944  1.1329  1.2517
 7770SOL    HW234773   1.126   4.351  16.349 -0.4353  0.4813 -0.5883
 7771SOL     OW34774   3.769   2.310  16.582 -0.3210 -0.7470 -0.3877
 7771SOL    HW134775   3.850   2.330  16.533 -0.1714  0.9119  0.5522
 7771SOL    HW234776   3.811   2.296  16.667  1.0315 -0.1430 -0.9424
 7772SOL     OW34777   1.053   3.215   6.485  0.3774 -0.4055  0.1526
 7772SOL    HW134778   1.092   3.217   6.572 -0.4592  1.0734  0.5065
 7772SOL    HW234779   1.030   3.123   6.471 -1.0905 -0.0308  0.0808
 7773SOL     OW34780   2.759   0.995   3.423 -0.0840 -0.5500  0.2767
 7773SOL    HW134781   2.784   0.909   3.456  0.6921 -0.1053  0.8782
 7773SOL    HW234782   2.847   1.035   3.428 -0.6684  1.2668 -3.4700
 7774SOL     OW34783   3.514   3.421   4.219  0.4645 -0.1891 -0.2382
 7774SOL    HW134784   3.589   3.379   4.176 -0.5370 -1.6959 -0.5546
 7774SOL    HW234785   3.522   3.379   4.305  3.6825  0.8966 -0.0250
 7775SOL     OW34786   4.671   1.519  10.637 -0.1396  0.2519  0.2456
 7775SOL    HW134787   4.695   1.585  10.702  0.1260  0.2958  0.1045
 7775SOL    HW234788   0.024   1.545  10.579  0.1586 -0.3501  0.3546
 7776SOL     OW34789   0.577   3.641  16.621  0.8923  0.0194 -0.7338
 7776SOL    HW134790   0.546   3.709  16.561 -0.3644 -0.0325 -0.1318
 7776SOL    HW234791   0.596   3.573  16.556 -0.8955 -1.8326  0.6877
 7777SOL     OW34792   1.564   3.913  12.496  0.0981 -0.0976  0.5683
 7777SOL    HW134793   1.560   3.824  12.460  3.5493 -0.0869  0.2358
 7777SOL    HW234794   1.516   3.897  12.578 -2.3595 -0.7044 -0.9653
 7778SOL     OW34795   1.806   3.044  14.002  0.0394 -0.7057  0.2312
 7778SOL    HW134796   1.721   3.078  14.031 -0.1166 -0.8528 -0.0618
 7778SOL    HW234797   1.789   2.951  13.996  2.1337 -1.0590 -0.3522
 7779SOL     OW34798   2.596   3.282   0.320  0.2953 -0.2359  0.3069
 7779SOL    HW134799   2.624   3.195   0.347  2.4684 -0.4627 -2.7552
 7779SOL    HW234800   2.503   3.291   0.345  0.1840 -0.6532  0.0497
 7780SOL     OW34801   0.911   2.171   9.280  0.0575 -0.1206 -0.4620
 7780SOL    HW134802   0.908   2.262   9.310  0.2597 -0.8151  1.6205
 7780SOL    HW234803   0.987   2.151   9.335 -0.3612 -0.6506 -0.0798
 7781SOL     OW34804   2.787   4.605   5.032 -0.1491  0.3205  0.1117
 7781SOL    HW134805   2.708   4.650   5.061  0.1280  1.5274 -1.0069
 7781SOL    HW234806   2.754   4.535   4.975 -0.3652  1.1956 -0.8356
 7782SOL     OW34807   3.319   1.895   2.139  0.1025 -0.3531 -0.4774
 7782SOL    HW134808   3.276   1.906   2.054 -1.7567 -0.5100  0.4533
 7782SOL    HW234809   3.409   1.925   2.122  0.2521  0.5442  1.8899
 7783SOL     OW34810   3.379   2.392  13.024 -0.2142  0.1618  0.5508
 7783SOL    HW134811   3.417   2.320  12.973 -1.5342 -1.6383  2.1108
 7783SOL    HW234812   3.327   2.432  12.954 -0.9147 -1.4506  0.1352
 7784SOL     OW34813   2.716   3.707  14.870  0.1081 -0.4635  0.6805
 7784SOL    HW134814   2.666   3.714  14.788  0.5540 -1.6072  0.3145
 7784SOL    HW234815   2.723   3.799  14.896 -0.4067  0.0295 -0.9391
 7785SOL     OW34816   4.397   3.414   6.482  0.0216 -0.5587  0.2967
 7785SOL    HW134817   4.451   3.466   6.541 -0.2643 -0.8219  0.7979
 7785SOL    HW234818   4.390   3.332   6.531  1.5714 -0.3844  0.7876
 7786SOL     OW34819   1.107   1.925   0.471 -0.4195  0.3901  0.4293
 7786SOL    HW134820   1.052   1.983   0.524  0.0770  1.4788 -0.2634
 7786SOL    HW234821   1.195   1.962   0.466 -1.2759  2.3617  0.1687
 7787SOL     OW34822   0.235   3.046   3.207  0.0890 -0.4820  0.6131
 7787SOL    HW134823   0.262   3.047   3.115 -0.4511  2.6380  0.4812
 7787SOL    HW234824   0.323   3.025   3.238  0.1357  1.1270  1.5730
 7788SOL     OW34825   3.686   0.368   1.616  0.8122 -0.0597  0.0170
 7788SOL    HW134826   3.609   0.379   1.559 -0.0043 -0.0609  1.1297
 7788SOL    HW234827   3.685   0.280   1.653 -0.0999 -0.6435 -1.3998
 7789SOL     OW34828   0.705   0.932   2.772  0.4080  0.4285  0.0307
 7789SOL    HW134829   0.621   0.897   2.801  0.9546 -1.5069 -0.7194
 7789SOL    HW234830   0.747   0.929   2.859 -0.2021  0.6089  0.3307
 7790SOL     OW34831   0.914   2.486   3.814  0.1054  0.1666  0.2786
 7790SOL    HW134832   0.855   2.559   3.831  2.2546  2.0076 -0.2062
 7790SOL    HW234833   0.922   2.503   3.720 -2.1870 -2.8506 -0.4578
 7791SOL     OW34834   2.491   0.509   8.720  0.2410 -0.3490 -0.4036
 7791SOL    HW134835   2.396   0.520   8.721  0.5508  2.1346  0.1086
 7791SOL    HW234836   2.512   0.524   8.628 -0.6945 -1.8660 -0.8765
 7792SOL     OW34837   1.736   3.495   3.823  0.1802 -0.2671 -0.1804
 7792SOL    HW134838   1.727   3.586   3.794 -1.1715 -0.2934  0.1317
 7792SOL    HW234839   1.656   3.465   3.868  1.1488 -1.3127  0.8448
 7793SOL     OW34840   0.066   3.531   8.568  0.0370  0.3162 -0.3814
 7793SOL    HW134841   0.100   3.468   8.632 -2.4734 -0.4161  0.2464
 7793SOL    HW234842   0.103   3.613   8.602  2.7630 -0.9601 -0.3206
 7794SOL     OW34843   0.956   1.266   4.525 -0.1769  0.3011 -0.4187
 7794SOL    HW134844   0.883   1.206   4.508 -1.0102  1.4035 -0.7632
 7794SOL    HW234845   1.005   1.263   4.443 -0.5651 -2.4206 -0.5461
 7795SOL     OW34846   0.238   3.742   9.440 -0.5123  0.5837  0.4670
 7795SOL    HW134847   0.285   3.788   9.509  0.3458  1.0363 -0.4343
 7795SOL    HW234848   0.240   3.656   9.482  2.3542  1.8527  2.9565
 7796SOL     OW34849   4.277   1.479   4.673 -0.1412  0.9965  0.3887
 7796SOL    HW134850   4.339   1.546   4.643  0.1775  0.8216  0.6492
 7796SOL    HW234851   4.196   1.524   4.650 -0.6705 -0.3845 -0.4663
 7797SOL     OW34852   0.013   0.606  11.803  0.0668  0.5084  0.0535
 7797SOL    HW134853   0.104   0.589  11.829  0.6850  2.3278 -0.9200
 7797SOL    HW234854   4.685   0.563  11.874 -1.5551 -0.8749 -1.8537
 7798SOL     OW34855   1.866   4.635   6.175  0.4517  0.4842  0.6178
 7798SOL    HW134856   1.786   4.603   6.135 -0.0817  0.0106  2.0773
 7798SOL    HW234857   1.926   4.625   6.101  0.5836  1.0971  0.6419
 7799SOL     OW34858   1.997   0.978   6.932  0.2357  0.0781 -0.6527
 7799SOL    HW134859   2.073   0.919   6.929 -1.2908 -1.9110  0.0564
 7799SOL    HW234860   1.923   0.919   6.920  0.0707 -0.1591  1.4588
 7800SOL     OW34861   1.161   2.578   5.814 -0.4557 -0.3375  0.3052
 7800SOL    HW134862   1.164   2.522   5.736  1.6830  1.4168 -0.8630
 7800SOL    HW234863   1.255   2.565   5.831 -0.1692 -0.5219 -1.4124
 7801SOL     OW34864   4.564   3.337   2.280  0.1618 -0.3581 -0.0990
 7801SOL    HW134865   4.534   3.414   2.233 -0.6118 -0.4150  0.2979
 7801SOL    HW234866   4.509   3.270   2.239  0.7336 -0.0519 -1.3625
 7802SOL     OW34867   4.116   1.073   3.649  0.5817 -0.3132 -0.4513
 7802SOL    HW134868   4.044   1.128   3.617  0.5101 -0.0110  0.2360
 7802SOL    HW234869   4.107   1.087   3.743 -1.7388 -0.5773 -0.6340
 7803SOL     OW34870   1.204   3.904   1.017  0.2996  0.0430  0.6627
 7803SOL    HW134871   1.188   3.822   0.970  0.0595  0.8023 -0.5896
 7803SOL    HW234872   1.177   3.959   0.943 -0.6675 -2.2832 -0.7297
 7804SOL     OW34873   4.689   4.098  16.381  0.3966  0.1444  0.2642
 7804SOL    HW134874   0.051   4.111  16.431  0.4177 -1.4550  0.6514
 7804SOL    HW234875   4.673   4.190  16.360  2.0781  0.1640 -0.9135
 7805SOL     OW34876   2.006   3.783   7.571 -0.8043  0.1377  0.2898
 7805SOL    HW134877   2.083   3.838   7.556 -0.7471 -0.2706 -0.9721
 7805SOL    HW234878   2.030   3.743   7.654 -1.6941 -3.0607 -0.9887
 7806SOL     OW34879   0.905   2.049  11.124  0.7654 -0.6370  0.0016
 7806SOL    HW134880   0.897   2.044  11.219  0.8836 -2.0209 -0.0624
 7806SOL    HW234881   0.874   2.137  11.105 -0.0562 -0.6466  1.3043
 7807SOL     OW34882   3.027   1.178  11.887  0.0571 -0.5931 -0.2942
 7807SOL    HW134883   3.022   1.273  11.876 -0.3306 -0.7107 -1.1372
 7807SOL    HW234884   3.098   1.170  11.951 -2.2232 -2.1972  2.0603
 7808SOL     OW34885   2.292   1.494   5.056 -0.0815  0.2069 -0.9477
 7808SOL    HW134886   2.255   1.431   4.993 -1.7011 -0.2970  0.5116
 7808SOL    HW234887   2.297   1.436   5.132 -0.9041  2.5343  0.8560
 7809SOL     OW34888   3.393   3.427  10.209 -0.1556 -0.5578 -0.4114
 7809SOL    HW134889   3.308   3.427  10.253  0.3957 -0.2480  0.6593
 7809SOL    HW234890   3.370   3.454  10.121 -1.9876 -0.1281  0.1998
 7810SOL     OW34891   2.621   3.238   5.995 -0.3321 -0.3153  0.0046
 7810SOL    HW134892   2.540   3.189   6.010 -0.4943 -0.7100 -2.1425
 7810SOL    HW234893   2.601   3.299   5.925  1.3913  0.3301  0.0937
 7811SOL     OW34894   0.014   3.815   7.113  0.1753  0.2111 -0.3215
 7811SOL    HW134895   4.703   3.728   7.139 -0.9572  0.6329 -0.2313
 7811SOL    HW234896   0.100   3.822   7.153  0.1455  1.8031 -0.5373
 7812SOL     OW34897   3.854   3.521   8.882  0.0462  0.6677  0.4077
 7812SOL    HW134898   3.912   3.561   8.817 -0.2494 -0.6374 -0.6627
 7812SOL    HW234899   3.786   3.589   8.878  1.8304  2.4578  0.7325
 7813SOL     OW34900   2.062   2.243   5.241  0.2409  0.5621  1.1086
 7813SOL    HW134901   2.109   2.205   5.315  0.7449 -0.1626  0.4150
 7813SOL    HW234902   2.127   2.230   5.171 -0.3817  0.9239  0.4613
 7814SOL     OW34903   4.304   3.687   3.619 -0.0199 -0.0238 -0.0482
 7814SOL    HW134904   4.244   3.743   3.667 -1.1596 -1.2231 -0.0681
 7814SOL    HW234905   4.316   3.729   3.533  1.2875  0.0991  0.1926
 7815SOL     OW34906   1.435   2.484   9.042  0.2923 -0.1876 -0.2489
 7815SOL    HW134907   1.489   2.547   9.090 -0.5479  0.9952 -0.8438
 7815SOL    HW234908   1.349   2.517   9.067  0.1204 -1.2112  0.5040
 7816SOL     OW34909   0.047   3.562   2.450  0.3752  0.8342  0.3388
 7816SOL    HW134910   0.033   3.584   2.358  0.8510  2.6508  0.7000
 7816SOL    HW234911   0.142   3.572   2.438  0.2071  0.3621 -1.3501
 7817SOL     OW34912   0.977   3.581  16.097 -0.5377 -0.2931 -0.2874
 7817SOL    HW134913   0.951   3.673  16.095 -0.6806 -0.2838  1.5821
 7817SOL    HW234914   1.040   3.590  16.026 -0.5381  0.8997 -0.1481
 7818SOL     OW34915   0.417   4.227  14.786  0.5012  0.0022 -0.3473
 7818SOL    HW134916   0.428   4.309  14.835  0.7277 -0.5393  0.4983
 7818SOL    HW234917   0.329   4.192  14.801 -0.0990  0.8299 -1.9574
 7819SOL     OW34918   4.017   1.501   7.085  0.0959 -0.3382 -0.1839
 7819SOL    HW134919   3.954   1.571   7.100  0.7559  0.0313  0.8518
 7819SOL    HW234920   4.098   1.543   7.059 -0.7415  0.7782 -0.9950
 7820SOL     OW34921   3.510   4.233   5.196  0.0326  0.2766  0.5014
 7820SOL    HW134922   3.592   4.209   5.153 -0.7630  0.6132 -1.1938
 7820SOL    HW234923   3.460   4.272   5.124 -0.2089 -0.4547  0.2810
 7821SOL     OW34924   2.914   4.399   9.732  0.0136 -0.8433  0.2585
 7821SOL    HW134925   2.956   4.344   9.798  2.0052 -0.3755 -0.6269
 7821SOL    HW234926   2.822   4.373   9.735 -0.5084  1.1429  1.3975
 7822SOL     OW34927   3.446   1.609   5.499  0.2265 -0.0291  0.4063
 7822SOL    HW134928   3.493   1.552   5.438 -2.3173 -2.4906  0.7395
 7822SOL    HW234929   3.445   1.567   5.584  0.4457 -0.9097 -0.0271
 7823SOL     OW34930   4.589   1.377   8.321  0.1763 -0.1287  0.3227
 7823SOL    HW134931   4.625   1.444   8.379  0.7691 -0.4940  0.3893
 7823SOL    HW234932   4.500   1.410   8.318  0.4474  0.6788  1.0516
 7824SOL     OW34933   2.641   4.055   4.234 -0.0957  0.0027 -0.4307
 7824SOL    HW134934   2.677   4.142   4.249  2.1532 -0.9164 -0.5058
 7824SOL    HW234935   2.653   4.025   4.144  0.3510  2.8176 -1.3263
 7825SOL     OW34936   0.048   3.070   0.541 -0.9489 -0.2805  0.0735
 7825SOL    HW134937   0.023   2.991   0.493  1.3626 -2.1083  1.9170
 7825SOL    HW234938   0.127   3.091   0.492  0.5232  0.1919  2.6264
 7826SOL     OW34939   2.550   0.451   6.846 -0.4949  0.6119  0.1156
 7826SOL    HW134940   2.501   0.464   6.927  1.4387 -2.1436  1.7062
 7826SOL    HW234941   2.524   0.369   6.804 -0.8436  1.4074 -1.2383
 7827SOL     OW34942   4.118   0.924   7.592  0.0090  0.1300  0.0970
 7827SOL    HW134943   4.131   0.919   7.497  1.0979  4.2062  0.0331
 7827SOL    HW234944   4.181   0.995   7.603 -1.9216  1.8150  0.4229
 7828SOL     OW34945   1.624   2.410   2.081 -0.7854  0.3284 -1.0810
 7828SOL    HW134946   1.611   2.505   2.078 -3.5210 -0.0366 -1.1862
 7828SOL    HW234947   1.554   2.366   2.032  0.2786 -1.3530 -1.1001
 7829SOL     OW34948   2.567   3.455   4.385  0.3224  0.7985  0.0214
 7829SOL    HW134949   2.538   3.543   4.407  1.0314  1.0522 -0.0605
 7829SOL    HW234950   2.663   3.460   4.380  0.3638 -2.2594 -2.0871
 7830SOL     OW34951   3.381   4.125   3.587 -0.3503 -0.0615  0.5332
 7830SOL    HW134952   3.401   4.038   3.623 -0.6367 -0.7995 -1.0751
 7830SOL    HW234953   3.367   4.184   3.661  2.1929  0.4546  0.6212
 7831SOL     OW34954   1.001   2.773  13.287 -0.0920  0.4793 -0.1295
 7831SOL    HW134955   0.967   2.860  13.311 -2.3755 -0.6723  0.7712
 7831SOL    HW234956   1.076   2.765  13.347  0.0354 -0.3237 -0.4083
 7832SOL     OW34957   0.761   3.046   6.437 -0.2087 -0.0694 -0.1030
 7832SOL    HW134958   0.730   3.055   6.347 -1.8020 -0.7086  0.3945
 7832SOL    HW234959   0.849   3.011   6.423 -0.2331 -1.1143  2.2725
 7833SOL     OW34960   3.886   0.082  14.037 -0.2083  0.0004  0.5807
 7833SOL    HW134961   3.885   0.057  13.945 -0.9389 -2.1825  1.1665
 7833SOL    HW234962   3.818   0.149  14.049 -0.4838  0.2528 -2.5916
 7834SOL     OW34963   4.032   3.312   5.044  0.5222  0.2806 -0.2762
 7834SOL    HW134964   4.080   3.232   5.064 -0.1336  0.0046  0.2064
 7834SOL    HW234965   3.980   3.284   4.969  0.2491  0.0445  0.0046
 7835SOL     OW34966   0.304   0.236  15.242  0.2882  0.7750  0.0876
 7835SOL    HW134967   0.213   0.245  15.214  0.3018  0.7617  0.0382
 7835SOL    HW234968   0.297   0.151  15.285 -0.1284  0.4746 -0.5724
 7836SOL     OW34969   3.213   0.750   5.434 -0.6353  0.0478 -0.0337
 7836SOL    HW134970   3.294   0.748   5.382 -0.5209  0.2965  0.1313
 7836SOL    HW234971   3.152   0.730   5.364  0.4274  1.0470 -1.2414
 7837SOL     OW34972   4.005   0.874   8.705 -0.0274 -0.0410 -0.2209
 7837SOL    HW134973   4.055   0.949   8.671 -0.2946 -0.4318 -1.4535
 7837SOL    HW234974   4.065   0.801   8.714  0.2404  0.2871  0.6720
 7838SOL     OW34975   2.683   3.818   3.096 -0.0581  0.3674 -0.0254
 7838SOL    HW134976   2.751   3.778   3.150 -0.3665 -0.9235 -0.5797
 7838SOL    HW234977   2.645   3.738   3.058 -0.2744  0.0086  0.9404
 7839SOL     OW34978   4.294   1.189   1.773 -0.0625  0.3343  0.1039
 7839SOL    HW134979   4.351   1.265   1.786  1.9527 -1.1874  0.1241
 7839SOL    HW234980   4.315   1.141   1.854 -1.8613 -0.7434 -0.0791
 7840SOL     OW34981   0.137   4.036   0.510  0.6951  0.1420 -0.2702
 7840SOL    HW134982   0.229   4.020   0.529  0.7686 -0.6196 -1.2814
 7840SOL    HW234983   0.139   4.026   0.415 -0.5202 -2.5805  0.0068
 7841SOL     OW34984   3.589   3.719   0.629 -0.0843 -0.1548 -0.7769
 7841SOL    HW134985   3.536   3.646   0.660  1.0575 -1.3009 -1.5204
 7841SOL    HW234986   3.533   3.781   0.676 -0.2513 -1.7168  1.0832
 7842SOL     OW34987   0.551   0.354   2.735 -0.8292 -0.4838 -0.1426
 7842SOL    HW134988   0.549   0.348   2.639 -0.5190  2.3396 -0.3301
 7842SOL    HW234989   0.556   0.449   2.742  0.5045 -0.7919  2.8515
 7843SOL     OW34990   0.697   2.057   5.167  0.1321  0.4860 -0.5397
 7843SOL    HW134991   0.727   2.040   5.077  0.2117 -3.3994  0.2452
 7843SOL    HW234992   0.670   1.969   5.193 -0.2789  1.0133  0.8090
 7844SOL     OW34993   1.558   2.674   2.017  0.2908 -0.0455 -0.3195
 7844SOL    HW134994   1.616   2.743   1.984  1.0846 -0.8384 -0.5961
 7844SOL    HW234995   1.486   2.681   1.954 -0.0099 -0.5975 -0.0299
 7845SOL     OW34996   3.949   3.130   5.304 -0.1421  0.2058  0.8568
 7845SOL    HW134997   3.942   3.225   5.299 -1.8144 -0.0079 -0.9525
 7845SOL    HW234998   3.951   3.115   5.399 -1.7777  2.9951  1.3270
 7846SOL     OW34999   2.632   3.877  15.099  0.3822 -0.1472 -0.3168
 7846SOL    HW135000   2.705   3.817  15.114  0.5561  0.4147  1.1059
 7846SOL    HW235001   2.584   3.860  15.180  0.4422 -1.9798 -0.6864
 7847SOL     OW35002   4.316   0.433   3.013 -0.3390 -0.6225 -0.1797
 7847SOL    HW135003   4.225   0.455   3.035  0.7273  1.5590  2.0295
 7847SOL    HW235004   4.335   0.339   3.019 -1.9860 -0.9596 -0.1648
 7848SOL     OW35005   3.536   3.639   2.336 -0.4050  0.1625  0.2259
 7848SOL    HW135006   3.621   3.597   2.345  0.6399  2.1572 -0.1885
 7848SOL    HW235007   3.570   3.726   2.315  0.2524 -0.2515 -0.4440
 7849SOL     OW35008   2.523   2.399  12.228 -0.3910 -0.2465  0.1422
 7849SOL    HW135009   2.462   2.448  12.171  0.9818 -0.0549 -1.1664
 7849SOL    HW235010   2.502   2.434  12.315  0.1459 -1.0414  0.5833
 7850SOL     OW35011   0.884   0.466   5.024  0.3342 -0.0411 -0.0053
 7850SOL    HW135012   0.876   0.379   4.985  1.0216  0.4513 -1.2272
 7850SOL    HW235013   0.861   0.521   4.950 -1.9169 -0.3618  0.4471
 7851SOL     OW35014   4.074   3.651   7.247  0.4019 -0.1928 -0.1294
 7851SOL    HW135015   4.133   3.696   7.306  1.3386 -0.0760 -1.1582
 7851SOL    HW235016   4.116   3.573   7.210  0.9206  2.1136 -4.4260
 7852SOL     OW35017   2.644   3.114   9.960 -0.0542  0.1546 -0.1905
 7852SOL    HW135018   2.654   3.041   9.899 -0.2488  0.2401 -0.3225
 7852SOL    HW235019   2.685   3.087  10.043 -0.8154 -0.2533  0.0520
 7853SOL     OW35020   2.957   4.180   2.977  0.7580 -0.3137  0.0811
 7853SOL    HW135021   2.951   4.122   3.052  0.9658  0.9324  1.0606
 7853SOL    HW235022   2.870   4.170   2.940  0.8775  0.6956 -0.5011
 7854SOL     OW35023   3.936   4.207   8.878  0.3544 -0.4285  0.1878
 7854SOL    HW135024   3.852   4.253   8.877 -0.5028 -1.9892  0.9460
 7854SOL    HW235025   3.911   4.117   8.856  1.8150 -1.1325  1.4481
 7855SOL     OW35026   2.305   2.264   5.080 -0.1746 -0.8202 -0.0117
 7855SOL    HW135027   2.293   2.220   4.996  2.4901 -1.1975 -0.1995
 7855SOL    HW235028   2.326   2.351   5.048 -0.4496 -0.4449  0.8425
 7856SOL     OW35029   3.589   4.669   1.940  0.4118  0.1459 -0.0076
 7856SOL    HW135030   3.511   4.614   1.937  0.2552  0.3148  0.8798
 7856SOL    HW235031   3.607   4.673   2.034 -2.1266 -0.3964  0.4910
 7857SOL     OW35032   1.354   4.282   3.333  0.2761 -0.3155  0.4818
 7857SOL    HW135033   1.284   4.225   3.366 -0.3243 -0.0641 -0.3341
 7857SOL    HW235034   1.297   4.308   3.260  0.0983 -1.1145  0.3293
 7858SOL     OW35035   0.274   1.190   2.311 -0.1527 -0.5444  0.1229
 7858SOL    HW135036   0.245   1.144   2.232 -1.5030 -0.6279  0.6632
 7858SOL    HW235037   0.219   1.148   2.377 -1.1211  0.5058 -0.0116
 7859SOL     OW35038   2.494   2.326   3.572  0.0766 -0.0672  0.2951
 7859SOL    HW135039   2.459   2.298   3.487  0.2738 -0.3044  0.2901
 7859SOL    HW235040   2.466   2.417   3.567  0.4344 -0.0041 -0.6121
 7860SOL     OW35041   0.442   2.711   7.455 -0.5002 -0.0840 -0.5498
 7860SOL    HW135042   0.516   2.717   7.516 -0.5955 -2.0723 -0.2463
 7860SOL    HW235043   0.464   2.627   7.416 -0.2465 -0.4993  0.5028
 7861SOL     OW35044   3.504   4.388   3.448 -0.1505 -0.5712 -0.0788
 7861SOL    HW135045   3.486   4.475   3.412 -0.0248 -0.3124  0.4782
 7861SOL    HW235046   3.430   4.338   3.413 -0.0715 -0.9516  0.3024
 7862SOL     OW35047   2.728   2.836   1.552 -0.8907 -0.1232 -0.2049
 7862SOL    HW135048   2.663   2.789   1.500 -2.5105  0.8994  0.8699
 7862SOL    HW235049   2.768   2.766   1.603 -1.2735 -0.4714 -0.3750
 7863SOL     OW35050   4.200   0.849   2.154 -0.5715 -0.4490  0.1980
 7863SOL    HW135051   4.111   0.884   2.150 -0.1087  0.6482 -0.6665
 7863SOL    HW235052   4.204   0.788   2.081  2.7203 -0.3798  0.2830
 7864SOL     OW35053   1.180   0.872  12.287  0.2420 -0.2785 -0.3083
 7864SOL    HW135054   1.115   0.853  12.220  0.4147  0.2694 -0.6318
 7864SOL    HW235055   1.141   0.851  12.372  0.8775  2.7611  0.7457
 7865SOL     OW35056   4.611   0.491  12.009 -0.0637 -0.1903 -0.1817
 7865SOL    HW135057   4.602   0.412  12.061 -0.0076  0.1489  0.3434
 7865SOL    HW235058   4.522   0.525  12.015 -0.6867 -2.0406  0.9815
 7866SOL     OW35059   4.408   3.066   7.556 -0.5991  0.0023  0.1145
 7866SOL    HW135060   4.498   3.073   7.526  0.6315 -3.0177  3.1113
 7866SOL    HW235061   4.399   3.156   7.585 -1.1647  0.2833 -0.9173
 7867SOL     OW35062   3.125   4.687   2.795  0.1819 -0.0202 -0.3526
 7867SOL    HW135063   3.182   4.666   2.869 -0.5922  2.1239  0.8445
 7867SOL    HW235064   3.047   4.633   2.812 -0.3465  1.4205  1.7162
 7868SOL     OW35065   2.854   1.079  11.360 -0.8290  0.5563  0.1577
 7868SOL    HW135066   2.856   0.984  11.368 -0.6226  0.5308 -0.2048
 7868SOL    HW235067   2.879   1.097  11.269 -1.9019  1.6118  0.0641
 7869SOL     OW35068   4.425   0.213   9.176  0.1539 -0.0312 -0.0250
 7869SOL    HW135069   4.415   0.137   9.234 -0.9614  0.2580  0.1571
 7869SOL    HW235070   4.375   0.279   9.223  0.6896  0.1861  0.2466
 7870SOL     OW35071   0.759   3.753   0.280  0.2468 -0.0914 -0.2302
 7870SOL    HW135072   0.833   3.738   0.221  0.1799  1.7075 -0.7676
 7870SOL    HW235073   0.731   3.661   0.278 -0.0006 -0.0348  0.6800
 7871SOL     OW35074   0.891   2.955   5.775 -0.1274 -0.7444  0.7839
 7871SOL    HW135075   0.808   2.909   5.761 -0.6356 -0.0728  1.6471
 7871SOL    HW235076   0.876   3.046   5.750  0.0936 -1.4647 -1.9129
 7872SOL     OW35077   3.595   2.567  11.823  0.3909  0.7330 -0.2124
 7872SOL    HW135078   3.608   2.637  11.887 -0.2164  1.0059 -0.3838
 7872SOL    HW235079   3.541   2.505  11.873 -0.4210  1.2130 -0.4912
 7873SOL     OW35080   3.603   1.578   4.290  0.1801 -0.4517  0.1126
 7873SOL    HW135081   3.592   1.659   4.240 -0.4306  1.1600  2.8342
 7873SOL    HW235082   3.608   1.618   4.377 -2.7194 -0.9256  0.5030
 7874SOL     OW35083   2.239   0.650   0.919  0.0858 -0.2298  0.2742
 7874SOL    HW135084   2.294   0.724   0.891 -0.1249 -0.4220 -0.6352
 7874SOL    HW235085   2.164   0.702   0.947  3.2555  4.1055  0.7958
 7875SOL     OW35086   4.490   2.065  13.256  0.2724 -0.6479 -0.4722
 7875SOL    HW135087   4.409   2.022  13.228 -1.1341 -0.4288  3.3551
 7875SOL    HW235088   4.526   2.085  13.169 -0.6897 -4.1939 -1.6906
 7876SOL     OW35089   0.494   3.747  10.425 -0.1558 -0.4812  0.3197
 7876SOL    HW135090   0.574   3.799  10.423 -1.4179  1.5109  1.4713
 7876SOL    HW235091   0.423   3.809  10.410 -1.2612 -1.9274 -0.4195
 7877SOL     OW35092   1.960   2.645   8.812 -0.1634 -0.3172 -0.2611
 7877SOL    HW135093   2.022   2.711   8.841  3.9628 -3.6067 -1.6576
 7877SOL    HW235094   2.008   2.564   8.827 -0.4344 -0.2795  0.8380
 7878SOL     OW35095   3.858   0.869   5.023 -0.6975  0.1060  0.1527
 7878SOL    HW135096   3.952   0.888   5.030 -1.3591  4.0538 -1.4376
 7878SOL    HW235097   3.826   0.957   5.002 -0.3871  0.4735  1.1916
 7879SOL     OW35098   3.033   4.680   4.946  0.2823 -0.0258 -0.6199
 7879SOL    HW135099   2.951   4.648   4.984 -0.2294  1.7819 -0.1940
 7879SOL    HW235100   3.031   0.043   4.994  1.1989  0.4365 -1.3789
 7880SOL     OW35101   0.033   4.563  15.276  0.3196 -0.2936 -0.2980
 7880SOL    HW135102   0.095   4.491  15.282  1.6460  0.9575  0.7101
 7880SOL    HW235103   0.073   4.633  15.327  0.6487 -1.1417  0.5999
 7881SOL     OW35104   4.136   4.633   7.205 -0.2990 -0.2945  0.0903
 7881SOL    HW135105   4.109   4.639   7.113 -0.2692  0.6038  0.1331
 7881SOL    HW235106   4.160   0.004   7.225  0.3006 -0.6444  0.9185
 7882SOL     OW35107   0.954   1.918  10.898  0.2083 -0.0140 -0.1827
 7882SOL    HW135108   0.929   1.961  10.979 -1.0188 -0.7891 -0.1513
 7882SOL    HW235109   0.879   1.955  10.849  0.5518  1.4916  0.4335
 7883SOL     OW35110   2.064   2.312   3.151 -0.1751  0.1218  0.4041
 7883SOL    HW135111   2.084   2.281   3.062 -2.4110  2.0485 -0.7498
 7883SOL    HW235112   1.969   2.305   3.152 -0.1192 -1.0974 -2.0167
 7884SOL     OW35113   1.842   1.342  12.508  0.2519 -0.1000 -0.0740
 7884SOL    HW135114   1.878   1.264  12.465 -2.1928 -1.6162  0.6525
 7884SOL    HW235115   1.842   1.402  12.434  0.7109 -0.2945 -0.2339
 7885SOL     OW35116   3.474   0.022   8.010  0.1813 -0.2951 -0.4865
 7885SOL    HW135117   3.498   0.093   8.069  2.2825 -0.6798 -0.8794
 7885SOL    HW235118   3.384   0.004   8.040  0.8484 -0.6872  1.2622
 7886SOL     OW35119   4.300   2.189   5.340 -0.4607  0.0081  0.6301
 7886SOL    HW135120   4.279   2.131   5.267  4.8963  0.5690 -1.4023
 7886SOL    HW235121   4.356   2.252   5.294 -1.7615  1.5634  1.1817
 7887SOL     OW35122   0.233   1.932   2.417 -0.0999  0.0463 -0.2506
 7887SOL    HW135123   0.142   1.907   2.401 -0.5487  2.5558 -1.5679
 7887SOL    HW235124   0.233   1.901   2.508  0.6477  1.6441  0.2999
 7888SOL     OW35125   3.188   3.370  14.067  0.2372  0.3634  0.2186
 7888SOL    HW135126   3.128   3.319  14.121  2.2602 -2.7935 -0.5751
 7888SOL    HW235127   3.248   3.399  14.136  1.9069 -0.1866 -1.0074
 7889SOL     OW35128   4.028   4.123  11.258 -0.3862  0.1682  0.3187
 7889SOL    HW135129   4.113   4.081  11.252 -0.6001 -0.2093 -0.0416
 7889SOL    HW235130   4.050   4.215  11.275 -0.4607  0.2599 -0.0959
 7890SOL     OW35131   4.421   0.671   4.426  0.0196 -0.1190 -0.3455
 7890SOL    HW135132   4.406   0.753   4.473  0.7170  0.0994 -0.5071
 7890SOL    HW235133   4.481   0.625   4.484 -0.6885  0.8651  1.1705
 7891SOL     OW35134   4.703   3.282   5.295  0.3351  0.0496  0.2733
 7891SOL    HW135135   0.039   3.359   5.306  0.9228 -0.4975  1.0986
 7891SOL    HW235136   0.048   3.211   5.298 -1.2869 -1.4029  0.5155
 7892SOL     OW35137   0.646   0.760   3.198  0.0353  0.4857 -0.2786
 7892SOL    HW135138   0.563   0.758   3.245 -0.7913  0.2120 -1.7520
 7892SOL    HW235139   0.643   0.681   3.145  3.7052 -0.7090  1.2676
 7893SOL     OW35140   0.719   2.349   7.765 -0.2805  0.1698 -0.2628
 7893SOL    HW135141   0.674   2.428   7.796  0.0739  0.0182  0.6406
 7893SOL    HW235142   0.785   2.386   7.707  0.9747  0.2936  1.2338
 7894SOL     OW35143   4.603   4.591   3.793  0.3506  0.3270  0.1565
 7894SOL    HW135144   4.627   4.608   3.884 -0.3584 -0.2107  0.4418
 7894SOL    HW235145   4.688   4.554   3.766 -0.0773 -0.3262 -0.2887
 7895SOL     OW35146   1.455   0.352   8.352  0.4043  0.5664 -0.2450
 7895SOL    HW135147   1.551   0.355   8.346  0.5168 -0.3071  1.2204
 7895SOL    HW235148   1.437   0.272   8.400 -0.6532  2.2545  2.1345
 7896SOL     OW35149   2.547   1.314   6.207 -0.3097 -0.0632 -0.6672
 7896SOL    HW135150   2.635   1.298   6.242  0.4487 -1.9404 -3.4466
 7896SOL    HW235151   2.562   1.377   6.137 -0.9552  0.6993 -0.1210
 7897SOL     OW35152   2.290   2.718   2.538  0.1667 -0.0362  0.6549
 7897SOL    HW135153   2.366   2.663   2.555  0.4652 -0.3114 -1.5253
 7897SOL    HW235154   2.335   2.798   2.510 -0.6883  0.5082  0.8393
 7898SOL     OW35155   1.188   4.192   2.882 -0.2494  0.3501 -0.2046
 7898SOL    HW135156   1.234   4.158   2.806  0.7083 -0.6041  0.8071
 7898SOL    HW235157   1.123   4.246   2.836  1.5291  1.5913 -1.2520
 7899SOL     OW35158   4.036   4.461   1.315  0.1896  0.2633  0.1470
 7899SOL    HW135159   4.093   4.493   1.245  0.4257 -0.4230  0.0246
 7899SOL    HW235160   4.095   4.423   1.379  0.3905  1.5747  0.7507
 7900SOL     OW35161   3.277   1.717   2.940  0.4276  0.2605 -0.3030
 7900SOL    HW135162   3.250   1.796   2.893 -2.4548  0.5815  1.8626
 7900SOL    HW235163   3.308   1.763   3.018 -0.1409 -0.6469  0.4480
 7901SOL     OW35164   4.068   1.374  17.362 -0.5446  0.5339  0.3471
 7901SOL    HW135165   4.099   1.353  17.450  1.1361 -0.7884 -0.5718
 7901SOL    HW235166   4.151   1.391  17.318 -0.6636  0.4836  0.1019
 7902SOL     OW35167   2.323   1.268   4.070  0.2211  0.0476 -0.6384
 7902SOL    HW135168   2.370   1.307   3.996  2.9878 -0.2742  0.9684
 7902SOL    HW235169   2.307   1.175   4.055  3.2101 -0.5404 -0.2977
 7903SOL     OW35170   4.162   0.981  16.807 -0.1954  0.2684 -0.1626
 7903SOL    HW135171   4.254   0.960  16.789 -0.6449 -0.3070 -1.8037
 7903SOL    HW235172   4.158   1.066  16.763 -0.3094 -0.9927 -2.6391
 7904SOL     OW35173   1.408   3.436  10.411  0.2891 -0.0247  0.1814
 7904SOL    HW135174   1.345   3.397  10.471 -1.6661 -2.5488 -3.5248
 7904SOL    HW235175   1.361   3.515  10.383  1.0649  0.3822 -0.0013
 7905SOL     OW35176   4.443   2.789  11.928  0.1126 -0.2588  0.7058
 7905SOL    HW135177   4.527   2.742  11.929  0.8705  1.0258 -1.6163
 7905SOL    HW235178   4.400   2.742  11.856 -0.5630  1.5530 -0.0663
 7906SOL     OW35179   1.870   1.064  16.346 -1.0062 -1.2705 -0.1282
 7906SOL    HW135180   1.795   1.096  16.396  0.1540  1.6818 -0.3081
 7906SOL    HW235181   1.875   1.135  16.283  0.6025  0.7452  2.2652
 7907SOL     OW35182   2.504   2.831   5.792 -0.0012 -0.1914 -0.6247
 7907SOL    HW135183   2.517   2.810   5.700  1.6152  0.9618 -0.6507
 7907SOL    HW235184   2.571   2.899   5.800  2.5137 -3.0544  2.5862
 7908SOL     OW35185   2.671   0.672  12.186 -0.3377 -0.9599  0.2488
 7908SOL    HW135186   2.656   0.760  12.152  0.5415 -1.0825 -0.4635
 7908SOL    HW235187   2.692   0.691  12.278 -1.7860 -1.1399  0.6199
 7909SOL     OW35188   3.841   1.889   6.212  0.2885 -0.2938 -0.3696
 7909SOL    HW135189   3.845   1.888   6.117 -0.5091  1.3727 -0.4297
 7909SOL    HW235190   3.836   1.983   6.233  0.7288  0.1356 -2.1795
 7910SOL     OW35191   1.866   1.074  13.887  0.3719 -0.5199 -0.0096
 7910SOL    HW135192   1.843   1.079  13.794  0.0624 -1.4642  0.0101
 7910SOL    HW235193   1.888   1.165  13.905 -2.1229  0.2145 -0.6522
 7911SOL     OW35194   0.445   0.581  13.131  0.6358 -0.3330 -0.0651
 7911SOL    HW135195   0.523   0.624  13.165  0.9369 -0.2190 -0.9067
 7911SOL    HW235196   0.404   0.547  13.211  1.0652  1.2236  0.8067
 7912SOL     OW35197   3.669   2.971   0.041  0.2963 -0.7192  0.2367
 7912SOL    HW135198   3.642   2.936  17.637  2.8989  0.4709 -1.0713
 7912SOL    HW235199   3.595   2.939   0.093 -2.0966  1.2839 -1.9657
 7913SOL     OW35200   2.762   0.199  11.294  0.8811  0.1636  0.5451
 7913SOL    HW135201   2.671   0.227  11.287  0.3483 -1.8905 -0.7307
 7913SOL    HW235202   2.755   0.124  11.234  1.2174  1.5702 -1.2577
 7914SOL     OW35203   1.562   0.968   7.455 -0.0642  0.0488  0.1346
 7914SOL    HW135204   1.574   0.958   7.361 -0.5837 -1.4994  0.2388
 7914SOL    HW235205   1.599   1.055   7.468  1.3416 -0.7412  1.3289
 7915SOL     OW35206   1.795   3.979   3.586 -0.1348  0.3776  0.0654
 7915SOL    HW135207   1.833   3.999   3.501 -1.3845  1.6168 -0.2017
 7915SOL    HW235208   1.702   3.978   3.563 -0.2167  0.3273  0.3849
 7916SOL     OW35209   4.525   2.960   4.844 -0.4937  0.5062 -0.4481
 7916SOL    HW135210   4.595   2.945   4.780 -0.2067  0.7344 -0.1871
 7916SOL    HW235211   4.553   3.048   4.871  0.8338 -1.2884  3.9244
 7917SOL     OW35212   0.258   2.085   5.518  0.2468  0.0622  0.0141
 7917SOL    HW135213   0.229   2.174   5.497  2.8538  0.6309 -1.1429
 7917SOL    HW235214   0.175   2.038   5.521 -1.4971  3.0506 -1.0553
 7918SOL     OW35215   2.175   3.427  13.529  0.0117  0.1853 -0.4439
 7918SOL    HW135216   2.166   3.369  13.605  1.8349  1.4799  0.7480
 7918SOL    HW235217   2.121   3.379  13.465 -1.2024  0.4099  0.4060
 7919SOL     OW35218   0.692   1.980   4.477  0.4614  0.3954  0.3052
 7919SOL    HW135219   0.727   1.930   4.551  0.3907  0.6510  0.5116
 7919SOL    HW235220   0.768   1.980   4.419 -0.6696 -0.5875 -1.1672
 7920SOL     OW35221   0.879   4.375   8.710  0.6670  0.0230 -0.0809
 7920SOL    HW135222   0.792   4.335   8.714  0.1161  1.1147 -1.1039
 7920SOL    HW235223   0.859   4.468   8.721  2.0973  0.4650 -1.2237
 7921SOL     OW35224   2.750   0.280   8.340 -0.0448 -0.1455 -0.3212
 7921SOL    HW135225   2.788   0.367   8.353  1.2804 -0.9226  0.9721
 7921SOL    HW235226   2.707   0.296   8.256 -2.9911  0.2293  1.2496
 7922SOL     OW35227   2.863   0.538  12.841 -0.2249 -0.3593  0.0763
 7922SOL    HW135228   2.939   0.480  12.843  1.9125  2.2995 -3.1035
 7922SOL    HW235229   2.810   0.488  12.903 -0.2700  1.9280  1.8758
 7923SOL     OW35230   3.295   3.502   5.943  0.7166  0.1562 -0.2017
 7923SOL    HW135231   3.375   3.454   5.965  0.2621  0.7907  2.8115
 7923SOL    HW235232   3.248   3.428   5.904 -0.8102  1.3848 -0.6688
 7924SOL     OW35233   3.241   4.533   9.952 -0.0504  0.3725  0.2400
 7924SOL    HW135234   3.248   4.498   9.864 -0.8651  0.0541  0.2955
 7924SOL    HW235235   3.155   4.505   9.984  0.2164 -0.3991  0.2791
 7925SOL     OW35236   3.760   4.433   5.948 -0.2775  0.0913  0.5422
 7925SOL    HW135237   3.704   4.366   5.910 -1.1577  0.6961  0.7674
 7925SOL    HW235238   3.694   4.497   5.976 -0.6886  0.0673 -0.3539
 7926SOL     OW35239   3.582   0.574   4.320  0.5326  0.5501 -0.2629
 7926SOL    HW135240   3.509   0.598   4.264  1.3495 -0.6240 -1.8502
 7926SOL    HW235241   3.545   0.493   4.356  2.3188  0.1832  0.7419
 7927SOL     OW35242   1.805   1.195  10.432  0.4939 -0.0856  0.2412
 7927SOL    HW135243   1.877   1.137  10.458  1.3552  0.5553 -0.7227
 7927SOL    HW235244   1.816   1.271  10.488 -2.0331 -0.7358  1.6269
 7928SOL     OW35245   0.669   1.025   4.219 -0.7730 -0.4667 -1.0203
 7928SOL    HW135246   0.649   0.941   4.178 -0.3920 -1.4810  0.8862
 7928SOL    HW235247   0.746   1.058   4.173 -0.1957 -0.0112  0.2839
 7929SOL     OW35248   4.338   0.065  10.001 -0.5580  0.1654  0.4314
 7929SOL    HW135249   4.398   0.084   9.929  1.2326 -0.1497  1.8453
 7929SOL    HW235250   4.285   0.144  10.010  0.0284  0.6713 -0.5357
 7930SOL     OW35251   0.630   3.503   3.412 -0.6741 -0.2419 -0.5826
 7930SOL    HW135252   0.662   3.555   3.485 -0.6876 -2.9487  1.3457
 7930SOL    HW235253   0.687   3.543   3.345  1.9134 -0.9393  1.2042
 7931SOL     OW35254   3.107   4.073   1.430 -0.6377 -0.2159  0.4354
 7931SOL    HW135255   3.027   4.049   1.384  0.4515  1.6520 -2.5105
 7931SOL    HW235256   3.066   4.102   1.511  0.2683  0.5517  0.6315
 7932SOL     OW35257   0.705   0.552  13.040 -0.3439 -0.0933 -0.3818
 7932SOL    HW135258   0.687   0.496  12.965  0.0482 -1.0719  0.2496
 7932SOL    HW235259   0.637   0.619  13.043  0.8474  1.0582  1.5693
 7933SOL     OW35260   0.891   0.027  12.508 -1.0082 -0.2506  0.0829
 7933SOL    HW135261   0.820   4.685  12.492 -0.7905 -0.4513 -0.1091
 7933SOL    HW235262   0.844   0.090  12.563 -0.7323  2.0842 -2.3421
 7934SOL     OW35263   4.088   3.907   0.093 -0.1684  0.6755  0.8440
 7934SOL    HW135264   4.085   3.951   0.008 -1.2956 -0.1140  0.4739
 7934SOL    HW235265   3.997   3.877   0.098  0.5972 -1.6741  0.5774
 7935SOL     OW35266   1.726   0.195   8.624  0.0588  0.0068  0.2173
 7935SOL    HW135267   1.631   0.205   8.614  0.1343 -1.4037 -1.7947
 7935SOL    HW235268   1.751   0.155   8.541  1.0840  1.0756  0.0110
 7936SOL     OW35269   1.359   3.441   7.815 -0.1983 -0.3317 -0.1356
 7936SOL    HW135270   1.354   3.361   7.867  0.8610  0.5446  1.3080
 7936SOL    HW235271   1.323   3.501   7.880  0.5341  0.6967 -0.6864
 7937SOL     OW35272   1.565   0.889   5.651  0.2769 -0.0062 -0.7417
 7937SOL    HW135273   1.472   0.911   5.654  0.1097 -0.8376  0.1158
 7937SOL    HW235274   1.583   0.814   5.707 -1.0209  1.1803  1.2892
 7938SOL     OW35275   1.025   0.477  16.179  0.5610 -0.2844 -0.4322
 7938SOL    HW135276   0.974   0.407  16.139  1.5456 -1.2732  0.0298
 7938SOL    HW235277   0.953   0.538  16.197 -0.4113 -0.9406 -2.1025
 7939SOL     OW35278   3.589   1.391  15.167 -0.5668  0.2305 -0.0672
 7939SOL    HW135279   3.661   1.413  15.107  2.3455 -2.7760  2.2864
 7939SOL    HW235280   3.642   1.357  15.239 -1.3100 -0.7983 -0.0086
 7940SOL     OW35281   4.213   0.681   3.027  0.6805  0.1413  0.2645
 7940SOL    HW135282   4.179   0.646   3.109 -0.5729  1.6251  0.3886
 7940SOL    HW235283   4.297   0.635   3.022  0.8695  0.4676  0.4295
 7941SOL     OW35284   4.537   0.172  10.718  0.1585  0.1848  0.4171
 7941SOL    HW135285   4.499   0.137  10.638  1.4277 -1.9129  0.7403
 7941SOL    HW235286   4.622   0.205  10.690  0.0275  0.8695  0.8199
 7942SOL     OW35287   4.336   4.388  13.085  0.3092  0.0319 -0.5470
 7942SOL    HW135288   4.382   4.405  13.003  1.3333 -2.9623 -0.5945
 7942SOL    HW235289   4.287   4.470  13.091  1.0937  0.3835  1.0298
 7943SOL     OW35290   2.735   0.420   5.947 -0.0513 -0.2410 -0.6779
 7943SOL    HW135291   2.704   0.340   5.990  1.6194 -0.0974  0.7756
 7943SOL    HW235292   2.684   0.491   5.986 -0.4959 -1.8572  1.6921
 7944SOL     OW35293   0.019   0.786   6.247 -0.1274  0.2966 -0.1633
 7944SOL    HW135294   0.105   0.768   6.285 -0.6391 -1.4138  0.1927
 7944SOL    HW235295   0.026   0.882   6.244 -1.2076  0.3534 -1.0680
 7945SOL     OW35296   2.376   4.651   6.059 -0.3711 -0.0395  0.0533
 7945SOL    HW135297   2.456   4.697   6.034 -0.5881  0.5382  0.4238
 7945SOL    HW235298   2.390   4.562   6.026 -2.6871 -0.7147  0.8750
 7946SOL     OW35299   3.109   3.182   4.812  0.3180 -0.6769 -0.1157
 7946SOL    HW135300   3.050   3.108   4.828  0.7250 -1.8707 -4.0749
 7946SOL    HW235301   3.057   3.248   4.858  0.6808 -0.2312 -0.3462
 7947SOL     OW35302   1.110   0.641   8.388  0.2259 -0.2739 -0.2917
 7947SOL    HW135303   1.020   0.607   8.384 -0.2084  0.7766  0.3372
 7947SOL    HW235304   1.104   0.694   8.468  0.0935  0.7599 -0.9883
 7948SOL     OW35305   1.705   1.784  17.124  0.4602 -0.2511 -0.0283
 7948SOL    HW135306   1.637   1.816  17.064  1.5277 -0.7996 -1.5320
 7948SOL    HW235307   1.749   1.863  17.155  2.1008 -0.8659 -0.7980
 7949SOL     OW35308   3.435   3.726   7.229  0.1354 -0.4720 -0.0642
 7949SOL    HW135309   3.371   3.798   7.220  1.0018  0.2045 -0.8407
 7949SOL    HW235310   3.504   3.768   7.177 -0.0507  0.0744  0.1215
 7950SOL     OW35311   3.293   3.434  13.822  0.2702 -0.2827  0.1928
 7950SOL    HW135312   3.381   3.435  13.860  1.0713  2.6193 -1.6634
 7950SOL    HW235313   3.244   3.390  13.891 -0.1336  1.0226  0.7342
 7951SOL     OW35314   4.432   4.455   7.843 -0.1822 -0.1120 -0.3968
 7951SOL    HW135315   4.525   4.433   7.837  0.6021  2.8598  1.1014
 7951SOL    HW235316   4.437   4.543   7.807  1.2713 -0.5678 -1.3014
 7952SOL     OW35317   2.578   2.411   0.301  0.2460  0.2286 -0.4034
 7952SOL    HW135318   2.534   2.349   0.242 -0.9288  0.6626  0.0187
 7952SOL    HW235319   2.627   2.351   0.357 -1.9183  0.1361  1.3676
 7953SOL     OW35320   1.517   3.097   9.022 -0.1747 -0.0656  0.0747
 7953SOL    HW135321   1.493   3.184   9.052 -2.3168 -0.3786 -0.7153
 7953SOL    HW235322   1.458   3.044   9.076 -0.4354 -0.2753 -0.4108
 7954SOL     OW35323   4.016   3.895   6.688 -0.1415  0.0684 -0.4754
 7954SOL    HW135324   4.088   3.944   6.649  1.3702 -0.5902  1.4687
 7954SOL    HW235325   3.947   3.961   6.694 -1.6896 -1.5898  0.2791
 7955SOL     OW35326   0.303   1.002   6.339 -0.0425 -0.8739  0.4020
 7955SOL    HW135327   0.265   0.998   6.426  0.1325  0.2279  0.5326
 7955SOL    HW235328   0.396   0.989   6.358  0.7961  1.8425 -1.6987
 7956SOL     OW35329   2.105   0.421   6.873  0.0260 -0.0670  0.4689
 7956SOL    HW135330   2.183   0.441   6.924  0.5419 -0.4777 -0.1583
 7956SOL    HW235331   2.147   0.433   6.788  0.4227 -1.4667  0.4583
 7957SOL     OW35332   1.855   2.998   2.718  0.8248  0.1404 -0.4041
 7957SOL    HW135333   1.914   3.016   2.792 -1.7685  1.2141  1.3784
 7957SOL    HW235334   1.790   2.955   2.774  1.2998 -0.3182 -0.2018
 7958SOL     OW35335   1.050   4.159   3.451  0.5201  0.0965 -0.1397
 7958SOL    HW135336   1.077   4.073   3.484  2.2899  0.5780 -0.3197
 7958SOL    HW235337   0.958   4.147   3.428  0.3075 -1.0428  1.2880
 7959SOL     OW35338   0.789   0.791  13.442  0.2215 -0.2919 -0.1218
 7959SOL    HW135339   0.774   0.697  13.433  2.6015 -0.7740  0.7817
 7959SOL    HW235340   0.797   0.823  13.352  4.3403 -1.0083 -0.0383
 7960SOL     OW35341   4.488   2.818   3.913  0.0268  0.0329  0.6104
 7960SOL    HW135342   4.512   2.877   3.984  1.7878  1.7554 -1.4285
 7960SOL    HW235343   4.550   2.843   3.844  1.1174 -0.4765  1.4109
 7961SOL     OW35344   1.428   0.638   3.723  0.4282 -0.0667  0.0043
 7961SOL    HW135345   1.364   0.569   3.707 -0.2059  0.7190 -0.8175
 7961SOL    HW235346   1.369   0.713   3.723 -0.8491 -1.0873 -0.8861
 7962SOL     OW35347   0.139   3.389   8.085 -0.0665 -0.5254  1.1362
 7962SOL    HW135348   0.099   3.352   8.163 -0.3163 -0.5859  0.9817
 7962SOL    HW235349   0.207   3.441   8.127  0.6328  1.3782 -2.3744
 7963SOL     OW35350   1.920   3.881  16.630 -0.6509  0.5444 -0.2491
 7963SOL    HW135351   1.885   3.953  16.579  0.5730  0.7092 -0.8706
 7963SOL    HW235352   2.012   3.886  16.604 -0.7796  0.9650 -0.6269
 7964SOL     OW35353   2.099   1.547   4.800 -0.3444  0.2589  0.0676
 7964SOL    HW135354   2.033   1.576   4.737 -0.9295  1.1244  1.0590
 7964SOL    HW235355   2.182   1.561   4.755  0.7047  0.5419  2.0798
 7965SOL     OW35356   3.013   3.465   1.195 -0.5569 -0.3554  0.0989
 7965SOL    HW135357   2.961   3.437   1.271 -2.7067 -2.7701 -2.2591
 7965SOL    HW235358   3.104   3.456   1.222 -0.6008  2.0068  1.0256
 7966SOL     OW35359   2.589   1.535  14.364 -0.2477 -0.2793 -0.8860
 7966SOL    HW135360   2.535   1.561  14.438  0.3381  0.3288 -0.6677
 7966SOL    HW235361   2.534   1.526  14.287 -0.3744  1.7565 -1.0325
 7967SOL     OW35362   3.159   0.243  14.246  0.5709 -0.1268  0.0584
 7967SOL    HW135363   3.114   0.195  14.176  0.7294  0.7173 -0.6323
 7967SOL    HW235364   3.250   0.235  14.215 -0.0164 -0.2776 -1.6087
 7968SOL     OW35365   0.496   1.214   5.349 -0.1086  0.1899 -0.3200
 7968SOL    HW135366   0.433   1.243   5.283 -0.4188  1.6360  0.6202
 7968SOL    HW235367   0.549   1.150   5.301  0.0743 -0.0138  0.1562
 7969SOL     OW35368   1.857   2.095   7.317  0.3397 -0.0492  0.6700
 7969SOL    HW135369   1.850   2.010   7.362 -0.0187 -0.8422 -0.9006
 7969SOL    HW235370   1.772   2.138   7.322  0.4824  0.4817 -1.7863
 7970SOL     OW35371   1.434   0.751   7.620  0.2754  0.4002 -0.0559
 7970SOL    HW135372   1.466   0.839   7.599  0.3361  0.5392  0.6281
 7970SOL    HW235373   1.501   0.694   7.582  1.7337  0.2987  2.6821
 7971SOL     OW35374   1.024   2.827   2.395 -0.0608  0.1500 -0.0312
 7971SOL    HW135375   0.930   2.809   2.392  0.3543 -2.1027  0.3689
 7971SOL    HW235376   1.064   2.769   2.460  1.6133 -0.4313 -1.5684
 7972SOL     OW35377   2.403   3.082   6.806 -0.3512  0.5298 -0.1497
 7972SOL    HW135378   2.458   3.004   6.805 -0.7694  0.1898  1.8618
 7972SOL    HW235379   2.329   3.040   6.849  0.5028  2.5351  3.3398
 7973SOL     OW35380   1.319   3.639  13.153 -1.0817  0.0575 -0.5033
 7973SOL    HW135381   1.364   3.563  13.189  0.1455  1.2014  0.3626
 7973SOL    HW235382   1.249   3.659  13.216  0.2018  0.4167  0.8031
 7974SOL     OW35383   4.485   0.046   3.141 -0.1055  0.0997 -0.3284
 7974SOL    HW135384   4.535   0.035   3.222  1.8500 -2.4974 -1.8756
 7974SOL    HW235385   4.485   4.679   3.098  0.6581  1.3088 -2.7916
 7975SOL     OW35386   2.389   1.470  10.844 -0.3801  0.0693 -0.1671
 7975SOL    HW135387   2.419   1.560  10.830 -0.5044  0.0946 -0.2701
 7975SOL    HW235388   2.434   1.417  10.779 -0.1950  0.5447 -0.4260
 7976SOL     OW35389   0.095   2.226  16.032 -0.3189  0.1951  0.2362
 7976SOL    HW135390   0.162   2.166  16.064  0.5636  1.5474  0.8802
 7976SOL    HW235391   0.138   2.263  15.955  0.7879  1.1031  1.3006
 7977SOL     OW35392   3.884   2.357  12.722 -0.1985 -0.3713 -0.8627
 7977SOL    HW135393   3.824   2.416  12.766 -0.3487 -2.8398  2.2509
 7977SOL    HW235394   3.937   2.420  12.673 -0.6352 -1.0192 -2.1557
 7978SOL     OW35395   3.745   0.976   5.286  0.0843  0.1441  0.3339
 7978SOL    HW135396   3.773   0.918   5.215 -0.5642 -0.4864  0.5795
 7978SOL    HW235397   3.803   1.051   5.274  0.1760 -0.8988 -5.6131
 7979SOL     OW35398   1.177   0.958   7.002 -0.4118 -0.1558  0.1065
 7979SOL    HW135399   1.104   0.927   6.948 -0.0376 -0.6493 -0.1189
 7979SOL    HW235400   1.167   1.051   6.985 -0.9572 -0.0834  0.8143
 7980SOL     OW35401   2.063   2.583   3.122  0.2131  0.3149  0.3379
 7980SOL    HW135402   2.019   2.588   3.037 -0.7659  1.5166  0.9157
 7980SOL    HW235403   2.080   2.489   3.131 -1.6189 -0.2195 -1.6053
 7981SOL     OW35404   2.196   2.101   6.760  0.2487 -0.3081  0.0067
 7981SOL    HW135405   2.107   2.117   6.729  0.1633 -1.0847 -0.1609
 7981SOL    HW235406   2.229   2.190   6.771  0.1084 -0.0787 -1.4160
 7982SOL     OW35407   2.125   0.340  15.949 -0.6607  0.4423  0.3693
 7982SOL    HW135408   2.149   0.365  15.859 -0.0660  1.7057  0.8835
 7982SOL    HW235409   2.191   0.392  15.993  0.0616  0.1658 -0.3777
 7983SOL     OW35410   3.541   2.213   5.847  0.3642 -0.3012 -0.4472
 7983SOL    HW135411   3.530   2.228   5.753  0.1016 -0.6319 -0.4691
 7983SOL    HW235412   3.540   2.301   5.885 -1.7211  0.5256 -2.4306
 7984SOL     OW35413   2.519   1.520   5.247 -0.0187 -0.2939  0.3092
 7984SOL    HW135414   2.454   1.454   5.273  0.2198  0.4836  2.8611
 7984SOL    HW235415   2.547   1.489   5.161  1.9103 -1.3356  1.3124
 7985SOL     OW35416   0.531   2.799   8.494  0.2683 -0.0283 -0.0207
 7985SOL    HW135417   0.555   2.843   8.412 -0.6140 -0.2257 -0.3909
 7985SOL    HW235418   0.490   2.719   8.460  1.0986  0.5022 -2.2600
 7986SOL     OW35419   1.793   4.242   4.271  0.2432  0.4554  0.4309
 7986SOL    HW135420   1.723   4.283   4.322  1.7329  0.4889  2.4394
 7986SOL    HW235421   1.769   4.267   4.181 -2.4445 -0.1561  1.0032
 7987SOL     OW35422   1.361   0.886   6.027 -1.0767 -0.6766 -0.4636
 7987SOL    HW135423   1.322   0.942   5.960  2.2709  0.7360 -1.2781
 7987SOL    HW235424   1.442   0.936   6.036 -1.0917 -0.5745 -0.8840
 7988SOL     OW35425   3.791   0.913   3.241  0.0958  0.4922 -0.0091
 7988SOL    HW135426   3.811   0.968   3.165  1.2841  1.3992  0.9720
 7988SOL    HW235427   3.741   0.845   3.196 -0.8471  0.8863  0.4224
 7989SOL     OW35428   1.767   4.340   4.017  0.2364  0.4417  0.0590
 7989SOL    HW135429   1.792   4.431   4.000 -1.2217  0.2468 -3.1506
 7989SOL    HW235430   1.816   4.305   3.942  0.4250 -2.0069  1.3224
 7990SOL     OW35431   0.775   2.381   0.869 -0.1785  0.4130  0.2023
 7990SOL    HW135432   0.749   2.390   0.777 -1.9515 -1.0189  0.5638
 7990SOL    HW235433   0.864   2.349   0.856 -0.3537  0.1338 -0.2857
 7991SOL     OW35434   1.228   2.949   4.826  0.3712 -0.5333  0.0388
 7991SOL    HW135435   1.277   2.997   4.760  1.6934 -2.9217 -0.7131
 7991SOL    HW235436   1.233   3.010   4.900  2.8320  0.4170 -0.9515
 7992SOL     OW35437   1.898   4.335   5.233  0.3988 -0.1764  0.4783
 7992SOL    HW135438   1.929   4.266   5.174 -0.5808 -0.9280  0.8514
 7992SOL    HW235439   1.866   4.396   5.166 -1.4288 -0.0208  1.4959
 7993SOL     OW35440   1.720   3.891   3.138 -0.2127  0.6767 -0.1224
 7993SOL    HW135441   1.652   3.903   3.072  0.5994  1.5077 -0.8316
 7993SOL    HW235442   1.722   3.971   3.192  0.2005 -0.1142  1.0350
 7994SOL     OW35443   0.580   3.622  15.829  0.0881  0.0823  0.6044
 7994SOL    HW135444   0.603   3.669  15.749 -0.3554  1.2802  1.1816
 7994SOL    HW235445   0.626   3.540  15.812  1.0358  1.5125 -3.7670
 7995SOL     OW35446   0.893   3.199   5.644 -0.3736  0.1272  0.4633
 7995SOL    HW135447   0.894   3.257   5.720  0.8224  1.2160 -0.3891
 7995SOL    HW235448   0.816   3.227   5.594  0.1871  0.3366 -0.2734
 7996SOL     OW35449   1.546   1.454   6.010  0.3640  0.1874 -0.1246
 7996SOL    HW135450   1.549   1.496   5.924 -1.9372  2.2816  0.8126
 7996SOL    HW235451   1.637   1.443   6.037  0.7630  0.3488 -1.4068
 7997SOL     OW35452   4.450   4.372   2.316  0.5759  0.5418  0.0220
 7997SOL    HW135453   4.403   4.323   2.383  1.8391  0.9594  1.2017
 7997SOL    HW235454   4.529   4.398   2.363  1.8193  0.1792 -1.9022
 7998SOL     OW35455   2.595   3.236  12.292 -0.5743 -0.2095  0.3613
 7998SOL    HW135456   2.630   3.311  12.341  0.0944  0.5249 -1.2475
 7998SOL    HW235457   2.587   3.267  12.202  0.2850  0.7863  0.6228
 7999SOL     OW35458   2.497   1.121   5.050  0.0651 -0.0831  0.1049
 7999SOL    HW135459   2.520   1.049   5.108  3.5791  0.4459 -0.6287
 7999SOL    HW235460   2.465   1.081   4.969 -0.4875 -1.4557  0.9976
 8000SOL     OW35461   2.820   2.331   8.049 -0.3944  0.4383 -0.7664
 8000SOL    HW135462   2.827   2.243   8.012  2.8292  1.4260 -2.5075
 8000SOL    HW235463   2.839   2.314   8.141 -1.7868 -0.1023 -0.5730
 8001SOL     OW35464   3.435   2.358   6.086 -0.1587  0.2862 -0.0392
 8001SOL    HW135465   3.348   2.325   6.109 -0.3261  0.1581 -0.8488
 8001SOL    HW235466   3.477   2.274   6.107 -0.9568 -0.1284 -0.0880
 8002SOL     OW35467   0.060   3.898   9.676  0.0071  0.8553  0.0155
 8002SOL    HW135468   0.095   3.941   9.598  0.0274  0.9051  0.0518
 8002SOL    HW235469   0.028   3.812   9.649 -0.9557  1.3999 -0.5633
 8003SOL     OW35470   0.567   0.437  14.895  0.0286  0.1765 -0.3746
 8003SOL    HW135471   0.500   0.445  14.827 -0.4600 -0.3890  0.0306
 8003SOL    HW235472   0.573   0.346  14.924 -1.4243  0.3866  0.6134
 8004SOL     OW35473   4.342   0.549  12.421 -0.3327 -0.3554  0.4118
 8004SOL    HW135474   4.292   0.611  12.368 -0.8377 -1.9585 -0.9696
 8004SOL    HW235475   4.268   0.496  12.451  0.5296 -1.8680 -0.1337
 8005SOL     OW35476   3.073   1.215   0.044 -0.2882  0.3507  0.1295
 8005SOL    HW135477   3.023   1.231   0.124  1.6373 -2.0956  1.8162
 8005SOL    HW235478   3.094   1.305   0.018  0.1497  0.6728  1.5743
 8006SOL     OW35479   2.056   0.153   8.608  0.6136  0.0969  0.1426
 8006SOL    HW135480   2.034   0.068   8.647  1.1117 -0.0971  0.0023
 8006SOL    HW235481   2.000   0.210   8.661 -0.5570  0.0900 -1.0770
 8007SOL     OW35482   1.205   4.337  17.573  0.1065  0.8406  0.3844
 8007SOL    HW135483   1.267   4.297  17.513 -2.4470 -1.6303 -0.5875
 8007SOL    HW235484   1.192   4.419  17.525  0.9099  0.3333 -0.6858
 8008SOL     OW35485   3.706   4.257   2.738 -0.2380  0.6873  0.4702
 8008SOL    HW135486   3.636   4.288   2.680  0.3477  4.1921  1.6120
 8008SOL    HW235487   3.720   4.168   2.706 -1.1841  0.4944  0.5852
 8009SOL     OW35488   2.353   3.935  13.305 -0.1553  0.0451  0.2825
 8009SOL    HW135489   2.276   3.942  13.361 -0.8870 -2.7219 -0.3681
 8009SOL    HW235490   2.422   3.945  13.371  2.1807  1.6761 -2.4142
 8010SOL     OW35491   2.876   1.655   2.529  0.1227 -0.5797  0.7512
 8010SOL    HW135492   2.809   1.669   2.462  0.1739 -0.5676  0.7023
 8010SOL    HW235493   2.851   1.722   2.593 -1.0663  0.7135 -1.0523
 8011SOL     OW35494   2.777   1.350   8.654  0.0111  0.7999 -0.1627
 8011SOL    HW135495   2.749   1.359   8.564  0.5216 -1.6440 -0.5662
 8011SOL    HW235496   2.804   1.439   8.678 -0.8750  0.5370  1.8729
 8012SOL     OW35497   0.752   3.705   1.898 -0.3998 -0.1700 -0.5025
 8012SOL    HW135498   0.713   3.789   1.874 -1.8670 -1.0953 -1.3544
 8012SOL    HW235499   0.720   3.647   1.829 -0.1096  1.2561 -1.8296
 8013SOL     OW35500   0.023   2.944   4.411 -0.4503 -0.0110 -0.1560
 8013SOL    HW135501   0.080   2.909   4.343  0.4130 -0.3537  0.7371
 8013SOL    HW235502   0.083   2.949   4.486 -0.3898 -1.1083 -0.1360
 8014SOL     OW35503   2.166   1.764   7.113 -0.0017 -0.0986 -0.1283
 8014SOL    HW135504   2.209   1.818   7.047 -0.9243  1.0477  0.2154
 8014SOL    HW235505   2.134   1.821   7.182 -0.5942 -1.4645  0.7226
 8015SOL     OW35506   2.397   2.476  13.217 -0.1954  0.0816 -0.0135
 8015SOL    HW135507   2.342   2.432  13.280 -0.0909  0.4289  0.3214
 8015SOL    HW235508   2.478   2.487  13.266 -1.0469 -0.2240  1.4428
 8016SOL     OW35509   4.291   3.646   5.798  0.1580 -0.3443  0.3111
 8016SOL    HW135510   4.315   3.716   5.860 -0.2219 -0.0710  0.1512
 8016SOL    HW235511   4.355   3.666   5.729 -1.1075 -2.1048 -1.3670
 8017SOL     OW35512   1.372   2.033   2.624 -0.1806  0.0012  0.2842
 8017SOL    HW135513   1.387   2.063   2.534 -1.3773  0.4598  0.2435
 8017SOL    HW235514   1.288   1.990   2.611 -1.2126  1.5236  1.8239
 8018SOL     OW35515   4.150   1.952  16.287  0.4239  0.6008 -0.1997
 8018SOL    HW135516   4.113   1.866  16.269  0.3491  0.8041 -1.0106
 8018SOL    HW235517   4.135   2.000  16.205 -1.6741 -1.4071 -0.9843
 8019SOL     OW35518   4.488   3.583   6.694 -0.6630  0.5858  0.0218
 8019SOL    HW135519   4.567   3.576   6.747 -1.7228  1.5409  1.7261
 8019SOL    HW235520   4.504   3.657   6.635 -0.9068 -0.6429 -1.5781
 8020SOL     OW35521   3.049   2.939   8.421  0.0800  0.0541  0.1249
 8020SOL    HW135522   3.128   2.924   8.370  0.2027  0.1963  0.2752
 8020SOL    HW235523   3.070   3.013   8.477  0.9221 -0.5067  0.5527
 8021SOL     OW35524   2.633   3.374   8.157  0.2766 -0.3262 -0.2576
 8021SOL    HW135525   2.677   3.325   8.088  1.3788 -0.3674  0.4692
 8021SOL    HW235526   2.710   3.409   8.203 -0.4738 -1.3154  1.7697
 8022SOL     OW35527   2.162   3.378   2.812 -0.1075 -0.7001 -0.5170
 8022SOL    HW135528   2.238   3.431   2.790 -1.2244  1.4748  0.7927
 8022SOL    HW235529   2.165   3.377   2.908 -1.0935  0.0561 -0.4696
 8023SOL     OW35530   3.558   3.863   7.971  0.5642 -0.1816 -0.2779
 8023SOL    HW135531   3.550   3.769   7.959 -2.3237  0.1896 -1.2766
 8023SOL    HW235532   3.564   3.894   7.881  0.9263 -2.7211 -1.1072
 8024SOL     OW35533   2.219   1.123   1.138 -0.1337 -0.1825  0.5118
 8024SOL    HW135534   2.282   1.135   1.068 -0.9476  2.6467  0.2770
 8024SOL    HW235535   2.154   1.183   1.103  2.1489  0.9495 -1.7584
 8025SOL     OW35536   3.526   1.203  10.763 -0.2644  0.1320  0.2025
 8025SOL    HW135537   3.516   1.284  10.713  3.9910 -0.3601 -1.4671
 8025SOL    HW235538   3.584   1.147  10.710  0.6689  0.9699  0.3396
 8026SOL     OW35539   4.054   4.057  17.545  0.1382 -0.1426  0.5252
 8026SOL    HW135540   3.969   4.092  17.518  0.7950  0.5234 -0.7083
 8026SOL    HW235541   4.071   4.010  17.463 -0.6908  0.5053 -0.0193
 8027SOL     OW35542   1.547   2.023   6.026 -0.5228 -0.0825  0.3328
 8027SOL    HW135543   1.613   1.993   5.964 -1.0622  0.8547 -0.6756
 8027SOL    HW235544   1.534   2.114   6.001 -0.9268 -0.1284  0.3748
 8028SOL     OW35545   3.747   1.347   5.948 -0.1445 -0.1280 -0.1190
 8028SOL    HW135546   3.766   1.292   6.025 -1.5619  1.2035  1.1842
 8028SOL    HW235547   3.730   1.289   5.874 -2.2899  2.3773 -1.5246
 8029SOL     OW35548   1.639   2.345   1.363 -0.0572 -0.2655  0.0665
 8029SOL    HW135549   1.570   2.299   1.315 -1.5256  0.1315  1.7904
 8029SOL    HW235550   1.596   2.430   1.373 -0.6147 -0.2233 -2.7540
 8030SOL     OW35551   1.980   0.564  11.104  0.1677  0.0089  0.0122
 8030SOL    HW135552   1.992   0.545  11.011  0.8791  0.3570  0.0378
 8030SOL    HW235553   1.923   0.491  11.129 -1.4979  1.6234  0.9651
 8031SOL     OW35554   2.599   2.311   8.386 -0.0998  0.0379  0.2817
 8031SOL    HW135555   2.671   2.371   8.368 -1.3369  1.6041  0.4829
 8031SOL    HW235556   2.560   2.346   8.467  1.7180  0.8564  0.7983
 8032SOL     OW35557   1.658   2.691   6.294 -0.2329 -0.1170  0.6800
 8032SOL    HW135558   1.731   2.631   6.284 -1.2469 -0.9081 -1.9742
 8032SOL    HW235559   1.684   2.760   6.232 -1.2672  0.8862  1.3654
 8033SOL     OW35560   4.283   0.510   2.175  0.5379 -0.5761  0.5402
 8033SOL    HW135561   4.341   0.543   2.107  0.6407  0.3333  1.0678
 8033SOL    HW235562   4.291   0.578   2.242 -0.0480  1.0840 -1.0836
 8034SOL     OW35563   3.185   4.096   6.485  0.3917  0.2058 -0.6350
 8034SOL    HW135564   3.097   4.057   6.483  0.0172  0.9112  1.6600
 8034SOL    HW235565   3.235   4.018   6.510  0.9992  0.3307 -1.4795
 8035SOL     OW35566   2.332   0.011   8.838  0.1942  0.0336 -0.4383
 8035SOL    HW135567   2.409   0.064   8.860 -0.7276  0.0855  2.7330
 8035SOL    HW235568   2.263   0.077   8.831 -0.1330 -0.3374 -0.7109
 8036SOL     OW35569   0.909   3.935   2.613  0.0651  0.2867 -0.1654
 8036SOL    HW135570   0.831   3.884   2.636  0.2788 -0.1366 -0.3765
 8036SOL    HW235571   0.935   3.956   2.702 -1.1171 -0.9023  0.4749
 8037SOL     OW35572   1.454   3.438   4.798 -0.2170  0.4850  0.1367
 8037SOL    HW135573   1.539   3.403   4.772 -1.4393 -1.5994 -1.0325
 8037SOL    HW235574   1.452   3.510   4.735 -1.4605 -1.3931 -1.9390
 8038SOL     OW35575   4.288   3.595  12.204  0.5860  0.0757 -0.1923
 8038SOL    HW135576   4.356   3.577  12.139  0.0340 -1.1997 -0.4197
 8038SOL    HW235577   4.213   3.608  12.145  1.5520 -0.4620 -1.5307
 8039SOL     OW35578   2.128   3.024  13.428  0.4109 -0.0674  0.6140
 8039SOL    HW135579   2.196   2.960  13.408  0.1955 -0.2899  0.5996
 8039SOL    HW235580   2.178   3.101  13.454 -0.4392  0.9538 -0.7723
 8040SOL     OW35581   1.529   4.175  10.282  0.0199  0.1387 -0.2031
 8040SOL    HW135582   1.572   4.204  10.362 -0.0983 -2.0697  0.6767
 8040SOL    HW235583   1.572   4.218  10.208  0.2692 -1.6073 -1.1019
 8041SOL     OW35584   3.978   0.487   5.405  0.4366 -0.5914 -0.0417
 8041SOL    HW135585   4.015   0.432   5.473  0.2033  0.0769  0.6223
 8041SOL    HW235586   4.055   0.479   5.348  1.3018  2.2751  0.7366
 8042SOL     OW35587   1.901   3.801   4.489  0.4290 -0.3404 -0.2116
 8042SOL    HW135588   1.848   3.806   4.410  2.9762  0.1741 -1.8624
 8042SOL    HW235589   1.973   3.750   4.452  1.2250  1.1071 -0.6313
 8043SOL     OW35590   4.055   0.198   9.553 -0.0119 -0.0811 -0.3444
 8043SOL    HW135591   3.964   0.217   9.579  0.2501 -0.4536  0.8509
 8043SOL    HW235592   4.081   0.288   9.536 -3.0007  0.6777 -0.9532
 8044SOL     OW35593   0.055   0.269   5.305  0.3780  0.6404 -0.2130
 8044SOL    HW135594   0.132   0.279   5.362  0.0611  3.0779 -0.2456
 8044SOL    HW235595   0.021   0.183   5.330  0.4055  0.3853 -1.0455
 8045SOL     OW35596   4.009   3.220   7.220  0.2935  0.1027  0.0865
 8045SOL    HW135597   4.086   3.164   7.223  1.0023  1.1150  0.9551
 8045SOL    HW235598   3.998   3.234   7.314 -1.3820  1.6972 -0.3469
 8046SOL     OW35599   2.159   2.676  15.753 -0.5419 -0.4069  0.2882
 8046SOL    HW135600   2.094   2.746  15.760 -0.3443 -0.5079  3.3272
 8046SOL    HW235601   2.127   2.616  15.686  0.8789 -0.6228 -0.1889
 8047SOL     OW35602   2.488   0.724   2.403 -0.0443 -0.4519 -0.7217
 8047SOL    HW135603   2.563   0.742   2.459  1.3617 -1.1757 -2.3879
 8047SOL    HW235604   2.466   0.812   2.374  1.4972  0.0278 -0.4107
 8048SOL     OW35605   2.889   4.219   8.215  0.2891 -0.1358 -0.3785
 8048SOL    HW135606   2.817   4.226   8.151 -2.4385  3.8244  3.1348
 8048SOL    HW235607   2.851   4.150   8.269 -0.0935 -1.5607 -2.4429
 8049SOL     OW35608   1.981   1.421   3.889  0.1614 -0.3793 -0.4644
 8049SOL    HW135609   2.016   1.347   3.840 -0.6887 -1.1288  0.0564
 8049SOL    HW235610   2.045   1.488   3.865  0.5537 -0.2829  0.8406
 8050SOL     OW35611   2.391   4.566   7.192 -0.2178 -0.5832  1.1835
 8050SOL    HW135612   2.427   4.554   7.279  3.2253 -1.1859 -0.3078
 8050SOL    HW235613   2.301   4.539   7.208 -0.2013  1.1345  4.1518
 8051SOL     OW35614   3.822   4.345   8.556  0.2868  0.2091 -0.4737
 8051SOL    HW135615   3.803   4.312   8.468 -1.4951  2.5681 -0.9566
 8051SOL    HW235616   3.753   4.309   8.612  1.5530  0.9292  1.5436
 8052SOL     OW35617   3.265   1.417  14.117 -0.2921 -0.1711  0.2812
 8052SOL    HW135618   3.274   1.489  14.180  0.0346 -0.6414  0.7728
 8052SOL    HW235619   3.170   1.405  14.124 -0.2190  0.4572  2.5117
 8053SOL     OW35620   2.513   2.380  15.860 -0.4435  0.4492  0.1338
 8053SOL    HW135621   2.514   2.380  15.956 -0.7688 -1.3996  0.1452
 8053SOL    HW235622   2.420   2.362  15.846 -0.5681 -1.0046  2.6876
 8054SOL     OW35623   3.802   4.048  11.716 -0.1752 -0.1502 -0.0827
 8054SOL    HW135624   3.719   4.057  11.763  1.2108 -0.0509  2.3598
 8054SOL    HW235625   3.777   4.012  11.631 -1.8724  0.8364 -0.0076
 8055SOL     OW35626   4.514   4.082   8.278  0.1920 -0.0429  0.0166
 8055SOL    HW135627   4.464   4.140   8.336 -1.8475 -1.1920 -0.5683
 8055SOL    HW235628   4.439   4.037   8.239  0.5282 -1.0982  0.5717
 8056SOL     OW35629   1.848   0.860   2.593  0.4350 -0.1769  0.1088
 8056SOL    HW135630   1.899   0.787   2.558  1.7122  1.4102 -1.3591
 8056SOL    HW235631   1.837   0.902   2.507  0.0284  0.4031  0.4438
 8057SOL     OW35632   2.429   3.466   3.439 -0.1318  0.5656  0.1015
 8057SOL    HW135633   2.517   3.478   3.402 -0.0357 -2.2832 -0.5996
 8057SOL    HW235634   2.446   3.455   3.532  1.4779  0.4496 -0.1995
 8058SOL     OW35635   0.965   2.056   0.645  0.2847 -0.1339  0.4254
 8058SOL    HW135636   0.994   2.125   0.705  2.3244 -0.9164  0.3452
 8058SOL    HW235637   0.910   2.091   0.574  1.3843  2.7336  0.9754
 8059SOL     OW35638   1.939   3.458  16.453  0.6256  0.2411 -0.5100
 8059SOL    HW135639   1.920   3.459  16.547  1.6455  1.4555 -0.3169
 8059SOL    HW235640   1.990   3.378  16.439  0.1017 -0.5822  2.2428
 8060SOL     OW35641   3.276   3.557  17.667 -0.2910 -0.0984 -0.8017
 8060SOL    HW135642   3.305   3.609  17.592  1.3445  1.4213  0.9168
 8060SOL    HW235643   3.361   3.517   0.004  0.1721  1.4363  0.3928
 8061SOL     OW35644   0.398   2.252   1.078 -0.0177  0.4802  0.4693
 8061SOL    HW135645   0.421   2.321   1.140  1.8729  0.0897  0.2014
 8061SOL    HW235646   0.441   2.293   1.003 -1.8868  0.2235 -0.7446
 8062SOL     OW35647   2.845   2.312   7.261 -0.2112  0.1877 -0.1999
 8062SOL    HW135648   2.937   2.291   7.245  0.6854  4.0182 -0.1100
 8062SOL    HW235649   2.843   2.394   7.212  0.3384 -0.5032 -1.3626
 8063SOL     OW35650   1.091   1.510   4.933  0.5502  0.1884  0.5500
 8063SOL    HW135651   1.149   1.539   5.004  0.1903  0.2235  0.8336
 8063SOL    HW235652   1.074   1.418   4.953 -0.4893  0.8468  2.7785
 8064SOL     OW35653   0.257   3.380   7.569 -0.0180  0.5977 -0.0219
 8064SOL    HW135654   0.346   3.413   7.555 -0.3461  1.5561  0.1727
 8064SOL    HW235655   0.267   3.319   7.642 -0.9669  0.2800 -0.1575
 8065SOL     OW35656   1.479   0.706   4.199 -0.3217 -0.1652 -1.1220
 8065SOL    HW135657   1.513   0.794   4.184 -0.1068 -0.2858 -1.3617
 8065SOL    HW235658   1.389   0.725   4.223  0.7796  2.9562  0.4411
 8066SOL     OW35659   2.079   4.454   0.919 -0.0796  0.3168 -0.1273
 8066SOL    HW135660   2.005   4.394   0.935  1.7549 -0.9309  3.5754
 8066SOL    HW235661   2.157   4.399   0.921 -0.9764 -0.8782  2.4532
 8067SOL     OW35662   1.536   1.351   2.869 -0.6786  0.1245  0.5626
 8067SOL    HW135663   1.615   1.345   2.814 -0.7929  1.6753  0.2215
 8067SOL    HW235664   1.506   1.436   2.836 -0.3031  0.4466  1.0512
 8068SOL     OW35665   0.680   2.599   3.151 -0.3472 -0.1530 -0.2444
 8068SOL    HW135666   0.656   2.561   3.235 -2.5575  0.7941 -0.4415
 8068SOL    HW235667   0.773   2.576   3.146 -0.0420  0.9729  0.2301
 8069SOL     OW35668   0.387   0.209   8.074 -0.5802  0.6224 -0.3815
 8069SOL    HW135669   0.309   0.265   8.076 -0.1496  1.1989  0.1133
 8069SOL    HW235670   0.351   0.135   8.025  1.6029  0.1957 -1.3395
 8070SOL     OW35671   3.392   0.230   1.777  0.5255 -0.0300 -0.1729
 8070SOL    HW135672   3.381   0.237   1.872 -0.2885  3.1204 -0.5030
 8070SOL    HW235673   3.474   0.182   1.770 -0.8736 -2.3133 -1.2396
 8071SOL     OW35674   1.008   2.149   5.506 -0.1950  0.0719  0.2266
 8071SOL    HW135675   0.934   2.092   5.486  0.1986 -0.2202 -0.4305
 8071SOL    HW235676   1.070   2.079   5.529 -1.2115 -0.4939  1.1916
 8072SOL     OW35677   3.582   4.678   5.272 -0.0663 -0.1766 -0.2009
 8072SOL    HW135678   3.537   0.021   5.329  0.3532 -0.4762  0.4576
 8072SOL    HW235679   3.536   4.599   5.300  1.2146 -2.3968 -4.4295
 8073SOL     OW35680   3.698   2.996  11.799 -0.2900 -0.1177 -0.0939
 8073SOL    HW135681   3.628   2.979  11.736 -0.9293 -1.0607  0.8616
 8073SOL    HW235682   3.651   3.005  11.882 -1.6033 -1.0394 -0.7307
 8074SOL     OW35683   4.612   2.016   9.402 -0.3365  0.5162 -0.7105
 8074SOL    HW135684   4.655   1.950   9.347 -0.6274 -1.0881  1.0049
 8074SOL    HW235685   4.519   2.004   9.385  0.1658 -0.9539 -2.4325
 8075SOL     OW35686   0.835   1.396   3.420  0.1721  0.3436 -0.1367
 8075SOL    HW135687   0.909   1.418   3.364 -0.2925  0.1472 -0.8258
 8075SOL    HW235688   0.833   1.481   3.463  1.5126  0.3300 -0.0360
 8076SOL     OW35689   4.451   0.588   3.624 -0.2810  0.4169  0.4426
 8076SOL    HW135690   4.511   0.515   3.607 -0.3673  1.0462 -2.5111
 8076SOL    HW235691   4.440   0.587   3.719 -0.2420 -2.3259  0.4286
 8077SOL     OW35692   1.720   4.506  12.900 -0.5856 -0.0347  0.1893
 8077SOL    HW135693   1.717   4.411  12.886  1.6224 -0.0613 -0.1230
 8077SOL    HW235694   1.691   4.541  12.817 -0.5365 -3.2597 -1.1926
 8078SOL     OW35695   1.422   3.699   5.443 -0.0661 -0.7875 -0.4145
 8078SOL    HW135696   1.413   3.629   5.379 -0.9992  0.5597 -1.7564
 8078SOL    HW235697   1.343   3.689   5.496  0.4122  1.6585  0.7848
 8079SOL     OW35698   1.107   1.590  13.110 -0.3244  0.2385  0.4787
 8079SOL    HW135699   1.036   1.588  13.046  0.6058  0.5101 -0.5578
 8079SOL    HW235700   1.110   1.503  13.151  0.1380 -0.1966 -0.4679
 8080SOL     OW35701   2.472   0.736   8.463  0.3618 -0.2436 -0.2614
 8080SOL    HW135702   2.392   0.683   8.461  0.8122 -0.9169 -0.2213
 8080SOL    HW235703   2.530   0.699   8.397  0.5331 -1.1245  0.3923
 8081SOL     OW35704   1.241   1.597  14.101  0.1314 -0.5662 -0.0124
 8081SOL    HW135705   1.152   1.627  14.083 -0.0972  0.0404  2.0766
 8081SOL    HW235706   1.266   1.651  14.176  2.1228 -0.7369 -0.5730
 8082SOL     OW35707   0.036   0.275   7.216  0.1859 -0.1562 -0.2592
 8082SOL    HW135708   0.059   0.183   7.227  0.6485  0.3787  3.3913
 8082SOL    HW235709   0.088   0.297   7.139 -0.8217  1.9688 -0.3544
 8083SOL     OW35710   4.559   3.523   0.677  0.2052  0.0266  0.9391
 8083SOL    HW135711   4.620   3.538   0.749  0.0534  2.1589  0.6232
 8083SOL    HW235712   4.611   3.508   0.598 -1.5765  1.3375 -0.4874
 8084SOL     OW35713   2.354   4.594  10.787 -0.5888  0.1694  0.0028
 8084SOL    HW135714   2.381   4.523  10.728  0.9029 -1.0102  2.0847
 8084SOL    HW235715   2.263   4.567  10.801 -0.5790  1.0462  1.7700
 8085SOL     OW35716   4.025   3.071   0.460  0.5401 -0.5685 -0.6906
 8085SOL    HW135717   4.076   3.034   0.389  1.7547  0.3278 -0.2883
 8085SOL    HW235718   3.950   3.012   0.466  2.6471 -3.4307 -2.5737
 8086SOL     OW35719   1.600   2.731  13.297 -0.1939 -0.8318 -0.1635
 8086SOL    HW135720   1.679   2.724  13.350 -0.6354 -0.8685  0.4938
 8086SOL    HW235721   1.614   2.809  13.243  0.5264 -1.4789 -0.9146
 8087SOL     OW35722   2.535   3.162   0.653 -0.2616  0.0606 -0.5246
 8087SOL    HW135723   2.490   3.092   0.604 -0.6317  2.1063 -3.1027
 8087SOL    HW235724   2.460   3.209   0.690  0.9061  1.3060  0.2403
 8088SOL     OW35725   2.639   1.701   7.253  0.1192 -0.2402 -0.2099
 8088SOL    HW135726   2.616   1.609   7.242 -2.4362  0.5025 -0.9127
 8088SOL    HW235727   2.557   1.736   7.288  0.6902 -0.5874  1.5022
 8089SOL     OW35728   4.007   2.542  12.601  0.1173 -0.4187 -0.1841
 8089SOL    HW135729   3.999   2.504  12.514 -1.8544  0.2848 -0.3107
 8089SOL    HW235730   3.996   2.636  12.587  0.3744 -0.3267  0.2278
 8090SOL     OW35731   2.892   3.650  15.846 -0.0466  0.0024  0.2329
 8090SOL    HW135732   2.869   3.557  15.844 -1.5375  0.3264  1.6841
 8090SOL    HW235733   2.803   3.684  15.841 -0.0328 -0.0050 -0.0651
 8091SOL     OW35734   0.285   0.290   2.112  0.3212 -0.8026 -0.7219
 8091SOL    HW135735   0.371   0.324   2.090 -0.0833  0.4167 -0.4085
 8091SOL    HW235736   0.289   0.196   2.094 -0.1568 -0.8461 -0.6083
 8092SOL     OW35737   0.491   4.559  17.198  0.0259 -0.0626  0.1716
 8092SOL    HW135738   0.532   4.618  17.135 -3.1020  0.7016 -1.1341
 8092SOL    HW235739   0.521   4.475  17.163  2.5524  2.1562 -2.9725
 8093SOL     OW35740   2.165   0.875   6.539  0.4768  0.1388 -0.1243
 8093SOL    HW135741   2.233   0.831   6.589  1.2764  1.5704  0.0578
 8093SOL    HW235742   2.139   0.945   6.599  3.7303 -0.1447  1.6343
 8094SOL     OW35743   3.441   0.696   0.905  0.7409 -0.6046 -0.1103
 8094SOL    HW135744   3.504   0.719   0.836 -0.1346  1.3758 -0.2597
 8094SOL    HW235745   3.400   0.783   0.905 -0.8068 -1.3414 -0.0481
 8095SOL     OW35746   3.852   4.689   5.261  0.5434  0.3363 -0.2372
 8095SOL    HW135747   3.872   4.612   5.315  1.8989 -0.4663 -1.8649
 8095SOL    HW235748   3.757   4.690   5.257  0.4945 -0.3965  0.7094
 8096SOL     OW35749   0.252   3.702   3.322 -0.3698  0.3539  0.2373
 8096SOL    HW135750   0.238   3.639   3.391  1.3521  0.5708  0.7921
 8096SOL    HW235751   0.261   3.646   3.244 -0.9664  0.3576  0.1699
 8097SOL     OW35752   2.466   4.464   8.508 -0.1812  0.3500  0.1400
 8097SOL    HW135753   2.559   4.444   8.522 -0.0753  1.1417  0.5127
 8097SOL    HW235754   2.424   4.379   8.517 -1.5243  1.1566  1.3449
 8098SOL     OW35755   4.063   3.312   9.055 -0.4375  0.1252 -0.0792
 8098SOL    HW135756   4.041   3.258   9.131 -0.5956 -0.3421 -0.4612
 8098SOL    HW235757   4.028   3.394   9.090  1.2686  1.1245 -0.7123
 8099SOL     OW35758   2.832   1.489  10.789 -0.3618 -0.5831 -0.5827
 8099SOL    HW135759   2.828   1.562  10.727  2.9880 -0.2007 -0.3433
 8099SOL    HW235760   2.909   1.449  10.750  1.8383  1.2959  1.8371
 8100SOL     OW35761   3.779   0.392   3.579 -0.3167 -0.1544 -1.2054
 8100SOL    HW135762   3.749   0.407   3.668  2.5466  0.9870 -0.4312
 8100SOL    HW235763   3.854   0.451   3.576 -3.2112  3.6467  0.7480
 8101SOL     OW35764   2.859   0.868  14.933  0.2341  0.0512 -0.1623
 8101SOL    HW135765   2.838   0.884  15.025 -0.6486 -1.0741 -0.1705
 8101SOL    HW235766   2.953   0.884  14.931  0.1668  0.2553 -2.0854
 8102SOL     OW35767   4.656   2.476   5.853  0.1595 -0.1604 -0.3567
 8102SOL    HW135768   4.638   2.388   5.887  0.6969  0.2153  0.8740
 8102SOL    HW235769   0.009   2.505   5.908  0.5449  1.7565 -1.8449
 8103SOL     OW35770   4.211   4.480   4.726 -0.4074  0.2000  0.2115
 8103SOL    HW135771   4.299   4.443   4.716 -0.9844 -1.3164  0.6430
 8103SOL    HW235772   4.229   4.563   4.768  1.5509 -0.5762  0.8983
 8104SOL     OW35773   0.138   0.919  16.745  0.1432  0.1088  0.2813
 8104SOL    HW135774   0.052   0.936  16.783  0.7216  2.3172  0.6031
 8104SOL    HW235775   0.196   0.942  16.818 -0.1007 -1.6455  1.0152
 8105SOL     OW35776   2.340   1.262   8.319 -0.4084 -0.1403 -0.0618
 8105SOL    HW135777   2.400   1.326   8.280 -0.3647  1.5121  2.7466
 8105SOL    HW235778   2.255   1.298   8.293 -0.9377 -1.6088 -0.3721
 8106SOL     OW35779   3.328   2.943   7.639  0.4338 -0.3676 -0.3852
 8106SOL    HW135780   3.370   2.907   7.560 -0.9166  0.5867 -1.5318
 8106SOL    HW235781   3.333   3.035   7.614 -2.3751  0.2195  1.2154
 8107SOL     OW35782   3.167   2.471   2.315  0.1533 -0.2566  0.0968
 8107SOL    HW135783   3.182   2.432   2.401  0.8294  0.7359  0.4176
 8107SOL    HW235784   3.149   2.557   2.352 -1.9657 -0.6295 -0.0411
 8108SOL     OW35785   2.939   1.952   7.119 -0.4254  0.3563  0.3301
 8108SOL    HW135786   3.000   1.920   7.186  0.4940 -0.5442 -0.9241
 8108SOL    HW235787   2.959   2.046   7.121  0.2639  0.1902  1.3014
 8109SOL     OW35788   0.821   1.860  15.348  0.0993 -0.0652 -0.3220
 8109SOL    HW135789   0.838   1.899  15.263 -0.6488  0.1877 -0.3479
 8109SOL    HW235790   0.879   1.914  15.403  1.4409 -1.3950 -0.4061
 8110SOL     OW35791   2.429   2.426  12.503 -0.4141  0.2451 -0.4548
 8110SOL    HW135792   2.394   2.340  12.525  0.8049 -0.5271 -1.5394
 8110SOL    HW235793   2.506   2.432  12.560 -1.5333  0.4389  1.0264
 8111SOL     OW35794   3.485   0.979   5.289  0.2070 -0.0934 -0.1317
 8111SOL    HW135795   3.462   0.905   5.233  0.4436  1.8586 -2.7939
 8111SOL    HW235796   3.581   0.972   5.285  0.2642  2.1539 -2.7099
 8112SOL     OW35797   2.292   3.265  14.885  0.2809  0.1589 -0.0247
 8112SOL    HW135798   2.317   3.175  14.902  1.4372  0.0448 -2.2483
 8112SOL    HW235799   2.207   3.257  14.928 -0.6103 -0.3765 -1.8549
 8113SOL     OW35800   1.337   4.198   5.579  0.3737  0.2872  0.0659
 8113SOL    HW135801   1.425   4.234   5.582  1.2106 -1.6380 -0.8849
 8113SOL    HW235802   1.348   4.106   5.554  0.8395  0.5010 -0.4990
 8114SOL     OW35803   0.990   4.374   7.640  0.3380  0.0675  0.0476
 8114SOL    HW135804   0.996   4.344   7.731 -0.8398 -0.7146 -0.1418
 8114SOL    HW235805   1.008   4.291   7.596  2.2993  0.3064  0.3758
 8115SOL     OW35806   3.086   0.810   9.155 -0.2450  1.4440 -0.2011
 8115SOL    HW135807   3.002   0.779   9.123  0.8587 -0.3204 -1.4261
 8115SOL    HW235808   3.131   0.725   9.155 -1.2056  0.9224  2.4417
 8116SOL     OW35809   4.585   1.194   1.563 -0.5146  0.4135 -0.1012
 8116SOL    HW135810   4.513   1.242   1.605 -1.6313 -2.6820  1.4892
 8116SOL    HW235811   4.542   1.115   1.531  0.0769  0.2247 -0.4339
 8117SOL     OW35812   2.063   1.190   5.182  0.7977 -0.3674  0.0467
 8117SOL    HW135813   2.023   1.109   5.149  1.7691 -0.8762  0.0887
 8117SOL    HW235814   2.000   1.197   5.253  0.0610  0.2925 -0.6773
 8118SOL     OW35815   0.386   3.603   0.531  0.7539  0.1212  0.3312
 8118SOL    HW135816   0.468   3.577   0.488  1.4270  1.0312  1.0743
 8118SOL    HW235817   0.359   3.523   0.575  1.1635  0.5558  1.3723
 8119SOL     OW35818   4.462   1.496   2.989  0.6454 -0.3152  0.1581
 8119SOL    HW135819   4.493   1.406   3.003 -0.3743 -0.8585 -1.1332
 8119SOL    HW235820   4.453   1.494   2.894  1.3513 -1.1737  0.1118
 8120SOL     OW35821   2.345   1.635   2.249  0.5131  0.4995 -0.0352
 8120SOL    HW135822   2.300   1.715   2.220  0.7456  1.1704  1.4908
 8120SOL    HW235823   2.300   1.607   2.328 -0.7931 -0.5438 -1.1344
 8121SOL     OW35824   2.899   1.274  12.881  0.1816  0.3558 -0.2316
 8121SOL    HW135825   2.846   1.290  12.802  0.4174 -0.5984 -0.5903
 8121SOL    HW235826   2.974   1.240  12.832 -0.5702 -3.1819  1.0362
 8122SOL     OW35827   2.705   3.218  15.021  0.2136 -0.1745  0.3747
 8122SOL    HW135828   2.692   3.225  14.926 -1.0647 -3.2465  0.3387
 8122SOL    HW235829   2.736   3.308  15.035 -2.0523  0.6133  0.2360
 8123SOL     OW35830   4.395   4.228   2.924 -0.5447  0.3389 -0.1402
 8123SOL    HW135831   4.343   4.302   2.956  3.3157  2.1304  1.9769
 8123SOL    HW235832   4.461   4.269   2.868  0.4284  0.0902  0.8042
 8124SOL     OW35833   2.802   0.902   1.232 -0.2810  0.1139 -0.1387
 8124SOL    HW135834   2.773   0.845   1.162 -1.2251 -0.1154  0.4421
 8124SOL    HW235835   2.742   0.976   1.219 -1.5657 -0.6336  1.5176
 8125SOL     OW35836   3.435   1.452   6.206  0.3913  0.3355  0.2267
 8125SOL    HW135837   3.344   1.465   6.233  0.3544  0.8620 -0.1701
 8125SOL    HW235838   3.411   1.424   6.118  1.8659  1.6608 -0.5843
 8126SOL     OW35839   2.816   3.559  17.350 -0.1010  0.3829 -0.8521
 8126SOL    HW135840   2.842   3.588  17.262 -0.2200  1.0506 -0.6703
 8126SOL    HW235841   2.901   3.517  17.363 -0.2318  0.1161 -0.8693
 8127SOL     OW35842   4.165   3.685  13.227 -0.3356  0.1142 -0.0938
 8127SOL    HW135843   4.219   3.734  13.290 -0.3248  1.7664 -1.3782
 8127SOL    HW235844   4.164   3.601  13.273 -1.0582  0.2877  0.2020
 8128SOL     OW35845   1.924   1.117   5.415  0.4699  0.2061 -0.7214
 8128SOL    HW135846   1.870   1.090   5.489 -0.6767  0.8585 -1.3106
 8128SOL    HW235847   1.989   1.048   5.425 -1.5377 -1.6724 -0.7038
 8129SOL     OW35848   0.806   1.977   5.439 -0.3369 -0.1847 -0.2433
 8129SOL    HW135849   0.725   1.955   5.394 -0.0036  0.7510 -1.3117
 8129SOL    HW235850   0.856   1.896   5.428  0.7385  0.2057  1.7390
 8130SOL     OW35851   0.479   2.542  10.867 -0.1321 -0.2159 -0.3074
 8130SOL    HW135852   0.468   2.637  10.878  1.2648  0.1573 -2.2557
 8130SOL    HW235853   0.566   2.536  10.906  0.3252  2.6406 -0.8693
 8131SOL     OW35854   0.999   3.970   2.857  0.2308 -0.6906  0.1487
 8131SOL    HW135855   1.028   3.885   2.892  1.2946 -0.3330  0.1195
 8131SOL    HW235856   1.062   4.029   2.897 -0.9629 -0.9983  2.5387
 8132SOL     OW35857   2.859   2.086   7.938 -0.2495 -0.1077 -0.3575
 8132SOL    HW135858   2.917   2.012   7.954 -2.1021 -2.2426 -3.4056
 8132SOL    HW235859   2.772   2.049   7.924 -0.4114 -0.0693  0.5661
 8133SOL     OW35860   1.091   2.139   7.136 -0.4051  0.1570  0.3083
 8133SOL    HW135861   1.013   2.120   7.083  1.9508  1.0175 -3.4733
 8133SOL    HW235862   1.070   2.101   7.221 -0.4307 -1.2289 -0.3138
 8134SOL     OW35863   0.646   3.809   4.467  0.2096 -0.2712 -0.3714
 8134SOL    HW135864   0.644   3.716   4.442  0.0759  0.2604 -2.3493
 8134SOL    HW235865   0.563   3.841   4.432 -0.1536 -1.0149 -0.1878
 8135SOL     OW35866   1.460   0.897  13.532 -0.1407  0.0790 -0.4806
 8135SOL    HW135867   1.441   0.904  13.438  2.1713 -0.9941 -1.0182
 8135SOL    HW235868   1.370   0.908  13.562  0.2225 -0.2044  0.7271
 8136SOL     OW35869   2.227   3.776  13.660 -0.4191  0.2249  0.0010
 8136SOL    HW135870   2.235   3.861  13.703  2.4865  0.3790 -0.8257
 8136SOL    HW235871   2.145   3.792  13.613  0.6964 -0.8642 -2.3113
 8137SOL     OW35872   3.802   0.754  14.451  0.5145  0.4138  0.2882
 8137SOL    HW135873   3.883   0.733  14.404  1.4759  0.6398  1.8105
 8137SOL    HW235874   3.824   0.722  14.539  0.3498 -1.4329 -0.3348
 8138SOL     OW35875   2.345   2.570  11.236 -0.2378  0.0985  0.3404
 8138SOL    HW135876   2.262   2.586  11.282  0.4408 -0.5934  1.7853
 8138SOL    HW235877   2.382   2.522  11.310 -0.1184  0.5128  0.5464
 8139SOL     OW35878   1.172   4.085   5.211 -0.3756  0.0365  0.4154
 8139SOL    HW135879   1.259   4.076   5.172 -0.0139  0.4703  1.1164
 8139SOL    HW235880   1.195   4.149   5.278  0.8713  1.4358 -1.3327
 8140SOL     OW35881   3.256   0.912  12.053  0.0866  0.6370  0.6251
 8140SOL    HW135882   3.319   0.863  12.106  0.9734 -0.0128 -1.0389
 8140SOL    HW235883   3.308   0.982  12.014 -1.2035  0.6476 -1.1053
 8141SOL     OW35884   3.088   2.776   8.066  0.2345 -0.4182  0.2855
 8141SOL    HW135885   3.109   2.782   7.973  1.0791  0.4927  0.5347
 8141SOL    HW235886   2.995   2.756   8.071 -0.1774  1.5361  0.5858
 8142SOL     OW35887   1.107   0.161  11.967  0.0572 -0.0547 -0.1859
 8142SOL    HW135888   1.145   0.218  11.900 -1.4204  2.2070  0.9063
 8142SOL    HW235889   1.072   0.088  11.916  0.8912  0.6440 -1.7558
 8143SOL     OW35890   0.399   1.788   9.556 -0.6222  0.2196 -0.2676
 8143SOL    HW135891   0.418   1.806   9.464 -0.2748  1.3497  0.0243
 8143SOL    HW235892   0.370   1.698   9.546 -0.8245  0.5582 -2.6942
 8144SOL     OW35893   3.118   2.393   3.835 -0.0180 -0.5430 -0.3596
 8144SOL    HW135894   3.080   2.456   3.896  1.6370  1.0017 -0.9406
 8144SOL    HW235895   3.068   2.313   3.849 -0.6801 -0.4482 -2.1801
 8145SOL     OW35896   1.700   0.411   4.889 -0.5258 -0.0078  0.5706
 8145SOL    HW135897   1.625   0.464   4.861 -0.1333  0.5348  0.5537
 8145SOL    HW235898   1.729   0.443   4.975 -1.8197  1.0622  0.6116
 8146SOL     OW35899   2.323   0.483   3.857  0.2452 -0.1365 -0.6515
 8146SOL    HW135900   2.310   0.556   3.918 -0.4189 -0.2313 -0.6731
 8146SOL    HW235901   2.238   0.483   3.812  0.4962  0.2382 -1.1252
 8147SOL     OW35902   1.953   2.396   4.805 -0.0839  0.2133 -0.2544
 8147SOL    HW135903   1.879   2.414   4.746  0.4350 -0.5002 -1.1153
 8147SOL    HW235904   1.912   2.382   4.890 -0.8253 -0.4896 -0.7290
 8148SOL     OW35905   4.099   1.881   2.337 -0.4971  0.6076 -0.4625
 8148SOL    HW135906   4.070   1.962   2.294  0.6126  1.1489 -0.1732
 8148SOL    HW235907   4.045   1.814   2.294  1.1794 -0.3801 -1.0410
 8149SOL     OW35908   2.690   0.655   1.174  0.2706 -0.2800 -0.2188
 8149SOL    HW135909   2.666   0.567   1.204  1.1168 -0.1660  0.7558
 8149SOL    HW235910   2.636   0.663   1.095 -0.6143  2.4869  0.6747
 8150SOL     OW35911   1.282   2.247   8.641  0.2290 -0.1815  0.6019
 8150SOL    HW135912   1.341   2.229   8.568 -2.9262 -2.4502 -1.3430
 8150SOL    HW235913   1.347   2.258   8.711  3.2676 -1.2484 -2.0657
 8151SOL     OW35914   2.359   4.573   4.016  0.5031  0.3635 -0.3263
 8151SOL    HW135915   2.422   4.517   3.971  1.0019 -1.4138  2.5808
 8151SOL    HW235916   2.419   4.628   4.067 -0.5173  1.7042 -0.5742
 8152SOL     OW35917   3.029   4.185   8.988 -0.3094 -0.0166 -0.0765
 8152SOL    HW135918   2.942   4.222   9.002 -1.1820 -2.0691 -0.1191
 8152SOL    HW235919   3.010   4.095   9.014 -1.2743  0.2415  0.0930
 8153SOL     OW35920   3.766   1.259   3.283 -0.1087  0.0542 -0.1025
 8153SOL    HW135921   3.752   1.347   3.319  1.2253 -0.1428  0.8981
 8153SOL    HW235922   3.813   1.280   3.202 -1.0686  0.6564 -0.5072
 8154SOL     OW35923   2.777   4.269  15.374 -0.0411  0.1077  0.0574
 8154SOL    HW135924   2.757   4.221  15.454  1.4292  2.4340  1.8091
 8154SOL    HW235925   2.749   4.207  15.307 -0.0800 -1.3165  1.4037
 8155SOL     OW35926   2.171   0.722   9.147 -0.5490  0.2327  0.4748
 8155SOL    HW135927   2.081   0.697   9.171 -1.2763  1.0203 -1.4609
 8155SOL    HW235928   2.158   0.814   9.169 -1.5729  0.5009 -1.3236
 8156SOL     OW35929   0.166   3.631  16.680  0.4069 -0.6050  0.2295
 8156SOL    HW135930   0.229   3.698  16.653  0.4973 -0.6516  0.3252
 8156SOL    HW235931   0.113   3.677  16.745  0.3502 -2.5829  1.5907
 8157SOL     OW35932   0.151   0.019  10.785 -0.2264 -0.0695  0.3950
 8157SOL    HW135933   0.107   0.044  10.866  1.1218 -2.4489  1.8797
 8157SOL    HW235934   0.137   0.090  10.722  1.2702  1.9543  2.3541
 8158SOL     OW35935   3.819   0.917   7.529  0.3405  0.7242  0.5217
 8158SOL    HW135936   3.797   0.824   7.541 -1.3370  0.5083 -4.2765
 8158SOL    HW235937   3.877   0.925   7.606  0.7766  0.0505  0.2719
 8159SOL     OW35938   3.883   3.256  16.192 -0.3671  0.2942  0.1717
 8159SOL    HW135939   3.924   3.213  16.118 -0.0425  1.4005 -0.2921
 8159SOL    HW235940   3.840   3.182  16.235 -0.8405  1.3652  1.5624
 8160SOL     OW35941   1.148   2.061  11.373  0.1910 -0.2384  0.1692
 8160SOL    HW135942   1.057   2.076  11.400  0.1452  1.2153 -0.7553
 8160SOL    HW235943   1.177   2.146  11.340  0.3256 -0.3993 -0.1211
 8161SOL     OW35944   0.515   0.976   8.442  0.3990  0.1887 -0.0422
 8161SOL    HW135945   0.581   1.043   8.459  0.6258 -0.6216  2.2827
 8161SOL    HW235946   0.456   0.980   8.517 -1.4579  0.4558 -1.5006
 8162SOL     OW35947   0.941   3.881   5.062 -0.1100  0.6963 -0.0289
 8162SOL    HW135948   0.964   3.948   5.126  0.5839 -0.2328  0.7038
 8162SOL    HW235949   0.928   3.938   4.987  1.8953  0.2133 -0.7167
 8163SOL     OW35950   2.533   0.365  10.985  0.7779  0.2351  0.0941
 8163SOL    HW135951   2.598   0.364  10.914  0.4308 -0.5899 -0.2001
 8163SOL    HW235952   2.548   0.457  11.007  1.8144 -0.3830  2.0070
 8164SOL     OW35953   3.275   2.009  12.099 -0.0326  0.4770 -0.3211
 8164SOL    HW135954   3.330   2.077  12.059  0.3878  0.2296 -0.1678
 8164SOL    HW235955   3.186   2.034  12.075 -0.1878 -0.1537 -0.3878
 8165SOL     OW35956   0.078   0.077  11.920  0.2143  0.0269 -0.0135
 8165SOL    HW135957   0.092   0.141  11.850 -2.3279 -1.5791 -1.9930
 8165SOL    HW235958   0.090   0.141  11.989 -0.9126  1.5660 -1.2512
 8166SOL     OW35959   4.164   0.601   5.002  0.5358  0.4765  0.0432
 8166SOL    HW135960   4.078   0.641   4.988  0.0658 -1.7537 -3.3866
 8166SOL    HW235961   4.208   0.609   4.917 -1.2228  4.6125 -0.4484
 8167SOL     OW35962   3.238   0.270   3.857  0.5302  0.2844 -0.0205
 8167SOL    HW135963   3.155   0.268   3.905  0.2600  2.1312 -0.4375
 8167SOL    HW235964   3.216   0.351   3.812  1.0889  1.2738  1.4931
 8168SOL     OW35965   4.447   3.186   3.924  0.3631 -0.3643  0.2915
 8168SOL    HW135966   4.379   3.144   3.978  0.2264 -0.7087 -0.1457
 8168SOL    HW235967   4.523   3.190   3.982 -0.8335  3.8436  1.5087
 8169SOL     OW35968   3.751   2.686   8.604  0.0248  0.5780 -0.2894
 8169SOL    HW135969   3.701   2.629   8.661 -0.5539  1.6191  0.2325
 8169SOL    HW235970   3.831   2.669   8.654  1.0457  0.0832 -2.1019
 8170SOL     OW35971   4.179   0.566   2.694 -0.4684 -0.1927  0.5796
 8170SOL    HW135972   4.151   0.501   2.760  0.4289 -0.2366  0.9170
 8170SOL    HW235973   4.096   0.614   2.687  0.0199  0.7197  1.0597
 8171SOL     OW35974   3.588   4.256   1.203 -0.4130 -0.4856  0.0667
 8171SOL    HW135975   3.500   4.278   1.171  0.7577  0.5435 -2.4050
 8171SOL    HW235976   3.585   4.283   1.295 -1.2831  0.6379 -0.2877
 8172SOL     OW35977   3.047   2.546   0.171  0.6919 -0.5821 -0.1162
 8172SOL    HW135978   3.101   2.565   0.095 -1.0427 -1.0338 -1.4617
 8172SOL    HW235979   3.090   2.597   0.240 -1.6652  0.7100  0.3887
 8173SOL     OW35980   2.677   4.468   4.170  0.4022 -0.3655 -0.1425
 8173SOL    HW135981   2.619   4.543   4.185 -0.6671 -1.1495 -0.3273
 8173SOL    HW235982   2.749   4.500   4.225 -0.5991 -0.6559  1.3558
 8174SOL     OW35983   3.188   3.640   7.044  0.4484  0.3098 -0.0328
 8174SOL    HW135984   3.132   3.593   6.983 -1.6264 -3.0461  4.4037
 8174SOL    HW235985   3.236   3.578   7.099  0.4452  0.3968  0.0703
 8175SOL     OW35986   0.012   1.974   5.591  0.1548 -0.2650  0.1582
 8175SOL    HW135987   0.046   1.890   5.622  0.1312  0.6059  2.5369
 8175SOL    HW235988   4.669   1.988   5.663 -0.9340 -0.0512 -0.8396
 8176SOL     OW35989   4.507   4.177   4.048 -0.5189  0.0163  0.4210
 8176SOL    HW135990   4.467   4.260   4.075 -1.4714 -0.5083  0.6035
 8176SOL    HW235991   4.425   4.132   4.029 -1.0439  0.4856  1.5303
 8177SOL     OW35992   2.983   0.747   4.919  0.1439  0.0480 -0.5631
 8177SOL    HW135993   3.076   0.765   4.906  0.6818 -2.2780  0.0924
 8177SOL    HW235994   2.955   0.831   4.957  0.7749  0.5006 -1.0928
 8178SOL     OW35995   1.817   0.168   2.907 -0.1773  0.3206  0.2153
 8178SOL    HW135996   1.820   0.103   2.837  0.2261  0.2279  0.3200
 8178SOL    HW235997   1.871   0.239   2.873 -2.0320  0.9384 -1.4582
 8179SOL     OW35998   2.403   0.173  10.041  0.1263 -0.1792  0.1830
 8179SOL    HW135999   2.323   0.183  10.092  1.1610 -0.8723  1.9371
 8179SOL    HW236000   2.469   0.219  10.093  0.3214  0.6381 -0.7710
 8180SOL     OW36001   4.092   0.613   9.294  0.0950  0.7814  0.0455
 8180SOL    HW136002   4.107   0.528   9.253 -0.2682  1.1175 -0.7970
 8180SOL    HW236003   4.033   0.645   9.225  0.1091  0.0511 -0.3004
 8181SOL     OW36004   1.682   3.213   5.025 -0.2208  0.4501 -0.3899
 8181SOL    HW136005   1.693   3.231   4.932  0.8469  2.4185  0.1121
 8181SOL    HW236006   1.773   3.226   5.053 -0.9055  2.0371  1.0995
 8182SOL     OW36007   3.776   3.318   8.429 -0.4076  0.2896 -0.7843
 8182SOL    HW136008   3.782   3.233   8.473 -2.0621  1.9171  2.6133
 8182SOL    HW236009   3.709   3.368   8.477  0.8016  2.1777 -1.0476
 8183SOL     OW36010   3.807   3.676   7.349  0.4327  0.1585 -0.5951
 8183SOL    HW136011   3.749   3.605   7.322 -0.2830 -0.1689  1.7937
 8183SOL    HW236012   3.889   3.664   7.300  1.0795 -1.5398  0.9119
 8184SOL     OW36013   2.497   2.143   1.372  0.5112  0.0473  0.0071
 8184SOL    HW136014   2.490   2.230   1.333 -2.5144 -0.3198 -0.2258
 8184SOL    HW236015   2.411   2.104   1.357  1.0501 -0.4794 -1.7539
 8185SOL     OW36016   3.585   0.749   8.235 -0.2453  0.5324 -0.2035
 8185SOL    HW136017   3.515   0.727   8.173 -0.6162  0.6592  0.1700
 8185SOL    HW236018   3.544   0.830   8.267  0.6469  0.6385  0.6597
 8186SOL     OW36019   1.403   2.862   4.066 -0.5016  0.0524 -0.6146
 8186SOL    HW136020   1.468   2.802   4.029  0.5812 -0.4764  2.1398
 8186SOL    HW236021   1.426   2.953   4.045 -0.9186  0.2971 -0.0106
 8187SOL     OW36022   4.693   4.139   9.504 -0.0930 -1.1393 -0.3713
 8187SOL    HW136023   4.699   4.045   9.487 -0.2622 -1.2706  0.3116
 8187SOL    HW236024   0.064   4.150   9.533  0.6985  0.4934 -3.4800
 8188SOL     OW36025   1.641   2.165   3.934  0.1516  0.3090  0.4723
 8188SOL    HW136026   1.629   2.180   4.028 -0.9068  1.7187  0.1084
 8188SOL    HW236027   1.691   2.244   3.915  1.3625 -0.8383 -1.1197
 8189SOL     OW36028   1.428   4.120   1.525  0.1983  0.2564 -0.3743
 8189SOL    HW136029   1.358   4.062   1.556  1.0856  0.3309  1.7750
 8189SOL    HW236030   1.381   4.201   1.504  1.1874  0.8785 -0.1797
 8190SOL     OW36031   0.324   3.213   0.996 -0.1091 -0.1676 -0.6020
 8190SOL    HW136032   0.284   3.153   0.934  1.7701 -0.6197 -1.3960
 8190SOL    HW236033   0.413   3.214   0.960  1.5162  1.7397  3.4045
 8191SOL     OW36034   0.553   0.174  15.147  0.5790 -0.1385 -0.3218
 8191SOL    HW136035   0.508   0.133  15.073  0.0872  1.3391 -0.8483
 8191SOL    HW236036   0.484   0.195  15.210  1.6022 -0.0918  0.7867
 8192SOL     OW36037   4.676   1.773   0.677  0.5164  0.1797  0.0758
 8192SOL    HW136038   0.003   1.788   0.594  1.0175 -1.9813 -0.0127
 8192SOL    HW236039   0.023   1.806   0.737  1.7097 -1.2356 -0.4823
 8193SOL     OW36040   4.529   3.293   9.998  0.4389 -0.2502 -0.2813
 8193SOL    HW136041   4.514   3.224   9.933 -1.0718  0.9163 -1.1702
 8193SOL    HW236042   4.624   3.301   9.994  0.3018  0.7636 -1.7151
 8194SOL     OW36043   2.369   2.734  15.106 -0.1613 -0.6409 -0.0892
 8194SOL    HW136044   2.447   2.712  15.156 -0.5164 -0.2615  0.6339
 8194SOL    HW236045   2.325   2.649  15.106 -1.7595  0.1790 -1.3486
 8195SOL     OW36046   1.655   1.262  10.748 -0.3393  0.4575 -0.1233
 8195SOL    HW136047   1.697   1.309  10.675 -2.2383  0.3903 -1.2511
 8195SOL    HW236048   1.717   1.276  10.820 -1.9436 -3.2901  2.0006
 8196SOL     OW36049   0.535   4.687   5.270 -0.3273 -0.2345  0.3358
 8196SOL    HW136050   0.441   4.676   5.261 -0.3936  0.2307  0.4458
 8196SOL    HW236051   0.569   4.634   5.198  0.3072  0.3206  0.2278
 8197SOL     OW36052   3.154   3.586  13.651  0.3346  0.0316  0.3795
 8197SOL    HW136053   3.203   3.527  13.709  1.4065  0.0941 -0.4609
 8197SOL    HW236054   3.181   3.551  13.566  1.3138  2.0270 -0.1226
 8198SOL     OW36055   1.668   3.183   2.252 -0.1654 -0.4911  0.1603
 8198SOL    HW136056   1.710   3.160   2.334 -0.2204 -1.5348 -0.1046
 8198SOL    HW236057   1.697   3.105   2.204  1.6547 -0.2175  0.8501
 8199SOL     OW36058   0.223   0.948   6.600  0.0714 -0.4960  0.4413
 8199SOL    HW136059   0.128   0.947   6.605 -0.1248 -0.7482 -2.8011
 8199SOL    HW236060   0.238   0.869   6.651 -1.5633 -1.0869  0.0087
 8200SOL     OW36061   4.649   0.308   5.770 -0.0542  0.1354 -0.7240
 8200SOL    HW136062   4.682   0.315   5.859 -1.8204 -0.9616  0.0187
 8200SOL    HW236063   4.649   0.398   5.737  1.2819 -0.0119 -1.1328
 8201SOL     OW36064   3.332   4.361  15.504  0.2567 -0.2132 -0.3213
 8201SOL    HW136065   3.305   4.452  15.501 -2.1321 -0.8752  0.7982
 8201SOL    HW236066   3.391   4.364  15.580  1.5025 -0.7126 -1.2618
 8202SOL     OW36067   3.084   3.245  11.600 -0.0603  0.2407 -0.2159
 8202SOL    HW136068   3.174   3.211  11.598 -1.0105 -2.2465 -1.1813
 8202SOL    HW236069   3.067   3.221  11.691  0.5369  2.1497  0.4123
 8203SOL     OW36070   3.262   3.782  10.086  0.1285 -0.6389  0.3686
 8203SOL    HW136071   3.202   3.784  10.012 -0.0336 -1.3363  0.4775
 8203SOL    HW236072   3.208   3.785  10.165  1.4284 -2.1919  1.3236
 8204SOL     OW36073   1.878   2.593  11.211 -0.1201 -0.1351 -0.3471
 8204SOL    HW136074   1.837   2.517  11.169  0.9576 -0.2935 -1.1261
 8204SOL    HW236075   1.932   2.617  11.136  1.0248  1.9280  1.1266
 8205SOL     OW36076   1.967   1.560   6.554 -0.4940 -0.1824  0.6216
 8205SOL    HW136077   1.984   1.646   6.593  2.7489 -0.5337 -0.0066
 8205SOL    HW236078   1.899   1.585   6.492 -0.6256  0.7173  1.1239
 8206SOL     OW36079   0.730   2.181  14.937 -0.6026  0.3850  0.2190
 8206SOL    HW136080   0.825   2.179  14.943 -0.7232  2.0479  2.8287
 8206SOL    HW236081   0.731   2.086  14.931  1.5890  0.3723  0.6801
 8207SOL     OW36082   0.194   4.609   6.973 -0.2568  0.0006 -0.3693
 8207SOL    HW136083   0.277   4.642   7.005 -0.5803 -0.4779  0.9576
 8207SOL    HW236084   0.197   4.521   7.011 -0.7508  0.6598  1.1664
 8208SOL     OW36085   4.278   4.008   3.960 -0.0924 -0.2765 -0.0151
 8208SOL    HW136086   4.293   3.928   4.011 -1.6475  0.3500  1.4368
 8208SOL    HW236087   4.299   3.973   3.874  0.8360  1.9565 -0.6887
 8209SOL     OW36088   1.445   4.531   6.652  0.0333 -0.1559 -0.4090
 8209SOL    HW136089   1.387   4.468   6.610 -0.4351 -0.5985  0.9033
 8209SOL    HW236090   1.430   4.534   6.747  0.5371 -2.8253 -0.2386
 8210SOL     OW36091   4.456   3.209  16.242  0.3764  0.1195 -0.1199
 8210SOL    HW136092   4.537   3.189  16.288  1.1133  2.0665 -0.5640
 8210SOL    HW236093   4.412   3.247  16.319  0.2761 -0.3849  0.0706
 8211SOL     OW36094   4.494   3.576   4.105 -0.4418 -0.0030  0.3575
 8211SOL    HW136095   4.529   3.533   4.183 -0.5048 -1.9177 -0.6690
 8211SOL    HW236096   4.532   3.528   4.031 -0.2989  0.1555  0.3282
 8212SOL     OW36097   3.859   2.978   1.509 -0.2235  0.1587 -0.6994
 8212SOL    HW136098   3.932   2.917   1.505 -1.2385 -1.0314 -1.1048
 8212SOL    HW236099   3.792   2.917   1.478  0.3412  0.9220 -3.4225
 8213SOL     OW36100   2.249   4.643   8.551 -0.1785  0.3132 -0.3242
 8213SOL    HW136101   2.302   4.564   8.557 -2.1557 -1.0985 -1.5941
 8213SOL    HW236102   2.184   4.635   8.621  1.8712  1.1623  1.6982
 8214SOL     OW36103   4.071   0.179   7.219 -0.5758  0.2777 -0.1183
 8214SOL    HW136104   4.008   0.241   7.183 -0.6816  1.3737  1.9533
 8214SOL    HW236105   4.010   0.114   7.253  1.7069 -0.4343  2.6684
 8215SOL     OW36106   3.362   3.213  11.606 -0.0023 -0.1055 -0.1782
 8215SOL    HW136107   3.388   3.123  11.625 -0.1489  0.0034  0.5482
 8215SOL    HW236108   3.380   3.253  11.692 -2.1367 -0.2514  0.3542
 8216SOL     OW36109   0.318   3.950   3.287  0.3845  0.3683 -0.0982
 8216SOL    HW136110   0.287   3.859   3.287 -1.4918  1.0050  1.8304
 8216SOL    HW236111   0.352   3.966   3.199  0.8356  1.8944  0.3560
 8217SOL     OW36112   0.451   2.282  10.985 -0.4094 -0.0586 -0.3489
 8217SOL    HW136113   0.406   2.315  10.907 -1.2490  0.6696  0.4418
 8217SOL    HW236114   0.545   2.285  10.968 -0.6434 -0.4507 -1.7044
 8218SOL     OW36115   2.035   4.363  17.586  0.3576  0.1531 -0.0140
 8218SOL    HW136116   2.099   4.391  17.652  1.1822  0.5970 -0.9926
 8218SOL    HW236117   1.969   4.432  17.591 -1.5431 -1.7376  0.9923
 8219SOL     OW36118   3.794   3.351   3.094 -0.0341  0.3222 -0.2686
 8219SOL    HW136119   3.834   3.328   3.010 -0.8441 -4.2925  0.6430
 8219SOL    HW236120   3.720   3.403   3.062 -0.3381 -0.5169 -0.9290
 8220SOL     OW36121   4.358   3.917   4.858 -0.2321  0.0189 -0.5014
 8220SOL    HW136122   4.297   3.847   4.882  0.9373 -0.7458  0.2589
 8220SOL    HW236123   4.361   3.924   4.763  0.5297 -2.5899 -0.6691
 8221SOL     OW36124   2.720   4.233  10.098  0.1756 -0.1014 -0.4683
 8221SOL    HW136125   2.698   4.302  10.161  0.3231  0.9367 -1.5591
 8221SOL    HW236126   2.636   4.187  10.092 -1.2498  2.3572  0.6680
 8222SOL     OW36127   3.427   3.517   0.725  0.3761  0.2464 -0.4476
 8222SOL    HW136128   3.389   3.549   0.807  0.8232 -3.4444  1.2535
 8222SOL    HW236129   3.453   3.430   0.757 -2.0513  0.3741  1.9228
 8223SOL     OW36130   2.246   3.801   9.823  0.3421 -0.5410 -0.3491
 8223SOL    HW136131   2.306   3.813   9.897  1.0190  2.8364 -1.4259
 8223SOL    HW236132   2.167   3.790   9.876  0.3450 -0.3120 -0.2981
 8224SOL     OW36133   1.656   0.315   3.063 -0.5915 -0.8050 -0.0687
 8224SOL    HW136134   1.704   0.242   3.024  0.8084 -0.4674  1.0188
 8224SOL    HW236135   1.698   0.392   3.024 -0.2266 -1.3161 -0.6656
 8225SOL     OW36136   0.865   2.693   4.794 -0.2007 -0.9209 -0.1914
 8225SOL    HW136137   0.839   2.616   4.845 -0.9549  0.8925  2.2082
 8225SOL    HW236138   0.955   2.667   4.773 -0.4005 -0.8977 -1.0553
 8226SOL     OW36139   2.835   2.732   2.056  0.5237 -0.0219 -0.1189
 8226SOL    HW136140   2.836   2.716   2.150  2.8658 -0.1777 -0.1686
 8226SOL    HW236141   2.806   2.823   2.054  2.0453  0.4278 -1.2395
 8227SOL     OW36142   3.742   4.252   7.520  0.2488 -0.1268  0.0390
 8227SOL    HW136143   3.649   4.268   7.535  0.6799  0.9561  1.6572
 8227SOL    HW236144   3.740   4.157   7.526  1.8265 -0.0617  1.5171
 8228SOL     OW36145   0.002   3.622  12.163  0.5588  0.3714 -0.3942
 8228SOL    HW136146   0.087   3.612  12.206  1.0003 -0.1087 -1.3593
 8228SOL    HW236147   4.669   3.630  12.242  2.5657 -2.0274  1.1784
 8229SOL     OW36148   2.123   4.521   7.276 -0.2501 -0.0710  0.2566
 8229SOL    HW136149   2.138   4.515   7.371 -0.8814  0.4550  0.3915
 8229SOL    HW236150   2.031   4.548   7.278 -0.2874 -0.2233  0.7469
 8230SOL     OW36151   4.116   0.356   1.822 -0.4022 -0.1569 -0.0315
 8230SOL    HW136152   4.186   0.402   1.775 -0.4535 -0.6449 -0.5766
 8230SOL    HW236153   4.044   0.412   1.793  0.2188  0.5447 -0.2315
 8231SOL     OW36154   2.759   1.766  10.662  0.0279 -0.2369 -0.3294
 8231SOL    HW136155   2.678   1.718  10.644 -1.2488  1.1996  1.5351
 8231SOL    HW236156   2.742   1.842  10.607 -0.6884 -1.3190 -1.6019
 8232SOL     OW36157   1.144   0.224   1.570 -0.1822 -0.2177  0.0723
 8232SOL    HW136158   1.214   0.254   1.629  0.0605  1.8499 -1.2820
 8232SOL    HW236159   1.063   0.264   1.599 -1.1364 -2.6139  0.6869
 8233SOL     OW36160   4.233   4.629   5.507 -0.2306  0.4030 -0.6045
 8233SOL    HW136161   4.260   4.641   5.597  1.4257 -0.6586 -0.9565
 8233SOL    HW236162   4.225   4.719   5.474  1.0127 -0.2631 -2.7289
 8234SOL     OW36163   0.187   0.625   6.778  0.1440  0.3340 -0.7240
 8234SOL    HW136164   0.091   0.632   6.770 -0.1919 -0.2153  2.9799
 8234SOL    HW236165   0.192   0.640   6.872  0.4899 -0.5630 -0.6036
 8235SOL     OW36166   0.698   3.020   3.232 -0.6692 -0.5369 -0.0001
 8235SOL    HW136167   0.711   3.110   3.264  0.7067 -0.1104 -1.6941
 8235SOL    HW236168   0.718   3.044   3.141  0.4240 -2.1146 -0.1824
 8236SOL     OW36169   1.768   4.505  13.911 -0.3283 -0.0707 -0.4811
 8236SOL    HW136170   1.813   4.446  13.972  3.0761  1.2320 -1.6819
 8236SOL    HW236171   1.691   4.464  13.872  1.4978 -2.6510 -1.3803
 8237SOL     OW36172   4.246   1.834   6.916  0.7970 -0.5427 -0.5608
 8237SOL    HW136173   4.209   1.748   6.940  1.3825 -1.1163 -1.7071
 8237SOL    HW236174   4.333   1.807   6.886  1.8544  1.2971  0.8893
 8238SOL     OW36175   3.010   4.249   1.927 -0.2673  0.4585  0.5127
 8238SOL    HW136176   2.938   4.188   1.912  0.4758 -0.8499  2.3779
 8238SOL    HW236177   2.974   4.310   1.863  0.0188 -0.2416 -0.3172
 8239SOL     OW36178   1.687   2.472   8.913 -0.8742  0.0765 -0.1278
 8239SOL    HW136179   1.597   2.455   8.941 -1.5410  1.8009 -1.2138
 8239SOL    HW236180   1.691   2.567   8.907 -2.4610  0.2166  0.9155
 8240SOL     OW36181   3.696   3.131   0.612  0.3308  0.1934 -0.0946
 8240SOL    HW136182   3.756   3.199   0.580 -0.0955  0.6463  0.0606
 8240SOL    HW236183   3.759   3.062   0.634  0.3286  0.2386  0.0521
 8241SOL     OW36184   0.925   0.024   6.315  0.1675 -0.0874 -0.3787
 8241SOL    HW136185   0.956   4.713   6.230  0.1313 -0.0024 -0.4227
 8241SOL    HW236186   0.923   0.120   6.309 -0.3266  0.0776  2.5525
 8242SOL     OW36187   3.970   0.594  12.810  0.0635 -0.7299  0.1604
 8242SOL    HW136188   3.974   0.620  12.902 -1.2416 -0.9547  0.2807
 8242SOL    HW236189   4.020   0.512  12.816 -3.3663 -2.9038 -1.3517
 8243SOL     OW36190   2.568   0.298   2.174 -0.1372  0.0444 -0.1197
 8243SOL    HW136191   2.646   0.347   2.200 -0.4982 -0.2399  1.4684
 8243SOL    HW236192   2.583   0.279   2.081 -1.8481 -0.9196 -0.1903
 8244SOL     OW36193   1.080   1.033   3.630  0.4451 -0.2410 -0.3409
 8244SOL    HW136194   1.106   0.944   3.607  0.4717 -0.6232  1.1683
 8244SOL    HW236195   1.016   1.056   3.563 -0.5626  0.0417  0.7223
 8245SOL     OW36196   1.233   3.272   6.070  0.0303  0.1804 -0.0759
 8245SOL    HW136197   1.238   3.300   6.162 -0.6725  1.3182 -0.3854
 8245SOL    HW236198   1.259   3.180   6.077 -0.9720  0.0476  1.9462
 8246SOL     OW36199   1.526   1.989   3.507  0.4721  0.1436 -0.1750
 8246SOL    HW136200   1.491   2.020   3.591 -2.0411 -0.6096 -0.9480
 8246SOL    HW236201   1.568   2.071   3.480  0.7126 -1.3054 -4.1485
 8247SOL     OW36202   0.135   2.472   7.099  0.0128  0.0003  0.4120
 8247SOL    HW136203   0.129   2.542   7.034 -0.0218  0.0627  0.4818
 8247SOL    HW236204   0.084   2.399   7.063  0.9439 -1.1858  1.5019
 8248SOL     OW36205   3.198   2.662   5.596 -0.8015  0.1144 -0.5688
 8248SOL    HW136206   3.143   2.606   5.542 -0.5188  0.3314 -1.0804
 8248SOL    HW236207   3.287   2.639   5.571  0.1489  1.2654  1.7547
 8249SOL     OW36208   0.499   4.715  17.450 -0.2886  1.0181 -0.1431
 8249SOL    HW136209   0.504   4.670  17.366 -0.6190 -0.8912  0.8502
 8249SOL    HW236210   0.417   0.045  17.442 -0.1346  1.0061 -1.8999
 8250SOL     OW36211   2.502   1.672  13.567 -0.7219  0.2851 -0.3286
 8250SOL    HW136212   2.459   1.757  13.565 -0.2695  0.5159 -0.3110
 8250SOL    HW236213   2.543   1.668  13.481  1.3544  0.7890  0.6454
 8251SOL     OW36214   2.370   3.230  16.727  0.4986 -0.5429 -0.6805
 8251SOL    HW136215   2.358   3.288  16.652  0.7182 -0.0033 -0.2922
 8251SOL    HW236216   2.281   3.196  16.734  0.5630 -0.7220 -0.7121
 8252SOL     OW36217   4.702   4.609   2.303  0.3293 -0.7938 -0.4162
 8252SOL    HW136218   4.674   4.688   2.256  2.3709  0.1719 -0.0328
 8252SOL    HW236219   0.032   4.562   2.236 -0.9301 -2.0211 -0.4606
 8253SOL     OW36220   1.425   1.728  11.781 -0.0939  0.4199 -0.2404
 8253SOL    HW136221   1.333   1.756  11.774 -0.4756 -1.1414 -1.4775
 8253SOL    HW236222   1.430   1.785  11.858 -1.3587 -0.5684  0.5751
 8254SOL     OW36223   0.802   2.523  12.167 -0.3065  0.0565 -0.8313
 8254SOL    HW136224   0.769   2.443  12.127 -0.3047 -0.6176  0.4845
 8254SOL    HW236225   0.873   2.548  12.108 -0.1181  2.1341  0.2706
 8255SOL     OW36226   4.717   1.829   4.713 -0.3240 -0.1745  0.0154
 8255SOL    HW136227   4.635   1.863   4.679 -0.0169  0.9646  0.4223
 8255SOL    HW236228   0.061   1.900   4.705 -1.2552  0.3535 -2.8627
 8256SOL     OW36229   1.992   0.548   4.918  0.3014  0.2713 -0.1099
 8256SOL    HW136230   2.023   0.503   4.840 -1.4558  0.2225 -0.7844
 8256SOL    HW236231   1.951   0.472   4.959 -0.6461 -0.3926 -2.3166
 8257SOL     OW36232   2.393   0.189   3.683  0.7330  1.2601 -0.0915
 8257SOL    HW136233   2.312   0.238   3.690 -0.7844 -1.1179 -0.9614
 8257SOL    HW236234   2.454   0.216   3.752 -1.7993  1.9840  1.8560
 8258SOL     OW36235   2.121   0.220  11.225  0.7104 -0.2060 -0.1676
 8258SOL    HW136236   2.167   0.161  11.285  1.2940  0.1060 -0.3090
 8258SOL    HW236237   2.146   0.174  11.144  0.7606  0.9166 -0.7902
 8259SOL     OW36238   0.520   1.288   2.216 -0.1639 -0.1688  0.2500
 8259SOL    HW136239   0.438   1.248   2.248  0.2388 -1.0856  0.1273
 8259SOL    HW236240   0.524   1.247   2.130  0.3067  0.0545  0.1694
 8260SOL     OW36241   3.959   2.680  17.635 -0.4125 -0.2224  0.3237
 8260SOL    HW136242   3.973   2.758  17.582  2.6568 -1.9018 -1.3241
 8260SOL    HW236243   3.939   2.708   0.044  2.0526  1.9480  0.1822
 8261SOL     OW36244   2.922   1.983  15.658  0.5981 -0.1307  0.0093
 8261SOL    HW136245   2.886   2.030  15.583  1.5461  1.3412  0.4806
 8261SOL    HW236246   2.966   2.054  15.704 -0.4847  1.3943 -1.3351
 8262SOL     OW36247   4.645   2.649   3.101 -0.7622  0.0023 -0.4552
 8262SOL    HW136248   0.019   2.649   3.121 -0.6081  0.8057 -1.2124
 8262SOL    HW236249   4.616   2.719   3.159 -2.3305 -0.0067 -1.2284
 8263SOL     OW36250   2.360   0.025   7.549  0.0951  0.2175  0.0518
 8263SOL    HW136251   2.286   4.703   7.592  1.4313 -1.4673  0.7411
 8263SOL    HW236252   2.436   4.700   7.587  0.5673  0.8950 -0.0938
 8264SOL     OW36253   4.474   1.492   3.273 -0.3332  0.4049  0.1942
 8264SOL    HW136254   4.404   1.430   3.293  0.8606 -1.1211 -0.3854
 8264SOL    HW236255   4.467   1.506   3.179 -0.6146 -1.1267 -0.0166
 8265SOL     OW36256   4.197   3.865   4.387  0.6019  0.5446  0.7365
 8265SOL    HW136257   4.221   3.835   4.299  0.1726  1.9026  0.1603
 8265SOL    HW236258   4.179   3.959   4.380 -3.1557 -0.2045  0.2681
 8266SOL     OW36259   3.200   1.738  16.589  0.5095 -0.5376  0.0216
 8266SOL    HW136260   3.154   1.696  16.661  0.8804  0.4327  0.8271
 8266SOL    HW236261   3.167   1.827  16.594 -1.2193 -1.1554 -0.4181
 8267SOL     OW36262   2.944   4.132   4.036  0.0814 -0.3987  0.3840
 8267SOL    HW136263   2.880   4.182   3.986  0.8201  1.4077  1.2453
 8267SOL    HW236264   2.893   4.059   4.072 -0.2875  0.1586  0.9844
 8268SOL     OW36265   2.099   0.594  11.684  0.0406  0.4019 -0.3023
 8268SOL    HW136266   2.117   0.520  11.626  0.3424 -0.4852  0.9335
 8268SOL    HW236267   2.067   0.662  11.623  0.3236 -1.0650 -2.0905
 8269SOL     OW36268   3.272   2.487   8.480  0.1923 -0.2063  0.3047
 8269SOL    HW136269   3.264   2.489   8.576  0.8094  1.4219  0.3333
 8269SOL    HW236270   3.238   2.574   8.458  0.5856 -0.0950  0.1378
 8270SOL     OW36271   3.503   2.545   7.794 -0.2181  0.2875 -0.6012
 8270SOL    HW136272   3.578   2.500   7.755 -0.6440  0.8324 -2.0578
 8270SOL    HW236273   3.529   2.581   7.878 -1.6122 -1.1123  0.4443
 8271SOL     OW36274   3.297   2.648   6.010  0.0632  0.0142 -0.5295
 8271SOL    HW136275   3.375   2.617   5.964 -1.1050  0.3558 -2.7244
 8271SOL    HW236276   3.259   2.563   6.030  1.1297 -0.7934 -1.9290
 8272SOL     OW36277   3.338   3.857   5.928 -0.6116 -0.0330  0.1465
 8272SOL    HW136278   3.411   3.902   5.886 -0.8562 -0.2835 -0.5438
 8272SOL    HW236279   3.268   3.922   5.928 -2.7411 -2.3151  2.3361
 8273SOL     OW36280   1.522   1.536   9.303 -0.4652 -0.0783  0.3224
 8273SOL    HW136281   1.548   1.620   9.340 -0.5073 -1.5811  3.8448
 8273SOL    HW236282   1.436   1.556   9.268 -0.0528 -0.0611 -0.6843
 8274SOL     OW36283   2.921   2.322   3.566  0.0298  0.0932 -0.3505
 8274SOL    HW136284   2.934   2.238   3.523 -0.5303  0.3259 -0.9742
 8274SOL    HW236285   2.917   2.294   3.658 -0.1054  0.9390 -0.0944
 8275SOL     OW36286   2.383   3.571   7.717  0.0843 -0.5444  0.0619
 8275SOL    HW136287   2.310   3.604   7.769  0.3265 -1.6010  1.0682
 8275SOL    HW236288   2.389   3.487   7.762 -0.1962 -0.4008  0.3676
 8276SOL     OW36289   1.507   0.192  13.856  0.1913 -0.1410  0.0995
 8276SOL    HW136290   1.541   0.122  13.800  1.4314  0.7063 -0.2291
 8276SOL    HW236291   1.588   0.230  13.892 -1.1312  0.8488  2.0690
 8277SOL     OW36292   2.569   2.398  11.126  0.2640 -0.0458  0.0635
 8277SOL    HW136293   2.482   2.361  11.135  0.4731 -0.9022 -1.4508
 8277SOL    HW236294   2.561   2.425  11.034 -2.9185  1.3582  0.7547
 8278SOL     OW36295   1.863   2.270  17.339  0.0050 -0.3755 -0.5196
 8278SOL    HW136296   1.958   2.281  17.326 -0.0238  2.6967  1.8075
 8278SOL    HW236297   1.845   2.357  17.375  0.6410 -1.0498  1.4162
 8279SOL     OW36298   3.271   1.909   7.138 -0.0337  0.2085 -0.1415
 8279SOL    HW136299   3.350   1.903   7.192 -1.8213 -0.6957  2.3982
 8279SOL    HW236300   3.200   1.879   7.196  0.5985  1.8549  1.4892
 8280SOL     OW36301   2.337   4.075   3.386  0.2906  0.4003 -0.3341
 8280SOL    HW136302   2.294   4.137   3.326  0.2647  0.6804 -0.0256
 8280SOL    HW236303   2.376   4.021   3.317  0.3737  0.1238 -0.0668
 8281SOL     OW36304   0.263   0.288   4.403  0.2618  0.0414  0.1253
 8281SOL    HW136305   0.261   0.246   4.317 -0.2043  1.7402 -0.6901
 8281SOL    HW236306   0.189   0.248   4.449  1.4103 -3.9323 -1.5722
 8282SOL     OW36307   0.833   0.243   1.961 -0.2477 -0.1830  0.4366
 8282SOL    HW136308   0.758   0.186   1.977  0.0561 -0.4274  0.9857
 8282SOL    HW236309   0.800   0.332   1.977  1.8070  0.5604  0.5207
 8283SOL     OW36310   1.060   3.267  10.900 -0.3251 -0.0236  0.2689
 8283SOL    HW136311   1.039   3.307  10.984  1.7420 -0.3769  0.9546
 8283SOL    HW236312   1.043   3.335  10.834  0.4196  0.4971  0.6130
 8284SOL     OW36313   3.322   3.664   2.070 -0.1490  0.1125  0.3715
 8284SOL    HW136314   3.317   3.686   2.163  2.2305 -0.8782  0.7274
 8284SOL    HW236315   3.316   3.568   2.069 -0.1568  0.1063  0.7544
 8285SOL     OW36316   3.502   1.366  11.219  0.4474 -0.3239 -0.0777
 8285SOL    HW136317   3.545   1.285  11.244 -2.7227 -2.3071 -1.0465
 8285SOL    HW236318   3.482   1.351  11.126  0.7987 -1.7298  0.0718
 8286SOL     OW36319   3.320   2.247   8.390 -0.0723 -0.0167 -0.3978
 8286SOL    HW136320   3.298   2.262   8.298  1.2174  1.7932 -0.4235
 8286SOL    HW236321   3.314   2.341   8.409  1.2968  0.1054 -0.5868
 8287SOL     OW36322   3.071   1.537   6.924  0.0891  0.0420 -0.2850
 8287SOL    HW136323   3.104   1.460   6.969 -0.2804  1.3118  2.2077
 8287SOL    HW236324   2.990   1.550   6.975 -0.1905 -0.3709 -0.6282
 8288SOL     OW36325   0.595   0.027  16.697 -0.2303 -1.0064 -0.0560
 8288SOL    HW136326   0.530   4.690  16.654 -1.4053 -0.1879  0.6468
 8288SOL    HW236327   0.580   0.009  16.790  1.7183 -0.8244  0.2861
 8289SOL     OW36328   2.926   3.324   4.061 -0.3236 -0.4534  0.0545
 8289SOL    HW136329   2.987   3.252   4.041  0.3349 -0.0530  0.6214
 8289SOL    HW236330   2.900   3.332   3.970  1.0748  2.4546 -0.0652
 8290SOL     OW36331   2.759   2.408   4.003 -0.0072  0.2233  0.2534
 8290SOL    HW136332   2.695   2.383   3.936 -0.5483  1.8531  0.1545
 8290SOL    HW236333   2.741   2.349   4.076  0.5673 -0.8147 -0.4410
 8291SOL     OW36334   0.017   3.874   8.920  0.0924 -0.3932 -0.2217
 8291SOL    HW136335   4.703   3.962   8.903  0.7197 -0.2046 -0.4467
 8291SOL    HW236336   0.077   3.896   8.992  1.3563 -0.9440 -1.1192
 8292SOL     OW36337   1.278   0.400   5.420  0.2662  0.1346  0.2016
 8292SOL    HW136338   1.202   0.455   5.436 -0.3561 -0.7999  0.4265
 8292SOL    HW236339   1.258   0.320   5.469  3.7290 -0.3596  0.8512
 8293SOL     OW36340   4.268   2.212   4.066  0.5973 -0.3867 -0.2271
 8293SOL    HW136341   4.184   2.225   4.022  1.1947 -0.4813 -1.4217
 8293SOL    HW236342   4.257   2.135   4.121  2.1464 -1.6932 -1.7050
 8294SOL     OW36343   3.791   1.423  14.738  0.0915 -0.5365  0.2483
 8294SOL    HW136344   3.827   1.410  14.650  1.0144 -0.7543  0.6597
 8294SOL    HW236345   3.850   1.491  14.770  0.4856 -0.6675 -0.1965
 8295SOL     OW36346   4.128   0.692   8.080  0.2975 -0.1387 -0.4002
 8295SOL    HW136347   4.107   0.772   8.032  0.3285  1.2117  1.8689
 8295SOL    HW236348   4.043   0.663   8.113 -0.2472  1.8239 -0.1242
 8296SOL     OW36349   3.237   1.952  13.079 -0.1486  0.0993  0.4558
 8296SOL    HW136350   3.161   1.941  13.022  1.0476 -1.0875 -0.8870
 8296SOL    HW236351   3.221   2.032  13.130  0.0449  0.4729 -0.0734
 8297SOL     OW36352   2.660   1.910   5.915  0.0019  0.6161 -0.1055
 8297SOL    HW136353   2.744   1.870   5.891  0.9539  2.0418  0.7951
 8297SOL    HW236354   2.654   1.894   6.009 -2.7435  0.2385 -0.3578
 8298SOL     OW36355   0.758   2.244   1.940  0.3735 -0.2153 -0.0892
 8298SOL    HW136356   0.686   2.225   1.881  1.1741  0.0826 -1.1609
 8298SOL    HW236357   0.839   2.242   1.889  0.0886  2.0608 -0.6436
 8299SOL     OW36358   0.549   2.176   2.862 -0.2562 -0.0377  0.0407
 8299SOL    HW136359   0.584   2.116   2.928 -0.1055  0.3690  0.3358
 8299SOL    HW236360   0.565   2.260   2.905 -0.0122  0.2021 -0.5305
 8300SOL     OW36361   1.920   4.034   5.067  0.4519  0.0691 -0.2402
 8300SOL    HW136362   1.911   4.012   4.974 -0.1301  0.2756 -0.2337
 8300SOL    HW236363   1.830   4.023   5.099  1.0168 -0.9423  1.0091
 8301SOL     OW36364   3.094   4.000  10.539 -0.2198 -1.1324  0.0726
 8301SOL    HW136365   3.188   3.983  10.530 -0.6739 -2.5722 -2.0813
 8301SOL    HW236366   3.073   4.035  10.453  0.1613 -1.8361 -0.3094
 8302SOL     OW36367   3.442   2.596  14.721 -0.3213 -0.0278 -0.0317
 8302SOL    HW136368   3.433   2.538  14.796 -0.3788 -0.0044 -0.0203
 8302SOL    HW236369   3.433   2.544  14.641 -2.2478 -2.3574  1.7053
 8303SOL     OW36370   0.582   4.280   6.443 -0.3214 -0.3656 -0.0516
 8303SOL    HW136371   0.591   4.270   6.538 -0.1593 -0.6343 -0.0938
 8303SOL    HW236372   0.676   4.285   6.425 -0.4414 -0.8305 -0.8313
 8304SOL     OW36373   3.316   0.681   8.555 -0.2345  0.1542  0.2110
 8304SOL    HW136374   3.226   0.650   8.572 -0.4636  0.7833  0.1337
 8304SOL    HW236375   3.326   0.739   8.631 -1.3768 -0.3800  0.7786
 8305SOL     OW36376   3.406   4.004   8.789  0.2052  0.1303 -0.2195
 8305SOL    HW136377   3.334   4.033   8.733 -2.0802 -1.3951  1.9455
 8305SOL    HW236378   3.415   4.088   8.836 -0.5596  0.3910 -0.5452
 8306SOL     OW36379   1.639   0.487   4.253 -0.4804  0.0309  0.2924
 8306SOL    HW136380   1.715   0.519   4.204 -0.8771 -2.8248 -2.2023
 8306SOL    HW236381   1.575   0.555   4.231 -0.5643  0.0807  0.6970
 8307SOL     OW36382   2.297   3.030   9.775  0.7915 -0.9256 -0.3308
 8307SOL    HW136383   2.291   3.097   9.843  0.1373 -0.8859 -0.4328
 8307SOL    HW236384   2.379   2.983   9.793 -0.4331 -2.6521  0.7504
 8308SOL     OW36385   3.237   4.282   2.360 -0.6154 -0.3393  0.2701
 8308SOL    HW136386   3.224   4.240   2.275  2.6051  0.3044 -0.5369
 8308SOL    HW236387   3.319   4.326   2.340 -0.5554 -0.5894 -0.0358
 8309SOL     OW36388   1.003   3.484   8.110  0.8566 -0.3877  1.0604
 8309SOL    HW136389   0.914   3.464   8.082  1.2383 -1.4945  0.6545
 8309SOL    HW236390   1.055   3.404   8.102  0.6474 -0.5722  1.5134
 8310SOL     OW36391   4.178   4.364  11.278  0.1713 -0.0541 -0.1938
 8310SOL    HW136392   4.176   4.411  11.195  0.1904 -0.3936 -0.3851
 8310SOL    HW236393   4.161   4.440  11.335  0.3514 -0.2839  0.1647
 8311SOL     OW36394   0.768   2.703   1.571 -0.3173 -0.7534 -0.2266
 8311SOL    HW136395   0.736   2.644   1.638 -0.3419 -0.6113 -0.1123
 8311SOL    HW236396   0.723   2.664   1.496  2.2096  1.0991 -2.7654
 8312SOL     OW36397   3.496   0.387   7.459  0.1358 -0.1180  0.0801
 8312SOL    HW136398   3.455   0.448   7.520  1.9547 -1.0175  2.1916
 8312SOL    HW236399   3.559   0.448   7.421 -0.5548 -0.5508 -1.7631
 8313SOL     OW36400   1.314   2.198   5.126  0.1590  0.0525 -0.2407
 8313SOL    HW136401   1.220   2.213   5.136  0.6999  4.4116 -1.4302
 8313SOL    HW236402   1.354   2.232   5.206  1.8915 -4.3336  0.7278
 8314SOL     OW36403   2.137   4.186   5.053 -0.5463  0.5550  0.0017
 8314SOL    HW136404   2.169   4.191   5.144 -0.9318 -0.8895  0.2020
 8314SOL    HW236405   2.066   4.123   5.063 -0.3762  0.6951  2.2825
 8315SOL     OW36406   2.306   2.171  10.630 -0.3146 -0.1220  0.3468
 8315SOL    HW136407   2.277   2.250  10.676 -1.3641 -1.0860  1.3236
 8315SOL    HW236408   2.379   2.209  10.580 -0.3008  2.4183  2.2738
 8316SOL     OW36409   1.720   0.052  14.053 -0.6165  0.5396  0.0708
 8316SOL    HW136410   1.732   4.681  14.024  0.3328  0.6810  0.0176
 8316SOL    HW236411   1.647   0.041  14.113  0.9262 -1.0647  1.6526
 8317SOL     OW36412   3.682   3.601   4.458 -0.2645 -0.0230 -0.2351
 8317SOL    HW136413   3.661   3.634   4.370 -1.5690  0.4396  0.2605
 8317SOL    HW236414   3.731   3.672   4.500  0.0355  1.1606 -2.5398
 8318SOL     OW36415   2.659   0.253   2.722 -1.1593 -0.2534 -0.0289
 8318SOL    HW136416   2.680   0.324   2.660 -0.5535 -0.1032  0.3463
 8318SOL    HW236417   2.740   0.253   2.773 -0.5257  1.1398 -1.0418
 8319SOL     OW36418   3.273   2.384   7.832 -0.1230 -0.2302  0.1584
 8319SOL    HW136419   3.343   2.449   7.834  0.6487 -1.0704  0.3273
 8319SOL    HW236420   3.259   2.371   7.926  0.1521 -0.8146  0.1140
 8320SOL     OW36421   3.545   3.344   8.104 -0.1465 -0.6009 -0.3331
 8320SOL    HW136422   3.571   3.298   8.184 -0.4508 -0.1296  0.0391
 8320SOL    HW236423   3.466   3.380   8.143  1.1072  0.2713  1.3625
 8321SOL     OW36424   3.470   1.182   5.730 -0.5752  0.2282  0.3066
 8321SOL    HW136425   3.562   1.160   5.746 -1.2191 -0.5501  2.9427
 8321SOL    HW236426   3.489   1.274   5.710  1.3600 -0.3783 -0.6905
 8322SOL     OW36427   1.552   2.909   4.521 -0.8218  0.2941 -0.1644
 8322SOL    HW136428   1.587   2.912   4.432 -0.2226 -1.5708  0.0082
 8322SOL    HW236429   1.611   2.855   4.573 -0.3990  0.2039 -0.7309
 8323SOL     OW36430   1.200   0.580   3.348  0.3190 -0.2620 -0.0647
 8323SOL    HW136431   1.289   0.552   3.324  1.3724  1.3286  1.9736
 8323SOL    HW236432   1.154   0.496   3.351  1.5729 -0.9257  0.7218
 8324SOL     OW36433   1.809   3.687   6.070 -0.1268 -0.1354  0.2770
 8324SOL    HW136434   1.779   3.661   6.158  2.0176 -0.4199  0.9126
 8324SOL    HW236435   1.738   3.746   6.047 -1.3371 -0.9989  1.7372
 8325SOL     OW36436   4.145   2.345   4.665 -0.4362 -0.2257  0.0261
 8325SOL    HW136437   4.061   2.371   4.704 -0.2445 -1.0662  1.0057
 8325SOL    HW236438   4.111   2.275   4.609 -1.0577  2.0049 -2.3943
 8326SOL     OW36439   3.060   0.552   7.480  0.3941 -0.0703 -0.2903
 8326SOL    HW136440   3.118   0.477   7.495 -1.2144 -1.4987 -1.1291
 8326SOL    HW236441   3.061   0.593   7.567 -0.7342 -1.5863  0.4451
 8327SOL     OW36442   2.205   0.862   2.174 -0.1040  0.0031 -0.1475
 8327SOL    HW136443   2.199   0.941   2.229 -1.1962  1.1169 -1.8553
 8327SOL    HW236444   2.172   0.799   2.238 -0.6463  0.3300 -0.1051
 8328SOL     OW36445   2.362   3.745  10.082  0.2753 -0.5584  0.0964
 8328SOL    HW136446   2.435   3.752  10.143  0.8052 -1.1469 -0.4613
 8328SOL    HW236447   2.287   3.739  10.141  0.4697 -3.2521  0.0808
 8329SOL     OW36448   0.894   3.993   2.127  0.2521  0.7841 -0.6931
 8329SOL    HW136449   0.980   4.006   2.087  1.9131 -1.4240  2.1593
 8329SOL    HW236450   0.920   3.928   2.193 -2.7055  2.5912  2.2992
 8330SOL     OW36451   2.639   2.569  13.658  0.1608 -0.4808 -0.1997
 8330SOL    HW136452   2.701   2.642  13.667 -2.5818  1.4661  2.4828
 8330SOL    HW236453   2.583   2.582  13.734  0.7742 -2.9604  0.6560
 8331SOL     OW36454   4.358   2.473   7.627  0.0091 -0.1614 -0.2313
 8331SOL    HW136455   4.290   2.406   7.641 -0.0739  0.3451  1.7920
 8331SOL    HW236456   4.356   2.526   7.706  1.5967 -0.2989 -0.1168
 8332SOL     OW36457   1.313   0.203   1.948 -0.0458  0.0414  0.4042
 8332SOL    HW136458   1.227   0.163   1.941  0.1095 -0.0053 -1.1311
 8332SOL    HW236459   1.357   0.133   1.997 -0.1700  0.0396  0.5142
 8333SOL     OW36460   3.877   4.346   4.060  0.0680  0.3175 -0.7058
 8333SOL    HW136461   3.954   4.302   4.096 -1.4081 -2.2748 -0.7020
 8333SOL    HW236462   3.869   4.304   3.974 -0.7447  0.7730 -0.8518
 8334SOL     OW36463   1.588   1.813   4.133  0.0839  0.0471  0.4821
 8334SOL    HW136464   1.539   1.874   4.188 -0.1247 -0.3681  0.7527
 8334SOL    HW236465   1.510   1.773   4.093 -1.7849  4.7134 -0.4973
 8335SOL     OW36466   2.580   4.317   3.081 -0.3372  0.4503 -0.4650
 8335SOL    HW136467   2.607   4.353   2.997  0.2852  0.4612 -0.2586
 8335SOL    HW236468   2.590   4.222   3.075 -1.3263  0.5325 -3.2174
 8336SOL     OW36469   2.028   3.358   8.899  0.3323 -0.3594 -0.3110
 8336SOL    HW136470   2.057   3.449   8.913 -0.0072 -0.3302  0.1920
 8336SOL    HW236471   2.097   3.328   8.840 -0.8468  1.4686 -2.5969
 8337SOL     OW36472   1.001   3.165   3.280  0.0290  0.7124 -0.6947
 8337SOL    HW136473   1.021   3.253   3.248  2.1486  0.3355 -0.4631
 8337SOL    HW236474   0.908   3.170   3.299  0.0457  0.3038 -0.4863
 8338SOL     OW36475   2.632   1.689  10.013 -0.1508 -0.0292  0.0248
 8338SOL    HW136476   2.650   1.675   9.920 -2.1041  1.5002 -0.5657
 8338SOL    HW236477   2.548   1.735  10.012 -0.3869 -0.4650  0.1120
 8339SOL     OW36478   4.394   0.000   1.817  0.1534 -0.0875  0.1186
 8339SOL    HW136479   4.306   4.681   1.819 -0.3411  0.9112 -2.7157
 8339SOL    HW236480   4.383   0.061   1.891 -3.9192 -0.8428  0.1203
 8340SOL     OW36481   4.400   3.522  14.630  0.5137  0.7785 -0.3630
 8340SOL    HW136482   4.425   3.600  14.582  2.5682 -0.4322 -1.2545
 8340SOL    HW236483   4.454   3.537  14.708  1.5520  1.7609 -1.2868
 8341SOL     OW36484   2.561   3.655   5.348 -0.1903 -0.0835  0.1184
 8341SOL    HW136485   2.479   3.704   5.348  0.2697  0.6986 -2.1470
 8341SOL    HW236486   2.612   3.722   5.303  0.2998  0.4632  1.5043
 8342SOL     OW36487   0.904   0.202   4.928  0.4889 -0.1032  0.1540
 8342SOL    HW136488   0.982   0.147   4.937  0.1205 -0.6295  0.1183
 8342SOL    HW236489   0.849   0.179   5.003  0.3282 -2.7984 -0.8126
 8343SOL     OW36490   3.838   2.856  12.413  0.3311 -0.3887  0.2778
 8343SOL    HW136491   3.756   2.904  12.421  0.5647  0.2188 -0.9347
 8343SOL    HW236492   3.855   2.888  12.324 -1.5752 -0.0570  0.0339
 8344SOL     OW36493   4.642   3.917   2.460 -0.0344 -0.0969  0.4942
 8344SOL    HW136494   4.600   4.001   2.480 -1.6815 -0.5528 -1.0675
 8344SOL    HW236495   4.577   3.858   2.497 -0.2700 -0.1097  0.0675
 8345SOL     OW36496   3.124   3.766   1.905 -0.1624  0.0628 -0.4175
 8345SOL    HW136497   3.095   3.689   1.856  1.6911 -0.7760 -0.2001
 8345SOL    HW236498   3.206   3.739   1.946  0.2740 -1.6755 -2.4076
 8346SOL     OW36499   0.165   1.877   4.959 -0.3263  0.1276 -0.2157
 8346SOL    HW136500   0.250   1.885   5.002  0.4397 -1.9734 -1.3248
 8346SOL    HW236501   0.188   1.897   4.869 -1.2397  1.0828 -0.2393
 8347SOL     OW36502   3.188   1.500  15.437  0.2205  0.1530 -0.5157
 8347SOL    HW136503   3.236   1.532  15.360 -1.1585 -0.5202 -1.6487
 8347SOL    HW236504   3.115   1.562  15.430  1.2948  1.5181  0.2373
 8348SOL     OW36505   4.108   1.722  11.032 -0.5543 -0.0327 -0.3038
 8348SOL    HW136506   4.197   1.726  11.067 -0.8306  0.1059  0.3741
 8348SOL    HW236507   4.052   1.699  11.106 -1.0628  1.5165 -0.2016
 8349SOL     OW36508   0.408   3.931   0.298  0.1654 -0.3418 -0.0585
 8349SOL    HW136509   0.496   3.964   0.319 -0.4203 -0.5754  2.7720
 8349SOL    HW236510   0.429   3.838   0.294  3.0283  0.2932 -0.2413
 8350SOL     OW36511   3.076   4.428   2.541  0.2278 -0.2001 -0.2742
 8350SOL    HW136512   3.139   4.385   2.482 -2.1877 -0.8308 -2.3940
 8350SOL    HW236513   3.100   4.400   2.629 -0.2106  0.8882  0.1991
 8351SOL     OW36514   4.090   1.599   5.182  0.2467  0.0375  0.2216
 8351SOL    HW136515   4.160   1.655   5.150 -0.7858  0.7292 -0.8543
 8351SOL    HW236516   4.039   1.662   5.234  1.7948  1.7042 -0.2819
 8352SOL     OW36517   1.596   2.441  10.253 -0.1548  0.1478 -0.4582
 8352SOL    HW136518   1.660   2.418  10.320 -1.6733 -2.2615  0.1791
 8352SOL    HW236519   1.512   2.417  10.293  1.3761 -0.2038  2.4791
 8353SOL     OW36520   0.129   2.677   3.847  0.2195 -0.0178  0.0667
 8353SOL    HW136521   0.111   2.619   3.773  1.7630  3.0910 -2.7682
 8353SOL    HW236522   0.174   2.753   3.808 -0.9597 -0.9472 -3.0926
 8354SOL     OW36523   1.106   0.378   0.624  0.0379  1.1464  0.5886
 8354SOL    HW136524   1.144   0.292   0.642 -0.2740  1.0851  0.9650
 8354SOL    HW236525   1.017   0.343   0.628  1.1866 -1.5217  2.7202
 8355SOL     OW36526   0.491   3.848  16.342 -0.3696 -0.0346 -0.0850
 8355SOL    HW136527   0.494   3.861  16.248 -0.2535  2.3470  0.2455
 8355SOL    HW236528   0.544   3.921  16.375 -1.5226  0.0507  1.5953
 8356SOL     OW36529   3.413   3.112  13.891 -0.2569  0.0297  0.0716
 8356SOL    HW136530   3.448   3.197  13.914 -1.0900  0.5138 -0.4443
 8356SOL    HW236531   3.423   3.118  13.796 -0.1705 -1.5397 -0.0325
 8357SOL     OW36532   2.367   2.945   9.352  0.1558 -0.3666  0.2443
 8357SOL    HW136533   2.344   2.891   9.276 -0.0019 -1.9083  1.3897
 8357SOL    HW236534   2.443   2.898   9.386 -1.3661 -1.9441  1.4441
 8358SOL     OW36535   4.547   2.245   7.718  0.8008 -0.4387  0.1816
 8358SOL    HW136536   4.555   2.325   7.667  1.6000 -1.5595 -1.4651
 8358SOL    HW236537   4.614   2.259   7.784 -0.3739  0.3943  1.1950
 8359SOL     OW36538   4.705   4.464  16.942 -0.7120 -0.2190 -0.4377
 8359SOL    HW136539   0.080   4.463  16.925 -0.6841 -0.4494 -0.2822
 8359SOL    HW236540   4.676   4.540  16.892  2.1595  0.0142 -1.7632
 8360SOL     OW36541   3.706   4.125  12.084  0.1138  0.3100  0.2052
 8360SOL    HW136542   3.645   4.095  12.151 -0.8547 -0.3930 -0.9939
 8360SOL    HW236543   3.725   4.049  12.029  0.8371 -0.3778  1.4220
 8361SOL     OW36544   3.087   1.778  15.657 -0.2792 -0.1735  0.0352
 8361SOL    HW136545   3.102   1.770  15.563 -0.5632 -1.0753  0.0677
 8361SOL    HW236546   3.039   1.861  15.661 -0.9772 -0.6560  1.6049
 8362SOL     OW36547   3.687   3.099   4.680 -0.1635  0.1057  0.1940
 8362SOL    HW136548   3.609   3.048   4.657  0.6636  0.1763 -2.7789
 8362SOL    HW236549   3.748   3.027   4.662 -1.3373 -0.8342 -0.0349
 8363SOL     OW36550   2.111   2.872   8.871 -0.2911 -0.2291 -0.3316
 8363SOL    HW136551   2.162   2.865   8.790 -2.0651  1.3460 -1.5616
 8363SOL    HW236552   2.074   2.960   8.865 -0.3277 -0.1779  0.5652
 8364SOL     OW36553   3.835   4.583  12.415 -0.3321 -0.1661 -0.0706
 8364SOL    HW136554   3.920   4.546  12.393 -1.4328 -2.6936 -0.0371
 8364SOL    HW236555   3.828   4.570  12.510 -0.3688  1.0449  0.0949
 8365SOL     OW36556   1.591   0.077   5.530  0.5176 -0.0323 -0.9320
 8365SOL    HW136557   1.636   0.160   5.519  0.5103  0.1341  0.3024
 8365SOL    HW236558   1.641   0.032   5.462  1.0522  1.0810 -1.2722
 8366SOL     OW36559   0.360   1.303   6.422 -0.5645  0.4933 -0.5456
 8366SOL    HW136560   0.382   1.340   6.337  0.3934 -0.9789 -0.9396
 8366SOL    HW236561   0.410   1.221   6.417 -1.2506  0.2324 -2.7140
 8367SOL     OW36562   2.227   1.610   1.175 -0.3466  0.0776  0.2182
 8367SOL    HW136563   2.164   1.610   1.104 -0.3768  0.6057  0.2451
 8367SOL    HW236564   2.285   1.538   1.149  0.5265  0.2806  1.5595
 8368SOL     OW36565   1.858   3.298  10.312  0.4069 -0.3431  0.3500
 8368SOL    HW136566   1.795   3.229  10.332 -1.6692  2.1000  2.3339
 8368SOL    HW236567   1.842   3.324  10.221 -1.6976  1.4586  1.2230
 8369SOL     OW36568   2.819   1.454  13.064 -0.6622 -0.2492  0.4760
 8369SOL    HW136569   2.862   1.409  12.991 -1.7947 -0.5226 -0.0185
 8369SOL    HW236570   2.894   1.505  13.096 -1.9395  2.2201 -0.4397
 8370SOL     OW36571   1.789   2.896  17.266  0.1321  0.2247 -0.3568
 8370SOL    HW136572   1.870   2.864  17.307  1.0540  2.3438 -0.5610
 8370SOL    HW236573   1.738   2.816  17.253 -1.0215  0.6631  1.4091
 8371SOL     OW36574   3.408   2.224  11.965  0.0224  1.2041  0.5458
 8371SOL    HW136575   3.483   2.237  11.907 -2.1995  0.0605 -2.5608
 8371SOL    HW236576   3.362   2.307  11.959 -1.6268 -0.0273 -3.5540
 8372SOL     OW36577   3.410   1.027   4.044  0.0365  0.2387 -0.6417
 8372SOL    HW136578   3.465   0.988   4.112 -0.8130  0.1491 -0.0022
 8372SOL    HW236579   3.455   1.110   4.031 -2.2467  1.2485 -2.0890
 8373SOL     OW36580   4.458   0.753   1.779  0.4377  0.1658 -0.3935
 8373SOL    HW136581   4.500   0.835   1.804 -0.7137  1.0290 -1.2575
 8373SOL    HW236582   4.479   0.750   1.685 -3.3940  0.4058 -1.2606
 8374SOL     OW36583   2.014   0.849   4.838  0.3287  0.2780  0.1250
 8374SOL    HW136584   2.011   0.848   4.742 -1.5470 -0.4661  0.1987
 8374SOL    HW236585   2.085   0.788   4.857  2.2631  2.2316 -0.8516
 8375SOL     OW36586   3.001   3.158  15.791  0.1732  0.0265 -0.1046
 8375SOL    HW136587   2.967   3.090  15.733  1.6415 -0.2945 -0.6000
 8375SOL    HW236588   2.932   3.225  15.785 -0.7489 -1.0232 -1.3194
 8376SOL     OW36589   1.079   1.156  16.663 -0.2462 -0.4263 -0.4104
 8376SOL    HW136590   1.137   1.210  16.608 -1.1028 -1.4097 -2.2958
 8376SOL    HW236591   1.134   1.126  16.735 -1.2624 -2.3128 -0.4230
 8377SOL     OW36592   1.056   4.418   4.455 -0.4419 -0.3595 -0.4719
 8377SOL    HW136593   0.966   4.384   4.451 -1.0564  1.2903 -0.9151
 8377SOL    HW236594   1.052   4.509   4.483 -1.5307 -0.5333 -0.0489
 8378SOL     OW36595   2.164   1.004   3.065 -0.2070  0.2054  0.8178
 8378SOL    HW136596   2.085   1.050   3.094 -0.7534 -1.0112  1.2757
 8378SOL    HW236597   2.132   0.958   2.987 -0.4811 -0.3194  1.2441
 8379SOL     OW36598   1.268   1.027  17.665 -0.2683  0.2666 -0.4999
 8379SOL    HW136599   1.347   1.068  17.631  0.3472  1.6347  2.5420
 8379SOL    HW236600   1.299   0.936  17.676  1.4668  1.2824  3.2862
 8380SOL     OW36601   1.796   1.711   4.280 -0.2838  0.8035  0.1151
 8380SOL    HW136602   1.747   1.723   4.361 -0.9081 -2.0373  0.1681
 8380SOL    HW236603   1.732   1.753   4.223 -0.8879  0.5195  0.5915
 8381SOL     OW36604   2.114   3.974  13.415  0.0013  0.0498  0.6219
 8381SOL    HW136605   2.045   3.910  13.430  0.4426 -0.3648  0.8641
 8381SOL    HW236606   2.074   4.041  13.359  1.3128  0.8727  0.6739
 8382SOL     OW36607   1.902   2.962   6.690 -0.4864  0.3365 -0.4854
 8382SOL    HW136608   1.884   2.873   6.721  0.9136 -0.0857 -0.8895
 8382SOL    HW236609   1.820   2.986   6.647 -0.6785 -1.1419 -0.9585
 8383SOL     OW36610   1.688   4.601   1.076 -0.8935 -0.3381  0.3215
 8383SOL    HW136611   1.602   4.625   1.039 -0.2483  1.6341  0.0985
 8383SOL    HW236612   1.727   4.686   1.095 -1.0381 -0.1547 -0.1879
 8384SOL     OW36613   3.350   0.732   2.955  0.0342 -0.7332  0.0083
 8384SOL    HW136614   3.298   0.669   3.005 -1.5142 -0.8820 -1.8109
 8384SOL    HW236615   3.276   0.792   2.944  0.6800 -0.5113 -2.9413
 8385SOL     OW36616   1.638   3.307   4.063 -0.0506 -0.6161 -0.2066
 8385SOL    HW136617   1.570   3.285   4.127 -0.2571 -0.6829 -0.4479
 8385SOL    HW236618   1.627   3.228   4.010  0.3637  0.5404 -2.0201
 8386SOL     OW36619   3.351   3.872   6.538  0.4421  0.3645  0.2113
 8386SOL    HW136620   3.285   3.806   6.515  1.9087 -1.4168  1.2021
 8386SOL    HW236621   3.402   3.874   6.456  2.1803  1.6352  1.3206
 8387SOL     OW36622   1.053   2.407   6.907  0.0540 -0.5678 -0.1221
 8387SOL    HW136623   1.094   2.406   6.993  3.4603 -1.2638 -1.7279
 8387SOL    HW236624   0.976   2.460   6.927 -0.9182 -1.6573 -0.9695
 8388SOL     OW36625   0.815   1.854   4.688 -0.0263  0.3320  0.0150
 8388SOL    HW136626   0.769   1.790   4.743  1.2850  0.1544  0.8926
 8388SOL    HW236627   0.900   1.849   4.732  0.1220  1.8017 -0.1130
 8389SOL     OW36628   2.093   3.204  16.467 -0.2064 -0.0818  0.7448
 8389SOL    HW136629   2.129   3.143  16.532  1.2792 -1.5027 -1.3872
 8389SOL    HW236630   2.161   3.217  16.400 -0.0557  2.4508  1.3990
 8390SOL     OW36631   2.488   4.279   1.563 -0.2964 -0.3771  0.0707
 8390SOL    HW136632   2.493   4.363   1.609 -0.7008 -0.3015 -0.0242
 8390SOL    HW236633   2.432   4.302   1.488 -0.3853  1.9678  0.8572
 8391SOL     OW36634   1.455   0.038  10.943  0.0043  0.7991 -0.2695
 8391SOL    HW136635   1.395   0.048  10.869 -0.7429 -0.5989  0.1473
 8391SOL    HW236636   1.418   4.678  10.982  1.1000  0.2690 -0.3201
 8392SOL     OW36637   3.931   4.717   8.034  0.1114 -0.1360  0.3896
 8392SOL    HW136638   3.886   0.082   8.021 -0.2122  0.0182  2.5120
 8392SOL    HW236639   3.953   4.713   8.127 -0.9191  0.4966  0.6701
 8393SOL     OW36640   3.408   0.158  15.745  0.1547 -0.1148 -0.2470
 8393SOL    HW136641   3.496   0.148  15.780  0.3050  1.4418 -0.2100
 8393SOL    HW236642   3.387   0.248  15.770  0.4468 -0.3487  0.8517
 8394SOL     OW36643   4.063   2.880   7.924 -0.2446 -0.2757 -0.0070
 8394SOL    HW136644   4.033   2.818   7.991 -0.5629 -1.2311 -1.0428
 8394SOL    HW236645   4.034   2.843   7.841  1.1872  0.6334 -0.9068
 8395SOL     OW36646   0.005   2.586  15.471 -0.3333  0.1386  0.0335
 8395SOL    HW136647   0.006   2.603  15.377  0.5610 -2.8925 -0.4919
 8395SOL    HW236648   0.098   2.588  15.493 -0.8044  2.5703  1.8443
 8396SOL     OW36649   2.235   0.462   1.133  0.0316 -0.4465 -0.1701
 8396SOL    HW136650   2.251   0.527   1.065  0.1297  1.4326  1.6259
 8396SOL    HW236651   2.194   0.393   1.082  1.1808 -0.0202 -1.6530
 8397SOL     OW36652   2.080   0.429   4.094 -0.2046  0.1862 -0.8869
 8397SOL    HW136653   2.056   0.347   4.137 -2.3071  0.0056 -2.3976
 8397SOL    HW236654   2.053   0.427   4.002  0.3326  0.1336 -1.0458
 8398SOL     OW36655   2.863   1.833   8.554  0.0298  0.6618 -0.3013
 8398SOL    HW136656   2.812   1.913   8.565  1.2032  1.5670 -1.5000
 8398SOL    HW236657   2.862   1.821   8.459  3.1605 -0.0790 -0.2332
 8399SOL     OW36658   1.309   1.001   3.193  0.2439 -0.7551  0.0137
 8399SOL    HW136659   1.237   0.937   3.200  0.2600 -0.5254  2.1828
 8399SOL    HW236660   1.280   1.049   3.116 -0.3373 -0.3529  0.4789
 8400SOL     OW36661   3.043   0.271   8.220 -0.8280  0.9029 -0.1360
 8400SOL    HW136662   3.061   0.349   8.274  1.9705 -1.2896  2.0606
 8400SOL    HW236663   3.039   0.207   8.291  1.2226  1.8341  0.8323
 8401SOL     OW36664   2.849   2.128  17.425  0.2004 -0.4070 -0.2075
 8401SOL    HW136665   2.762   2.159  17.448 -0.4247 -1.0250 -1.7707
 8401SOL    HW236666   2.860   2.184  17.349  0.2245 -0.0556  0.0518
 8402SOL     OW36667   0.537   4.715   2.280  0.1328  0.2047 -0.1738
 8402SOL    HW136668   0.489   4.637   2.253  0.9323  0.2898 -1.8269
 8402SOL    HW236669   0.465   0.035   2.328  0.6657  0.4911  0.3896
 8403SOL     OW36670   1.941   1.815   5.422  0.4270 -0.6725  0.2142
 8403SOL    HW136671   1.868   1.810   5.483  0.9404  1.5980  1.0293
 8403SOL    HW236672   1.981   1.728   5.432 -1.9492 -1.5920  1.5759
 8404SOL     OW36673   0.306   3.632   2.460 -0.3734  0.0905  0.0633
 8404SOL    HW136674   0.349   3.595   2.383 -0.4428  0.8118 -0.3276
 8404SOL    HW236675   0.368   3.613   2.530  0.9863  0.6926 -0.9789
 8405SOL     OW36676   1.175   4.704   3.245  0.1651 -0.4090  0.0340
 8405SOL    HW136677   1.142   4.667   3.163  0.4915  2.1350 -1.2779
 8405SOL    HW236678   1.095   4.704   3.296  0.5249 -0.4907  0.6017
 8406SOL     OW36679   2.633   3.159  14.747 -0.2630 -0.5364 -0.3444
 8406SOL    HW136680   2.544   3.126  14.758  0.8603 -3.7343 -0.8622
 8406SOL    HW236681   2.619   3.254  14.744 -1.9169 -0.7767  0.0866
 8407SOL     OW36682   1.448   3.930   7.122 -0.2230  0.4587 -0.2857
 8407SOL    HW136683   1.358   3.898   7.125 -0.2652  0.6078 -0.0579
 8407SOL    HW236684   1.461   3.947   7.028 -3.0641  0.0793 -0.7464
 8408SOL     OW36685   0.093   0.268   3.914  0.3799 -0.2710  0.0254
 8408SOL    HW136686   0.103   0.295   3.823 -0.5209  0.5903  0.1827
 8408SOL    HW236687   4.718   0.283   3.921  0.4142 -0.5764  1.2337
 8409SOL     OW36688   2.351   1.103   6.142  0.3259  0.7455  0.4664
 8409SOL    HW136689   2.298   1.098   6.222 -3.9310  0.3819 -2.4185
 8409SOL    HW236690   2.436   1.123   6.182  0.0857  1.4722  0.6251
 8410SOL     OW36691   0.085   0.860   7.804  0.2980  0.0024 -0.5758
 8410SOL    HW136692   0.050   0.854   7.893 -0.2630 -0.0274 -0.8005
 8410SOL    HW236693   0.165   0.808   7.806 -0.3520 -1.0291 -1.2932
 8411SOL     OW36694   2.646   3.969  11.362  0.4324  0.1060  0.0419
 8411SOL    HW136695   2.712   3.927  11.307 -0.8962 -0.4928 -1.1136
 8411SOL    HW236696   2.629   3.892  11.417 -0.0710  0.5291  0.4799
 8412SOL     OW36697   4.037   3.389   5.442  0.4011  0.2554 -0.3182
 8412SOL    HW136698   4.028   3.468   5.388  0.7975 -0.3185 -1.2165
 8412SOL    HW236699   4.049   3.432   5.527  1.2496  1.0719 -0.8336
 8413SOL     OW36700   3.470   2.073   2.978  0.3278 -0.1447  0.4844
 8413SOL    HW136701   3.456   2.109   2.891 -2.7236 -1.6149  0.3824
 8413SOL    HW236702   3.517   2.149   3.014  0.9817 -0.3840  0.1375
 8414SOL     OW36703   1.949   0.055   3.216 -0.6112  0.7469 -0.1944
 8414SOL    HW136704   1.977   4.710   3.281 -0.5075 -2.5413 -3.5543
 8414SOL    HW236705   1.854   0.056   3.218 -0.5954  2.0003 -0.1610
 8415SOL     OW36706   0.676   3.900   6.934  0.9029  0.4517  0.0029
 8415SOL    HW136707   0.695   3.894   6.840 -0.2399  0.3190 -0.2253
 8415SOL    HW236708   0.714   3.816   6.957  1.5152  0.6775 -0.2004
 8416SOL     OW36709   2.553   4.491  11.011 -0.2053  0.0654  0.6277
 8416SOL    HW136710   2.515   4.404  11.019 -1.2107  0.1607 -2.9025
 8416SOL    HW236711   2.505   4.529  10.937 -2.8807 -5.2730 -0.3305
 8417SOL     OW36712   0.301   2.653   6.376 -0.4945 -0.5899 -1.0884
 8417SOL    HW136713   0.350   2.665   6.294 -0.4414 -1.4416 -1.1813
 8417SOL    HW236714   0.265   2.566   6.358 -0.0893 -1.2149  1.1393
 8418SOL     OW36715   3.775   4.094  11.188 -0.6449  0.1736  0.4939
 8418SOL    HW136716   3.867   4.113  11.211  0.0594  1.8371 -3.7696
 8418SOL    HW236717   3.774   4.017  11.132  1.7709 -0.5359  1.4012
 8419SOL     OW36718   2.007   3.999   4.128  0.4231  0.0503  0.2717
 8419SOL    HW136719   1.991   4.014   4.035  1.1281  1.2249  0.3302
 8419SOL    HW236720   1.935   3.939   4.146 -0.3866  0.7527 -0.6084
 8420SOL     OW36721   2.529   0.892   4.838 -0.6070  0.8625 -0.4682
 8420SOL    HW136722   2.576   0.824   4.886  1.9479  2.8436 -0.1632
 8420SOL    HW236723   2.450   0.881   4.890  0.0818 -1.0589  0.1860
 8421SOL     OW36724   1.648   3.943  11.313 -0.0831  0.8188  0.2395
 8421SOL    HW136725   1.568   3.951  11.365 -0.1757 -0.6925  0.3242
 8421SOL    HW236726   1.660   3.850  11.329  0.0496  1.0510  1.4550
 8422SOL     OW36727   3.758   4.397   2.234  0.2846 -0.0796 -0.2141
 8422SOL    HW136728   3.839   4.346   2.231 -0.5206 -1.4159  0.5280
 8422SOL    HW236729   3.785   4.487   2.216 -0.0652  0.2723  0.9772
 8423SOL     OW36730   2.987   0.216   5.119  0.3035  0.1527  0.6909
 8423SOL    HW136731   2.949   0.275   5.054  0.4793 -1.9099 -1.2920
 8423SOL    HW236732   2.911   0.187   5.169 -0.4819 -0.5283 -0.9211
 8424SOL     OW36733   3.926   0.439   1.465 -0.0175 -0.0797  0.3416
 8424SOL    HW136734   3.835   0.411   1.467 -0.5005  1.3058 -2.8048
 8424SOL    HW236735   3.933   0.490   1.384  0.2236  0.0986  0.4724
 8425SOL     OW36736   2.532   2.295  16.419 -0.2230 -0.1282  0.4685
 8425SOL    HW136737   2.502   2.305  16.509  0.6224  0.2661  0.6996
 8425SOL    HW236738   2.450   2.302  16.370 -0.1305 -2.4725 -0.0512
 8426SOL     OW36739   2.657   2.224  15.712  0.1864  0.1321 -0.4666
 8426SOL    HW136740   2.606   2.280  15.770  1.1432  0.3382  0.1764
 8426SOL    HW236741   2.740   2.218  15.759 -0.9707 -2.4128  1.2698
 8427SOL     OW36742   1.737   1.726   7.677  0.2376 -0.3230  0.1602
 8427SOL    HW136743   1.800   1.718   7.748  0.4339  3.6842  0.3956
 8427SOL    HW236744   1.676   1.783   7.723 -0.4929 -1.6150  0.7959
 8428SOL     OW36745   2.933   0.677   9.781 -0.1913 -0.3219 -0.8303
 8428SOL    HW136746   2.934   0.742   9.852  1.3368 -1.6071  0.3404
 8428SOL    HW236747   3.006   0.712   9.731  0.1872 -0.6445 -0.5061
 8429SOL     OW36748   1.900   1.771   3.558 -0.5412  0.1838 -0.1113
 8429SOL    HW136749   1.805   1.766   3.552 -0.4969 -0.2857 -0.3517
 8429SOL    HW236750   1.929   1.695   3.509  0.1941 -0.4390  1.2922
 8430SOL     OW36751   3.248   3.094   1.105 -0.0545  0.7759  0.1727
 8430SOL    HW136752   3.256   3.026   1.171  0.1337  1.9394  1.3422
 8430SOL    HW236753   3.341   3.116   1.112 -0.1365  0.6766  1.5140
 8431SOL     OW36754   1.585   2.624  15.222 -0.1123 -0.4690  0.0640
 8431SOL    HW136755   1.493   2.649  15.218  0.2375  0.7226 -0.3528
 8431SOL    HW236756   1.616   2.687  15.287 -0.9241  0.5113 -0.5016
 8432SOL     OW36757   4.051   3.281   0.250  0.4590  0.0022  0.0041
 8432SOL    HW136758   4.013   3.229   0.321  0.7171  2.1517  1.7016
 8432SOL    HW236759   4.141   3.247   0.242  0.6075  0.3025  0.3928
 8433SOL     OW36760   4.603   0.781   3.522  0.2294  0.4508 -0.3792
 8433SOL    HW136761   4.545   0.708   3.542  1.5591  0.7754  4.5350
 8433SOL    HW236762   4.553   0.861   3.534  0.8964  0.7694  0.2781
 8434SOL     OW36763   2.660   3.980   7.657 -0.0374  0.3236  0.4921
 8434SOL    HW136764   2.747   3.964   7.620  1.2416  2.6088  2.5192
 8434SOL    HW236765   2.605   3.935   7.593 -0.3138  0.5400  0.5766
 8435SOL     OW36766   2.328   0.174  12.233  0.2413  0.0935 -0.2452
 8435SOL    HW136767   2.407   0.143  12.278  0.5277 -0.3316 -1.0296
 8435SOL    HW236768   2.299   0.101  12.178  0.3632  0.4992 -0.8447
 8436SOL     OW36769   3.098   2.065   8.810  0.4276  0.0756 -0.1535
 8436SOL    HW136770   3.102   2.153   8.773 -0.9121  1.5334  3.1532
 8436SOL    HW236771   3.071   2.082   8.900  2.1240 -1.1721  0.5930
 8437SOL     OW36772   3.638   3.849  17.399  0.2473 -0.1673  0.1267
 8437SOL    HW136773   3.683   3.933  17.411 -1.1722  0.6110  0.0432
 8437SOL    HW236774   3.594   3.858  17.315 -1.5244 -0.8625  0.9784
 8438SOL     OW36775   2.589   4.470   7.023 -0.3085 -0.0958  0.0469
 8438SOL    HW136776   2.538   4.394   6.995 -0.7993  0.6094 -1.0071
 8438SOL    HW236777   2.514   4.516   7.061  0.5079  0.3865  1.0666
 8439SOL     OW36778   0.275   1.317   5.183 -0.4142  0.2721  0.1271
 8439SOL    HW136779   0.286   1.392   5.126  0.2211  1.2968  1.5852
 8439SOL    HW236780   0.190   1.336   5.223  0.6257  0.0181  2.4802
 8440SOL     OW36781   2.397   2.606   3.995  0.1645  0.2404 -0.3123
 8440SOL    HW136782   2.457   2.646   4.058 -1.5398  2.1664  0.0862
 8440SOL    HW236783   2.347   2.674   3.951 -0.0644  0.0379 -0.3651
 8441SOL     OW36784   2.208   0.107  10.252 -0.0836  0.5254  0.2283
 8441SOL    HW136785   2.226   0.015  10.269  0.5385  0.9131  1.6405
 8441SOL    HW236786   2.112   0.101  10.259 -0.1873  0.4523 -1.2303
 8442SOL     OW36787   1.480   3.134   7.516  0.0662  0.5540  0.6284
 8442SOL    HW136788   1.571   3.107   7.519 -0.4143 -1.2587 -0.6909
 8442SOL    HW236789   1.482   3.214   7.567 -1.2056  0.9110  0.1191
 8443SOL     OW36790   3.583   4.290   0.910  0.1608 -0.4277 -0.1410
 8443SOL    HW136791   3.532   4.240   0.846 -1.9660  0.3146  0.9833
 8443SOL    HW236792   3.511   4.352   0.924 -1.0018 -1.5591 -1.0293
 8444SOL     OW36793   1.290   4.282   3.906 -0.5992  0.5011 -0.1745
 8444SOL    HW136794   1.251   4.197   3.927  1.9978 -0.6464  0.0232
 8444SOL    HW236795   1.345   4.302   3.982 -0.2430 -0.5185 -0.1612
 8445SOL     OW36796   3.813   3.812  11.071 -0.1656  0.4614  0.4177
 8445SOL    HW136797   3.749   3.772  11.129  0.2031 -0.8601 -0.1009
 8445SOL    HW236798   3.836   3.732  11.024 -2.9606 -0.2685  0.2693
 8446SOL     OW36799   1.381   2.741   4.393 -0.8044  0.1157 -0.1159
 8446SOL    HW136800   1.301   2.776   4.433 -2.0545 -2.1330 -0.6257
 8446SOL    HW236801   1.457   2.788   4.426  0.5572 -1.9394 -0.3493
 8447SOL     OW36802   0.449   0.469   7.928 -0.0294  0.0896  0.3617
 8447SOL    HW136803   0.540   0.460   7.899 -0.0781  1.8352 -0.3572
 8447SOL    HW236804   0.426   0.379   7.952  2.5291 -0.2155  1.7369
 8448SOL     OW36805   3.775   3.552   4.220 -0.5218  0.2717 -0.8421
 8448SOL    HW136806   3.752   3.462   4.195 -2.0861  0.9126 -1.7165
 8448SOL    HW236807   3.795   3.540   4.313  0.9115 -2.0510 -1.4514
 8449SOL     OW36808   2.409   0.724   7.881  0.6425 -0.6882 -0.3303
 8449SOL    HW136809   2.332   0.747   7.933  1.7385  2.6615 -0.1248
 8449SOL    HW236810   2.480   0.774   7.921 -0.0812  0.4147 -0.4136
 8450SOL     OW36811   1.340   1.682   2.044 -0.4459 -0.2267  0.6291
 8450SOL    HW136812   1.402   1.609   2.044 -0.7057 -0.4478  0.9163
 8450SOL    HW236813   1.270   1.630   2.084  1.3327 -2.5964  0.6408
 8451SOL     OW36814   1.038   4.568   2.434  0.1040  0.2606  0.4917
 8451SOL    HW136815   1.096   4.621   2.488 -1.8615  2.3463  0.5439
 8451SOL    HW236816   1.012   4.622   2.359  1.6828  0.9943  0.4813
 8452SOL     OW36817   0.726   2.417   9.104 -0.3237  0.2428  0.0655
 8452SOL    HW136818   0.798   2.356   9.093 -1.3582 -0.4978 -2.6289
 8452SOL    HW236819   0.717   2.448   9.014  1.3682 -0.9808 -0.5157
 8453SOL     OW36820   4.299   1.818   8.027 -0.4553  0.0437 -0.2146
 8453SOL    HW136821   4.357   1.892   8.042  1.9371 -1.3273 -2.5022
 8453SOL    HW236822   4.362   1.747   8.013  1.4097  1.8561 -0.9969
 8454SOL     OW36823   4.165   3.925   5.920  0.3420 -0.1403  0.2383
 8454SOL    HW136824   4.201   4.014   5.919 -2.5018  1.0066 -1.1325
 8454SOL    HW236825   4.209   3.891   5.998  0.2695  1.5391  1.0151
 8455SOL     OW36826   0.734   3.004   1.148  0.0719 -0.3544  0.2934
 8455SOL    HW136827   0.819   2.963   1.163 -0.5239 -2.1403 -1.2457
 8455SOL    HW236828   0.763   3.054   1.072  0.0861  0.5486  0.9026
 8456SOL     OW36829   0.760   4.379   7.861 -0.2421 -0.0308  0.5236
 8456SOL    HW136830   0.828   4.432   7.904 -0.3992 -0.8909  1.8190
 8456SOL    HW236831   0.770   4.300   7.913 -0.5440 -1.6241 -1.8474
 8457SOL     OW36832   1.192   2.791   3.806 -0.2344 -0.0224 -0.2754
 8457SOL    HW136833   1.182   2.814   3.714 -0.4741 -2.5129 -0.8493
 8457SOL    HW236834   1.233   2.705   3.795 -0.4693  0.0407 -1.6175
 8458SOL     OW36835   2.678   2.943   4.992 -0.2160 -0.4529 -0.2891
 8458SOL    HW136836   2.591   2.967   4.960  0.0777  1.2504  0.1931
 8458SOL    HW236837   2.685   2.992   5.074  0.9166  2.1412 -1.9165
 8459SOL     OW36838   1.859   0.326  11.191 -0.2306 -0.6515 -0.2088
 8459SOL    HW136839   1.932   0.265  11.198  0.2524 -0.1068 -0.4486
 8459SOL    HW236840   1.785   0.274  11.160  1.4795 -3.1905  0.0114
 8460SOL     OW36841   0.463   3.358   3.834  0.1670  0.0543 -0.2100
 8460SOL    HW136842   0.513   3.294   3.885 -2.2576 -1.1244  0.7065
 8460SOL    HW236843   0.516   3.436   3.847 -1.4630  1.1692 -0.2557
 8461SOL     OW36844   2.202   2.857   5.962 -0.1937  0.2552  0.2260
 8461SOL    HW136845   2.211   2.784   5.901 -0.3630  0.5828 -0.1873
 8461SOL    HW236846   2.112   2.881   5.943 -0.5560 -1.8575 -0.6905
 8462SOL     OW36847   0.589   3.300   4.266 -0.2653 -0.3116 -0.0436
 8462SOL    HW136848   0.598   3.318   4.172 -0.8070 -0.5986 -0.1539
 8462SOL    HW236849   0.638   3.218   4.267 -0.4775 -0.4340  0.4776
 8463SOL     OW36850   3.410   1.943   1.809  0.2373  0.0532  0.1479
 8463SOL    HW136851   3.371   2.027   1.785  0.9111  0.3386  0.0471
 8463SOL    HW236852   3.505   1.953   1.799  0.3577 -1.9411 -0.7467
 8464SOL     OW36853   3.402   3.329  16.033 -0.1310 -0.2431  0.0598
 8464SOL    HW136854   3.363   3.284  15.958 -0.5345 -0.6286  0.5046
 8464SOL    HW236855   3.388   3.259  16.097  1.1628  1.2534  1.9645
 8465SOL     OW36856   1.840   3.641  11.570 -0.0164  0.2392 -0.1523
 8465SOL    HW136857   1.893   3.561  11.570  0.3142  0.4586 -2.7416
 8465SOL    HW236858   1.870   3.682  11.652 -2.7540 -0.4576  1.1842
 8466SOL     OW36859   2.475   0.373   7.130  0.4560  0.0427 -0.8683
 8466SOL    HW136860   2.470   0.282   7.101 -2.7930  0.1379 -0.5802
 8466SOL    HW236861   2.472   0.350   7.222 -1.9683 -2.5650 -1.6202
 8467SOL     OW36862   0.645   0.627   2.754 -0.0049 -0.5720 -0.3581
 8467SOL    HW136863   0.579   0.667   2.811  0.8100 -0.3124  0.4163
 8467SOL    HW236864   0.714   0.693   2.767  1.3077 -1.9300 -0.4102
 8468SOL     OW36865   0.470   0.686   2.508  0.3246  0.1169  0.3271
 8468SOL    HW136866   0.541   0.663   2.567  0.6386  1.0651  0.3274
 8468SOL    HW236867   0.470   0.619   2.440  0.0800 -0.4711  0.9088
 8469SOL     OW36868   0.751   2.578  11.314 -0.2581 -0.5821 -0.1638
 8469SOL    HW136869   0.758   2.648  11.378  0.2757 -1.6119  0.8889
 8469SOL    HW236870   0.780   2.507  11.371  0.9808 -0.5760 -0.7904
 8470SOL     OW36871   2.406   4.476   8.891 -0.1671  0.4094  0.3772
 8470SOL    HW136872   2.501   4.460   8.895 -0.3149 -0.4241  0.4615
 8470SOL    HW236873   2.398   4.557   8.840  1.1835 -0.0088 -0.5004
 8471SOL     OW36874   3.015   0.696   5.250  0.2819  0.1976 -0.0727
 8471SOL    HW136875   3.025   0.789   5.230 -2.8795  0.1856 -1.7646
 8471SOL    HW236876   2.922   0.693   5.272  0.1654  0.6195 -0.5040
 8472SOL     OW36877   2.839   2.041  13.101  0.5236  0.0526  0.6296
 8472SOL    HW136878   2.765   2.084  13.145 -0.1955 -1.8122  1.2576
 8472SOL    HW236879   2.849   2.119  13.047 -0.1865  0.9919  1.8522
 8473SOL     OW36880   4.107   1.964  11.783  0.0622 -0.0793  0.0226
 8473SOL    HW136881   4.130   1.877  11.751 -0.4719  0.1657 -1.0019
 8473SOL    HW236882   4.125   1.949  11.876  0.5553 -1.6883 -0.3369
 8474SOL     OW36883   2.275   0.273   4.341  0.1502  0.2797 -0.1604
 8474SOL    HW136884   2.347   0.210   4.331  0.1084  0.4128 -1.3227
 8474SOL    HW236885   2.205   0.225   4.296 -0.2127  0.5558  0.1143
 8475SOL     OW36886   4.232   0.287  16.260  0.2494 -0.0850 -0.5451
 8475SOL    HW136887   4.218   0.199  16.295 -0.0970  0.4690  0.7035
 8475SOL    HW236888   4.321   0.275  16.227  0.1922  0.1343 -0.7798
 8476SOL     OW36889   2.072   0.703   2.361  0.6032  0.1822 -0.1209
 8476SOL    HW136890   2.031   0.629   2.316 -0.3647  0.0408  0.9809
 8476SOL    HW236891   2.086   0.672   2.451 -1.3942 -1.2236 -0.2992
 8477SOL     OW36892   4.701   2.092   3.498 -0.5770 -0.0948 -0.1771
 8477SOL    HW136893   4.662   2.126   3.418  0.2745  1.8815  0.2591
 8477SOL    HW236894   0.072   2.105   3.469 -0.1115 -0.1018  1.2878
 8478SOL     OW36895   1.959   0.065  10.413 -0.1129 -0.3398 -0.3833
 8478SOL    HW136896   2.002   0.042  10.496  1.0828  1.9613 -0.3774
 8478SOL    HW236897   1.911   0.143  10.438 -1.2684 -1.2093  0.1342
 8479SOL     OW36898   2.099   0.598   9.783 -0.4501  0.5616  0.2001
 8479SOL    HW136899   2.099   0.513   9.741 -1.3207  2.1169 -2.9344
 8479SOL    HW236900   2.172   0.598   9.845 -0.0782  1.3648 -0.2377
 8480SOL     OW36901   1.831   1.411  10.598 -0.4769  0.1174  0.4112
 8480SOL    HW136902   1.896   1.478  10.577 -0.7045  1.1157  2.9032
 8480SOL    HW236903   1.825   1.421  10.693 -3.8046 -0.2849  0.2476
 8481SOL     OW36904   1.155   1.169   5.005 -0.5836 -0.4526  0.1707
 8481SOL    HW136905   1.199   1.125   5.077  1.2280 -0.1331 -0.7423
 8481SOL    HW236906   1.226   1.206   4.952 -0.9022  0.6511  0.5122
 8482SOL     OW36907   3.440   3.627   1.732 -0.1216 -0.5970 -0.4496
 8482SOL    HW136908   3.373   3.696   1.730  0.7869  0.3340  0.6929
 8482SOL    HW236909   3.449   3.604   1.640 -1.8829 -0.0123 -0.7684
 8483SOL     OW36910   2.732   3.799   0.239 -0.0365 -0.1187 -0.2007
 8483SOL    HW136911   2.704   3.790   0.330  0.4802 -1.7714 -0.2122
 8483SOL    HW236912   2.759   3.890   0.230 -0.3091 -0.3237 -3.2896
 8484SOL     OW36913   1.116   0.667   0.547  0.0440 -0.1775  0.4646
 8484SOL    HW136914   1.155   0.582   0.567 -1.1675 -0.6974  0.6221
 8484SOL    HW236915   1.058   0.647   0.473 -0.9122 -1.3062  1.5191
 8485SOL     OW36916   4.615   4.634   9.251  0.0960  0.0344 -0.2021
 8485SOL    HW136917   4.582   4.651   9.163  1.7146 -0.8929 -0.9849
 8485SOL    HW236918   4.543   4.653   9.312  0.9432 -1.9910  1.4452
 8486SOL     OW36919   0.675   3.960  11.044  0.0701  0.1894 -0.8258
 8486SOL    HW136920   0.624   3.937  11.121  1.9929 -0.6735  0.1742
 8486SOL    HW236921   0.661   4.055  11.048 -1.1841 -0.0570  0.6543
 8487SOL     OW36922   1.870   1.513   7.301 -0.1792 -0.1491 -0.0196
 8487SOL    HW136923   1.826   1.430   7.283  0.6981 -0.6149 -0.0096
 8487SOL    HW236924   1.960   1.483   7.291 -0.0084 -0.0092  1.0968
 8488SOL     OW36925   2.432   2.959  14.771 -0.1506  0.2404  0.0526
 8488SOL    HW136926   2.363   2.950  14.706  0.0386  2.0968 -0.3928
 8488SOL    HW236927   2.382   2.949  14.852 -0.6904  3.9987  0.1621
 8489SOL     OW36928   2.056   3.407   8.119 -0.4499 -0.0535  0.1940
 8489SOL    HW136929   2.112   3.394   8.196 -0.3106 -0.6281 -0.0044
 8489SOL    HW236930   1.994   3.472   8.151  0.2217 -0.4055  2.2101
 8490SOL     OW36931   2.006   1.318   7.980  0.4046 -0.3992  0.1826
 8490SOL    HW136932   1.991   1.268   8.060 -1.1835  1.0919  0.8415
 8490SOL    HW236933   2.001   1.410   8.007  0.5819 -0.3212 -0.0488
 8491SOL     OW36934   1.419   2.832   3.330  0.7867 -0.0155 -0.2578
 8491SOL    HW136935   1.460   2.872   3.407  0.6368  1.9987 -1.2295
 8491SOL    HW236936   1.353   2.901   3.319  0.1970 -0.6341 -0.6046
 8492SOL     OW36937   2.161   0.098   7.250  0.3304  0.0914 -0.1400
 8492SOL    HW136938   2.147   0.004   7.264 -2.4048  0.5465  0.0672
 8492SOL    HW236939   2.181   0.096   7.157  4.1651 -0.7340  0.7042
 8493SOL     OW36940   0.282   2.560  15.266 -1.0409  0.0218  0.5610
 8493SOL    HW136941   0.305   2.652  15.272  1.2518 -0.3456 -2.4621
 8493SOL    HW236942   0.219   2.552  15.194  2.1556 -0.4573 -2.1988
 8494SOL     OW36943   2.160   2.805   8.094 -0.0672 -0.5720 -0.1356
 8494SOL    HW136944   2.158   2.845   8.181  2.2524  0.5600 -0.6008
 8494SOL    HW236945   2.131   2.864   8.025  0.1630  0.5179  0.7023
 8495SOL     OW36946   4.510   0.032   4.855 -0.4764 -0.4812 -0.2875
 8495SOL    HW136947   4.499   4.676   4.913  2.3786  0.2638  1.2465
 8495SOL    HW236948   4.437   0.085   4.888 -0.0591  0.4478 -0.8631
 8496SOL     OW36949   0.169   0.271   6.613 -0.2672  0.1480  0.5570
 8496SOL    HW136950   0.145   0.189   6.568 -0.2874 -1.2381  3.0744
 8496SOL    HW236951   0.218   0.235   6.687  0.7518  1.6147  0.5751
 8497SOL     OW36952   3.577   1.339  14.078 -0.4730  0.0989  0.3849
 8497SOL    HW136953   3.658   1.379  14.110 -0.6588 -0.1305  1.1284
 8497SOL    HW236954   3.553   1.419  14.030  3.0554  1.1306  0.3104
 8498SOL     OW36955   3.815   1.784   8.950 -0.5315  0.3468 -0.3681
 8498SOL    HW136956   3.753   1.762   8.880 -0.6146  0.0430 -0.2022
 8498SOL    HW236957   3.753   1.783   9.023  1.4445 -0.8163  1.2956
 8499SOL     OW36958   2.692   2.301   1.713  0.4359  0.1882  0.1889
 8499SOL    HW136959   2.649   2.218   1.731  2.2372 -0.9234 -0.6111
 8499SOL    HW236960   2.771   2.268   1.669 -0.7191 -0.0407 -1.7164
 8500SOL     OW36961   3.706   4.102   5.753  0.5341  0.2582 -0.3815
 8500SOL    HW136962   3.741   4.073   5.837  1.5743  0.1096 -0.8628
 8500SOL    HW236963   3.793   4.119   5.717  0.5588 -1.1256 -0.9746
 8501SOL     OW36964   4.101   0.093   5.956  0.1776 -0.0004 -0.1868
 8501SOL    HW136965   4.095   0.186   5.936 -1.1702 -0.0351  0.0541
 8501SOL    HW236966   4.127   0.095   6.048  1.4929  0.3332 -0.5600
 8502SOL     OW36967   4.272   0.303   8.973  0.4113  0.0136  0.4102
 8502SOL    HW136968   4.301   0.266   8.889 -0.4333  2.6087 -1.0305
 8502SOL    HW236969   4.338   0.268   9.033  1.5448  0.1186 -0.7706
 8503SOL     OW36970   0.993   3.752   8.910 -0.4334 -0.0986 -0.1102
 8503SOL    HW136971   1.073   3.700   8.920 -0.1529 -0.0199 -1.7637
 8503SOL    HW236972   1.014   3.836   8.951 -3.0857  0.0506  0.9067
 8504SOL     OW36973   3.337   3.603   7.998 -0.0506  0.6032 -0.2718
 8504SOL    HW136974   3.383   3.543   7.938  0.8227  1.5091 -0.5091
 8504SOL    HW236975   3.263   3.638   7.948 -0.5042 -3.1961 -2.3283
 8505SOL     OW36976   1.098   0.330   8.326 -0.2440  0.1343  0.2560
 8505SOL    HW136977   1.054   0.339   8.242  0.4255  2.9362  0.1944
 8505SOL    HW236978   1.026   0.305   8.383 -1.1685 -1.6721 -1.7144
 8506SOL     OW36979   4.161   3.673  10.782  0.8354  0.0967 -0.3316
 8506SOL    HW136980   4.101   3.739  10.747 -1.5237 -1.8103  0.1125
 8506SOL    HW236981   4.243   3.723  10.782 -0.4308  2.1959  0.4193
 8507SOL     OW36982   0.320   1.613  14.767  0.1952  0.0305 -0.2587
 8507SOL    HW136983   0.316   1.523  14.736 -1.1782 -0.1079  0.3365
 8507SOL    HW236984   0.382   1.596  14.838  0.2101  0.1113 -0.2531
 8508SOL     OW36985   2.427   2.194   3.335 -0.5318 -0.0304 -0.0583
 8508SOL    HW136986   2.439   2.259   3.266  1.3036  0.7795  1.0049
 8508SOL    HW236987   2.333   2.181   3.348 -0.5460  1.2213  1.1768
 8509SOL     OW36988   4.380   1.807   5.353  0.2481 -0.2020  0.2772
 8509SOL    HW136989   4.374   1.716   5.324 -2.4612 -0.2952  1.0716
 8509SOL    HW236990   4.386   1.803   5.449  3.3246 -1.3066  0.0339
 8510SOL     OW36991   3.444   3.585   9.009  0.2348  0.0492  0.2059
 8510SOL    HW136992   3.515   3.539   9.053  1.2497  0.7786 -0.6521
 8510SOL    HW236993   3.392   3.603   9.088  1.3764 -0.6995  1.1147
 8511SOL     OW36994   1.924   3.585  11.995  0.2864  0.1876  0.7598
 8511SOL    HW136995   1.933   3.656  11.932  0.9968 -0.2228  0.3849
 8511SOL    HW236996   1.844   3.540  11.969  0.1745 -0.4740  2.2428
 8512SOL     OW36997   3.138   0.115  16.920 -0.3709  0.0043 -0.3263
 8512SOL    HW136998   3.137   0.024  16.950  0.5301 -0.2292 -1.0428
 8512SOL    HW236999   3.173   0.157  16.999  2.1912 -1.2251 -0.8440
 8513SOL     OW37000   0.552   2.214   6.864  0.2529  0.2045  0.4496
 8513SOL    HW137001   0.459   2.232   6.878  0.7186  0.9606  2.5089
 8513SOL    HW237002   0.588   2.301   6.879 -0.5600  0.6586 -0.2234
 8514SOL     OW37003   0.420   3.043   5.597 -0.0670  0.0418  0.3953
 8514SOL    HW137004   0.435   3.058   5.503  0.6516  1.3911  0.7289
 8514SOL    HW237005   0.397   2.951   5.586  2.2553 -0.4935 -0.0319
 8515SOL     OW37006   0.954   1.042   8.050 -0.2442  0.3167 -0.2911
 8515SOL    HW137007   0.994   0.957   8.033  1.1204  1.0251 -0.6295
 8515SOL    HW237008   0.885   1.028   8.116  0.3053 -0.5849  0.0979
 8516SOL     OW37009   0.835   2.613   2.255  0.1744 -0.3679 -0.5007
 8516SOL    HW137010   0.878   2.628   2.170  1.4857  0.9156  0.3963
 8516SOL    HW237011   0.782   2.536   2.232  1.7949 -1.3111 -1.0713
 8517SOL     OW37012   0.617   1.242   2.459  0.0710  0.0658 -0.2934
 8517SOL    HW137013   0.594   1.267   2.370 -0.5745  1.7123  0.3400
 8517SOL    HW237014   0.644   1.323   2.501 -1.8480 -0.4298  1.9096
 8518SOL     OW37015   0.990   2.456   2.608 -0.1634 -0.2144 -0.1660
 8518SOL    HW137016   1.010   2.394   2.537 -1.4679 -1.6473  0.7164
 8518SOL    HW237017   1.054   2.522   2.582 -0.1312  0.2495  1.1193
 8519SOL     OW37018   1.508   1.848  16.938  0.1256  0.7652 -0.0496
 8519SOL    HW137019   1.445   1.804  16.995  0.4625  0.9534  0.4625
 8519SOL    HW237020   1.464   1.863  16.854  1.4247  0.5634 -0.7721
 8520SOL     OW37021   4.280   1.018  17.467 -0.1067 -0.1814  0.0080
 8520SOL    HW137022   4.317   1.073  17.399 -2.6806 -0.6533 -1.7975
 8520SOL    HW237023   4.192   1.000  17.433  0.5835 -1.1892 -1.2257
 8521SOL     OW37024   2.691   1.269  12.681  0.9407 -0.5219  0.1308
 8521SOL    HW137025   2.603   1.302  12.663  1.5982  0.5420 -1.1240
 8521SOL    HW237026   2.700   1.207  12.609 -1.8417  0.6614 -1.2632
 8522SOL     OW37027   2.595   4.574  14.324  0.3389  0.1734  0.1285
 8522SOL    HW137028   2.519   4.534  14.281 -0.5907  2.3231 -0.2261
 8522SOL    HW237029   2.553   4.653  14.357 -0.9163  0.0714 -1.2143
 8523SOL     OW37030   2.240   2.996   0.764 -0.0162  0.0649  0.7421
 8523SOL    HW137031   2.214   2.988   0.672  1.6011  1.0561  0.2112
 8523SOL    HW237032   2.323   2.950   0.758 -0.8886 -1.5592  0.9362
 8524SOL     OW37033   3.331   0.152   6.908 -0.4321 -0.4365 -0.1870
 8524SOL    HW137034   3.291   0.104   6.981 -0.0813 -0.9018 -0.2964
 8524SOL    HW237035   3.329   0.242   6.940 -1.0592  0.1075 -1.7790
 8525SOL     OW37036   4.527   0.833   9.759 -0.5142 -0.3363  0.4653
 8525SOL    HW137037   4.602   0.814   9.815 -2.3651 -0.6506  2.8246
 8525SOL    HW237038   4.464   0.869   9.821  0.4432  4.2012 -1.2351
 8526SOL     OW37039   1.329   0.073   6.614 -0.3523  0.2706  0.1559
 8526SOL    HW137040   1.242   0.040   6.589 -1.1357  2.2969  0.1623
 8526SOL    HW237041   1.387   4.716   6.613  0.9765  1.3030 -0.9863
 8527SOL     OW37042   3.329   2.121   6.407 -0.0256 -1.2432  0.0570
 8527SOL    HW137043   3.353   2.134   6.498  2.3405  0.9023 -0.8852
 8527SOL    HW237044   3.361   2.206   6.377 -1.6365  0.1226  2.2645
 8528SOL     OW37045   2.863   2.475  17.558 -0.2965  0.0300 -0.1143
 8528SOL    HW137046   2.785   2.516  17.595  0.5844 -0.0943  1.8538
 8528SOL    HW237047   2.876   2.401  17.617 -2.1915 -1.5635 -1.6434
 8529SOL     OW37048   0.995   4.680   0.882 -0.5425  0.0172 -0.1930
 8529SOL    HW137049   1.021   4.699   0.792  1.7141 -0.4737  0.3662
 8529SOL    HW237050   1.054   0.022   0.927 -0.1279 -1.9792  1.9549
 8530SOL     OW37051   0.750   3.351  17.327  0.1399 -0.2339  0.3483
 8530SOL    HW137052   0.820   3.413  17.309  1.2575 -1.7055 -0.3719
 8530SOL    HW237053   0.713   3.353  17.239  0.0528 -0.9667  0.3665
 8531SOL     OW37054   1.321   4.074   2.674  0.1300 -0.1268 -0.3630
 8531SOL    HW137055   1.349   3.984   2.662  2.5352  0.6660 -0.6278
 8531SOL    HW237056   1.402   4.124   2.668  0.3505 -0.3816  0.6003
 8532SOL     OW37057   4.474   0.970   3.177 -0.1053 -0.4424 -0.1581
 8532SOL    HW137058   4.390   0.967   3.132 -0.9824 -0.9079  1.4827
 8532SOL    HW237059   4.440   0.969   3.267  1.4124  2.7722  0.4656
 8533SOL     OW37060   2.601   3.344   5.752  0.1688  0.6448 -0.5145
 8533SOL    HW137061   2.603   3.432   5.714 -0.7214  1.4921  1.4328
 8533SOL    HW237062   2.560   3.295   5.681 -2.7350  0.8478  1.0587
 8534SOL     OW37063   2.905   2.270   2.422  0.4370 -0.1117  0.3217
 8534SOL    HW137064   2.862   2.188   2.445  0.8048 -0.4020 -0.0274
 8534SOL    HW237065   2.830   2.304   2.372  0.5590 -0.9627 -0.4508
 8535SOL     OW37066   2.448   4.645   6.371 -0.3706  1.2971 -0.2267
 8535SOL    HW137067   2.374   4.681   6.420  0.6915  2.8602  0.2127
 8535SOL    HW237068   2.415   4.661   6.283 -0.0111  0.6068 -0.4953
 8536SOL     OW37069   2.781   2.790  13.781  0.3157  0.2145 -1.2733
 8536SOL    HW137070   2.843   2.778  13.852 -0.0892  0.2607 -0.9071
 8536SOL    HW237071   2.711   2.831  13.833  2.0954  1.8280 -0.1453
 8537SOL     OW37072   4.095   3.639  11.999  0.0279  0.4652 -0.1865
 8537SOL    HW137073   4.020   3.583  11.981 -0.1354  0.6211  0.0180
 8537SOL    HW237074   4.061   3.719  11.959 -2.0428 -1.1620 -1.6769
 8538SOL     OW37075   3.858   0.478   3.830  0.4497  0.0911 -0.1368
 8538SOL    HW137076   3.804   0.416   3.879  1.0510 -1.3410 -1.2917
 8538SOL    HW237077   3.893   0.529   3.903  2.0269  0.4185 -1.1269
 8539SOL     OW37078   4.160   0.433   5.228 -0.3044  0.2818  0.2455
 8539SOL    HW137079   4.114   0.355   5.197  1.0114  0.0434 -1.1005
 8539SOL    HW237080   4.151   0.489   5.151  1.5571 -0.5136 -0.5387
 8540SOL     OW37081   1.703   0.346  13.536  0.2469  0.4617 -0.6292
 8540SOL    HW137082   1.622   0.350  13.586  0.5886  0.2500 -0.0522
 8540SOL    HW237083   1.669   0.350  13.447 -0.3617 -1.7306 -0.5046
 8541SOL     OW37084   3.696   3.788   6.533 -0.1694  0.0855 -0.4488
 8541SOL    HW137085   3.621   3.765   6.587  1.4356  1.5990  2.4437
 8541SOL    HW237086   3.710   3.882   6.546 -0.8396  0.4560 -2.4324
 8542SOL     OW37087   2.592   0.608  11.370 -0.2757  0.3535  0.2452
 8542SOL    HW137088   2.555   0.551  11.437  1.2510 -0.8430  0.0957
 8542SOL    HW237089   2.538   0.685  11.385  1.3978  1.3132  1.2767
 8543SOL     OW37090   0.091   4.416  10.782  0.2580  0.3839  0.5731
 8543SOL    HW137091   0.167   4.377  10.825  0.7927 -0.2086 -0.9239
 8543SOL    HW237092   0.052   4.333  10.755  1.0486 -0.3543  1.6937
 8544SOL     OW37093   4.242   0.849   0.059 -0.5593 -0.1070  0.2725
 8544SOL    HW137094   4.238   0.905   0.136 -0.1180  1.1155 -0.5907
 8544SOL    HW237095   4.243   0.906  17.664  1.8822  1.1013  1.2074
 8545SOL     OW37096   1.081   3.419  17.442  0.1586 -0.1087  0.1122
 8545SOL    HW137097   1.069   3.326  17.464  1.5532 -0.0175  1.2276
 8545SOL    HW237098   1.001   3.455  17.481 -1.7296 -1.5443 -2.4135
 8546SOL     OW37099   1.195   0.696   5.846 -0.8369  0.2628  0.3290
 8546SOL    HW137100   1.262   0.759   5.875 -0.4933  0.6845 -1.3608
 8546SOL    HW237101   1.201   0.627   5.912  0.8812 -0.9576 -1.0956
 8547SOL     OW37102   1.695   2.385   5.448  0.0958 -0.0307 -0.0129
 8547SOL    HW137103   1.729   2.303   5.412  1.3244  0.2529  0.5289
 8547SOL    HW237104   1.780   2.423   5.469 -0.6796  1.5011  0.3482
 8548SOL     OW37105   4.695   2.129   8.452  0.6653  0.2437 -0.1537
 8548SOL    HW137106   0.002   2.201   8.509 -2.5830  1.5439 -0.2510
 8548SOL    HW237107   4.613   2.104   8.495  0.7528  2.8811  1.5564
 8549SOL     OW37108   1.118   0.767   7.991  0.1622  1.0678  0.5119
 8549SOL    HW137109   1.094   0.680   7.959 -1.3540  1.7223 -0.1114
 8549SOL    HW237110   1.147   0.746   8.080  2.4878  0.1503 -0.4463
 8550SOL     OW37111   1.935   2.066   4.223  0.2903 -0.2560 -0.1260
 8550SOL    HW137112   1.967   2.139   4.278 -0.6012  0.9967 -1.2684
 8550SOL    HW237113   1.861   2.113   4.185 -0.6641 -1.5403  0.1559
 8551SOL     OW37114   0.814   1.988   3.423  0.3011 -0.6112  0.0534
 8551SOL    HW137115   0.905   1.968   3.442 -0.0880 -0.6163  1.9322
 8551SOL    HW237116   0.825   2.083   3.422 -2.5412 -0.2521  2.2286
 8552SOL     OW37117   0.195   2.736   8.118 -0.1770 -0.2255 -0.4663
 8552SOL    HW137118   0.140   2.815   8.117  0.8092  0.4265 -2.0715
 8552SOL    HW237119   0.273   2.791   8.117 -1.2636  1.3268 -0.3324
 8553SOL     OW37120   4.469   2.281   5.112  0.0336  0.3990  0.7400
 8553SOL    HW137121   4.526   2.238   5.048  0.5069  1.1590  0.6613
 8553SOL    HW237122   4.388   2.269   5.062  0.9256 -0.0288 -0.5854
 8554SOL     OW37123   2.726   3.432   7.593 -0.2038 -0.1331 -0.1139
 8554SOL    HW137124   2.703   3.524   7.610 -0.4823 -0.2189 -0.0337
 8554SOL    HW237125   2.698   3.389   7.673  3.6558 -1.8170  0.3552
 8555SOL     OW37126   1.198   4.657   3.988 -0.2633 -0.0485  0.4178
 8555SOL    HW137127   1.113   4.702   3.982 -0.9669 -1.4432  0.0295
 8555SOL    HW237128   1.180   4.585   4.048  0.3589  0.7141  1.5168
 8556SOL     OW37129   1.183   2.168   3.423 -0.1403  0.1214  0.3799
 8556SOL    HW137130   1.256   2.179   3.484 -0.1255 -0.2590  0.4320
 8556SOL    HW237131   1.168   2.258   3.393 -1.9054 -0.9604 -1.9848
 8557SOL     OW37132   2.067   3.687   7.813 -0.7140  1.0371  0.3360
 8557SOL    HW137133   2.050   3.594   7.804  1.7334  0.5973  0.2864
 8557SOL    HW237134   2.005   3.704   7.885 -1.7049  0.3608 -0.3666
 8558SOL     OW37135   4.217   3.771   4.637 -0.1504  0.3693  0.5554
 8558SOL    HW137136   4.255   3.688   4.608 -3.4438 -1.3746  1.2453
 8558SOL    HW237137   4.206   3.809   4.549  2.4085 -0.6801 -0.2100
 8559SOL     OW37138   4.692   4.691   4.031  0.2414 -0.2693 -0.1170
 8559SOL    HW137139   4.691   4.648   4.116  2.4373 -1.5897 -0.7522
 8559SOL    HW237140   0.053   0.024   4.027 -0.6187  1.1327  0.8404
 8560SOL     OW37141   0.060   2.242   9.936 -0.1048  0.3147  0.2683
 8560SOL    HW137142   0.004   2.167   9.918 -1.9275  1.8938 -0.5790
 8560SOL    HW237143   0.104   2.258   9.853 -0.3901 -1.8057 -0.2893
 8561SOL     OW37144   3.684   2.833   7.061 -0.5010 -0.2522 -0.5115
 8561SOL    HW137145   3.698   2.747   7.101 -2.7001 -0.1347  0.5156
 8561SOL    HW237146   3.719   2.809   6.975 -0.4956  0.7614 -0.7876
 8562SOL     OW37147   2.815   1.566  11.907  0.1094 -0.5125  0.1370
 8562SOL    HW137148   2.885   1.617  11.948  0.4307 -0.5661 -0.3460
 8562SOL    HW237149   2.877   1.531  11.843 -2.2738 -3.9686 -0.2859
 8563SOL     OW37150   3.157   2.036   6.223 -0.1450  0.0085 -0.4201
 8563SOL    HW137151   3.218   1.971   6.187 -0.6178  0.1382 -1.4757
 8563SOL    HW237152   3.206   2.062   6.301  0.2786 -1.1972 -0.2758
 8564SOL     OW37153   1.853   1.574   5.019  0.5702 -0.2866 -0.2010
 8564SOL    HW137154   1.882   1.484   5.008  1.7183 -0.1517  1.7492
 8564SOL    HW237155   1.932   1.628   5.029  0.2237  0.2517 -0.3376
 8565SOL     OW37156   3.169   3.375  10.364  0.1919  0.4708 -0.1270
 8565SOL    HW137157   3.149   3.281  10.365  1.8429  0.0858 -2.8593
 8565SOL    HW237158   3.094   3.404  10.415  1.6651  0.4991  2.0430
 8566SOL     OW37159   2.382   1.809  15.981  0.0308 -0.1353  0.0296
 8566SOL    HW137160   2.383   1.864  15.903  1.1958 -1.2707 -0.7589
 8566SOL    HW237161   2.452   1.852  16.029  1.0982 -2.3088  0.4003
 8567SOL     OW37162   3.193   0.896   4.501 -0.2991  0.0395  0.0106
 8567SOL    HW137163   3.175   0.880   4.594 -1.1637  1.4786  0.0883
 8567SOL    HW237164   3.271   0.842   4.489  0.4165  1.1711 -0.4144
 8568SOL     OW37165   1.947   0.563   7.091 -0.1684  0.2855 -0.3771
 8568SOL    HW137166   2.015   0.534   7.029  0.9756 -0.4692  1.2511
 8568SOL    HW237167   1.882   0.495   7.073 -0.1282 -0.6793  3.2804
 8569SOL     OW37168   4.290   4.455   6.873  0.0662 -0.4129  0.3044
 8569SOL    HW137169   4.211   4.410   6.842 -2.1434  2.1967  2.1408
 8569SOL    HW237170   4.354   4.385   6.873 -1.8277 -2.1229 -1.8167
 8570SOL     OW37171   2.462   2.159   9.639  0.0889 -0.0881 -0.1625
 8570SOL    HW137172   2.436   2.238   9.687  2.3608 -0.4165  1.6161
 8570SOL    HW237173   2.544   2.140   9.685 -1.4486 -0.0718  2.5734
 8571SOL     OW37174   0.406   0.424   5.805  0.0601  0.1478  0.1883
 8571SOL    HW137175   0.428   0.395   5.894  1.0309 -0.9411 -0.4121
 8571SOL    HW237176   0.324   0.376   5.791 -0.2038  0.2568  1.3344
 8572SOL     OW37177   1.446   0.553   5.996  0.0398 -0.1807  0.0434
 8572SOL    HW137178   1.523   0.610   5.997  0.4990 -0.8330  1.1115
 8572SOL    HW237179   1.431   0.553   6.091 -0.9754  2.7929 -0.1069
 8573SOL     OW37180   2.801   1.302   4.187 -0.0586 -0.1971 -0.2273
 8573SOL    HW137181   2.708   1.312   4.206  0.2058  1.0755  0.3846
 8573SOL    HW237182   2.855   1.341   4.255  0.6774 -0.3638 -0.7085
 8574SOL     OW37183   4.623   1.882  16.694 -0.1655  0.0297 -0.3133
 8574SOL    HW137184   4.571   1.938  16.636  0.6240  2.6798  1.5093
 8574SOL    HW237185   4.629   1.799  16.647  1.9833  0.2435 -0.4189
 8575SOL     OW37186   4.108   4.002  14.329  0.0307  0.6268 -0.5070
 8575SOL    HW137187   4.111   3.912  14.297  0.0917  0.4385  0.0338
 8575SOL    HW237188   4.130   4.001  14.422  0.1442 -0.3896 -0.5427
 8576SOL     OW37189   3.371   1.695   5.831 -0.5740  0.1121  0.5575
 8576SOL    HW137190   3.285   1.652   5.833 -1.4112  1.7422 -0.2504
 8576SOL    HW237191   3.367   1.762   5.900 -1.1435 -0.7136  1.3224
 8577SOL     OW37192   2.344   1.088  11.228  0.0794  0.5502  0.0124
 8577SOL    HW137193   2.423   1.080  11.281 -0.5906  0.8296  1.0672
 8577SOL    HW237194   2.268   1.052  11.275  0.8015 -0.3012  0.5191
 8578SOL     OW37195   2.492   3.646  12.372  0.6156 -0.0586 -0.1286
 8578SOL    HW137196   2.456   3.643  12.461  0.2531  1.0893 -0.2317
 8578SOL    HW237197   2.411   3.679  12.333  1.1690  0.3389 -0.9323
 8579SOL     OW37198   2.394   4.200  12.068  0.3759  0.2471  0.0531
 8579SOL    HW137199   2.486   4.202  12.091  0.3180  0.4584  0.2674
 8579SOL    HW237200   2.399   4.124  12.010  0.3740 -1.5210  2.3360
 8580SOL     OW37201   1.253   2.368   0.863 -0.4715 -0.3456 -0.1018
 8580SOL    HW137202   1.199   2.352   0.941 -1.5184 -1.9789 -1.1705
 8580SOL    HW237203   1.191   2.346   0.794  0.1098 -0.0590 -0.7123
 8581SOL     OW37204   0.194   1.097   8.453 -0.0530  0.5836  0.0639
 8581SOL    HW137205   0.209   1.105   8.359  0.4208 -1.3450 -0.0229
 8581SOL    HW237206   0.147   1.014   8.457  0.4265  0.3554  0.9314
 8582SOL     OW37207   0.983   1.645  16.387  0.0347 -0.0214 -0.0368
 8582SOL    HW137208   0.967   1.687  16.472 -0.0991  1.4678 -0.7919
 8582SOL    HW237209   0.982   1.719  16.326 -1.6562 -0.8374 -0.9843
 8583SOL     OW37210   2.262   3.472   4.074 -0.0777  0.4474  0.4532
 8583SOL    HW137211   2.293   3.540   4.134  1.6355  1.1484 -1.2176
 8583SOL    HW237212   2.223   3.530   4.008  1.4977  0.0941 -0.7935
 8584SOL     OW37213   4.125   3.016  14.511  0.9834 -0.2089 -0.1406
 8584SOL    HW137214   4.213   3.051  14.520  0.7078  1.1227 -2.5795
 8584SOL    HW237215   4.105   3.034  14.419  0.0516 -1.3112 -0.1575
 8585SOL     OW37216   2.418   2.560   5.263 -0.1780 -0.0627  0.8517
 8585SOL    HW137217   2.322   2.562   5.254  0.1281 -0.3523 -2.6777
 8585SOL    HW237218   2.446   2.599   5.180  0.8204 -0.5653  0.9527
 8586SOL     OW37219   2.621   4.252   0.683 -0.1088  0.6668  0.0925
 8586SOL    HW137220   2.667   4.233   0.601 -1.2248  1.7861 -0.7810
 8586SOL    HW237221   2.628   4.346   0.698  0.3972  0.6261  0.1266
 8587SOL     OW37222   3.037   2.641  14.250 -0.1526 -0.3453  0.5010
 8587SOL    HW137223   3.011   2.622  14.341  0.7778 -0.9518  0.6406
 8587SOL    HW237224   3.022   2.552  14.217 -2.0068  0.3267 -0.4568
 8588SOL     OW37225   2.464   4.557   5.494 -0.3898 -0.3519  0.3318
 8588SOL    HW137226   2.437   4.647   5.475 -0.6515 -1.0320 -2.4421
 8588SOL    HW237227   2.398   4.531   5.558  0.3874  1.3579  1.8466
 8589SOL     OW37228   1.294   1.884   8.559  0.2678  0.0201 -0.9737
 8589SOL    HW137229   1.266   1.894   8.468 -0.0437 -3.1724 -1.2242
 8589SOL    HW237230   1.218   1.905   8.613  0.8724  0.4528 -0.2879
 8590SOL     OW37231   3.529   3.854   1.948  0.3110  0.5259  0.8989
 8590SOL    HW137232   3.457   3.792   1.958  1.4084 -1.2748 -2.2606
 8590SOL    HW237233   3.609   3.809   1.978  0.9865  1.4095  0.4262
 8591SOL     OW37234   3.338   3.705   1.265 -0.4364  0.1356  0.0200
 8591SOL    HW137235   3.253   3.715   1.309 -1.4829  0.3330 -2.0318
 8591SOL    HW237236   3.348   3.795   1.234 -2.0191 -0.2165 -1.5142
 8592SOL     OW37237   4.550   3.773  11.732  0.2838  0.3408  0.2438
 8592SOL    HW137238   4.624   3.805  11.681  0.6715  2.2084  2.0179
 8592SOL    HW237239   4.590   3.783  11.818 -1.5945 -3.2466  1.5305
 8593SOL     OW37240   3.779   3.604  17.454 -0.0933  0.2231 -0.3718
 8593SOL    HW137241   3.744   3.564  17.533  1.9467 -2.1171 -0.6459
 8593SOL    HW237242   3.716   3.671  17.427  0.9187  1.0819 -0.6498
 8594SOL     OW37243   1.666   2.583  16.647 -0.4140 -0.0052 -0.5476
 8594SOL    HW137244   1.633   2.645  16.712  0.3209 -0.3373  0.1582
 8594SOL    HW237245   1.695   2.514  16.707 -2.0827  1.1626  1.5852
 8595SOL     OW37246   2.594   2.796   5.531 -0.1034  0.4121 -0.0313
 8595SOL    HW137247   2.650   2.770   5.457 -1.4924 -1.1000 -0.5407
 8595SOL    HW237248   2.623   2.887   5.529  2.4068 -0.4073 -0.7106
 8596SOL     OW37249   2.737   0.617  12.508  0.1496  0.0117  0.3981
 8596SOL    HW137250   2.782   0.646  12.587 -0.6001 -1.1598  1.2547
 8596SOL    HW237251   2.725   0.525  12.531 -0.0244 -0.3541 -1.1067
 8597SOL     OW37252   0.711   3.063  13.368  0.5753 -0.1372 -0.1492
 8597SOL    HW137253   0.806   3.074  13.361  0.7231  0.5210  2.7708
 8597SOL    HW237254   0.698   3.098  13.456 -0.8250  0.8484 -0.7584
 8598SOL     OW37255   0.091   3.511   6.241  0.6907 -0.2318  0.3701
 8598SOL    HW137256   0.161   3.474   6.187  0.3145 -1.2329  0.5656
 8598SOL    HW237257   0.087   3.459   6.321  2.0531 -2.5082 -1.0257
 8599SOL     OW37258   2.545   4.477   7.720  0.2554  0.2173 -0.1303
 8599SOL    HW137259   2.513   4.502   7.806 -0.6207  0.4775 -0.5253
 8599SOL    HW237260   2.599   4.402   7.741  1.3952  1.1495  0.2860
 8600SOL     OW37261   0.547   2.755  11.482  0.3226 -0.7811 -0.8700
 8600SOL    HW137262   0.578   2.699  11.554 -2.0836 -0.6172  0.3158
 8600SOL    HW237263   0.625   2.809  11.474  1.8117 -2.8600 -0.5540
 8601SOL     OW37264   3.662   2.235   5.234 -0.2002  0.0080 -0.1790
 8601SOL    HW137265   3.633   2.169   5.298  0.5268 -0.2425 -0.1111
 8601SOL    HW237266   3.661   2.309   5.295 -0.4651 -1.2446  1.3589
 8602SOL     OW37267   1.804   2.596   6.520 -0.3884  0.3251 -0.0858
 8602SOL    HW137268   1.720   2.559   6.547  0.2845 -0.4645  0.9315
 8602SOL    HW237269   1.843   2.510   6.503  1.0975  0.8710  0.4850
 8603SOL     OW37270   0.231   0.020   4.690 -0.4599  0.0346  0.3052
 8603SOL    HW137271   0.252   4.701   4.605 -2.3980 -0.5038  0.0899
 8603SOL    HW237272   0.138   4.719   4.692 -0.5292  0.3775  0.6416
 8604SOL     OW37273   0.413   1.554   2.177 -0.1123  0.2802 -0.4338
 8604SOL    HW137274   0.460   1.634   2.199 -0.9970  0.1929  1.8684
 8604SOL    HW237275   0.451   1.482   2.229 -0.7567 -1.2389 -2.0614
 8605SOL     OW37276   0.844   3.630   4.150  0.1522  0.4000 -0.1245
 8605SOL    HW137277   0.860   3.536   4.155  0.8713  0.4605 -1.3210
 8605SOL    HW237278   0.754   3.645   4.122 -0.3097 -1.1903  0.5276
 8606SOL     OW37279   1.443   2.211   8.427  0.0289  0.0441 -0.4027
 8606SOL    HW137280   1.511   2.245   8.369 -0.1039 -0.7000 -1.0046
 8606SOL    HW237281   1.458   2.117   8.410 -1.4086 -0.0027 -1.3823
 8607SOL     OW37282   1.344   4.213  12.621 -0.2675 -0.2170 -0.5848
 8607SOL    HW137283   1.262   4.209  12.571 -1.6428  0.8820  1.6056
 8607SOL    HW237284   1.324   4.285  12.681  1.1333  1.0441 -1.6468
 8608SOL     OW37285   3.664   2.830  10.395 -0.3263  0.2620 -0.8323
 8608SOL    HW137286   3.593   2.889  10.419  0.6273  1.4870 -1.0135
 8608SOL    HW237287   3.743   2.884  10.390 -0.3883  0.2142 -2.2971
 8609SOL     OW37288   2.484   0.995   0.539 -0.1668 -0.2435 -0.2618
 8609SOL    HW137289   2.576   1.007   0.516  0.5266 -1.6493  1.9015
 8609SOL    HW237290   2.446   1.025   0.456 -2.2318 -1.0595  0.3723
 8610SOL     OW37291   0.221   4.115  16.539 -0.2645 -0.2916 -0.5483
 8610SOL    HW137292   0.304   4.151  16.572 -1.5507  0.0595  2.2949
 8610SOL    HW237293   0.234   4.114  16.444 -0.7362 -0.8332 -0.6021
 8611SOL     OW37294   0.580   3.666  10.683  0.3341  0.1482 -0.4563
 8611SOL    HW137295   0.556   3.677  10.591  0.8733 -0.8935 -0.7209
 8611SOL    HW237296   0.647   3.735  10.684  0.7051 -0.2128 -0.6585
 8612SOL     OW37297   4.226   1.130  10.268  0.3614 -0.0398 -0.0452
 8612SOL    HW137298   4.186   1.064  10.325  0.1267 -0.0418 -0.2130
 8612SOL    HW237299   4.143   1.153  10.226 -0.2598 -2.1574  0.0290
 8613SOL     OW37300   3.946   1.207   6.108 -0.2195  0.2199 -0.4548
 8613SOL    HW137301   3.888   1.257   6.164 -1.2227 -1.6443  0.1808
 8613SOL    HW237302   4.024   1.213   6.163 -1.8169  1.2934  1.6696
 8614SOL     OW37303   1.546   3.693  11.717  0.4342  0.0830  0.2278
 8614SOL    HW137304   1.559   3.625  11.784 -0.0961 -0.2619 -0.0199
 8614SOL    HW237305   1.541   3.628  11.646  2.6814  0.0356  0.1306
 8615SOL     OW37306   2.258   1.439  11.409  0.6271  0.4582 -0.3674
 8615SOL    HW137307   2.190   1.390  11.455  1.5676 -0.5867 -0.0872
 8615SOL    HW237308   2.335   1.412  11.460  1.4133  1.6678 -0.9031
 8616SOL     OW37309   3.157   1.916  10.965  0.1103  0.0586  0.3713
 8616SOL    HW137310   3.118   1.849  10.908  0.0003  0.0498  0.4561
 8616SOL    HW237311   3.078   1.948  11.010 -0.3650  1.1044 -1.2276
 8617SOL     OW37312   0.323   1.057   7.205 -0.3477 -0.4605  0.8330
 8617SOL    HW137313   0.409   1.022   7.184 -1.1619 -1.5406 -0.6899
 8617SOL    HW237314   0.274   0.984   7.243 -0.2504 -1.3657 -0.7770
 8618SOL     OW37315   0.000   0.335   3.383 -0.4383  0.0563  0.3603
 8618SOL    HW137316   4.698   0.424   3.356 -0.9793 -0.6602 -1.5563
 8618SOL    HW237317   0.013   0.283   3.303 -1.7729  0.3994 -0.0734
 8619SOL     OW37318   0.260   3.562   9.636  0.2629 -0.0148 -0.8124
 8619SOL    HW137319   0.282   3.578   9.728  1.8788 -1.8009 -0.8760
 8619SOL    HW237320   0.220   3.475   9.632  0.4062 -0.0983 -0.4209
 8620SOL     OW37321   1.446   1.026  12.416 -0.1058  0.4266 -0.1663
 8620SOL    HW137322   1.465   1.120  12.410 -2.4210  1.0356  2.0310
 8620SOL    HW237323   1.466   0.994  12.504 -0.2992  0.8127  0.0193
 8621SOL     OW37324   3.532   1.368   2.324  0.4890 -0.0620 -0.0779
 8621SOL    HW137325   3.561   1.454   2.294 -0.8085  0.2199 -0.5012
 8621SOL    HW237326   3.608   1.333   2.371  0.3703 -0.1611  0.0398
 8622SOL     OW37327   0.911   3.602   3.845  0.2457 -0.0030  0.3098
 8622SOL    HW137328   0.862   3.634   3.921 -1.1770  1.7538 -1.3224
 8622SOL    HW237329   0.839   3.567   3.793  0.2785  0.3421  0.0330
 8623SOL     OW37330   1.351   4.367   7.509 -0.0666 -0.4357 -1.0200
 8623SOL    HW137331   1.366   4.453   7.547  1.8688 -1.8416  1.3652
 8623SOL    HW237332   1.263   4.381   7.473 -2.1980 -3.2599  3.0512
 8624SOL     OW37333   2.266   1.446   7.487 -0.0735 -0.1978 -0.1971
 8624SOL    HW137334   2.346   1.462   7.436  1.1424 -4.0643  0.5409
 8624SOL    HW237335   2.298   1.418   7.573 -2.1641  0.7860  0.9183
 8625SOL     OW37336   1.173   1.836   2.349  0.5075 -0.4853  0.0195
 8625SOL    HW137337   1.174   1.888   2.429  0.3015  2.4742 -1.9145
 8625SOL    HW237338   1.106   1.770   2.368 -1.1841  0.9748 -0.9682
 8626SOL     OW37339   4.179   3.077  16.264 -0.3685 -0.4882  0.4172
 8626SOL    HW137340   4.173   3.120  16.178  0.5230 -2.0282 -0.4153
 8626SOL    HW237341   4.273   3.064  16.280 -0.1988 -1.2039 -1.1642
 8627SOL     OW37342   1.510   2.423   6.568 -0.2275 -0.1112  0.3920
 8627SOL    HW137343   1.569   2.399   6.639 -1.0989  0.1209  1.1922
 8627SOL    HW237344   1.428   2.376   6.583 -0.9266  0.7017 -0.8554
 8628SOL     OW37345   3.600   1.469   1.748 -0.2797  0.4473 -0.7042
 8628SOL    HW137346   3.626   1.503   1.662 -3.8059  0.7595 -1.6146
 8628SOL    HW237347   3.542   1.397   1.724 -0.6577  0.8843 -1.0924
 8629SOL     OW37348   1.560   4.029  16.358 -0.0500 -0.7064  0.1269
 8629SOL    HW137349   1.468   4.053  16.365  0.0917 -0.4329  1.0783
 8629SOL    HW237350   1.594   4.095  16.298  1.9626 -0.2651  1.7309
 8630SOL     OW37351   0.482   0.491  11.924  0.3287 -0.2747  0.3172
 8630SOL    HW137352   0.531   0.415  11.955  0.9995 -0.5541 -1.3866
 8630SOL    HW237353   0.536   0.515  11.848  0.9134 -0.7487  0.5843
 8631SOL     OW37354   4.163   1.801   1.962 -0.1742  0.9869  0.4182
 8631SOL    HW137355   4.145   1.885   2.004  1.0605  1.2777  0.3611
 8631SOL    HW237356   4.188   1.835   1.876  1.0416 -0.0640  0.3492
 8632SOL     OW37357   3.104   0.676  13.106  0.3565 -1.0456  0.6661
 8632SOL    HW137358   3.044   0.606  13.079 -0.3163 -0.3090  0.2490
 8632SOL    HW237359   3.162   0.630  13.166 -0.4810  1.2418  3.2057
 8633SOL     OW37360   2.556   3.552   8.884 -0.8315  0.5853  0.2587
 8633SOL    HW137361   2.530   3.562   8.976  0.4134 -1.9138  0.8718
 8633SOL    HW237362   2.644   3.588   8.880 -0.7456  0.2785 -0.6082
 8634SOL     OW37363   3.256   4.239   7.919 -0.4455  0.0976 -0.4726
 8634SOL    HW137364   3.247   4.202   8.007  1.2476 -0.8500 -0.7043
 8634SOL    HW237365   3.239   4.332   7.937 -1.1089  0.0163 -0.6625
 8635SOL     OW37366   2.962   2.071   3.489 -0.2208  0.2368 -0.2144
 8635SOL    HW137367   3.014   2.008   3.540 -0.2265  2.8244  2.9849
 8635SOL    HW237368   2.878   2.029   3.470 -0.6688  0.2625  1.7113
 8636SOL     OW37369   0.566   2.565   3.894  0.4408 -0.0993  0.4226
 8636SOL    HW137370   0.522   2.631   3.948 -2.3477 -2.8472  1.5021
 8636SOL    HW237371   0.533   2.587   3.807  0.6004  0.1119  0.4159
 8637SOL     OW37372   2.753   0.193   0.336  0.5606  0.0559 -0.1027
 8637SOL    HW137373   2.739   0.104   0.305  1.1771 -0.1893  0.3250
 8637SOL    HW237374   2.693   0.204   0.409  0.2809 -0.4699 -0.2552
 8638SOL     OW37375   2.604   0.290  12.839  0.1482 -0.2632 -0.0407
 8638SOL    HW137376   2.683   0.261  12.884 -0.4836 -1.7455  0.1067
 8638SOL    HW237377   2.565   0.356  12.897  2.7605  2.1397 -1.0406
 8639SOL     OW37378   0.446   1.025   3.338 -0.0636  0.0887  0.6490
 8639SOL    HW137379   0.381   0.963   3.372  1.7569 -2.9929 -1.4060
 8639SOL    HW237380   0.440   1.101   3.395 -0.7234  0.4760  0.0653
 8640SOL     OW37381   0.201   4.150  17.348  0.1090  0.1972 -0.3319
 8640SOL    HW137382   0.129   4.117  17.294  1.3453 -2.2156 -0.5313
 8640SOL    HW237383   0.193   4.093  17.425  0.8088 -0.5885 -0.8325
 8641SOL     OW37384   0.412   3.881   8.095 -0.3393 -0.2729 -0.3989
 8641SOL    HW137385   0.493   3.919   8.129 -0.2083 -0.0347 -0.9871
 8641SOL    HW237386   0.378   3.836   8.173 -1.7584  0.3047 -0.6883
 8642SOL     OW37387   0.827   1.029   0.606 -0.1846 -0.1340  0.1332
 8642SOL    HW137388   0.886   1.035   0.531  1.2052  1.2454  1.3334
 8642SOL    HW237389   0.743   1.021   0.562 -0.2773 -0.0774  0.2991
 8643SOL     OW37390   4.127   1.167   3.890 -0.4696 -0.1319 -0.0641
 8643SOL    HW137391   4.065   1.205   3.953  0.4866 -0.2250  0.9273
 8643SOL    HW237392   4.176   1.126   3.961 -1.6868  0.0211  0.8614
 8644SOL     OW37393   0.854   0.541   8.123 -0.4703  0.7866  0.1331
 8644SOL    HW137394   0.924   0.571   8.065  0.5997  0.8895  1.4852
 8644SOL    HW237395   0.787   0.606   8.099 -1.8030  0.3905  2.8057
 8645SOL     OW37396   2.559   3.649   8.013  0.2460 -0.1798  0.2671
 8645SOL    HW137397   2.647   3.656   7.976 -1.3195  1.5119 -3.0827
 8645SOL    HW237398   2.568   3.566   8.060 -0.2973 -0.5794 -0.3353
 8646SOL     OW37399   4.233   4.472  12.571  0.3617 -0.8680  0.1574
 8646SOL    HW137400   4.264   4.510  12.489 -0.6919  1.5317  0.8672
 8646SOL    HW237401   4.295   4.493  12.641  0.8771 -1.6470 -0.0650
 8647SOL     OW37402   2.655   4.570   3.638 -0.2058  0.0903 -0.0540
 8647SOL    HW137403   2.746   4.597   3.642 -0.5623  1.2403  0.3572
 8647SOL    HW237404   2.630   4.588   3.547  2.4094  0.1514 -0.7645
 8648SOL     OW37405   0.564   0.436   8.680  0.0694  0.2743  0.1050
 8648SOL    HW137406   0.608   0.352   8.693  1.0887  0.5965 -1.4030
 8648SOL    HW237407   0.642   0.491   8.680  0.0039  0.3737  1.7241
 8649SOL     OW37408   3.930   4.669   6.258 -0.6289  0.3103  0.2425
 8649SOL    HW137409   3.848   4.708   6.227 -0.5932  0.0129 -0.2373
 8649SOL    HW237410   3.999   0.016   6.255  0.7330 -1.1049 -0.6510
 8650SOL     OW37411   3.316   3.176   6.023  0.5426  0.2588  0.5309
 8650SOL    HW137412   3.250   3.222   6.075 -1.4352  0.3159 -2.0399
 8650SOL    HW237413   3.388   3.239   6.013  2.2811 -1.5844  1.2218
 8651SOL     OW37414   1.108   2.174   8.083  0.2678 -0.0837 -0.0211
 8651SOL    HW137415   1.154   2.132   8.156  1.0533  0.5581 -0.1501
 8651SOL    HW237416   1.075   2.251   8.128  0.2657  0.7288 -1.4242
 8652SOL     OW37417   4.124   1.328   0.838 -0.4269 -0.3023  0.3474
 8652SOL    HW137418   4.035   1.349   0.810 -1.2154 -1.5940  1.8508
 8652SOL    HW237419   4.122   1.352   0.931  0.5910  0.1963  0.2416
 8653SOL     OW37420   3.274   4.180   5.786 -0.3475  0.0151 -0.4173
 8653SOL    HW137421   3.246   4.123   5.715  0.1663 -2.2586  1.2230
 8653SOL    HW237422   3.195   4.180   5.840 -0.4772  2.3241 -0.5855
 8654SOL     OW37423   1.403   1.290   8.795 -0.1927  0.1266  0.0693
 8654SOL    HW137424   1.320   1.243   8.794  1.6378 -3.1881  2.0804
 8654SOL    HW237425   1.454   1.244   8.862 -2.0416 -1.1593  0.5803
 8655SOL     OW37426   0.858   0.649   3.710 -0.0668 -0.4189  0.5589
 8655SOL    HW137427   0.820   0.659   3.622  0.8615  1.8683  0.3978
 8655SOL    HW237428   0.815   0.572   3.746  0.7517 -1.6617 -1.1542
 8656SOL     OW37429   1.863   0.999   6.576 -0.0763 -0.7112 -0.3860
 8656SOL    HW137430   1.858   1.093   6.593 -0.4373 -1.0174  1.2034
 8656SOL    HW237431   1.840   0.955   6.658  0.4124 -2.7276 -1.3266
 8657SOL     OW37432   0.965   2.998   6.073  0.0635 -0.0013  0.1093
 8657SOL    HW137433   1.017   3.056   6.017  1.0850 -1.4353 -0.4466
 8657SOL    HW237434   1.029   2.954   6.129  2.4751  1.6105 -1.3373
 8658SOL     OW37435   3.784   2.397   4.395 -0.3288  0.0349 -0.5422
 8658SOL    HW137436   3.851   2.360   4.337  0.4687 -0.1933  0.5330
 8658SOL    HW237437   3.833   2.444   4.462  0.0909  0.8252 -1.4182
 8659SOL     OW37438   4.283   3.763   4.084  0.1952  0.5670 -0.1496
 8659SOL    HW137439   4.335   3.682   4.081 -0.7522 -0.0879  1.6323
 8659SOL    HW237440   4.212   3.732   4.029 -0.5906 -1.2913  1.9280
 8660SOL     OW37441   3.921   3.150  11.520 -0.2070 -0.0486 -0.6973
 8660SOL    HW137442   3.903   3.133  11.428  3.5403  0.7412 -1.5606
 8660SOL    HW237443   3.846   3.204  11.544  0.7064  0.2572  1.5552
 8661SOL     OW37444   1.867   1.087   9.262 -1.2495 -0.0095  0.0018
 8661SOL    HW137445   1.823   1.033   9.328  0.2569  0.6573  1.5561
 8661SOL    HW237446   1.838   1.175   9.285 -0.2035 -0.0616  1.5451
 8662SOL     OW37447   1.337   4.551   6.955 -0.2356  0.0808 -0.1542
 8662SOL    HW137448   1.354   4.640   6.988  0.7289 -0.1768  0.0547
 8662SOL    HW237449   1.252   4.537   6.996  0.0912  1.2927  0.9540
 8663SOL     OW37450   1.808   4.287   6.003 -0.5225 -0.3702  0.4490
 8663SOL    HW137451   1.830   4.334   5.923  2.3976  1.5052  2.3239
 8663SOL    HW237452   1.874   4.219   5.988 -1.5130 -0.8298 -1.7898
 8664SOL     OW37453   2.207   3.933   7.405  0.4769  0.2947  0.5017
 8664SOL    HW137454   2.230   4.010   7.354  2.8157 -0.9977 -0.3800
 8664SOL    HW237455   2.142   3.897   7.344  1.4981 -0.6370 -0.0471
 8665SOL     OW37456   4.138   0.963  10.943  0.1097  0.2673 -0.2492
 8665SOL    HW137457   4.129   1.017  11.022 -2.1462  2.1321 -1.7845
 8665SOL    HW237458   4.233   0.966  10.932 -0.0315  1.4045 -1.1723
 8666SOL     OW37459   3.721   2.413   7.679  0.0593 -0.2355  0.0105
 8666SOL    HW137460   3.702   2.454   7.595 -0.7970  1.5065  1.0482
 8666SOL    HW237461   3.794   2.467   7.710  1.3595 -0.8124 -2.1144
 8667SOL     OW37462   1.593   0.862   6.586  0.1661  0.2089 -0.0648
 8667SOL    HW137463   1.593   0.938   6.528  0.9905  0.0897 -0.2166
 8667SOL    HW237464   1.530   0.809   6.537 -1.0470  0.2287  1.5007
 8668SOL     OW37465   4.643   4.032   3.316  0.2098  0.0183 -0.0580
 8668SOL    HW137466   4.637   4.014   3.410  3.3363 -0.4023  0.0909
 8668SOL    HW237467   4.672   3.943   3.298 -1.2636 -0.1258 -1.5770
 8669SOL     OW37468   0.246   3.914   1.492  0.5226  0.0060 -0.2883
 8669SOL    HW137469   0.321   3.901   1.434  1.3227  0.1010  0.7265
 8669SOL    HW237470   0.181   3.900   1.423  0.9692  0.0267 -0.7100
 8670SOL     OW37471   3.798   2.098   5.982  0.5950 -0.5125 -0.0911
 8670SOL    HW137472   3.815   2.139   6.068 -0.4319 -0.7329  0.2161
 8670SOL    HW237473   3.705   2.111   5.964  0.2026 -3.3346  0.0165
 8671SOL     OW37474   2.587   1.290   9.480  0.4964 -0.6271  0.4847
 8671SOL    HW137475   2.548   1.297   9.393  1.6375  1.5410  0.1590
 8671SOL    HW237476   2.567   1.197   9.489 -1.6440 -0.3872 -1.8819
 8672SOL     OW37477   3.046   0.196   5.759 -0.0596  0.3185  0.3398
 8672SOL    HW137478   2.994   0.240   5.692 -2.2696 -3.9208 -0.7278
 8672SOL    HW237479   2.989   0.120   5.773  1.9185 -1.0413  1.0026
 8673SOL     OW37480   4.665   1.283   6.148 -0.0427  0.0022  0.2592
 8673SOL    HW137481   4.647   1.362   6.096 -1.9591 -0.5621  0.0678
 8673SOL    HW237482   4.578   1.262   6.183 -0.0092  1.8493  1.4600
 8674SOL     OW37483   3.129   3.815   3.924 -0.1185 -0.1786 -0.2591
 8674SOL    HW137484   3.213   3.862   3.927  0.0101 -0.2875 -1.9254
 8674SOL    HW237485   3.156   3.736   3.969  1.4821 -0.1192 -1.0917
 8675SOL     OW37486   3.324   2.447   4.386 -0.2278  0.0009  0.0573
 8675SOL    HW137487   3.369   2.378   4.435 -0.6280 -0.6278 -0.4776
 8675SOL    HW237488   3.371   2.526   4.416 -0.3875 -0.1078  0.5945
 8676SOL     OW37489   3.227   2.723   7.234  0.2960  0.3040 -1.0691
 8676SOL    HW137490   3.229   2.629   7.250 -0.6440  0.2886 -1.0342
 8676SOL    HW237491   3.252   2.728   7.142  1.6478  2.6207 -0.5809
 8677SOL     OW37492   3.139   3.998   1.072  0.6195  0.2516  0.6310
 8677SOL    HW137493   3.173   3.933   1.011 -2.3556 -0.7748  0.0832
 8677SOL    HW237494   3.204   3.990   1.143  1.0645  1.4704  0.3736
 8678SOL     OW37495   1.092   4.597  11.502  0.1514  0.3490  0.0056
 8678SOL    HW137496   1.149   4.592  11.578 -2.0962 -2.4611  1.4937
 8678SOL    HW237497   1.029   4.663  11.531 -0.8022  0.3954 -2.1462
 8679SOL     OW37498   4.154   3.021   7.621  0.1643 -0.4663  0.4359
 8679SOL    HW137499   4.150   2.927   7.640 -1.0696 -0.0515  2.2716
 8679SOL    HW237500   4.248   3.034   7.608 -0.1086  0.3019 -0.7455
 8680SOL     OW37501   4.530   0.146   1.623  0.3010 -0.4720 -0.4563
 8680SOL    HW137502   4.475   0.133   1.545 -1.3122 -1.6893  0.8966
 8680SOL    HW237503   4.481   0.092   1.685  0.5450 -0.2660 -0.0851
 8681SOL     OW37504   4.600   0.453   2.246 -0.5220  0.2494 -0.3412
 8681SOL    HW137505   4.579   0.495   2.163  0.2569  0.4844 -0.4137
 8681SOL    HW237506   4.510   0.426   2.266  0.1507 -2.2250 -0.6479
 8682SOL     OW37507   0.303   2.336   7.567  0.7779 -0.7290  0.2428
 8682SOL    HW137508   0.295   2.256   7.516  2.7760 -1.0976  0.4840
 8682SOL    HW237509   0.331   2.402   7.503  1.4540 -0.4425  0.8263
 8683SOL     OW37510   2.766   1.680  14.776  0.1676 -0.0914 -0.5980
 8683SOL    HW137511   2.709   1.613  14.739 -0.1964 -0.4972  0.6987
 8683SOL    HW237512   2.699   1.733  14.818  0.1142 -0.0647 -0.7183
 8684SOL     OW37513   3.541   0.907  14.547  0.1098 -0.0334 -0.4637
 8684SOL    HW137514   3.621   0.862  14.520  1.3851  0.5765  2.2541
 8684SOL    HW237515   3.582   0.983  14.589 -0.3680 -0.8000  1.3963
 8685SOL     OW37516   0.175   2.359   9.663  0.6063 -0.6744 -0.2576
 8685SOL    HW137517   0.123   2.344   9.584 -1.1337  1.7839  0.4331
 8685SOL    HW237518   0.260   2.317   9.651  1.3029 -0.2362  3.1658
 8686SOL     OW37519   1.180   3.277   5.297 -0.3428  0.2979  0.0976
 8686SOL    HW137520   1.183   3.181   5.293 -0.5387  0.3730 -1.9136
 8686SOL    HW237521   1.104   3.286   5.239  0.1192 -0.9981 -0.7247
 8687SOL     OW37522   0.619   3.577   5.974  0.5279  0.3650 -0.5510
 8687SOL    HW137523   0.663   3.659   5.950 -0.1224  0.6719 -0.6760
 8687SOL    HW237524   0.574   3.601   6.055 -2.0724 -1.2135 -1.5626
 8688SOL     OW37525   1.935   2.345  14.685 -0.5541 -0.3403  0.8471
 8688SOL    HW137526   1.894   2.312  14.605 -1.9379  3.5706 -0.1051
 8688SOL    HW237527   1.903   2.436  14.688 -1.6779 -0.6599 -1.5670
 8689SOL     OW37528   3.030   3.674   9.037 -0.9545  0.5459 -0.1258
 8689SOL    HW137529   3.072   3.618   8.972 -3.6339 -2.1770  0.4892
 8689SOL    HW237530   3.084   3.658   9.114  1.5783 -0.7534 -2.1979
 8690SOL     OW37531   4.652   3.123   7.452 -0.0159  0.3962  0.0416
 8690SOL    HW137532   4.666   3.069   7.374  0.1698  1.0490 -0.3784
 8690SOL    HW237533   0.003   3.095   7.511  0.0259  0.0826 -0.1527
 8691SOL     OW37534   3.586   4.031   0.474  0.0234  0.0156  0.4252
 8691SOL    HW137535   3.578   4.086   0.397  0.7205  0.1232  0.4328
 8691SOL    HW237536   3.494   4.007   0.491 -0.1738 -1.1687 -2.4154
 8692SOL     OW37537   1.581   3.866  16.593  0.3613 -0.3815  0.1006
 8692SOL    HW137538   1.560   3.935  16.530  1.0012 -0.4622 -0.2045
 8692SOL    HW237539   1.500   3.883  16.640 -0.4913  1.9698 -2.2363
 8693SOL     OW37540   2.850   0.671   2.080 -0.0292  0.5082  0.5194
 8693SOL    HW137541   2.829   0.602   2.017  3.0523  0.6327 -0.6193
 8693SOL    HW237542   2.930   0.706   2.042  0.4986 -1.4689 -0.1864
 8694SOL     OW37543   3.831   4.361  12.089  0.4010 -0.0057  0.6066
 8694SOL    HW137544   3.775   4.283  12.098 -1.6459  1.3465 -0.3181
 8694SOL    HW237545   3.857   4.367  12.181 -1.1657  1.2789  0.9596
 8695SOL     OW37546   1.594   2.226   2.750  0.2137  0.3149 -0.1527
 8695SOL    HW137547   1.661   2.159   2.737  0.5159  0.6458 -0.3082
 8695SOL    HW237548   1.510   2.185   2.730  1.1168 -0.7468 -1.7884
 8696SOL     OW37549   4.519   1.425   9.648  0.4235 -0.1146  0.6762
 8696SOL    HW137550   4.557   1.458   9.729  0.1113 -0.8028  1.0991
 8696SOL    HW237551   4.479   1.501   9.604 -0.2474 -0.5540  0.5346
 8697SOL     OW37552   2.408   1.810   7.336  0.0461 -0.5512 -0.2630
 8697SOL    HW137553   2.392   1.886   7.392  2.1115 -0.4626  0.2216
 8697SOL    HW237554   2.368   1.846   7.257  0.6967  1.0231  0.1227
 8698SOL     OW37555   4.085   2.383   7.323  0.4372  0.3199  0.4521
 8698SOL    HW137556   3.994   2.369   7.350 -0.0408 -1.3789 -2.0313
 8698SOL    HW237557   4.090   2.479   7.330 -1.0703  0.4471 -0.0863
 8699SOL     OW37558   1.416   0.339   5.169  0.0527 -0.3054 -0.3183
 8699SOL    HW137559   1.399   0.350   5.263  0.1139  1.1914 -0.4733
 8699SOL    HW237560   1.380   0.417   5.126  4.2805  0.8810 -1.7111
 8700SOL     OW37561   1.600   1.536   2.430 -0.0374  0.6367  0.5126
 8700SOL    HW137562   1.558   1.574   2.352  0.9238  0.5869 -0.0300
 8700SOL    HW237563   1.531   1.480   2.466  1.2987 -1.5988 -0.3879
 8701SOL     OW37564   0.235   4.035   9.503 -0.4435 -0.2722 -0.0975
 8701SOL    HW137565   0.284   4.003   9.428 -0.6737 -1.3771  0.2309
 8701SOL    HW237566   0.307   4.066   9.558 -0.2469  0.6350 -0.8610
 8702SOL     OW37567   2.854   0.819  12.362 -0.3356  0.2042  0.2399
 8702SOL    HW137568   2.813   0.747  12.411  0.6129 -1.6563 -1.6928
 8702SOL    HW237569   2.925   0.844  12.421 -1.1283  0.8407  0.9092
 8703SOL     OW37570   1.161   3.569   3.714 -0.2162  0.2166 -0.2841
 8703SOL    HW137571   1.119   3.483   3.712  0.0837  0.1454 -3.2242
 8703SOL    HW237572   1.077   3.608   3.739 -0.8095 -0.9634 -0.4288
 8704SOL     OW37573   0.790   0.354   3.744 -0.0227 -0.1005 -0.6011
 8704SOL    HW137574   0.739   0.359   3.663  1.2920  0.7751 -1.3897
 8704SOL    HW237575   0.874   0.328   3.704  0.3646  0.7957 -0.3656
 8705SOL     OW37576   1.594   3.969  11.714  0.3665  0.6062 -0.0438
 8705SOL    HW137577   1.538   4.011  11.649 -0.5818  0.3111  0.5819
 8705SOL    HW237578   1.559   3.881  11.723 -1.2999  1.2864  0.0435
 8706SOL     OW37579   2.286   2.414   2.630  0.4220  0.0158 -0.1320
 8706SOL    HW137580   2.281   2.440   2.722 -0.5240  1.5513 -0.6195
 8706SOL    HW237581   2.195   2.428   2.603  0.1888 -1.5539 -0.2105
 8707SOL     OW37582   4.469   0.252  11.904  0.0847 -0.4767  0.4215
 8707SOL    HW137583   4.419   0.221  11.828 -1.6713  1.8396  0.6353
 8707SOL    HW237584   4.518   0.326  11.867 -0.1899 -1.8781 -2.7518
 8708SOL     OW37585   3.290   1.627   8.870  0.6773 -0.2128  0.0742
 8708SOL    HW137586   3.217   1.676   8.909 -0.9120 -1.5574 -1.2290
 8708SOL    HW237587   3.270   1.539   8.901  0.7604 -0.4093 -0.4230
 8709SOL     OW37588   2.150   0.883  12.294 -0.4476 -0.2832 -0.5997
 8709SOL    HW137589   2.231   0.867  12.244  0.0112  0.2010 -0.0031
 8709SOL    HW237590   2.104   0.799  12.296  1.3855 -1.3055 -0.8336
 8710SOL     OW37591   3.726   0.768  11.518 -0.2497  0.0197 -0.0687
 8710SOL    HW137592   3.770   0.699  11.468 -2.3426 -1.4933  0.1736
 8710SOL    HW237593   3.705   0.723  11.599 -1.4202 -0.0384 -0.4076
 8711SOL     OW37594   2.635   2.031  16.009  0.0155  0.2237 -0.0346
 8711SOL    HW137595   2.673   2.118  16.015 -1.7974  1.1302 -1.4201
 8711SOL    HW237596   2.701   1.968  15.980  1.3954  2.2965 -1.3532
 8712SOL     OW37597   0.455   3.193   6.126  0.3973  0.1333  0.0907
 8712SOL    HW137598   0.405   3.112   6.116  1.7163 -1.1536  3.8076
 8712SOL    HW237599   0.545   3.170   6.105  0.3644  0.2927 -0.2275
 8713SOL     OW37600   3.525   2.511   4.022 -0.7292  0.0471  0.4645
 8713SOL    HW137601   3.570   2.555   4.094 -1.4100  0.4816  0.6221
 8713SOL    HW237602   3.599   2.460   3.989 -0.7504 -0.0037  0.4961
 8714SOL     OW37603   3.377   0.091   4.540 -0.5668  0.2750 -0.4364
 8714SOL    HW137604   3.397   0.176   4.578  0.9744  0.0460 -0.7445
 8714SOL    HW237605   3.459   0.045   4.523 -0.2954  0.6386 -0.0984
 8715SOL     OW37606   0.214   1.082  13.639  0.5524 -0.6217  0.1239
 8715SOL    HW137607   0.184   1.168  13.666 -1.0106 -0.9148 -0.6759
 8715SOL    HW237608   0.274   1.056  13.710  0.0541  0.4656  0.9463
 8716SOL     OW37609   0.824   1.689   0.390  0.0559  0.1224 -0.1846
 8716SOL    HW137610   0.870   1.653   0.466 -0.6770  1.5567  0.9303
 8716SOL    HW237611   0.817   1.605   0.344  1.0320 -1.7717  3.1441
 8717SOL     OW37612   4.023   2.921   3.806 -0.3067 -0.4537 -0.8053
 8717SOL    HW137613   4.109   2.881   3.815 -0.1965 -0.2871 -1.1301
 8717SOL    HW237614   3.978   2.857   3.750 -0.9866 -0.0173 -0.7495
 8718SOL     OW37615   0.351   4.207  14.498 -0.3161 -0.0850 -0.6638
 8718SOL    HW137616   0.410   4.241  14.566 -0.2946  0.1723 -0.8098
 8718SOL    HW237617   0.421   4.173  14.442  0.8978  1.4620 -0.1065
 8719SOL     OW37618   3.246   3.888   6.966 -0.0374 -0.5396 -0.8301
 8719SOL    HW137619   3.318   3.868   6.907  0.1218 -0.4805 -0.6561
 8719SOL    HW237620   3.220   3.804   7.003  0.7009 -0.6974 -0.6730
 8720SOL     OW37621   2.840   3.045   0.536 -0.4719  0.2368  0.1015
 8720SOL    HW137622   2.758   3.020   0.578 -1.3168 -0.6029 -2.0676
 8720SOL    HW237623   2.826   3.015   0.447  0.0583 -0.0895  0.1247
 8721SOL     OW37624   0.229   0.439   6.194  0.1345  0.2357 -0.0232
 8721SOL    HW137625   0.283   0.506   6.151 -2.1696  2.4227  0.4904
 8721SOL    HW237626   0.284   0.424   6.271 -1.3527 -1.7420  0.6342
 8722SOL     OW37627   0.247   3.006   7.062  0.1317 -0.5769  0.9297
 8722SOL    HW137628   0.169   3.020   7.009 -0.4181  1.9561  2.4157
 8722SOL    HW237629   0.305   3.062   7.011 -0.4096 -0.1170  0.8158
 8723SOL     OW37630   4.115   0.199  14.167  0.0047  0.0590  0.4036
 8723SOL    HW137631   4.071   0.278  14.135  0.7958 -0.0539 -0.9579
 8723SOL    HW237632   4.085   0.132  14.106  2.0253  0.1511 -0.7146
 8724SOL     OW37633   2.193   0.678  11.943 -0.2331  0.2405 -0.2388
 8724SOL    HW137634   2.158   0.640  11.863  0.6389 -2.3267  0.5810
 8724SOL    HW237635   2.157   0.764  11.926  0.0788  0.4185 -0.0035
 8725SOL     OW37636   2.986   0.619   6.236 -0.4058  0.6115 -0.0134
 8725SOL    HW137637   3.067   0.568   6.234  0.5415  2.0819  0.7150
 8725SOL    HW237638   2.931   0.561   6.289 -1.2084  0.4581 -1.0110
 8726SOL     OW37639   1.974   0.319  13.424  0.2720  0.1409 -0.3398
 8726SOL    HW137640   1.888   0.302  13.464  1.1762 -0.4884  1.3269
 8726SOL    HW237641   1.996   0.242  13.373 -2.2072 -1.8137  1.5193
 8727SOL     OW37642   3.303   3.435   7.736 -0.4352 -0.4682 -0.5212
 8727SOL    HW137643   3.397   3.443   7.748 -0.0466 -1.6923 -2.8039
 8727SOL    HW237644   3.291   3.447   7.642 -1.9827 -1.9016 -0.5240
 8728SOL     OW37645   2.551   4.212  10.992  0.4065 -0.1089  0.2032
 8728SOL    HW137646   2.495   4.153  10.943 -1.1892  0.4258  1.3764
 8728SOL    HW237647   2.628   4.217  10.934 -0.2870 -0.3982 -0.7366
 8729SOL     OW37648   2.404   0.227   8.089 -0.4734 -0.4967 -0.2141
 8729SOL    HW137649   2.457   0.203   8.013 -1.0318  0.5362 -0.9209
 8729SOL    HW237650   2.351   0.147   8.100  0.1781 -1.0875 -1.3830
 8730SOL     OW37651   0.358   2.695   6.969 -0.5986 -0.1394  0.3979
 8730SOL    HW137652   0.431   2.721   7.025 -1.2283 -0.6563  1.4550
 8730SOL    HW237653   0.406   2.673   6.889 -1.9019 -0.4578 -0.2945
 8731SOL     OW37654   1.024   1.810   2.081 -0.6905 -0.7474 -0.3579
 8731SOL    HW137655   1.047   1.718   2.071 -1.1726 -0.8885 -0.1495
 8731SOL    HW237656   1.099   1.860   2.049  0.4619 -1.4451  1.2479
 8732SOL     OW37657   1.444   2.910  12.739  0.1509 -0.2273 -0.2663
 8732SOL    HW137658   1.408   2.997  12.724 -0.8219 -0.6439 -0.3494
 8732SOL    HW237659   1.372   2.848  12.729 -0.1837  0.0001  0.7134
 8733SOL     OW37660   4.263   1.175   4.580  0.0149  0.5341  0.1246
 8733SOL    HW137661   4.264   1.268   4.559 -1.4458  0.4031 -0.5137
 8733SOL    HW237662   4.250   1.183   4.675 -1.1713 -1.1217  0.0951
 8734SOL     OW37663   2.233   3.304   3.339 -0.7402 -0.3218  0.3336
 8734SOL    HW137664   2.298   3.369   3.366 -0.5549 -0.7569  0.9350
 8734SOL    HW237665   2.167   3.308   3.408  1.6621 -0.6750  2.6487
 8735SOL     OW37666   3.367   3.282  10.576 -0.0935 -0.2385 -0.4292
 8735SOL    HW137667   3.449   3.328  10.597  0.8762 -1.2095 -2.1272
 8735SOL    HW237668   3.337   3.336  10.503 -1.8826 -2.5756 -1.3789
 8736SOL     OW37669   4.666   1.047   6.470  0.2650  0.3497  0.5582
 8736SOL    HW137670   4.632   1.032   6.382  0.1652  0.3788  0.5923
 8736SOL    HW237671   0.014   1.113   6.456 -0.1234 -0.0973 -3.3180
 8737SOL     OW37672   4.418   1.568  17.631  0.5024  0.0533  0.2850
 8737SOL    HW137673   4.401   1.601  17.542  0.9887 -0.1419  0.1154
 8737SOL    HW237674   4.512   1.586  17.637  0.5184  1.0369 -2.8308
 8738SOL     OW37675   2.539   0.564   1.579  0.2692  0.2484  0.3172
 8738SOL    HW137676   2.515   0.626   1.510 -0.3190  1.0126  1.2163
 8738SOL    HW237677   2.514   0.602   1.663  0.0805 -0.8740  0.7679
 8739SOL     OW37678   2.132   0.008  16.735  1.2070 -0.8363 -0.3072
 8739SOL    HW137679   2.079   0.029  16.659 -0.0222  0.6162  0.9578
 8739SOL    HW237680   2.119   0.089  16.784  3.3581 -0.9090  0.3749
 8740SOL     OW37681   2.390   0.553  10.395  0.5715 -0.0385  0.9603
 8740SOL    HW137682   2.364   0.555  10.487  1.2503  0.1398  1.1531
 8740SOL    HW237683   2.338   0.479  10.366  1.1597 -0.0805  0.0308
 8741SOL     OW37684   0.267   2.720  17.239 -0.5116  0.3512 -0.1379
 8741SOL    HW137685   0.294   2.775  17.313  3.6514 -0.2287 -1.2189
 8741SOL    HW237686   0.252   2.632  17.274  0.7601  0.7517  1.4405
 8742SOL     OW37687   2.588   3.384   6.580 -0.4511  0.3215 -0.3530
 8742SOL    HW137688   2.528   3.331   6.527 -2.6819 -0.0036  2.5245
 8742SOL    HW237689   2.658   3.395   6.515  1.1696  0.3041  1.3786
 8743SOL     OW37690   3.419   3.086   6.667  0.1236  0.2420  0.2420
 8743SOL    HW137691   3.396   3.115   6.579  0.1134  1.5147  0.6759
 8743SOL    HW237692   3.468   3.007   6.642 -0.6215 -0.6328  1.5293
 8744SOL     OW37693   2.697   3.770   8.448  0.1155  0.0878  0.3547
 8744SOL    HW137694   2.653   3.729   8.523  0.6779 -0.2573  0.4967
 8744SOL    HW237695   2.786   3.741   8.466  0.9886  1.1184 -2.2910
 8745SOL     OW37696   1.973   2.613  14.571 -0.6746  0.0307 -0.1552
 8745SOL    HW137697   1.923   2.685  14.533  2.0769  0.6450 -2.6074
 8745SOL    HW237698   2.048   2.659  14.608 -0.0967  1.0807 -2.6088
 8746SOL     OW37699   2.356   3.674   0.725  0.3156  0.0478 -0.1666
 8746SOL    HW137700   2.354   3.753   0.671  2.4512  0.3193  0.1557
 8746SOL    HW237701   2.398   3.702   0.806  0.7856  0.0237 -0.4038
 8747SOL     OW37702   3.623   3.530   2.996  0.0912 -0.3475  0.4869
 8747SOL    HW137703   3.579   3.581   2.928 -0.4230 -0.7225  0.5366
 8747SOL    HW237704   3.677   3.590   3.047 -1.7392  0.9891  0.8328
 8748SOL     OW37705   0.306   2.804   5.492  0.9387 -0.2187  0.5642
 8748SOL    HW137706   0.334   2.759   5.411  0.8233 -0.2697  0.5529
 8748SOL    HW237707   0.238   2.744   5.523  0.8296 -0.3976 -0.0023
 8749SOL     OW37708   4.577   1.949  16.983  0.0718  0.4556 -0.1463
 8749SOL    HW137709   4.508   2.012  16.964 -1.7674 -0.8198  2.3063
 8749SOL    HW237710   4.580   1.902  16.900  1.4341  0.9626 -0.3801
 8750SOL     OW37711   2.069   2.741   2.679 -0.0631  0.1597 -0.1658
 8750SOL    HW137712   2.019   2.822   2.672  0.1757  0.4260  1.3348
 8750SOL    HW237713   2.143   2.758   2.620 -0.8234 -2.7462 -1.9932
 8751SOL     OW37714   1.094   4.435   4.170 -0.6866  0.4407 -0.1682
 8751SOL    HW137715   1.125   4.458   4.257  2.1873  0.0622 -1.0914
 8751SOL    HW237716   1.085   4.340   4.174 -1.7739  0.6804  2.7593
 8752SOL     OW37717   1.837   0.048  16.063  0.1903 -0.0163  0.3296
 8752SOL    HW137718   1.774   0.022  16.130 -0.7631  0.3259 -0.4285
 8752SOL    HW237719   1.790   0.035  15.981 -1.8159  1.4768  1.2591
 8753SOL     OW37720   4.412   4.232   6.752  0.3719 -0.1519 -0.7305
 8753SOL    HW137721   4.416   4.286   6.672 -1.1933  2.0824  0.6846
 8753SOL    HW237722   4.347   4.165   6.730  1.5844 -1.1382 -1.2447
 8754SOL     OW37723   2.396   3.050   5.950 -0.5226  0.2417  0.2408
 8754SOL    HW137724   2.340   2.999   6.009 -0.0269 -0.1303  0.3843
 8754SOL    HW237725   2.425   2.977   5.895 -1.0128 -0.6267  1.1256
 8755SOL     OW37726   3.154   3.524   3.773  0.2494 -0.0351 -0.5215
 8755SOL    HW137727   3.249   3.511   3.770  0.4515  1.4346 -0.4762
 8755SOL    HW237728   3.143   3.534   3.868 -0.1840 -0.7267 -0.5046
 8756SOL     OW37729   4.047   2.107  13.333 -0.2452 -1.2165 -0.2855
 8756SOL    HW137730   4.081   2.079  13.248 -3.7851 -0.6315 -1.8765
 8756SOL    HW237731   4.120   2.162  13.364  0.7263 -1.9928 -1.1858
 8757SOL     OW37732   3.103   3.191   3.852  0.2512  0.7224  0.1763
 8757SOL    HW137733   3.152   3.161   3.928  0.7600 -1.8119 -1.1429
 8757SOL    HW237734   3.168   3.204   3.783  0.4767 -0.4279  0.1710
 8758SOL     OW37735   2.740   2.680   4.630  0.9263 -0.7402 -0.1067
 8758SOL    HW137736   2.710   2.749   4.689  1.5083  0.4723 -1.2153
 8758SOL    HW237737   2.732   2.728   4.547  1.4644 -2.9210 -1.4413
 8759SOL     OW37738   4.380   0.139   2.422 -0.6469 -0.4305 -0.2820
 8759SOL    HW137739   4.285   0.143   2.422 -0.8366 -4.6174 -1.5836
 8759SOL    HW237740   4.399   0.120   2.514 -0.2263  0.0757 -0.2612
 8760SOL     OW37741   4.172   3.251   1.884  0.1390  0.6529  0.0317
 8760SOL    HW137742   4.101   3.311   1.860  1.2278  0.7803 -2.9827
 8760SOL    HW237743   4.212   3.312   1.946  2.2568 -1.0562  0.3161
 8761SOL     OW37744   3.474   0.526   4.998 -0.3207  0.5479  0.5567
 8761SOL    HW137745   3.380   0.542   4.994 -0.0509  1.5405 -1.8584
 8761SOL    HW237746   3.470   0.446   5.050 -3.3876  0.6374  0.4663
 8762SOL     OW37747   2.047   1.296   4.474 -0.6142  0.4467 -0.0035
 8762SOL    HW137748   2.136   1.305   4.509 -0.2866  2.9801 -1.4350
 8762SOL    HW237749   2.026   1.387   4.451 -1.2404  0.0700 -0.8754
 8763SOL     OW37750   2.055   2.038  10.605  0.2569  0.0048  0.3575
 8763SOL    HW137751   2.023   2.025  10.695  0.3555  1.2473  0.5669
 8763SOL    HW237752   2.150   2.041  10.617  0.2690 -2.9543  1.0253
 8764SOL     OW37753   1.064   3.698   7.877  0.1396 -0.3042  0.1250
 8764SOL    HW137754   1.086   3.683   7.785 -0.4425 -1.3830  0.1651
 8764SOL    HW237755   1.044   3.606   7.893  1.6473 -0.2892  2.1126
 8765SOL     OW37756   2.208   1.141   4.942 -0.0812  0.4763  0.3208
 8765SOL    HW137757   2.242   1.059   4.977 -1.5138  0.5817  1.9685
 8765SOL    HW237758   2.195   1.175   5.031  0.2276  0.0412  0.5324
 8766SOL     OW37759   3.963   2.161   8.530 -0.5513  0.0443  0.0407
 8766SOL    HW137760   3.878   2.150   8.488 -0.6958  0.1649  0.3013
 8766SOL    HW237761   3.962   2.085   8.589  1.2582  0.2726  0.3630
 8767SOL     OW37762   0.492   0.669   1.013  0.7084  0.3740  0.0036
 8767SOL    HW137763   0.434   0.637   1.082 -1.1380 -0.7838 -2.0814
 8767SOL    HW237764   0.513   0.589   0.964 -0.0438  1.3012 -1.8154
 8768SOL     OW37765   4.413   0.349  15.779 -0.3473 -0.4139 -0.5861
 8768SOL    HW137766   4.325   0.315  15.791  0.6973 -3.0654 -0.3543
 8768SOL    HW237767   4.453   0.320  15.696  2.9828 -0.0313  0.8916
 8769SOL     OW37768   1.371   2.529  10.032 -0.3187  0.6322  0.4362
 8769SOL    HW137769   1.452   2.557  10.075  0.5169 -0.3413 -0.5021
 8769SOL    HW237770   1.409   2.480   9.959 -1.0973  0.0875  0.3940
 8770SOL     OW37771   3.910   2.595   4.499 -0.4503  0.1106  0.1915
 8770SOL    HW137772   3.918   2.666   4.562  2.3998  1.7449 -2.0418
 8770SOL    HW237773   3.938   2.655   4.430 -0.4724  0.3114  0.3574
 8771SOL     OW37774   0.209   0.521   7.300  0.0322  0.1376 -0.4073
 8771SOL    HW137775   0.196   0.481   7.387 -1.7916  1.9904  0.1764
 8771SOL    HW237776   0.181   0.451   7.241  0.6784 -0.1418 -0.3806
 8772SOL     OW37777   2.487   0.806  10.612  0.2654  0.8610  0.2531
 8772SOL    HW137778   2.452   0.823  10.700  2.1496 -2.6234  1.6620
 8772SOL    HW237779   2.423   0.746  10.573  2.0363 -2.0776  1.8719
 8773SOL     OW37780   0.728   4.643   8.708  0.4681  0.0772  0.0578
 8773SOL    HW137781   0.656   4.635   8.646 -0.1316  1.0713  0.6225
 8773SOL    HW237782   0.685   4.669   8.790 -0.5491  0.1708 -0.5047
 8774SOL     OW37783   0.987   4.000  14.472  0.5752  0.8053 -0.2584
 8774SOL    HW137784   1.025   4.035  14.553 -0.1890 -1.2069  0.9573
 8774SOL    HW237785   0.973   3.907  14.489  2.3372  0.7938  1.1575
 8775SOL     OW37786   3.626   4.399   5.597 -0.3447 -0.4330 -0.0963
 8775SOL    HW137787   3.592   4.310   5.588 -2.5437  0.4466 -0.4189
 8775SOL    HW237788   3.572   4.433   5.526 -3.7612 -1.9520  1.7790
 8776SOL     OW37789   2.014   3.419  16.138 -0.6901 -0.5648 -0.1436
 8776SOL    HW137790   1.984   3.332  16.114 -1.5373 -0.8148  1.8163
 8776SOL    HW237791   1.934   3.442  16.186  0.1589  2.9606 -0.3779
 8777SOL     OW37792   1.544   3.720   4.853  0.2400  0.3656  0.5418
 8777SOL    HW137793   1.628   3.726   4.807  0.5912  1.0391  1.2683
 8777SOL    HW237794   1.559   3.665   4.930 -1.0280  0.1909  0.6609
 8778SOL     OW37795   2.709   0.389   3.667  0.2056 -0.1058  0.2529
 8778SOL    HW137796   2.705   0.311   3.612 -3.4237  0.0088  0.3881
 8778SOL    HW237797   2.643   0.439   3.619 -0.7272 -1.9364 -0.3820
 8779SOL     OW37798   2.546   2.482  14.085  0.9641 -0.0457 -0.3801
 8779SOL    HW137799   2.473   2.484  14.147  0.2873  0.8067 -1.2142
 8779SOL    HW237800   2.534   2.396  14.044 -2.4311  0.7474 -1.0118
 8780SOL     OW37801   3.830   4.417   6.868  0.1094 -0.4473 -0.6408
 8780SOL    HW137802   3.812   4.415   6.961  1.4000  2.1759 -0.3382
 8780SOL    HW237803   3.750   4.387   6.825  0.0686  1.0283 -1.6346
 8781SOL     OW37804   3.402   4.128  12.755 -0.0997 -0.0624 -0.1610
 8781SOL    HW137805   3.420   4.220  12.735 -0.0487 -0.2509 -0.9981
 8781SOL    HW237806   3.322   4.110  12.706  0.8118 -1.1763 -1.2546
 8782SOL     OW37807   0.529   1.861   6.251  0.6355 -0.4945 -0.4170
 8782SOL    HW137808   0.537   1.950   6.286  1.1375  0.3258 -2.5986
 8782SOL    HW237809   0.612   1.855   6.205  0.9805  0.3052  0.1017
 8783SOL     OW37810   2.869   0.249  11.854  0.0323  0.0161  0.9450
 8783SOL    HW137811   2.843   0.243  11.762  1.9662  1.2502  0.3362
 8783SOL    HW237812   2.959   0.281  11.858 -0.5386  1.2833  3.3412
 8784SOL     OW37813   2.170   1.815  10.839  0.2122 -0.3900 -0.4614
 8784SOL    HW137814   2.106   1.886  10.842  0.6196  0.0640 -2.5210
 8784SOL    HW237815   2.174   1.800  10.933  0.1232  0.7489 -0.2836
 8785SOL     OW37816   0.403   0.898   3.101  0.3653 -0.0082  0.5160
 8785SOL    HW137817   0.417   0.978   3.050  0.2841  0.5255  1.3339
 8785SOL    HW237818   0.408   0.937   3.188 -0.1454  1.4918 -0.1289
 8786SOL     OW37819   3.683   3.230  11.636 -0.6259 -0.4380 -0.3252
 8786SOL    HW137820   3.710   3.156  11.691  1.2887  0.0509 -0.6112
 8786SOL    HW237821   3.632   3.281  11.699  1.2374  1.4835 -0.3946
 8787SOL     OW37822   4.275   1.564   6.998  0.7214  0.2914  0.4667
 8787SOL    HW137823   4.289   1.486   6.944  0.1938 -0.4021  1.3381
 8787SOL    HW237824   4.334   1.548   7.072  0.8116 -1.4572  0.0250
 8788SOL     OW37825   1.084   4.434   8.162 -0.8388  0.0024 -0.0750
 8788SOL    HW137826   1.171   4.397   8.175 -0.2372  1.3044 -0.3694
 8788SOL    HW237827   1.071   4.484   8.242  0.2212 -0.2880  0.2786
 8789SOL     OW37828   0.451   3.542   1.832  0.1608  0.3050  0.7231
 8789SOL    HW137829   0.540   3.557   1.799  0.3814 -0.0331  1.1645
 8789SOL    HW237830   0.434   3.475   1.766  1.3407  0.0496  0.6838
 8790SOL     OW37831   3.615   1.207   3.778  0.3730  0.1169  0.5715
 8790SOL    HW137832   3.601   1.202   3.873  2.3733 -0.5818  0.8192
 8790SOL    HW237833   3.643   1.117   3.761  0.5627  0.2823  0.0070
 8791SOL     OW37834   2.933   0.841   9.377  0.7169 -0.0677 -0.1903
 8791SOL    HW137835   2.997   0.849   9.307  3.1091 -1.2741  1.8679
 8791SOL    HW237836   2.852   0.850   9.327  1.6836 -0.7388 -1.8866
 8792SOL     OW37837   1.441   2.174  11.122 -0.0466  0.6572  0.0342
 8792SOL    HW137838   1.345   2.170  11.124  0.0829 -1.0993  2.1176
 8792SOL    HW237839   1.460   2.088  11.085 -1.6930  0.1439  0.3636
 8793SOL     OW37840   3.044   4.312  15.403 -1.0353 -0.1654  0.2146
 8793SOL    HW137841   3.058   4.406  15.414  2.9040 -0.8823  1.1822
 8793SOL    HW237842   2.955   4.296  15.372 -0.6276 -0.0740 -0.9859
 8794SOL     OW37843   4.531   3.749   9.117  0.6179 -0.0072  0.1163
 8794SOL    HW137844   4.453   3.762   9.063 -0.2588 -0.0968  1.3410
 8794SOL    HW237845   4.572   3.670   9.083 -3.2533 -1.2370 -1.7029
 8795SOL     OW37846   0.410   3.336   3.299 -0.1767  0.5966  0.0106
 8795SOL    HW137847   0.476   3.403   3.314 -0.9025  0.6442  3.1229
 8795SOL    HW237848   0.451   3.259   3.339  0.2141  1.6237  1.5757
 8796SOL     OW37849   0.114   4.383   3.403 -0.1894  0.5235  0.0156
 8796SOL    HW137850   0.132   4.309   3.344 -2.8023 -0.5503  0.5591
 8796SOL    HW237851   0.018   4.378   3.411  0.1370 -2.0863  2.1093
 8797SOL     OW37852   0.475   2.523   0.185 -0.0744  0.4557 -0.0989
 8797SOL    HW137853   0.403   2.553   0.129 -1.7754  1.3732  2.5748
 8797SOL    HW237854   0.523   2.460   0.131 -2.4782 -0.9405 -0.6594
 8798SOL     OW37855   3.115   2.570   6.883 -0.5883  0.1255  0.3309
 8798SOL    HW137856   3.084   2.659   6.867  1.6989  0.5266 -1.8446
 8798SOL    HW237857   3.190   2.595   6.937  0.1513 -1.4819  0.0330
 8799SOL     OW37858   0.710   2.784   5.579  0.4782  0.3167  0.6128
 8799SOL    HW137859   0.638   2.786   5.642  0.7898 -0.5183  0.9999
 8799SOL    HW237860   0.709   2.690   5.558 -2.1679  0.3922  0.3724
 8800SOL     OW37861   3.767   0.486   8.320 -0.7179 -0.3089 -0.1709
 8800SOL    HW137862   3.729   0.402   8.345  2.0183 -1.2080  0.9686
 8800SOL    HW237863   3.704   0.536   8.371  1.7053  3.0402 -0.5024
 8801SOL     OW37864   3.444   4.412   4.138 -0.4737 -0.1683 -0.4096
 8801SOL    HW137865   3.526   4.439   4.180 -0.4257 -1.5583  0.3696
 8801SOL    HW237866   3.474   4.415   4.047  0.1249  1.6279 -0.1720
 8802SOL     OW37867   3.970   0.675   3.495 -0.5390 -0.7479  0.1792
 8802SOL    HW137868   4.029   0.610   3.456 -1.1733  0.3909 -2.6508
 8802SOL    HW237869   4.024   0.702   3.569 -0.3912  1.1271 -0.6191
 8803SOL     OW37870   0.554   4.101   2.386  0.5487 -0.0226 -0.3887
 8803SOL    HW137871   0.586   4.178   2.433  1.5595  0.9377 -2.6411
 8803SOL    HW237872   0.461   4.099   2.407  0.5663 -0.9204 -0.4092
 8804SOL     OW37873   2.028   4.243   6.750 -0.5373 -0.3869 -0.2383
 8804SOL    HW137874   1.948   4.257   6.698 -1.9025 -0.5776  1.8323
 8804SOL    HW237875   1.992   4.260   6.837 -1.4715  0.5774 -0.8144
 8805SOL     OW37876   3.952   4.016   6.305  0.0026  0.0267  0.0211
 8805SOL    HW137877   3.900   4.078   6.255 -1.3231 -0.3087  0.9647
 8805SOL    HW237878   4.028   4.064   6.336  1.3555 -2.8926  1.2106
 8806SOL     OW37879   4.214   1.829   6.570  0.1430  0.0169 -0.3694
 8806SOL    HW137880   4.134   1.801   6.525 -0.5460 -0.4734  1.1481
 8806SOL    HW237881   4.187   1.835   6.662  0.2900  2.4032 -0.4974
 8807SOL     OW37882   1.154   4.451   8.676 -0.2323 -0.4037  0.5702
 8807SOL    HW137883   1.134   4.530   8.626 -0.9360 -0.9931 -0.0582
 8807SOL    HW237884   1.067   4.415   8.688 -0.8275  0.5730 -0.7989
 8808SOL     OW37885   3.666   2.385   5.459  0.0856  0.0625 -0.0680
 8808SOL    HW137886   3.602   2.399   5.529 -3.0426 -2.7346 -2.3578
 8808SOL    HW237887   3.749   2.400   5.503 -0.5677  1.1054  0.8237
 8809SOL     OW37888   1.797   4.714  15.572  0.1760 -0.3281 -0.2684
 8809SOL    HW137889   1.825   0.053  15.503  0.9145  1.3688  1.4738
 8809SOL    HW237890   1.720   4.695  15.519  0.7772  2.2760 -2.0747
 8810SOL     OW37891   2.835   3.987   8.773  0.0460 -0.7116 -0.0798
 8810SOL    HW137892   2.823   4.045   8.848  1.1238 -1.1176  0.3971
 8810SOL    HW237893   2.745   3.958   8.761 -0.4846  0.4150  1.2183
 8811SOL     OW37894   1.478   1.024   3.730  0.0376 -0.8684  0.1718
 8811SOL    HW137895   1.412   1.006   3.796  1.2096  0.4997  1.7134
 8811SOL    HW237896   1.443   1.109   3.703  1.0475  0.0842  1.9069
 8812SOL     OW37897   3.956   1.115  10.143 -0.4111  0.0512 -0.2625
 8812SOL    HW137898   3.926   1.169  10.070  2.2702  3.1695  0.9164
 8812SOL    HW237899   3.988   1.034  10.103 -1.7373 -0.7525  0.3205
 8813SOL     OW37900   4.124   4.089   7.056 -0.5937  0.0456  0.5897
 8813SOL    HW137901   4.060   4.020   7.075  0.5992 -1.5933 -1.3417
 8813SOL    HW237902   4.085   4.158   7.110 -0.4022  1.1932 -0.7411
 8814SOL     OW37903   2.712   3.273   3.558 -0.3271 -0.5278  0.0779
 8814SOL    HW137904   2.689   3.181   3.562 -1.3880 -0.3070 -0.7091
 8814SOL    HW237905   2.643   3.317   3.607 -2.1502 -0.0909 -2.8420
 8815SOL     OW37906   0.518   2.855  13.583 -0.2538  0.1365  0.5855
 8815SOL    HW137907   0.577   2.923  13.618 -0.9319  1.4779 -0.9103
 8815SOL    HW237908   0.467   2.846  13.663 -0.5723  1.5568  0.5436
 8816SOL     OW37909   4.469   1.866   0.931  0.3164 -0.7918 -0.0018
 8816SOL    HW137910   4.429   1.946   0.966 -2.3767 -2.1707  0.0729
 8816SOL    HW237911   4.562   1.870   0.953 -0.0743  0.5702  1.4763
 8817SOL     OW37912   2.164   2.630   2.257 -0.2816 -0.1405 -0.6092
 8817SOL    HW137913   2.215   2.711   2.249 -1.1302  0.4379 -0.1868
 8817SOL    HW237914   2.125   2.656   2.340  0.7513  2.4739 -0.9280
 8818SOL     OW37915   2.854   0.190  12.432  0.2620 -0.0573  0.1203
 8818SOL    HW137916   2.905   0.183  12.351 -0.5139 -2.1751 -0.1646
 8818SOL    HW237917   2.886   0.115  12.482  3.0265  1.0435  0.0036
 8819SOL     OW37918   0.134   0.452   2.869 -0.0801  0.1805  0.2246
 8819SOL    HW137919   0.056   0.404   2.894  0.0394 -1.6199 -2.9379
 8819SOL    HW237920   0.188   0.457   2.949 -1.4240  1.6907  1.0342
 8820SOL     OW37921   1.056   4.351   0.920 -0.2246 -0.0111 -0.0787
 8820SOL    HW137922   1.151   4.362   0.917 -0.2302  0.0013 -0.2118
 8820SOL    HW237923   1.027   4.426   0.971  2.7419  2.2538 -1.6972
 8821SOL     OW37924   4.217   1.488   3.722  0.1213 -0.7857 -0.1449
 8821SOL    HW137925   4.191   1.463   3.811  1.9665  0.3921  0.7234
 8821SOL    HW237926   4.247   1.578   3.735 -3.1251  0.5912 -2.0549
 8822SOL     OW37927   0.605   2.573   6.009 -0.4280  0.5957  0.2194
 8822SOL    HW137928   0.560   2.638   6.063 -3.0680 -2.2295  1.4111
 8822SOL    HW237929   0.663   2.628   5.956  0.6485 -1.9769 -1.2200
 8823SOL     OW37930   3.939   3.292  17.097 -0.2002  0.4005  0.5368
 8823SOL    HW137931   4.029   3.287  17.064  0.1100  1.2887  1.2374
 8823SOL    HW237932   3.913   3.369  17.046  0.5744 -0.1926 -0.7515
 8824SOL     OW37933   2.422   0.687   6.297 -0.3154 -0.2847 -0.0495
 8824SOL    HW137934   2.379   0.757   6.248  1.3015  0.1099 -0.9298
 8824SOL    HW237935   2.454   0.746   6.365  1.0540 -2.5059  1.2171
 8825SOL     OW37936   4.081   1.768   8.978 -0.0313  0.0432  0.7259
 8825SOL    HW137937   4.075   1.701   9.047 -1.4405 -1.5309 -0.9012
 8825SOL    HW237938   3.988   1.788   8.965  0.1663  1.3125  1.3663
 8826SOL     OW37939   3.071   3.607  14.278  0.5140  0.1377 -0.1449
 8826SOL    HW137940   3.053   3.574  14.190  0.0077  0.0101  0.0060
 8826SOL    HW237941   2.987   3.626  14.319 -0.4716 -1.2437 -1.5287
 8827SOL     OW37942   2.605   3.569  10.126  0.0307  0.0637  0.2906
 8827SOL    HW137943   2.618   3.510  10.200 -0.4056  1.3395  1.4031
 8827SOL    HW237944   2.571   3.649  10.168 -1.0719 -0.9633  1.3598
 8828SOL     OW37945   4.623   2.983   5.984  0.7674  0.4162  0.2707
 8828SOL    HW137946   4.650   2.934   5.906 -0.9389 -0.4443  0.2351
 8828SOL    HW237947   4.592   3.068   5.951  1.1543  0.1790 -0.7132
 8829SOL     OW37948   0.334   3.959   4.981  0.1257  0.0050  0.1380
 8829SOL    HW137949   0.372   4.046   4.994  0.3488  0.0113 -0.6051
 8829SOL    HW237950   0.280   3.952   5.060  0.7015 -3.2188  0.2167
 8830SOL     OW37951   2.120   2.540  15.462 -0.2960 -0.1479 -0.1420
 8830SOL    HW137952   2.090   2.631  15.456  0.7960  0.2617  0.6320
 8830SOL    HW237953   2.214   2.556  15.467 -0.6085  2.0498 -1.1261
 8831SOL     OW37954   1.165   3.756   5.550  0.0682 -0.1522  0.0581
 8831SOL    HW137955   1.118   3.712   5.479  0.1318  0.7442 -0.5394
 8831SOL    HW237956   1.114   3.837   5.557 -1.6065 -1.1527 -0.5562
 8832SOL     OW37957   0.664   4.188   4.303  0.2822  0.2621  0.0591
 8832SOL    HW137958   0.584   4.161   4.348 -0.0516  3.2062  1.2324
 8832SOL    HW237959   0.736   4.161   4.360  0.2038 -0.1936 -0.0555
 8833SOL     OW37960   2.374   2.546  12.965  0.2787  0.0132  0.2880
 8833SOL    HW137961   2.400   2.511  13.050  0.2410  0.5533  0.5204
 8833SOL    HW237962   2.299   2.592  13.002  1.6862 -0.7919  4.1386
 8834SOL     OW37963   0.106   2.370   8.608  0.1633  0.2427 -0.1368
 8834SOL    HW137964   0.178   2.377   8.670 -1.1264  1.6760  1.1974
 8834SOL    HW237965   0.045   2.421   8.661  1.0836  0.7873  0.3828
 8835SOL     OW37966   1.782   2.876   1.922 -0.1320  0.6016  0.5790
 8835SOL    HW137967   1.812   2.815   1.855 -1.8765 -0.2253  0.5323
 8835SOL    HW237968   1.767   2.959   1.878  1.9973  0.3013 -0.6935
 8836SOL     OW37969   4.515   0.507   0.610 -0.3729 -0.8384  0.0231
 8836SOL    HW137970   4.503   0.578   0.673  0.1103 -1.4059  0.7454
 8836SOL    HW237971   4.525   0.439   0.676 -0.1236 -0.5436  0.2897
 8837SOL     OW37972   3.353   1.381   3.792  0.1117 -0.3775 -0.5468
 8837SOL    HW137973   3.425   1.383   3.855 -0.5178 -1.7833  0.2235
 8837SOL    HW237974   3.375   1.313   3.728  2.6245 -0.4633  0.4259
 8838SOL     OW37975   4.171   2.249   7.087  0.5434  0.1489 -0.3042
 8838SOL    HW137976   4.153   2.166   7.132  0.4835  0.0754 -0.4666
 8838SOL    HW237977   4.150   2.317   7.152 -0.4156  0.0183 -0.4808
 8839SOL     OW37978   4.610   2.688   6.984 -0.2315 -0.0110  0.1818
 8839SOL    HW137979   4.650   2.723   7.063 -0.9423  3.8775 -1.2090
 8839SOL    HW237980   4.686   2.695   6.926  0.0096 -0.5051  0.4343
 8840SOL     OW37981   1.266   3.558  13.851  0.5553 -0.1694 -0.2423
 8840SOL    HW137982   1.266   3.638  13.903 -1.7669  0.9058 -1.8781
 8840SOL    HW237983   1.289   3.492  13.916  0.9432  0.2145  0.0093
 8841SOL     OW37984   4.444   3.004  13.181  0.2985  0.2419  0.3960
 8841SOL    HW137985   4.539   3.019  13.178  0.5408 -1.5146 -0.3565
 8841SOL    HW237986   4.425   3.095  13.205 -0.0840  0.4616 -0.7285
 8842SOL     OW37987   1.378   4.334   8.211  0.2375 -0.9603 -0.0304
 8842SOL    HW137988   1.332   4.253   8.187 -1.7262  0.6629 -1.7202
 8842SOL    HW237989   1.446   4.343   8.145 -0.8854 -2.7443 -1.4532
 8843SOL     OW37990   1.220   0.277   4.927  0.3544 -0.0943 -0.0926
 8843SOL    HW137991   1.277   0.344   4.888 -1.3263  0.5260 -1.4760
 8843SOL    HW237992   1.267   0.253   5.007 -0.9815 -0.1817  0.6712
 8844SOL     OW37993   3.950   0.528  12.176 -0.0784 -0.2908 -0.2199
 8844SOL    HW137994   3.942   0.514  12.270  1.7895 -2.3437 -0.3769
 8844SOL    HW237995   3.905   0.446  12.158  1.2757 -0.8794 -0.8975
 8845SOL     OW37996   3.319   3.396   2.084 -0.2706  0.1821 -0.5182
 8845SOL    HW137997   3.254   3.351   2.137  0.2436  0.1704  0.0974
 8845SOL    HW237998   3.401   3.363   2.121 -0.9399 -2.7472 -1.6808
 8846SOL     OW37999   2.675   4.040   4.540  0.4399 -0.4941 -0.1190
 8846SOL    HW138000   2.610   4.045   4.611  3.8279  1.2320  2.8642
 8846SOL    HW238001   2.650   4.119   4.491  1.3330 -1.3561 -1.9355
 8847SOL     OW38002   1.873   3.714   3.302  0.1112 -0.3276 -0.4265
 8847SOL    HW138003   1.811   3.762   3.247 -1.1761 -1.8768 -0.3384
 8847SOL    HW238004   1.956   3.758   3.286 -0.3280 -0.0164 -1.8380
 8848SOL     OW38005   0.283   0.021   3.986 -0.6833 -0.1346 -0.1954
 8848SOL    HW138006   0.312   0.030   3.896  1.5778  1.9213  0.7675
 8848SOL    HW238007   0.367   0.008   4.031 -1.6401 -0.9004  1.4114
 8849SOL     OW38008   0.919   3.798   2.369  0.3078  0.3083  0.3168
 8849SOL    HW138009   0.823   3.806   2.365  0.3066 -0.6753 -1.7667
 8849SOL    HW238010   0.929   3.848   2.450  0.5033  3.0565 -1.4246
 8850SOL     OW38011   3.135   2.150   2.280 -0.1364  0.2626 -0.2135
 8850SOL    HW138012   3.167   2.180   2.194  2.7832 -1.0248  0.4021
 8850SOL    HW238013   3.075   2.224   2.286 -0.1246  0.1039  1.7997
 8851SOL     OW38014   3.081   2.231   3.298  0.0909  0.0611 -0.3551
 8851SOL    HW138015   3.007   2.216   3.356 -0.1840 -0.0768 -0.7410
 8851SOL    HW238016   3.137   2.156   3.318  0.4974  1.3910  3.5167
 8852SOL     OW38017   0.999   3.761  11.691 -0.0273  0.5361  0.4474
 8852SOL    HW138018   0.987   3.670  11.717  0.4582  1.0632  2.4821
 8852SOL    HW238019   1.094   3.771  11.677 -0.1397 -0.0836 -0.8101
 8853SOL     OW38020   3.000   0.854   5.607 -0.1422 -0.4058 -0.2514
 8853SOL    HW138021   3.023   0.798   5.534 -0.7421  2.9995 -3.0440
 8853SOL    HW238022   3.085   0.897   5.619 -0.6479  0.3325  0.6830
 8854SOL     OW38023   0.785   0.073  17.395 -0.1996 -0.0636 -0.1213
 8854SOL    HW138024   0.835   0.106  17.470  0.9512  1.1289 -1.4169
 8854SOL    HW238025   0.722   0.140  17.369 -1.2001 -0.9365  0.0770
 8855SOL     OW38026   3.075   2.359   9.842  0.2043 -0.7430  0.3644
 8855SOL    HW138027   3.003   2.352   9.779  0.2703  0.3601  0.1631
 8855SOL    HW238028   3.132   2.283   9.828 -1.8719 -2.3824  0.7997
 8856SOL     OW38029   1.448   1.960   7.152  0.1764  0.1448  0.0070
 8856SOL    HW138030   1.379   1.927   7.094  0.3632 -0.5595  0.1844
 8856SOL    HW238031   1.395   2.029   7.192  0.3084  0.3825 -0.2246
 8857SOL     OW38032   1.708   2.912   4.277 -0.2748 -0.9182 -0.6362
 8857SOL    HW138033   1.783   2.971   4.285  0.0106 -1.5313  1.2252
 8857SOL    HW238034   1.685   2.930   4.186  1.1630 -0.8477 -0.9953
 8858SOL     OW38035   3.319   3.605  11.164 -0.3406  0.0019 -0.0286
 8858SOL    HW138036   3.322   3.576  11.073  0.0402  1.3356 -0.4312
 8858SOL    HW238037   3.281   3.527  11.204 -1.7980  0.8164  0.1587
 8859SOL     OW38038   4.285   3.603  11.820  0.4134  0.2838 -0.5750
 8859SOL    HW138039   4.355   3.596  11.885  1.3949  0.7293 -1.5806
 8859SOL    HW238040   4.214   3.606  11.884  2.9426 -1.9328  2.3058
 8860SOL     OW38041   2.355   4.151   4.560  0.0082 -0.0232  0.2272
 8860SOL    HW138042   2.383   4.240   4.578 -1.2111  0.5445 -0.6574
 8860SOL    HW238043   2.332   4.152   4.467 -0.2145 -3.2435  0.2335
 8861SOL     OW38044   3.598   1.257  15.705  0.2849 -0.1133 -0.2509
 8861SOL    HW138045   3.546   1.259  15.785 -0.4684  0.2185 -0.7543
 8861SOL    HW238046   3.527   1.280  15.646 -0.6943 -1.4789  0.4091
 8862SOL     OW38047   2.000   4.439   4.476 -0.3005  0.2081 -0.0580
 8862SOL    HW138048   1.933   4.483   4.424  0.8028  1.0561 -0.7843
 8862SOL    HW238049   2.007   4.357   4.428 -0.1237  0.4742 -0.4954
 8863SOL     OW38050   4.427   3.843   5.975 -0.8367  0.9240 -0.0073
 8863SOL    HW138051   4.437   3.938   5.966 -0.0572  0.8042 -0.4462
 8863SOL    HW238052   4.467   3.829   6.060 -1.2988  0.8670  0.2001
 8864SOL     OW38053   3.217   0.468   4.551  0.6490  0.1997  0.3206
 8864SOL    HW138054   3.130   0.492   4.520 -0.0388 -2.4578  0.1857
 8864SOL    HW238055   3.224   0.518   4.632 -1.3925  1.5611 -0.3579
 8865SOL     OW38056   3.489   0.932  11.519  0.4315 -0.0392  0.2458
 8865SOL    HW138057   3.485   0.973  11.433  1.7038 -1.3425 -0.4422
 8865SOL    HW238058   3.582   0.911  11.515  0.7300  0.7809  2.7939
 8866SOL     OW38059   2.819   4.659   3.034  0.0701  0.0233  0.3639
 8866SOL    HW138060   2.724   4.668   3.042 -0.0935  0.6013 -2.2849
 8866SOL    HW238061   2.820   4.675   2.940 -1.4580 -1.7921  0.0353
 8867SOL     OW38062   2.937   3.749  10.565  0.2484 -0.0741 -0.0746
 8867SOL    HW138063   2.927   3.844  10.557  0.5118  0.0499  1.0179
 8867SOL    HW238064   2.940   3.709  10.479  0.3293  0.2359 -0.2169
 8868SOL     OW38065   3.624   3.508   8.628  0.6494 -0.2945 -0.5658
 8868SOL    HW138066   3.620   3.443   8.699  0.4638  0.8916  0.4997
 8868SOL    HW238067   3.565   3.575   8.662  1.1701  0.7755 -1.7737
 8869SOL     OW38068   0.044   2.304  10.975  0.4716  0.0042 -0.3884
 8869SOL    HW138069   0.093   2.311  10.893  0.1150 -0.9058 -0.6766
 8869SOL    HW238070   4.700   2.375  10.973 -0.8319 -1.2985 -4.4279
 8870SOL     OW38071   2.299   1.053  17.031 -0.0699 -0.4463 -0.2588
 8870SOL    HW138072   2.373   1.110  17.051 -0.1945 -1.1614  2.2932
 8870SOL    HW238073   2.284   1.086  16.943  0.1880  1.1726  0.3093
 8871SOL     OW38074   2.070   3.103   5.811 -0.1963 -0.2995 -0.0719
 8871SOL    HW138075   2.011   3.052   5.867  2.5545 -3.1192  0.2657
 8871SOL    HW238076   2.047   3.193   5.832  0.9679 -0.2237  0.9117
 8872SOL     OW38077   0.797   4.411   7.140  0.3451 -0.2453  0.2536
 8872SOL    HW138078   0.858   4.413   7.214  1.3197 -0.4114 -0.5512
 8872SOL    HW238079   0.723   4.463   7.172 -2.8075 -3.5460 -1.6076
 8873SOL     OW38080   2.100   3.622   5.943  0.1543  0.1710  0.7081
 8873SOL    HW138081   2.045   3.674   6.002 -2.2953 -0.4499 -0.9997
 8873SOL    HW238082   2.136   3.553   5.998 -1.0824 -1.1118 -0.0828
 8874SOL     OW38083   4.626   1.316   4.379  0.2042  0.8050 -0.2185
 8874SOL    HW138084   4.541   1.359   4.363  0.0635  0.3062 -0.8326
 8874SOL    HW238085   4.617   1.242   4.319 -0.3540  1.2810 -0.7333
 8875SOL     OW38086   3.796   4.690   2.335 -0.3858 -0.2332  0.6720
 8875SOL    HW138087   3.855   4.707   2.409  1.7186  0.4959 -1.1984
 8875SOL    HW238088   3.711   4.682   2.379  0.1695  0.6951  1.9163
 8876SOL     OW38089   3.050   1.007   2.482  0.3703  0.1977  0.8105
 8876SOL    HW138090   3.016   1.053   2.406  0.4953  0.5541  0.9705
 8876SOL    HW238091   3.085   0.926   2.446  1.6505  1.4730 -0.7952
 8877SOL     OW38092   3.280   1.291   4.757 -0.2356  0.0438 -0.2834
 8877SOL    HW138093   3.286   1.380   4.723  0.0052 -0.4011 -1.4229
 8877SOL    HW238094   3.264   1.249   4.672  2.0104 -2.1436  0.3758
 8878SOL     OW38095   2.439   1.358  10.259 -0.1763 -0.0712  0.4902
 8878SOL    HW138096   2.439   1.319  10.346  0.0224  3.5366  2.1111
 8878SOL    HW238097   2.524   1.320  10.236  0.0365  0.7087 -0.0477
 8879SOL     OW38098   2.517   0.201   8.738 -0.2565 -0.5372 -0.3073
 8879SOL    HW138099   2.516   0.294   8.760  0.6676 -0.5008 -0.4467
 8879SOL    HW238100   2.440   0.183   8.683 -1.8470 -0.8651  1.9960
 8880SOL     OW38101   2.140   3.338   2.077  0.0466 -0.4265 -0.0743
 8880SOL    HW138102   2.114   3.430   2.074  0.3705 -0.4137 -2.0493
 8880SOL    HW238103   2.138   3.332   2.173 -0.2159 -1.3009 -0.1333
 8881SOL     OW38104   3.612   0.521   8.828 -0.4701  0.2491 -0.0048
 8881SOL    HW138105   3.638   0.597   8.776  2.0673 -0.8302 -0.3681
 8881SOL    HW238106   3.682   0.516   8.893 -0.4103  1.0786 -0.0079
 8882SOL     OW38107   0.143   1.146   8.833  0.2718 -0.2629 -0.2615
 8882SOL    HW138108   0.099   1.172   8.752 -0.0396  1.1356  0.3515
 8882SOL    HW238109   0.108   1.208   8.897 -0.6303  0.0835 -1.0984
 8883SOL     OW38110   4.437   3.037  11.517  0.2141 -0.0988 -0.0502
 8883SOL    HW138111   4.473   3.112  11.470 -0.2742  0.4624  0.4770
 8883SOL    HW238112   4.346   3.062  11.534  0.0818 -1.7262  1.6276
 8884SOL     OW38113   3.579   2.369  13.221 -0.0800  1.3951  0.3084
 8884SOL    HW138114   3.494   2.387  13.181  1.0870  4.0443 -0.9797
 8884SOL    HW238115   3.590   2.444  13.279  1.5600  0.1334  1.6504
 8885SOL     OW38116   2.875   2.258   6.668  0.1392 -0.1069  0.5302
 8885SOL    HW138117   2.874   2.353   6.656  0.9656  0.0605  1.8112
 8885SOL    HW238118   2.962   2.252   6.706  0.2800 -0.5177  0.1504
 8886SOL     OW38119   1.118   0.302   7.137  0.4730 -0.3869 -0.0731
 8886SOL    HW138120   1.145   0.374   7.080 -1.3134 -0.3274 -0.8270
 8886SOL    HW238121   1.108   0.350   7.220 -1.8718 -1.5193  0.2941
 8887SOL     OW38122   0.650   0.070   9.517  0.0635 -0.6112  0.0587
 8887SOL    HW138123   0.689   0.024   9.591  0.4681  1.8738  1.3741
 8887SOL    HW238124   0.665   0.163   9.536 -0.4813 -0.6494  0.6819
 8888SOL     OW38125   4.632   0.048   8.204 -0.1391 -0.1353  0.0207
 8888SOL    HW138126   4.575   0.097   8.144 -0.0852 -0.1687 -0.0569
 8888SOL    HW238127   4.571   4.719   8.259  1.0327  1.1015  2.4206
 8889SOL     OW38128   0.172   4.048   7.233  0.3873 -0.1534  0.0591
 8889SOL    HW138129   0.109   4.047   7.306  0.7859 -0.2358  0.4036
 8889SOL    HW238130   0.215   4.133   7.241  0.9820 -0.4993  0.5885
 8890SOL     OW38131   1.547   4.621   8.582 -0.1881 -0.0939  0.4091
 8890SOL    HW138132   1.484   4.552   8.561 -1.4301  0.9514  0.6766
 8890SOL    HW238133   1.605   4.616   8.506  0.7585  2.5437  0.9345
 8891SOL     OW38134   3.404   2.364   1.241 -0.5759 -0.3140  0.3370
 8891SOL    HW138135   3.491   2.391   1.272 -0.0110 -1.6752 -0.0651
 8891SOL    HW238136   3.398   2.274   1.272 -0.4303  0.0498  1.4158
 8892SOL     OW38137   0.427   4.384  12.419 -0.0663  0.2931 -0.1372
 8892SOL    HW138138   0.436   4.365  12.513  0.8750 -1.7330 -0.6338
 8892SOL    HW238139   0.408   4.478  12.425  1.3658  0.5210  0.8373
 8893SOL     OW38140   0.761   0.532  12.225  0.7541  0.1463  0.0410
 8893SOL    HW138141   0.777   0.468  12.155  1.6391 -0.8586  1.1811
 8893SOL    HW238142   0.665   0.536  12.230  0.7739  1.7059 -0.6200
 8894SOL     OW38143   2.712   0.619   3.968 -0.0469 -0.4729  0.4242
 8894SOL    HW138144   2.751   0.701   3.998  0.1747 -0.7694  0.9563
 8894SOL    HW238145   2.619   0.627   3.990  0.1645  0.7073  0.8844
 8895SOL     OW38146   1.684   2.936   3.949  0.1177  0.5518 -0.1899
 8895SOL    HW138147   1.777   2.954   3.937  0.4907 -0.2064  1.4937
 8895SOL    HW238148   1.676   2.846   3.917 -0.3663  0.4191  0.3020
 8896SOL     OW38149   0.976   1.409   5.585  0.1479  0.4924 -0.5563
 8896SOL    HW138150   1.052   1.362   5.552 -1.2149 -3.7596  2.4555
 8896SOL    HW238151   0.912   1.349   5.546  1.2576 -2.7593  2.6266
 8897SOL     OW38152   4.370   2.999   6.285 -0.2733  0.2651  0.1612
 8897SOL    HW138153   4.338   2.909   6.279  0.2239  0.0987 -0.0705
 8897SOL    HW238154   4.433   2.987   6.357 -1.9048 -0.4408  1.4783
 8898SOL     OW38155   1.492   3.597  16.580  0.2547  0.3721 -0.2509
 8898SOL    HW138156   1.418   3.626  16.527  0.6628  0.4719 -0.7659
 8898SOL    HW238157   1.546   3.676  16.567  1.7150 -0.3456  1.3670
 8899SOL     OW38158   4.255   4.403   5.779  0.8403 -0.3940 -0.5622
 8899SOL    HW138159   4.341   4.403   5.736  1.4027  0.4703  0.5440
 8899SOL    HW238160   4.256   4.497   5.799 -2.3720 -0.5051  0.1029
 8900SOL     OW38161   1.629   1.992   5.426 -0.0625  0.5912 -0.5954
 8900SOL    HW138162   1.695   2.060   5.420  1.3257 -0.7158 -0.2442
 8900SOL    HW238163   1.587   2.007   5.341 -1.7359  0.4848  0.1955
 8901SOL     OW38164   2.573   3.162  13.950 -0.3296  0.0193 -0.0363
 8901SOL    HW138165   2.584   3.070  13.929  0.8835  0.3774 -1.0231
 8901SOL    HW238166   2.483   3.178  13.979 -1.3980  1.1697 -3.8747
 8902SOL     OW38167   0.551   0.594   4.202 -0.1756  0.0695 -0.3989
 8902SOL    HW138168   0.465   0.637   4.201 -0.6154 -0.8287 -0.6248
 8902SOL    HW238169   0.522   0.505   4.181  0.8238 -0.1389 -0.9021
 8903SOL     OW38170   2.629   2.638   8.548  0.0056  0.2808 -0.3062
 8903SOL    HW138171   2.676   2.720   8.563 -0.2113  0.4920 -0.7635
 8903SOL    HW238172   2.604   2.650   8.456 -1.6340  1.2914  0.2696
 8904SOL     OW38173   2.673   4.004   3.949  0.1950 -0.2260  0.0317
 8904SOL    HW138174   2.652   3.985   3.858 -3.8865 -1.6181  1.2588
 8904SOL    HW238175   2.735   3.931   3.960  2.2001  1.8053  2.3416
 8905SOL     OW38176   3.541   1.089  11.023 -0.1748 -0.5399  0.1467
 8905SOL    HW138177   3.464   1.036  11.001  0.0722 -0.1543 -1.6523
 8905SOL    HW238178   3.551   1.143  10.945  1.7575  0.5412  1.1445
 8906SOL     OW38179   2.037   1.811   6.640  0.1719 -0.1590 -0.1500
 8906SOL    HW138180   1.994   1.859   6.711 -0.7481 -1.8492  0.4178
 8906SOL    HW238181   2.087   1.888   6.613 -1.9057  0.4852 -2.2143
 8907SOL     OW38182   3.344   2.600   8.109 -0.6773  0.0659  0.0684
 8907SOL    HW138183   3.259   2.643   8.116  0.0301  2.0102 -3.2637
 8907SOL    HW238184   3.317   2.508   8.110 -1.7692  0.4014  1.5011
 8908SOL     OW38185   2.447   4.141   5.993  0.2277 -0.0407  0.6860
 8908SOL    HW138186   2.480   4.055   5.967  1.2981 -0.0093  1.9035
 8908SOL    HW238187   2.372   4.148   5.935  0.1344 -0.3173  0.7721
 8909SOL     OW38188   3.346   3.412  11.376  0.2264 -0.1193 -0.6201
 8909SOL    HW138189   3.330   3.360  11.454  2.6061  0.8825  0.5489
 8909SOL    HW238190   3.350   3.502  11.410  2.5322 -0.3040 -0.3933
 8910SOL     OW38191   3.509   3.354  13.970 -0.1918  0.0553 -0.7994
 8910SOL    HW138192   3.504   3.408  14.049 -0.1671  0.4464 -1.0695
 8910SOL    HW238193   3.599   3.326  13.986  0.5094  3.1079  0.5675
 8911SOL     OW38194   2.552   1.311   4.718  0.0834 -0.1035  0.3525
 8911SOL    HW138195   2.626   1.370   4.712 -3.2949  4.0519 -0.0688
 8911SOL    HW238196   2.593   1.243   4.772  1.3895 -0.5963 -1.2784
 8912SOL     OW38197   1.711   2.682   2.288  0.0628  0.1366  0.2157
 8912SOL    HW138198   1.780   2.660   2.226  0.4681  0.3365  0.5980
 8912SOL    HW238199   1.639   2.690   2.225 -0.0651  0.3892  0.3929
 8913SOL     OW38200   2.312   1.548  17.032  0.1936  0.3006  0.1234
 8913SOL    HW138201   2.347   1.630  17.067 -0.7057  0.3712  0.8579
 8913SOL    HW238202   2.374   1.535  16.960 -0.8773  1.3764 -0.9646
 8914SOL     OW38203   4.363   3.800   2.431 -0.3586  0.4668 -0.1417
 8914SOL    HW138204   4.386   3.724   2.485  1.0996 -0.1146 -1.6136
 8914SOL    HW238205   4.417   3.788   2.353 -1.9779  1.3911 -1.4035
 8915SOL     OW38206   0.935   3.001  15.181  0.2247  0.4181 -0.6702
 8915SOL    HW138207   0.877   3.052  15.237 -2.0200 -0.5471 -2.1236
 8915SOL    HW238208   0.988   2.958  15.249 -1.4114  0.3885  0.5749
 8916SOL     OW38209   1.490   2.218   8.101  0.4062  0.0848  0.0229
 8916SOL    HW138210   1.544   2.265   8.165  2.2356 -1.0399 -0.7063
 8916SOL    HW238211   1.510   2.260   8.017 -1.6380  1.1054  0.0496
 8917SOL     OW38212   2.146   2.271   7.744 -0.3162  0.3324 -0.1101
 8917SOL    HW138213   2.177   2.274   7.653  1.5084  0.7696  0.5210
 8917SOL    HW238214   2.069   2.216   7.731  1.5148 -2.4312  0.7605
 8918SOL     OW38215   1.301   1.782  14.301  0.1331  0.0795 -0.6148
 8918SOL    HW138216   1.270   1.870  14.319  0.0210 -0.4514  1.7193
 8918SOL    HW238217   1.241   1.741  14.364  1.8593  0.2812  1.1622
 8919SOL     OW38218   1.116   0.754  17.672  0.4015  0.5707 -0.3906
 8919SOL    HW138219   1.029   0.741   0.029  0.4579 -0.6595 -0.6855
 8919SOL    HW238220   1.099   0.733  17.580  1.8634 -1.3331 -0.2026
 8920SOL     OW38221   2.907   0.305   7.966 -0.2192 -0.3939  1.1611
 8920SOL    HW138222   2.972   0.374   7.954  1.0226 -2.2449 -2.8164
 8920SOL    HW238223   2.939   0.263   8.045  0.7206  2.2664  2.2186
 8921SOL     OW38224   4.405   2.669   5.167  0.3967 -0.6058  0.1171
 8921SOL    HW138225   4.438   2.586   5.203  1.2965 -0.5336 -0.5284
 8921SOL    HW238226   4.344   2.637   5.101  1.9860 -0.5232 -1.4190
 8922SOL     OW38227   2.013   1.733   3.210  0.3738 -0.2244 -0.2611
 8922SOL    HW138228   1.983   1.787   3.137  1.6421  0.9181  0.0600
 8922SOL    HW238229   1.957   1.658   3.190  0.0427  0.1145 -0.5954
 8923SOL     OW38230   0.546   3.121   4.978  0.1387 -0.7832  0.2449
 8923SOL    HW138231   0.483   3.080   5.038  0.6175 -1.3679  0.3494
 8923SOL    HW238232   0.621   3.066   4.999  0.3452 -0.1750  1.1111
 8924SOL     OW38233   2.383   4.418   9.572  0.3106 -0.2316  0.1700
 8924SOL    HW138234   2.388   4.355   9.644 -1.7092 -0.2515  0.2912
 8924SOL    HW238235   2.288   4.429   9.568  0.1718 -0.4562  2.6213
 8925SOL     OW38236   1.794   2.395  13.561  0.3670 -0.2667 -0.8697
 8925SOL    HW138237   1.822   2.304  13.565 -1.7325 -0.8316  0.7387
 8925SOL    HW238238   1.770   2.412  13.652 -1.3178 -0.7025 -1.2364
 8926SOL     OW38239   2.518   4.471   5.231  0.2891 -0.2719 -0.5926
 8926SOL    HW138240   2.532   4.377   5.242  1.0871  0.1616  2.0936
 8926SOL    HW238241   2.507   4.502   5.321 -0.3402  0.0203 -0.7696
 8927SOL     OW38242   2.442   0.632  11.781  0.0138 -0.6609 -0.4148
 8927SOL    HW138243   2.461   0.713  11.829 -0.9262 -0.3815 -0.5177
 8927SOL    HW238244   2.422   0.572  11.853  1.7690  0.5553  1.0799
 8928SOL     OW38245   1.604   2.998  12.428 -0.7299 -0.7497  0.1516
 8928SOL    HW138246   1.544   2.934  12.390  1.4342 -1.4637 -2.1225
 8928SOL    HW238247   1.650   2.950  12.498  0.7363  0.7453  0.2186
 8929SOL     OW38248   0.065   1.196   7.361  0.0280 -0.0457 -0.2469
 8929SOL    HW138249   0.153   1.234   7.363  0.1151 -0.4024  2.7132
 8929SOL    HW238250   0.060   1.147   7.443 -0.8729 -0.8342 -0.7808
 8930SOL     OW38251   3.168   1.684   2.422 -0.0377  0.0609  0.1134
 8930SOL    HW138252   3.259   1.711   2.406 -1.2402  3.7401 -0.6041
 8930SOL    HW238253   3.127   1.767   2.400  2.3924  0.6687 -2.1199
 8931SOL     OW38254   3.568   0.197  11.432  0.4693 -0.1547 -1.2617
 8931SOL    HW138255   3.587   0.176  11.341  0.1002 -2.5329 -0.7994
 8931SOL    HW238256   3.529   0.285  11.431  0.5488 -0.1178 -1.0563
 8932SOL     OW38257   1.278   3.563   8.054 -0.2447 -0.8180  0.0018
 8932SOL    HW138258   1.273   3.503   8.129 -2.3779  0.6494  1.0528
 8932SOL    HW238259   1.190   3.598   8.070 -0.4313 -1.7165  0.9039
 8933SOL     OW38260   0.393   3.941   9.300 -0.5030 -0.2913  0.3360
 8933SOL    HW138261   0.331   3.872   9.322  0.4824 -1.2944 -0.0328
 8933SOL    HW238262   0.470   3.887   9.280 -0.9904 -0.4921 -0.9570
 8934SOL     OW38263   2.474   0.767   8.912 -0.8273 -0.3945 -0.1044
 8934SOL    HW138264   2.426   0.773   8.829  0.8835 -0.9271 -1.1436
 8934SOL    HW238265   2.435   0.692   8.956  0.3940 -1.3988 -0.7390
 8935SOL     OW38266   0.860   3.226   3.870  0.0119 -0.1925 -0.6797
 8935SOL    HW138267   0.900   3.296   3.819  0.6064 -0.6691 -0.8717
 8935SOL    HW238268   0.932   3.163   3.880  0.5801  0.4953 -0.3971
 8936SOL     OW38269   0.611   3.523  12.037  0.0601  0.3091  0.5323
 8936SOL    HW138270   0.653   3.466  11.972  0.3438 -0.3949  1.3301
 8936SOL    HW238271   0.639   3.492  12.124  2.7005 -2.2867 -1.2346
 8937SOL     OW38272   4.476   1.732  15.268  0.7861  0.3385 -0.3067
 8937SOL    HW138273   4.443   1.812  15.227  0.3974  0.3887  0.1065
 8937SOL    HW238274   4.501   1.774  15.350 -0.4227  1.0245 -0.2828
 8938SOL     OW38275   3.991   1.801  16.496 -0.0942  0.2702  0.1163
 8938SOL    HW138276   3.997   1.769  16.586  0.2537  1.6731  0.5918
 8938SOL    HW238277   3.897   1.802  16.479 -0.0426 -3.0795 -0.3614
 8939SOL     OW38278   2.859   2.953  13.413  0.2061 -0.0165  0.0843
 8939SOL    HW138279   2.807   2.873  13.406 -0.6786  0.6876 -1.4991
 8939SOL    HW238280   2.942   2.910  13.435  0.0416 -0.7841 -0.8190
 8940SOL     OW38281   3.814   1.334   6.530  0.3878 -0.1802 -0.4148
 8940SOL    HW138282   3.851   1.261   6.580  1.2807  0.9199  0.5205
 8940SOL    HW238283   3.736   1.347   6.583  1.5163 -0.3559  1.2962
 8941SOL     OW38284   2.490   2.685   8.827  0.6833 -0.2076 -0.5507
 8941SOL    HW138285   2.417   2.627   8.846  0.5246 -0.0164 -0.5774
 8941SOL    HW238286   2.517   2.667   8.737  0.1398 -1.7430 -0.3946
 8942SOL     OW38287   1.305   2.936   7.861 -0.6992 -0.1479  0.2808
 8942SOL    HW138288   1.386   2.928   7.911 -0.3215  1.9285 -0.0008
 8942SOL    HW238289   1.307   2.850   7.820 -1.3730  1.2066 -2.5409
 8943SOL     OW38290   4.061   3.582  14.583 -0.0079  0.1107 -0.0862
 8943SOL    HW138291   4.006   3.525  14.636 -1.7678  0.9186 -1.0473
 8943SOL    HW238292   4.092   3.640  14.652 -3.2294 -2.7900  3.8197
 8944SOL     OW38293   0.122   0.412   3.678  0.5027 -0.1985  0.1095
 8944SOL    HW138294   0.082   0.399   3.592 -3.2476  1.8590  1.5403
 8944SOL    HW238295   0.100   0.503   3.697  0.5747 -0.1628  0.0206
 8945SOL     OW38296   0.765   2.923   2.310 -0.1932 -0.6362 -0.1085
 8945SOL    HW138297   0.688   2.979   2.304 -1.2119 -1.9118  1.0930
 8945SOL    HW238298   0.717   2.840   2.318 -0.5294 -0.4881 -0.6267
 8946SOL     OW38299   3.879   1.754   1.931  0.0452 -0.0643 -0.3966
 8946SOL    HW138300   3.878   1.848   1.944 -1.5987 -0.2079  0.5365
 8946SOL    HW238301   3.960   1.743   1.883  0.1714  2.0435 -0.6453
 8947SOL     OW38302   0.461   2.355   1.999  0.8019  0.0831  0.4389
 8947SOL    HW138303   0.365   2.355   2.000  0.8391 -0.4754  3.7115
 8947SOL    HW238304   0.482   2.329   1.909 -0.8466  0.6056 -0.0969
 8948SOL     OW38305   1.336   0.775   2.930 -0.1034 -0.2994 -0.6549
 8948SOL    HW138306   1.387   0.826   2.866 -1.4358 -0.3787 -1.7744
 8948SOL    HW238307   1.248   0.799   2.903  0.1873  0.2362 -1.1307
 8949SOL     OW38308   4.376   3.179   2.543  0.0052  0.1513 -0.2216
 8949SOL    HW138309   4.427   3.124   2.483  0.3568 -0.0123  0.2238
 8949SOL    HW238310   4.449   3.232   2.577 -0.9335  0.3273  1.5123
 8950SOL     OW38311   2.811   1.313   7.935 -0.2141  0.0105  0.3094
 8950SOL    HW138312   2.759   1.387   7.967  1.7316  1.5332 -0.1109
 8950SOL    HW238313   2.754   1.242   7.965 -0.8364  0.1389 -0.5887
 8951SOL     OW38314   3.938   3.930   4.102 -0.3522  0.0091  0.2034
 8951SOL    HW138315   3.950   3.873   4.178 -1.4988  0.6991  0.9042
 8951SOL    HW238316   3.926   4.014   4.145  0.8273 -0.3053  1.1169
 8952SOL     OW38317   0.456   0.015   4.351  0.2136  0.1622 -0.7529
 8952SOL    HW138318   0.473   4.706   4.262 -0.2553  1.0777 -1.1328
 8952SOL    HW238319   0.474   0.108   4.340  0.3826  0.3660  1.1796
 8953SOL     OW38320   2.317   2.077   8.696 -0.1183 -0.0457  0.7121
 8953SOL    HW138321   2.297   2.162   8.736  0.4377 -0.8645  2.7363
 8953SOL    HW238322   2.403   2.107   8.665 -0.5770  0.7748  0.2337
 8954SOL     OW38323   0.881   4.542  17.403  0.2793 -0.4096  0.1463
 8954SOL    HW138324   0.972   4.555  17.427  0.9663 -2.5555 -1.2421
 8954SOL    HW238325   0.858   4.635  17.398  2.2493  0.1381  1.0580
 8955SOL     OW38326   0.872   1.403   3.830 -0.4922 -0.4262 -0.2191
 8955SOL    HW138327   0.943   1.433   3.772  0.4732 -0.6300  0.8537
 8955SOL    HW238328   0.873   1.308   3.819  1.5483 -0.6032  1.4936
 8956SOL     OW38329   0.058   1.892   8.327 -0.3080  0.1245  0.3268
 8956SOL    HW138330   0.027   1.965   8.381 -2.1066  1.4022 -2.4444
 8956SOL    HW238331   0.098   1.935   8.251  0.8295  2.0923  2.0321
 8957SOL     OW38332   1.977   2.965   4.621  0.3719  0.2910 -0.6269
 8957SOL    HW138333   1.912   2.903   4.589 -1.9449  2.8086 -0.8195
 8957SOL    HW238334   2.031   2.957   4.542 -0.6120 -1.9585 -1.0523
 8958SOL     OW38335   2.346   1.325   5.278 -0.0427  0.3221  0.0706
 8958SOL    HW138336   2.260   1.285   5.285  0.0722  0.3543  1.5291
 8958SOL    HW238337   2.407   1.251   5.281  0.0638  0.4395  0.6577
 8959SOL     OW38338   2.503   1.091  14.681  0.3820 -0.7560  0.9460
 8959SOL    HW138339   2.482   1.171  14.632  1.7672 -1.6089 -1.0488
 8959SOL    HW238340   2.425   1.044  14.650  0.0390 -0.6488  1.6602
 8960SOL     OW38341   1.999   2.748   7.284  0.2683  0.2637  0.1780
 8960SOL    HW138342   1.976   2.819   7.344 -1.4573 -0.4102  0.3005
 8960SOL    HW238343   1.993   2.791   7.198 -1.2610  2.5262  1.4290
 8961SOL     OW38344   4.050   3.411   6.256 -0.0245  0.1575  0.8530
 8961SOL    HW138345   4.083   3.463   6.330  2.1102 -0.3056  0.2416
 8961SOL    HW238346   4.086   3.448   6.175  0.6853 -1.3958  0.4563
 8962SOL     OW38347   0.397   4.613   5.680 -0.1773 -0.0511  0.3481
 8962SOL    HW138348   0.305   4.627   5.658 -0.0948 -0.7652 -0.4176
 8962SOL    HW238349   0.405   4.518   5.684 -0.8417 -0.1242 -0.0178
 8963SOL     OW38350   4.442   0.429   6.342  0.5646 -0.0388 -0.3191
 8963SOL    HW138351   4.529   0.442   6.381 -0.3943  1.4580  1.3526
 8963SOL    HW238352   4.435   0.519   6.309  0.1033  0.0834  0.1086
 8964SOL     OW38353   1.128   1.539   2.107  0.3459  0.4106 -0.1940
 8964SOL    HW138354   1.042   1.498   2.110  0.1644  0.8743  0.9974
 8964SOL    HW238355   1.164   1.495   2.184 -1.7462  0.4571  0.7913
 8965SOL     OW38356   1.285   4.199   2.324  0.0052 -0.1823  0.8677
 8965SOL    HW138357   1.204   4.163   2.361 -0.9625  1.0807 -0.0337
 8965SOL    HW238358   1.339   4.121   2.341  1.1587  0.0964 -1.5286
 8966SOL     OW38359   1.110   4.029   1.466 -0.0297  0.4528  0.2289
 8966SOL    HW138360   1.070   4.114   1.447  0.5270  0.5051 -0.7412
 8966SOL    HW238361   1.164   4.019   1.387 -3.0854  1.1798 -1.9444
 8967SOL     OW38362   3.448   2.212   3.985  0.1530  0.5236  0.4591
 8967SOL    HW138363   3.403   2.248   4.062 -0.9486  0.2347 -0.0463
 8967SOL    HW238364   3.536   2.249   3.990  0.7949 -1.3949  2.8905
 8968SOL     OW38365   4.044   3.638   8.730 -0.0840  0.3600 -0.1991
 8968SOL    HW138366   4.128   3.656   8.772  0.1038  2.0719 -1.3395
 8968SOL    HW238367   4.080   3.600   8.650  1.6488  0.0794  0.7089
 8969SOL     OW38368   0.297   4.285   0.813  0.1252  0.0525  0.4054
 8969SOL    HW138369   0.378   4.271   0.764  0.6351  0.3749  1.1540
 8969SOL    HW238370   0.313   4.360   0.870  0.6579  0.6168 -0.4900
 8970SOL     OW38371   1.314   1.644   3.662  0.0196 -0.2109 -0.0586
 8970SOL    HW138372   1.302   1.736   3.685  1.8381 -0.8596  3.5017
 8970SOL    HW238373   1.304   1.656   3.567 -1.2642  1.2296  0.2469
 8971SOL     OW38374   3.749   3.918   0.708  0.5187 -0.1818  0.5288
 8971SOL    HW138375   3.761   3.884   0.619 -0.3901  1.1157 -0.0834
 8971SOL    HW238376   3.722   4.008   0.690 -0.7553 -0.1379  2.6670
 8972SOL     OW38377   2.661   0.813   6.902 -0.1690  0.0534 -0.7248
 8972SOL    HW138378   2.644   0.746   6.969  0.8783  0.9521  0.4319
 8972SOL    HW238379   2.613   0.888   6.937  3.7168  1.8122  0.8565
 8973SOL     OW38380   3.448   1.835   8.851  0.4938  0.0123 -0.1675
 8973SOL    HW138381   3.490   1.811   8.934  3.4053 -0.6503 -1.8194
 8973SOL    HW238382   3.383   1.766   8.842 -0.7161  0.9070  1.5266
 8974SOL     OW38383   4.670   3.719   7.391 -0.8190 -0.0207 -0.0038
 8974SOL    HW138384   0.028   3.763   7.355  0.2100  1.2296  3.8108
 8974SOL    HW238385   4.668   3.630   7.356  2.5085 -0.2179  0.2739
 8975SOL     OW38386   2.944   3.239  16.696 -0.4764  0.0822  0.5158
 8975SOL    HW138387   2.973   3.294  16.769  0.5373 -1.3572  1.1880
 8975SOL    HW238388   2.862   3.284  16.674 -1.9662 -3.0007 -0.1821
 8976SOL     OW38389   1.954   0.115   9.859 -0.0938 -0.3645 -0.2440
 8976SOL    HW138390   2.030   0.062   9.832 -0.7819 -0.8367 -1.2749
 8976SOL    HW238391   1.885   0.052   9.877 -1.7135  1.3336 -0.5855
 8977SOL     OW38392   4.714   3.900   7.773  0.4931 -0.2129 -0.5106
 8977SOL    HW138393   0.015   3.816   7.814  1.4431  1.0528  1.5886
 8977SOL    HW238394   4.640   3.878   7.716 -0.0043  1.7896 -0.6288
 8978SOL     OW38395   0.046   3.551  11.623  0.0029 -0.0470  0.4220
 8978SOL    HW138396   0.034   3.563  11.529 -0.6744  0.5429  0.5818
 8978SOL    HW238397   4.675   3.546  11.653  0.4624  0.8904  1.9614
 8979SOL     OW38398   3.411   2.080   5.100 -0.1170  0.0059 -0.4421
 8979SOL    HW138399   3.387   1.992   5.073 -1.4981  0.4080 -0.5600
 8979SOL    HW238400   3.485   2.094   5.041  0.4855  2.3261  0.8572
 8980SOL     OW38401   4.079   4.326   3.276 -0.3801  0.0786 -0.0578
 8980SOL    HW138402   4.072   4.353   3.184 -1.0339  0.1996  0.0325
 8980SOL    HW238403   4.162   4.371   3.292 -0.1274 -0.6991  0.7780
 8981SOL     OW38404   2.217   3.207   6.375  0.4603 -0.5794  0.2412
 8981SOL    HW138405   2.295   3.180   6.422  0.8331 -0.7172 -0.4565
 8981SOL    HW238406   2.197   3.121   6.340  1.8278 -1.8876  2.6900
 8982SOL     OW38407   4.441   1.222  16.672  0.0934  0.3438  0.0567
 8982SOL    HW138408   4.518   1.165  16.682  1.8901  2.3538 -2.1426
 8982SOL    HW238409   4.380   1.167  16.624  0.0287 -0.1149  0.6575
 8983SOL     OW38410   3.282   3.005   2.245  0.4814 -0.6632 -0.1214
 8983SOL    HW138411   3.212   2.997   2.181 -2.2375  0.7934  2.6850
 8983SOL    HW238412   3.228   2.999   2.323  1.1163 -0.9234  0.3002
 8984SOL     OW38413   4.338   4.058   3.151 -0.4649  0.4204  0.0355
 8984SOL    HW138414   4.391   4.125   3.193 -0.9780  0.8754 -0.0445
 8984SOL    HW238415   4.348   4.084   3.059 -1.1117  0.3282 -0.0646
 8985SOL     OW38416   2.400   2.608   4.551  0.4146 -0.5399  0.5832
 8985SOL    HW138417   2.403   2.521   4.511  1.2245  0.3695 -1.3434
 8985SOL    HW238418   2.444   2.585   4.633 -0.4371 -0.3757  1.0831
 8986SOL     OW38419   3.186   2.887  11.304  0.5675 -0.3182  0.4635
 8986SOL    HW138420   3.106   2.932  11.275 -0.6519 -2.6886  0.1412
 8986SOL    HW238421   3.236   2.956  11.349 -0.2402 -0.2726  1.3032
 8987SOL     OW38422   3.900   4.199  10.296 -0.8938  0.1369 -0.5316
 8987SOL    HW138423   3.957   4.263  10.254 -2.5158  1.0750 -1.2994
 8987SOL    HW238424   3.934   4.118  10.259  2.8205  1.3256  0.2221
 8988SOL     OW38425   1.342   3.982  16.681  0.1920  0.3647  0.5071
 8988SOL    HW138426   1.286   4.008  16.608 -0.4454  0.3973  1.0118
 8988SOL    HW238427   1.292   3.997  16.761 -0.6976 -0.9614  0.1878
 8989SOL     OW38428   1.460   1.767   5.197  0.2633 -0.1793 -0.2490
 8989SOL    HW138429   1.514   1.846   5.199 -0.9903  0.7953 -4.6836
 8989SOL    HW238430   1.528   1.700   5.203  1.9793  1.8585  2.8680
 8990SOL     OW38431   1.914   3.377   2.657 -0.0286  0.1941  0.0821
 8990SOL    HW138432   1.950   3.454   2.612 -0.3825 -0.2709 -0.9894
 8990SOL    HW238433   1.987   3.364   2.719 -0.0262  0.5939  0.1658
 8991SOL     OW38434   3.239   4.264   1.733 -0.0931 -0.9378 -0.5843
 8991SOL    HW138435   3.201   4.295   1.815 -1.7968  1.2616 -2.1936
 8991SOL    HW238436   3.190   4.184   1.716  1.7351 -1.9461 -1.1011
 8992SOL     OW38437   3.527   1.147   9.639  0.3079  0.4622  0.3109
 8992SOL    HW138438   3.595   1.086   9.668 -1.0056 -0.1992  2.0837
 8992SOL    HW238439   3.563   1.229   9.672 -0.7167 -0.5519  4.0164
 8993SOL     OW38440   2.734   3.363   0.096 -0.2113 -0.9507  0.3370
 8993SOL    HW138441   2.704   3.343   0.184  0.9473  1.8561  1.3599
 8993SOL    HW238442   2.682   3.306   0.039 -1.1487  0.6875 -0.4398
 8994SOL     OW38443   0.141   0.619   0.673  0.9178 -0.0246 -0.2290
 8994SOL    HW138444   0.163   0.557   0.604 -1.9200  1.5895 -2.6135
 8994SOL    HW238445   0.125   0.566   0.750 -0.3765  0.2569 -0.3033
 8995SOL     OW38446   4.356   2.998   3.478  0.3114 -0.1650 -0.3830
 8995SOL    HW138447   4.272   2.957   3.459 -0.1932 -0.1059  1.7131
 8995SOL    HW238448   4.329   3.087   3.503 -0.0842 -0.4257  0.0999
 8996SOL     OW38449   3.873   1.692   6.427  0.2549 -0.3791 -0.5179
 8996SOL    HW138450   3.844   1.777   6.395  0.5024 -0.1021 -0.0061
 8996SOL    HW238451   3.815   1.649   6.364 -0.8829  1.7358 -0.9105
 8997SOL     OW38452   4.413   2.520  15.936 -0.0018 -0.8190 -0.3707
 8997SOL    HW138453   4.499   2.548  15.967 -0.4884  2.3016 -1.8849
 8997SOL    HW238454   4.363   2.500  16.015  0.6236  0.8284  0.4491
 8998SOL     OW38455   1.153   1.663   4.529 -0.5453 -0.0911  0.6328
 8998SOL    HW138456   1.086   1.681   4.464 -0.9364 -1.2855  0.7055
 8998SOL    HW238457   1.204   1.739   4.502  0.2885 -0.5311  0.9665
 8999SOL     OW38458   3.988   3.523   5.214  0.0296 -0.1633  0.4518
 8999SOL    HW138459   4.008   3.449   5.156 -0.8212  0.1664 -0.2647
 8999SOL    HW238460   3.892   3.520   5.211  0.0421 -1.9892  1.8616
 9000SOL     OW38461   4.421   2.252   6.698  0.1822 -0.0378 -0.1752
 9000SOL    HW138462   4.395   2.203   6.776  0.2533  0.8077  0.3838
 9000SOL    HW238463   4.409   2.189   6.626  2.1965 -2.0535  1.2473
 9001SOL     OW38464   0.623   2.112   7.903  0.1478 -0.8704  0.5098
 9001SOL    HW138465   0.644   2.199   7.871 -0.2734 -0.7608  0.5372
 9001SOL    HW238466   0.557   2.143   7.965  0.0610 -0.1819  0.0730
 9002SOL     OW38467   0.824   2.122   7.568  0.3129  0.0387 -0.1750
 9002SOL    HW138468   0.899   2.065   7.584  0.1028 -0.4849 -1.0938
 9002SOL    HW238469   0.792   2.142   7.656 -1.1919 -0.2176 -0.6763
 9003SOL     OW38470   1.456   3.416  15.514 -0.0371  0.0895 -0.7441
 9003SOL    HW138471   1.506   3.476  15.459 -1.1523 -1.0118 -2.9687
 9003SOL    HW238472   1.406   3.360  15.454 -0.8405  1.0852 -0.9954
 9004SOL     OW38473   1.941   2.638  17.193 -0.0526  0.2027 -0.2140
 9004SOL    HW138474   1.946   2.593  17.277  0.3942  0.0739 -0.3097
 9004SOL    HW238475   1.849   2.647  17.169 -0.8452 -2.9304  1.6837
 9005SOL     OW38476   2.901   2.058   5.475  0.0559 -0.4418  0.1382
 9005SOL    HW138477   2.951   2.005   5.413  0.3820 -1.6882  1.4773
 9005SOL    HW238478   2.824   2.004   5.490  0.0797 -0.8101 -1.0937
 9006SOL     OW38479   2.374   2.736  12.679 -0.4173 -0.3923 -0.0790
 9006SOL    HW138480   2.347   2.809  12.734  0.5327  0.2590 -0.4873
 9006SOL    HW238481   2.459   2.765  12.645 -0.3896 -1.1148 -0.6327
 9007SOL     OW38482   2.223   3.682   3.571 -0.3473  0.1074 -0.0436
 9007SOL    HW138483   2.308   3.671   3.528 -1.7696 -1.2437 -2.5598
 9007SOL    HW238484   2.230   3.769   3.611  1.3539 -0.7175  1.4288
 9008SOL     OW38485   4.272   3.831   3.354 -1.1352  0.1681 -0.0193
 9008SOL    HW138486   4.305   3.881   3.280 -1.1159  0.4651  0.1901
 9008SOL    HW238487   4.223   3.897   3.404 -2.9813 -0.4136 -1.0699
 9009SOL     OW38488   3.073   4.502   6.046 -0.1255  0.3831 -0.5244
 9009SOL    HW138489   3.136   4.571   6.026  0.0322 -0.1453 -1.8200
 9009SOL    HW238490   3.107   4.456   6.123 -2.8752 -1.0970 -0.1942
 9010SOL     OW38491   1.391   2.431   5.826 -0.1931 -0.8508  0.4054
 9010SOL    HW138492   1.368   2.364   5.761 -0.8589  0.5015 -0.7582
 9010SOL    HW238493   1.440   2.379   5.889 -0.0024 -1.1970 -0.0243
 9011SOL     OW38494   4.683   1.971   3.912 -0.4007  1.3900  0.1202
 9011SOL    HW138495   4.681   1.932   3.824  1.1594  0.0888  0.6530
 9011SOL    HW238496   4.628   2.049   3.901  0.2752  1.8703  0.1295
 9012SOL     OW38497   3.181   2.932  15.492  0.5357  0.6582 -0.2838
 9012SOL    HW138498   3.257   2.971  15.449  0.5737 -0.2609 -1.0409
 9012SOL    HW238499   3.201   2.839  15.502  0.7881  0.4691 -2.6560
 9013SOL     OW38500   3.219   2.909   5.673 -0.6855 -0.4561 -0.3884
 9013SOL    HW138501   3.204   2.818   5.648  1.3566 -1.5656  2.4230
 9013SOL    HW238502   3.314   2.916   5.660 -0.9257 -1.1763 -2.4113
 9014SOL     OW38503   1.923   0.353   8.727  0.4048  0.2137  0.6958
 9014SOL    HW138504   1.853   0.319   8.670  1.2628  0.6464 -0.6041
 9014SOL    HW238505   1.869   0.405   8.787  0.1108  0.1020  0.5302
 9015SOL     OW38506   1.621   3.689  13.571 -0.1197 -0.1646  0.2882
 9015SOL    HW138507   1.691   3.729  13.520 -0.7540  1.1191  0.4373
 9015SOL    HW238508   1.552   3.755  13.572  0.5818  0.5588 -0.1736
 9016SOL     OW38509   3.150   2.183  12.792  0.8423  0.2874  0.0245
 9016SOL    HW138510   3.129   2.182  12.698  1.5995  1.2710 -0.1519
 9016SOL    HW238511   3.081   2.120  12.814  0.2480 -0.1142 -2.8761
 9017SOL     OW38512   1.861   3.973  16.093  0.3109 -0.1254  0.7584
 9017SOL    HW138513   1.948   3.972  16.130 -0.4802  1.0095  2.6203
 9017SOL    HW238514   1.812   3.915  16.151 -0.8695  0.4511  0.3523
 9018SOL     OW38515   1.058   1.173   6.873  0.3234  0.2733  0.1524
 9018SOL    HW138516   1.108   1.230   6.930  1.7237 -0.2343 -0.5520
 9018SOL    HW238517   1.094   1.202   6.789  1.9965  0.4070  0.9285
 9019SOL     OW38518   2.928   0.313   8.688 -0.0078 -0.4406  0.0782
 9019SOL    HW138519   2.878   0.237   8.658  1.4621 -2.2359  2.1684
 9019SOL    HW238520   3.014   0.316   8.647 -0.6220 -1.9757 -1.2940
 9020SOL     OW38521   4.310   1.361   5.990  0.5469  0.3708  0.0470
 9020SOL    HW138522   4.268   1.327   6.069  0.0964  0.0513 -0.3293
 9020SOL    HW238523   4.235   1.353   5.931 -0.3863 -0.6251  1.3934
 9021SOL     OW38524   0.416   0.501   0.794 -0.3662 -0.5343 -0.1624
 9021SOL    HW138525   0.507   0.486   0.769  0.0400  0.8814  0.4335
 9021SOL    HW238526   0.372   0.509   0.709 -0.7864  0.9261  0.1804
 9022SOL     OW38527   1.946   3.957   2.489  0.5884  0.5009  0.3355
 9022SOL    HW138528   2.001   3.919   2.558  0.4239 -0.3159  0.0163
 9022SOL    HW238529   2.003   4.033   2.477 -1.3699  1.9646  0.2802
 9023SOL     OW38530   1.521   1.634   5.780  0.5855  0.1067  0.4842
 9023SOL    HW138531   1.610   1.656   5.752 -0.5315  1.3727 -2.1206
 9023SOL    HW238532   1.485   1.596   5.700  1.4479 -1.0593  0.6462
 9024SOL     OW38533   3.418   0.943   7.504  0.5030  0.5411 -0.3022
 9024SOL    HW138534   3.462   0.888   7.569 -1.0760  1.1594  1.3132
 9024SOL    HW238535   3.478   1.017   7.495  0.5769  0.1620 -2.6789
 9025SOL     OW38536   0.627   4.118   5.305  0.1566 -0.5698  0.1617
 9025SOL    HW138537   0.598   4.142   5.217  1.8406  0.4722 -0.1109
 9025SOL    HW238538   0.663   4.204   5.328  0.0760  0.1383 -2.3295
 9026SOL     OW38539   0.228   1.088   5.575 -0.4374 -0.4748 -0.2499
 9026SOL    HW138540   0.143   1.120   5.605 -1.1142 -1.8127 -0.7668
 9026SOL    HW238541   0.274   1.170   5.557  0.5897 -0.7424  1.1573
 9027SOL     OW38542   1.163   0.111   8.598  0.0198 -0.1554  0.6035
 9027SOL    HW138543   1.129   0.095   8.686  0.1235 -2.4845  0.2145
 9027SOL    HW238544   1.090   0.166   8.569  0.5520  0.2565  0.0403
 9028SOL     OW38545   1.520   0.538   4.762  0.2187 -0.1148  0.2005
 9028SOL    HW138546   1.453   0.470   4.749 -0.2584  0.2818  0.5871
 9028SOL    HW238547   1.508   0.599   4.689  2.4110 -1.1098 -0.9787
 9029SOL     OW38548   1.593   3.843  16.166 -0.3507 -0.0828  0.6693
 9029SOL    HW138549   1.588   3.899  16.244 -3.0594 -0.4721  0.7594
 9029SOL    HW238550   1.500   3.836  16.146 -0.0589 -1.4088 -0.1709
 9030SOL     OW38551   2.262   1.643   5.542 -0.0400  0.7181  0.3075
 9030SOL    HW138552   2.280   1.720   5.596 -0.8389 -0.6204  2.4730
 9030SOL    HW238553   2.334   1.584   5.565 -0.8950 -0.4771 -0.0935
 9031SOL     OW38554   3.594   3.811  10.310 -0.0148  0.0292 -0.2757
 9031SOL    HW138555   3.565   3.889  10.358  1.0918  0.9452 -1.1046
 9031SOL    HW238556   3.641   3.856  10.240  0.9874 -0.7792 -0.1273
 9032SOL     OW38557   0.345   2.796  13.389  0.0387  0.1377  0.4301
 9032SOL    HW138558   0.401   2.823  13.462  1.2590 -0.5327 -0.2482
 9032SOL    HW238559   0.353   2.863  13.322 -0.9091 -0.9334 -0.7544
 9033SOL     OW38560   4.110   0.541   9.021 -0.5208 -0.0238  0.6208
 9033SOL    HW138561   4.159   0.618   8.992 -0.1864 -0.3776  0.2406
 9033SOL    HW238562   4.174   0.472   9.003 -0.9441 -0.6301  1.4201
 9034SOL     OW38563   4.574   3.703   8.776  0.0686  0.5072 -0.2475
 9034SOL    HW138564   4.627   3.753   8.838  3.6987 -1.1888 -2.0049
 9034SOL    HW238565   4.599   3.732   8.688  0.8820  0.8184  0.0898
 9035SOL     OW38566   0.818   1.865   4.039 -0.7997 -0.5694 -0.6504
 9035SOL    HW138567   0.842   1.772   4.042 -0.9613 -0.5505  1.5079
 9035SOL    HW238568   0.852   1.907   4.118 -3.5092 -0.9480  0.7127
 9036SOL     OW38569   2.376   3.407   5.394  0.0165  0.3587  0.3993
 9036SOL    HW138570   2.464   3.445   5.392 -0.6212  1.9232  1.4425
 9036SOL    HW238571   2.347   3.408   5.303 -2.6512  1.9099  1.2530
 9037SOL     OW38572   2.552   3.658   9.836 -0.0263  0.1877  0.1654
 9037SOL    HW138573   2.554   3.693   9.747  1.4724 -1.3125 -0.3785
 9037SOL    HW238574   2.641   3.625   9.847  0.7448  1.1107 -3.2189
 9038SOL     OW38575   0.102   3.452   2.742  0.1903 -0.0932 -0.3423
 9038SOL    HW138576   0.150   3.473   2.662  0.6903  0.6784  0.1664
 9038SOL    HW238577   0.152   3.385   2.790  0.5840  0.7198  0.3690
 9039SOL     OW38578   3.480   2.642  13.944 -0.0824 -0.4026 -0.5956
 9039SOL    HW138579   3.413   2.578  13.921 -1.0149  0.2502  0.3389
 9039SOL    HW238580   3.430   2.722  13.930  1.9728  1.0208  0.0919
 9040SOL     OW38581   0.103   2.718   6.853  0.1001 -0.2498  0.5585
 9040SOL    HW138582   0.192   2.721   6.889  0.6680  1.8095 -1.0680
 9040SOL    HW238583   0.125   2.730   6.761  3.0935 -1.0634  1.1475
 9041SOL     OW38584   3.224   4.330   3.754 -0.2013  0.2987 -0.6748
 9041SOL    HW138585   3.149   4.374   3.794  1.1905  3.3547 -1.4625
 9041SOL    HW238586   3.179   4.245   3.755 -2.3981  1.4872  0.3722
 9042SOL     OW38587   2.819   0.793   4.168 -0.1563  0.0873 -0.0894
 9042SOL    HW138588   2.734   0.802   4.212  0.4005  0.2893  0.9393
 9042SOL    HW238589   2.871   0.790   4.249  0.4320  0.4346 -0.4585
 9043SOL     OW38590   1.452   1.618   2.751  0.8201 -0.0123  0.5689
 9043SOL    HW138591   1.476   1.676   2.679  1.0178 -2.7450 -1.5540
 9043SOL    HW238592   1.389   1.661   2.809 -0.6618 -0.2988 -0.8180
 9044SOL     OW38593   4.684   3.297  16.893 -0.6896  0.2631  0.2577
 9044SOL    HW138594   0.004   3.210  16.897 -0.0796  0.4850 -1.1429
 9044SOL    HW238595   4.640   3.299  16.978  0.5589  0.8859  0.8820
 9045SOL     OW38596   0.732   0.814  16.735  0.3435  0.3937 -0.2864
 9045SOL    HW138597   0.772   0.901  16.725  1.2828 -0.3323 -3.0128
 9045SOL    HW238598   0.658   0.842  16.789  0.1078  2.1565 -1.5178
 9046SOL     OW38599   2.852   0.630  15.174 -0.0693 -0.2090 -0.3050
 9046SOL    HW138600   2.896   0.630  15.089 -0.1809  0.7409 -0.3728
 9046SOL    HW238601   2.762   0.610  15.148 -1.1298  1.6768  1.9322
 9047SOL     OW38602   2.938   1.720   4.341  0.0685 -0.3329 -0.3524
 9047SOL    HW138603   2.964   1.802   4.384 -0.0008 -0.4396 -0.1106
 9047SOL    HW238604   2.844   1.735   4.331  0.5056  0.0677 -3.8776
 9048SOL     OW38605   3.229   1.371   8.621  0.1149 -0.2394  0.0720
 9048SOL    HW138606   3.180   1.386   8.701  0.6931  1.9720  0.0023
 9048SOL    HW238607   3.253   1.280   8.639 -0.8756 -0.4475  0.3208
 9049SOL     OW38608   2.933   0.771   2.832 -0.3057 -0.0378 -0.2966
 9049SOL    HW138609   2.895   0.747   2.747 -0.6568 -1.3685  0.2344
 9049SOL    HW238610   2.867   0.836   2.854 -1.5207 -0.3397 -3.0652
 9050SOL     OW38611   4.662   2.442  16.144 -0.1030 -0.1032  0.6066
 9050SOL    HW138612   0.017   2.382  16.137 -0.5079 -0.3796 -1.5230
 9050SOL    HW238613   4.698   2.526  16.119  2.2429 -1.6541 -1.1980
 9051SOL     OW38614   4.362   1.476   4.036  0.2150 -0.1723 -0.2012
 9051SOL    HW138615   4.438   1.426   4.003 -0.1731 -2.1600  1.9257
 9051SOL    HW238616   4.359   1.553   3.980  1.0410 -2.2058 -3.0998
 9052SOL     OW38617   3.022   3.281   0.681 -0.2039 -0.4268 -0.5308
 9052SOL    HW138618   3.056   3.267   0.770 -0.4510 -1.0413 -0.5349
 9052SOL    HW238619   2.984   3.195   0.663  1.3748 -1.7757  2.4770
 9053SOL     OW38620   1.690   1.681   8.950 -0.2326 -0.0279 -0.3361
 9053SOL    HW138621   1.772   1.724   8.928  0.1714 -0.2720  0.6879
 9053SOL    HW238622   1.710   1.665   9.042  0.4040  0.6728 -0.3575
 9054SOL     OW38623   1.950   2.624   8.026  0.5563  0.1103 -0.2198
 9054SOL    HW138624   1.918   2.621   7.935 -2.8475 -0.7594  0.9784
 9054SOL    HW238625   2.006   2.701   8.024 -2.2377  2.1723  0.9418
 9055SOL     OW38626   1.025   1.306  15.779  0.2288  0.1549  0.8306
 9055SOL    HW138627   1.065   1.306  15.692  1.6570  1.4831  1.4838
 9055SOL    HW238628   0.968   1.229  15.777  0.3558  0.0677  0.6007
 9056SOL     OW38629   1.780   1.976   9.827  0.4127 -0.4939  0.1344
 9056SOL    HW138630   1.865   1.983   9.785 -0.0443 -1.3142 -0.9320
 9056SOL    HW238631   1.802   2.002   9.916 -0.3123 -0.2524  0.2475
 9057SOL     OW38632   3.753   2.577  11.614  0.3446  0.1793  0.0529
 9057SOL    HW138633   3.752   2.673  11.616  1.5473  0.1828  0.3622
 9057SOL    HW238634   3.698   2.555  11.689 -1.0616 -1.7256 -1.5337
 9058SOL     OW38635   3.499   3.702   5.492 -0.0227  0.0363  0.2769
 9058SOL    HW138636   3.452   3.661   5.564  1.6870  1.0675  2.0019
 9058SOL    HW238637   3.515   3.781   5.543  1.0417  1.1164 -1.7212
 9059SOL     OW38638   2.514   4.607   9.783  0.2118 -0.0855 -0.1427
 9059SOL    HW138639   2.467   4.677   9.738 -0.0955  1.4829  2.5855
 9059SOL    HW238640   2.507   4.532   9.724  3.2634  0.1869 -0.8830
 9060SOL     OW38641   0.221   1.551  10.556 -0.2926  0.0974 -0.3443
 9060SOL    HW138642   0.274   1.555  10.477  0.9803  0.3443  0.5122
 9060SOL    HW238643   0.254   1.473  10.601  2.0413  1.2693 -0.0183
 9061SOL     OW38644   3.289   0.254  13.691 -0.3235 -0.1467  0.4376
 9061SOL    HW138645   3.245   0.258  13.775 -1.0454  0.1806  0.0452
 9061SOL    HW238646   3.375   0.257  13.732  0.7082  0.0796 -1.7206
 9062SOL     OW38647   2.176   3.656  14.583 -0.1999  0.1147  0.0094
 9062SOL    HW138648   2.229   3.730  14.612  1.1435 -0.5886 -0.6507
 9062SOL    HW238649   2.214   3.592  14.642 -2.1603 -0.4336  0.6982
 9063SOL     OW38650   2.521   0.999   9.528  0.5826  0.2419 -0.1507
 9063SOL    HW138651   2.458   1.031   9.593 -0.1858 -0.6172 -0.4773
 9063SOL    HW238652   2.467   0.970   9.455  1.1472 -3.0459  0.7402
 9064SOL     OW38653   3.933   2.264  16.275 -0.2176 -0.1086  0.5530
 9064SOL    HW138654   3.880   2.185  16.268  1.2927 -1.0987  0.2450
 9064SOL    HW238655   3.972   2.262  16.363 -0.3542 -0.4593  0.6050
 9065SOL     OW38656   0.343   3.866   7.024  0.2257 -0.5739  0.1025
 9065SOL    HW138657   0.305   3.953   7.013 -1.6853 -1.3190  0.6959
 9065SOL    HW238658   0.324   3.854   7.117  0.8061 -0.8496  0.1843
 9066SOL     OW38659   4.426   4.283   6.103 -0.3948 -0.0304 -0.2461
 9066SOL    HW138660   4.442   4.220   6.033 -2.5554 -2.6295  1.5816
 9066SOL    HW238661   4.488   4.255   6.170  0.7982  3.0159 -0.0529
 9067SOL     OW38662   2.221   1.536   5.882  0.1361 -0.4514 -0.1067
 9067SOL    HW138663   2.294   1.592   5.854  1.6445 -1.8068  1.1126
 9067SOL    HW238664   2.257   1.448   5.873 -0.0626 -0.6221  0.7638
 9068SOL     OW38665   1.712   2.702   8.325 -0.2676 -0.3527 -0.0056
 9068SOL    HW138666   1.770   2.699   8.401 -0.5664 -0.2537  0.2254
 9068SOL    HW238667   1.729   2.788   8.288  1.8436 -0.6380  0.2836
 9069SOL     OW38668   3.007   3.718  15.496 -0.1836  0.1238 -0.5079
 9069SOL    HW138669   3.085   3.697  15.548 -0.4068 -0.9711 -0.5995
 9069SOL    HW238670   3.064   3.744  15.424  0.0162  0.5159 -0.2071
 9070SOL     OW38671   3.421   0.249  15.480  0.0554 -0.3665  0.0526
 9070SOL    HW138672   3.326   0.262  15.475  0.3297  1.2645 -0.9542
 9070SOL    HW238673   3.426   0.227  15.573  2.6496 -0.8709 -0.2209
 9071SOL     OW38674   4.647   2.322   2.730 -0.5387 -0.3815  0.6658
 9071SOL    HW138675   4.595   2.264   2.674  1.4616 -1.0266 -0.5407
 9071SOL    HW238676   4.717   2.264   2.759  0.1836  0.9130  1.5358
 9072SOL     OW38677   1.178   0.643   5.581 -0.0591  0.2416 -0.1611
 9072SOL    HW138678   1.118   0.569   5.571  0.7377 -0.4040 -0.2146
 9072SOL    HW238679   1.183   0.658   5.675  0.3097  1.3689 -0.3629
 9073SOL     OW38680   3.515   1.994   8.235 -0.3094  0.6792 -0.5163
 9073SOL    HW138681   3.429   2.036   8.228  0.1454  1.5961 -0.5393
 9073SOL    HW238682   3.489   1.938   8.307 -2.7941  0.7741 -1.3406
 9074SOL     OW38683   3.422   0.310  11.689 -0.3499  0.0326  0.0296
 9074SOL    HW138684   3.347   0.326  11.631  0.8255 -0.1112 -1.5391
 9074SOL    HW238685   3.431   0.215  11.691 -1.7173 -0.0814  0.6106
 9075SOL     OW38686   1.527   1.538   8.792  0.1136  0.2714  0.0080
 9075SOL    HW138687   1.566   1.561   8.877 -1.5436  3.1519 -0.0031
 9075SOL    HW238688   1.491   1.453   8.818 -0.2628 -0.2970 -2.3819
 9076SOL     OW38689   2.938   3.892   4.988 -0.1792  0.1964  0.3183
 9076SOL    HW138690   3.024   3.862   4.960 -0.7312 -1.1813  0.1141
 9076SOL    HW238691   2.911   3.920   4.900 -0.5197  0.2644  0.4430
 9077SOL     OW38692   0.335   1.699   6.156 -0.2974 -0.0417  0.0565
 9077SOL    HW138693   0.401   1.764   6.179  0.0213  0.0698 -1.1517
 9077SOL    HW238694   0.296   1.750   6.084  2.5111  1.4297 -0.3933
 9078SOL     OW38695   3.082   2.469   2.957 -0.8685  0.0521 -0.3035
 9078SOL    HW138696   3.118   2.520   2.884 -2.8121  1.4152 -0.2901
 9078SOL    HW238697   3.092   2.392   2.900 -0.2062  1.2271 -1.7936
 9079SOL     OW38698   0.682   0.126  16.424  0.6623 -0.4629 -0.0308
 9079SOL    HW138699   0.605   0.142  16.369  0.3420 -0.1264  0.5203
 9079SOL    HW238700   0.667   0.194  16.489 -3.5194 -0.0364 -1.4480
 9080SOL     OW38701   0.556   2.797  11.203  0.0676 -0.2561 -0.6800
 9080SOL    HW138702   0.605   2.737  11.146  2.2128  0.5374  0.2950
 9080SOL    HW238703   0.554   2.752  11.287  1.0993  2.2347  0.6836
 9081SOL     OW38704   3.737   0.205   6.534 -0.2470  0.2761 -0.6210
 9081SOL    HW138705   3.760   0.294   6.562  1.2743  0.3190 -2.0364
 9081SOL    HW238706   3.818   0.171   6.496  0.3312  0.0802  0.7778
 9082SOL     OW38707   2.296   0.657   3.083 -0.5622 -0.0869 -0.4596
 9082SOL    HW138708   2.274   0.750   3.070  0.4221  0.6013  2.6545
 9082SOL    HW238709   2.230   0.639   3.150 -0.6314 -0.8545 -0.7344
 9083SOL     OW38710   0.289   0.144   5.926  0.6984 -0.2475 -0.0689
 9083SOL    HW138711   0.383   0.162   5.933  0.4363  0.2066  2.1850
 9083SOL    HW238712   0.291   0.090   5.847  1.2269 -1.4729  0.7781
 9084SOL     OW38713   2.729   1.085   8.703  0.0950  0.0198 -0.1465
 9084SOL    HW138714   2.727   1.180   8.715  2.3276 -0.2071  1.9400
 9084SOL    HW238715   2.819   1.058   8.724 -0.5894 -2.3846 -0.2426
 9085SOL     OW38716   4.135   3.556   6.009  0.5462  0.1130 -0.2086
 9085SOL    HW138717   4.210   3.587   5.959  1.5768 -1.6169  0.2726
 9085SOL    HW238718   4.097   3.640   6.033 -0.7671 -0.4790 -0.2230
 9086SOL     OW38719   4.358   2.649   5.876  0.1947  0.4264  0.2568
 9086SOL    HW138720   4.382   2.716   5.813  0.6773 -1.4485 -1.5475
 9086SOL    HW238721   4.323   2.574   5.828 -0.8432  1.2805 -0.3257
 9087SOL     OW38722   2.215   3.249   6.677 -0.3522  0.6355 -0.8081
 9087SOL    HW138723   2.290   3.205   6.717  0.1113  2.2043  0.0345
 9087SOL    HW238724   2.194   3.193   6.602  0.6941  0.0889 -0.6951
 9088SOL     OW38725   0.969   1.589   7.736 -0.3289  0.0937 -0.1287
 9088SOL    HW138726   0.961   1.512   7.679  0.3369  0.5284 -0.8187
 9088SOL    HW238727   1.044   1.636   7.700 -0.4691  0.3735 -0.0492
 9089SOL     OW38728   2.868   0.871  11.146 -0.3476  0.4303 -0.2128
 9089SOL    HW138729   2.829   0.956  11.125  0.3096  0.3678 -1.7185
 9089SOL    HW238730   2.831   0.809  11.084  0.4901  0.0665 -0.3498
 9090SOL     OW38731   4.515   1.841  10.986 -0.3229 -0.0842  0.3092
 9090SOL    HW138732   4.445   1.846  11.051  2.7227  1.3324  3.4694
 9090SOL    HW238733   4.565   1.919  11.011 -0.7543  0.6600 -1.1221
 9091SOL     OW38734   0.739   0.054  14.982  0.0292  0.0434  0.1591
 9091SOL    HW138735   0.687   0.100  14.916 -0.0397  0.9657  0.8717
 9091SOL    HW238736   0.810   0.118  14.984 -1.5167  1.7203  0.9336
 9092SOL     OW38737   4.096   1.892   8.167  0.5969 -0.2774 -0.0416
 9092SOL    HW138738   4.080   1.973   8.119  1.4818  0.4135  0.8347
 9092SOL    HW238739   4.163   1.861   8.106  1.9284 -0.7570  1.6629
 9093SOL     OW38740   1.057   1.430  16.238  0.2928 -0.1876  0.5719
 9093SOL    HW138741   1.053   1.515  16.283 -1.0731 -0.7807  1.5563
 9093SOL    HW238742   1.096   1.453  16.154  0.5511  1.3432  1.0958
 9094SOL     OW38743   0.215   2.584  10.582 -0.0792  0.0076 -0.6571
 9094SOL    HW138744   0.219   2.674  10.615 -1.1621  0.5990 -2.1768
 9094SOL    HW238745   0.131   2.609  10.543  0.4875  0.6863 -1.4497
 9095SOL     OW38746   3.011   0.304   4.014 -0.1483  0.8313 -0.0151
 9095SOL    HW138747   2.951   0.362   3.967 -0.7648 -0.5971 -0.9816
 9095SOL    HW238748   2.964   0.300   4.098 -0.1834 -1.2264 -0.1243
 9096SOL     OW38749   2.097   1.032  11.364 -0.0482  0.2766  0.9148
 9096SOL    HW138750   2.064   1.066  11.282  2.0018 -0.6378 -0.2905
 9096SOL    HW238751   2.063   0.942  11.367 -0.9204  0.5744 -0.1646
 9097SOL     OW38752   2.989   0.500   6.629 -0.4676  0.1279 -0.5740
 9097SOL    HW138753   2.933   0.498   6.707 -0.4695 -1.9508 -0.6296
 9097SOL    HW238754   2.995   0.405   6.616 -0.7966  0.2341 -1.4927
 9098SOL     OW38755   0.629   4.480   7.369 -0.3060  0.4700 -0.5405
 9098SOL    HW138756   0.610   4.388   7.352  0.8464 -0.6005  4.1791
 9098SOL    HW238757   0.636   4.482   7.464  2.3623 -1.2953 -0.6981
 9099SOL     OW38758   1.467   2.699   8.414 -0.0395  0.4725  0.0936
 9099SOL    HW138759   1.559   2.703   8.388 -0.1190 -1.6329 -0.4776
 9099SOL    HW238760   1.450   2.749   8.494  1.4891  0.5235  0.3879
 9100SOL     OW38761   1.127   1.618   8.733  0.1437  0.0275 -0.1563
 9100SOL    HW138762   1.106   1.672   8.656 -0.7238 -2.7910 -1.9109
 9100SOL    HW238763   1.222   1.632   8.734  0.0554  0.4957  1.5491
 9101SOL     OW38764   4.406   3.905  15.239 -0.6891 -0.5365  0.1381
 9101SOL    HW138765   4.378   3.814  15.250  0.0484 -0.9621 -1.4084
 9101SOL    HW238766   4.448   3.895  15.153 -0.5175  0.4128  0.1185
 9102SOL     OW38767   2.198   0.929   7.297  0.1711 -0.4582  0.2260
 9102SOL    HW138768   2.145   0.850   7.291  0.6338 -0.9057  2.0960
 9102SOL    HW238769   2.175   0.953   7.387  0.3298  0.1236  0.1128
 9103SOL     OW38770   2.402   0.751   6.702  0.1052 -0.4939  0.3443
 9103SOL    HW138771   2.418   0.773   6.611  2.8927  0.8373  1.1368
 9103SOL    HW238772   2.488   0.770   6.740  0.7953 -2.6822 -0.1122
 9104SOL     OW38773   2.103   2.705   6.653 -0.0036  0.5762 -0.2346
 9104SOL    HW138774   2.051   2.733   6.578 -1.1699  3.3088  1.5789
 9104SOL    HW238775   2.122   2.787   6.698 -1.8716  0.7040  0.3281
 9105SOL     OW38776   0.073   1.576   2.327  0.8974  0.5688 -0.0481
 9105SOL    HW138777   0.072   1.669   2.347 -1.2732  0.9702 -2.1385
 9105SOL    HW238778   0.100   1.577   2.236 -2.2142  1.1643 -0.9531
 9106SOL     OW38779   0.369   1.084   8.218  0.4769  0.0484 -0.5343
 9106SOL    HW138780   0.432   1.028   8.264  1.1283  2.7695  1.8591
 9106SOL    HW238781   0.311   1.017   8.183  0.9241 -0.2092 -0.7910
 9107SOL     OW38782   3.820   3.662   9.971  0.2642 -0.2558 -0.1482
 9107SOL    HW138783   3.755   3.594   9.958  0.2202 -0.1012 -0.7426
 9107SOL    HW238784   3.867   3.664   9.888 -0.9459 -0.9859 -0.8395
 9108SOL     OW38785   4.385   0.429  12.169 -0.0188  0.1823 -0.1002
 9108SOL    HW138786   4.352   0.348  12.129 -0.1301  0.5099 -0.6802
 9108SOL    HW238787   4.367   0.415  12.262  0.5818  0.3141  0.0324
 9109SOL     OW38788   1.892   4.015  11.357 -0.2166 -0.4380 -0.0744
 9109SOL    HW138789   1.866   3.986  11.269  1.6792 -0.7116 -0.5591
 9109SOL    HW238790   1.801   4.013  11.388 -1.2242 -0.4978 -3.0240
 9110SOL     OW38791   2.686   1.059   7.924 -0.5507 -0.1194 -0.3688
 9110SOL    HW138792   2.633   1.016   7.991 -2.0597  1.1622 -0.7507
 9110SOL    HW238793   2.712   0.985   7.868 -1.9143  0.4045 -1.6894
 9111SOL     OW38794   1.520   1.463   2.043 -0.3769  0.3105 -0.2939
 9111SOL    HW138795   1.560   1.508   1.968  2.7839  0.6238  1.5578
 9111SOL    HW238796   1.593   1.402   2.050 -0.2896  0.4889  0.4519
 9112SOL     OW38797   1.805   1.164   4.525  0.2804  0.0407  0.5164
 9112SOL    HW138798   1.776   1.200   4.609 -0.0541  0.4248  0.2346
 9112SOL    HW238799   1.894   1.197   4.516  0.1240 -0.2051 -2.1426
 9113SOL     OW38800   0.604   3.580   5.450  0.1149  0.1715  0.3943
 9113SOL    HW138801   0.549   3.596   5.526 -0.2339  2.0744 -0.2672
 9113SOL    HW238802   0.663   3.654   5.444  1.1138 -0.6534 -0.0644
 9114SOL     OW38803   2.352   3.384   0.374  0.0947  0.5461 -0.3516
 9114SOL    HW138804   2.377   3.472   0.347  0.3797  0.1973 -1.2420
 9114SOL    HW238805   2.385   3.400   0.462 -0.0233  0.6492 -0.3266
 9115SOL     OW38806   3.279   2.074   3.827 -0.1961  0.2320  0.2011
 9115SOL    HW138807   3.333   2.142   3.868  0.8751 -0.9137  0.6706
 9115SOL    HW238808   3.191   2.111   3.825 -1.3768 -2.6049  0.2971
 9116SOL     OW38809   3.060   1.102  12.645 -0.3693 -0.1138 -0.1620
 9116SOL    HW138810   3.085   1.018  12.607 -1.3846 -0.6303  0.3054
 9116SOL    HW238811   3.109   1.165  12.592  1.2793 -0.0809  1.3537
 9117SOL     OW38812   0.480   2.388   1.704  0.0398  0.7735  0.4165
 9117SOL    HW138813   0.481   2.342   1.620  0.8911  0.6538  0.4905
 9117SOL    HW238814   0.421   2.459   1.683 -1.0180 -0.4580 -0.7968
 9118SOL     OW38815   0.357   2.952   5.119 -0.2171  0.7201  0.4346
 9118SOL    HW138816   0.262   2.961   5.106 -0.2833  2.4870  2.3302
 9118SOL    HW238817   0.364   2.998   5.202 -1.2603 -1.6053  1.8303
 9119SOL     OW38818   0.872   2.976   4.518 -0.7101 -0.8708  0.0355
 9119SOL    HW138819   0.916   2.986   4.434 -1.1342  2.1844  0.1712
 9119SOL    HW238820   0.864   3.068   4.542  1.4824 -0.2324 -1.6442
 9120SOL     OW38821   3.009   0.372   3.148  0.0095  0.3666 -0.5002
 9120SOL    HW138822   2.936   0.429   3.174 -0.2224  1.9333 -4.5497
 9120SOL    HW238823   3.007   0.312   3.222  2.3367  0.1494 -0.6312
 9121SOL     OW38824   3.474   2.412   7.371 -0.9449  0.3755  0.3368
 9121SOL    HW138825   3.452   2.343   7.433 -0.0490 -0.8050 -0.6624
 9121SOL    HW238826   3.469   2.490   7.427 -0.8087  0.5987  0.0369
 9122SOL     OW38827   2.546   2.711   0.063  0.0297 -0.4087 -0.3178
 9122SOL    HW138828   2.536   2.698   0.157  1.1497  0.3296 -0.0981
 9122SOL    HW238829   2.557   2.806   0.053  0.0710 -0.3917 -0.1105
 9123SOL     OW38830   2.508   1.212  17.105  0.7285  0.6770 -0.4365
 9123SOL    HW138831   2.445   1.272  17.147  0.0785 -0.5621  0.3462
 9123SOL    HW238832   2.518   1.148  17.175  0.9907  0.6418 -0.5085
 9124SOL     OW38833   2.611   3.004   2.929 -0.1897 -0.3463 -0.6178
 9124SOL    HW138834   2.700   2.992   2.962 -0.4504  1.6110  0.8116
 9124SOL    HW238835   2.564   3.042   3.003  0.5556 -1.3667  0.3716
 9125SOL     OW38836   1.697   3.371   2.901 -0.1244 -0.1547  0.1967
 9125SOL    HW138837   1.752   3.377   2.823  0.2853  1.2366  0.5865
 9125SOL    HW238838   1.762   3.396   2.967  1.4774 -1.6125 -0.8222
 9126SOL     OW38839   2.905   0.408  17.467  0.4610 -0.1553  0.0663
 9126SOL    HW138840   2.914   0.500  17.493 -0.4481  0.6999 -2.5720
 9126SOL    HW238841   2.904   0.418  17.371  0.9731 -2.1347 -0.1333
 9127SOL     OW38842   2.854   3.222   1.717 -0.3882  0.1129  0.6047
 9127SOL    HW138843   2.799   3.297   1.694  2.8927  2.5585  0.7387
 9127SOL    HW238844   2.794   3.147   1.715  0.0876 -0.2357 -0.4411
 9128SOL     OW38845   0.369   2.545  13.588  0.2345 -0.2429 -0.5315
 9128SOL    HW138846   0.319   2.503  13.658 -0.7212  1.4430 -0.1913
 9128SOL    HW238847   0.430   2.599  13.637 -0.7975  1.1976 -0.8136
 9129SOL     OW38848   4.224   2.353  14.728 -0.5046 -0.2865  0.0059
 9129SOL    HW138849   4.185   2.275  14.689 -2.4282  0.2685  0.8243
 9129SOL    HW238850   4.315   2.334  14.702 -0.2620  0.2956  0.4385
 9130SOL     OW38851   2.819   2.456   8.389  0.0750  0.5542  0.8401
 9130SOL    HW138852   2.882   2.402   8.436  0.1531 -0.7430 -0.7422
 9130SOL    HW238853   2.794   2.519   8.457 -3.4582 -1.2180  1.1945
 9131SOL     OW38854   4.546   0.306   3.766 -0.6014 -0.2921  0.6160
 9131SOL    HW138855   4.511   0.239   3.825  0.4872 -0.1705  1.3986
 9131SOL    HW238856   4.463   0.342   3.734  0.4326  1.4986 -0.0135
 9132SOL     OW38857   4.593   2.717   5.443  0.1924  0.1899 -0.5026
 9132SOL    HW138858   4.541   2.764   5.507  2.5302  0.8830  0.8702
 9132SOL    HW238859   4.530   2.651   5.413  0.2920  1.0445 -2.6045
 9133SOL     OW38860   1.570   3.272  12.549  0.3139  0.4150 -0.8446
 9133SOL    HW138861   1.503   3.230  12.603  0.8768 -1.7809 -1.8349
 9133SOL    HW238862   1.587   3.191  12.500 -1.8391 -0.7282  0.2868
 9134SOL     OW38863   3.269   1.788  12.822  0.2357 -0.1284  0.1872
 9134SOL    HW138864   3.303   1.823  12.740 -0.2207  1.6843  0.7931
 9134SOL    HW238865   3.334   1.826  12.881 -2.4990  3.0000  1.1050
 9135SOL     OW38866   3.031   0.405   0.094 -0.2090 -0.2063 -0.1245
 9135SOL    HW138867   3.022   0.363   0.180 -2.7597  2.0867  0.7451
 9135SOL    HW238868   2.939   0.427   0.074 -0.6683 -1.1491  0.9715
 9136SOL     OW38869   0.922   4.524   5.311  0.2132  0.2279 -0.6385
 9136SOL    HW138870   0.925   4.620   5.312  1.4824  0.1618  1.4045
 9136SOL    HW238871   0.990   4.504   5.247  2.9070 -0.5424  2.4556
 9137SOL     OW38872   4.544   3.630   4.702 -0.1740  0.1695 -0.1288
 9137SOL    HW138873   4.456   3.601   4.726 -0.2618 -0.3162 -1.0185
 9137SOL    HW238874   4.583   3.649   4.787  3.0904 -0.5615 -1.4442
 9138SOL     OW38875   4.120   0.023   0.848  0.5209  0.0838  0.1122
 9138SOL    HW138876   4.081   0.110   0.853  1.5758  0.3717  3.0538
 9138SOL    HW238877   4.148   0.022   0.756  0.6016  2.4274  0.0990
 9139SOL     OW38878   4.063   4.349  15.624  0.3183  0.7931  0.1764
 9139SOL    HW138879   3.978   4.305  15.627  1.1179 -0.5446  2.5262
 9139SOL    HW238880   4.123   4.289  15.668 -0.7080 -0.2373  0.1942
 9140SOL     OW38881   0.563   1.932   1.147  0.1154  0.2537  0.0943
 9140SOL    HW138882   0.605   1.862   1.197 -0.3032 -1.2885 -1.7180
 9140SOL    HW238883   0.635   1.938   1.083 -0.3650  3.7628 -0.1041
 9141SOL     OW38884   3.043   1.523  13.202  0.2085 -0.5614 -0.2213
 9141SOL    HW138885   3.096   1.538  13.124 -0.3258  2.1926 -0.0644
 9141SOL    HW238886   3.052   1.612  13.235  1.6671  0.0564 -2.2990
 9142SOL     OW38887   1.360   1.942  16.679  0.5318 -0.2935 -0.1097
 9142SOL    HW138888   1.316   1.891  16.611  2.1058 -0.6127 -0.9059
 9142SOL    HW238889   1.286   1.998  16.702  2.0954  1.3351  0.9925
 9143SOL     OW38890   1.023   4.642   6.060 -0.0041 -0.4264 -0.0289
 9143SOL    HW138891   0.983   4.567   6.014  0.7597 -0.9982  0.2486
 9143SOL    HW238892   1.087   4.590   6.108 -1.2229 -1.8979  0.0423
 9144SOL     OW38893   4.545   3.289  17.135  0.5139  0.4536 -0.1071
 9144SOL    HW138894   4.501   3.206  17.118  0.8140  0.3009 -0.1373
 9144SOL    HW238895   4.621   3.270  17.189  0.0968  1.4512  0.8357
 9145SOL     OW38896   1.829   1.742   8.250  0.1413 -0.0733  0.2362
 9145SOL    HW138897   1.910   1.768   8.295 -0.4592  0.4382  1.0204
 9145SOL    HW238898   1.782   1.705   8.325 -0.1069  1.6323  0.9067
 9146SOL     OW38899   1.233   1.662   4.775  0.6382  0.1812  0.0648
 9146SOL    HW138900   1.177   1.596   4.815 -2.9694  2.3727 -1.3426
 9146SOL    HW238901   1.215   1.657   4.681 -3.2377  2.3795  0.6680
 9147SOL     OW38902   4.002   1.714   7.434  0.0763 -0.0083  0.4855
 9147SOL    HW138903   4.029   1.806   7.429  0.5640 -0.2685 -1.8125
 9147SOL    HW238904   3.945   1.712   7.510  1.2630 -1.6702  1.3367
 9148SOL     OW38905   0.465   2.732   3.022 -0.0033 -0.7501 -0.5159
 9148SOL    HW138906   0.557   2.706   3.025  0.4920  0.6250 -3.5690
 9148SOL    HW238907   0.422   2.648   3.038  0.7199 -0.7722  1.2510
 9149SOL     OW38908   0.420   3.613   4.814  0.3813  0.1426  0.6837
 9149SOL    HW138909   0.331   3.597   4.845  0.8548  1.3757  2.7213
 9149SOL    HW238910   0.459   3.536   4.857 -2.9931 -2.3741 -0.7736
 9150SOL     OW38911   2.210   3.463   9.236 -0.1319  0.5076 -0.2744
 9150SOL    HW138912   2.260   3.473   9.317  0.6125  0.4215 -0.7228
 9150SOL    HW238913   2.181   3.372   9.243  1.1874 -0.0115 -1.5813
 9151SOL     OW38914   2.178   4.066   9.740  0.3107 -0.2447  0.3083
 9151SOL    HW138915   2.240   4.139   9.744 -2.4313  2.0180  2.1385
 9151SOL    HW238916   2.213   3.994   9.792 -0.5655  0.8977  2.4986
 9152SOL     OW38917   2.500   3.329   9.910  0.2445 -0.4428 -0.3811
 9152SOL    HW138918   2.420   3.278   9.919 -1.2911  2.0661  0.1327
 9152SOL    HW238919   2.553   3.259   9.948  2.8047  0.2838 -2.6006
 9153SOL     OW38920   3.162   1.075  12.293 -0.1521 -0.4276 -0.4202
 9153SOL    HW138921   3.108   1.036  12.224 -0.3514 -0.9907  0.0598
 9153SOL    HW238922   3.224   1.006  12.316 -1.3765 -1.1048  0.8277
 9154SOL     OW38923   0.077   3.621   2.169  0.1311  0.0716  0.1753
 9154SOL    HW138924   0.144   3.690   2.169  0.1835  0.0248  0.6187
 9154SOL    HW238925   0.062   3.603   2.076 -0.2640  0.8140  0.0946
 9155SOL     OW38926   3.910   3.548   3.711  0.1856  0.3580 -0.1854
 9155SOL    HW138927   3.908   3.555   3.807 -2.8711 -1.2659 -0.1103
 9155SOL    HW238928   4.001   3.522   3.701  0.3690  0.3918  1.4398
 9156SOL     OW38929   3.491   0.511   2.397  0.2636 -0.3225  0.4036
 9156SOL    HW138930   3.460   0.588   2.446 -0.1958 -0.0242 -0.3465
 9156SOL    HW238931   3.548   0.546   2.329  0.5757 -0.5778  0.5354
 9157SOL     OW38932   2.215   1.105   6.366 -0.2575 -0.2461  0.4118
 9157SOL    HW138933   2.145   1.156   6.408  2.0240  1.0063  2.6491
 9157SOL    HW238934   2.206   1.020   6.410  0.6481  0.3357  1.7262
 9158SOL     OW38935   0.501   4.083   2.766 -0.0887 -0.2262  0.8567
 9158SOL    HW138936   0.412   4.049   2.754 -0.6333  0.9600  1.5129
 9158SOL    HW238937   0.529   4.081   2.674  0.8821  2.0620  1.0983
 9159SOL     OW38938   2.086   4.038   4.667  0.0313 -0.1933  0.0155
 9159SOL    HW138939   2.024   4.049   4.595 -1.6647 -0.5375  1.4087
 9159SOL    HW238940   2.159   4.100   4.659  1.3888 -1.7543  0.2361
 9160SOL     OW38941   1.076   2.436   6.395  0.7378 -0.1796 -0.2188
 9160SOL    HW138942   1.028   2.384   6.331 -2.1005  2.0057  0.1434
 9160SOL    HW238943   1.003   2.454   6.455  2.3733  1.4121  1.3014
 9161SOL     OW38944   2.690   1.323   2.196  0.2932 -0.4565  0.3804
 9161SOL    HW138945   2.604   1.363   2.179  1.5145  1.7358 -0.5876
 9161SOL    HW238946   2.737   1.345   2.116  1.5926 -0.6076  1.1062
 9162SOL     OW38947   0.296   3.762   3.873  0.2211  0.0405  0.2162
 9162SOL    HW138948   0.323   3.795   3.788  0.1115  1.1231  0.5920
 9162SOL    HW238949   0.202   3.753   3.862  0.3214 -1.7703  0.8416
 9163SOL     OW38950   0.286   3.907  10.658 -0.1379 -0.1885 -0.3639
 9163SOL    HW138951   0.336   3.826  10.651 -0.1096  0.0011 -2.3776
 9163SOL    HW238952   0.202   3.873  10.628 -1.7284  1.4340  2.1876
 9164SOL     OW38953   2.283   2.455   2.892 -0.6735 -0.1261  0.3156
 9164SOL    HW138954   2.267   2.381   2.950  0.9231  0.2911  1.2857
 9164SOL    HW238955   2.350   2.496   2.946 -0.8625  1.5351 -0.6952
 9165SOL     OW38956   3.524   4.092  17.123  0.3877 -0.2614 -0.5818
 9165SOL    HW138957   3.440   4.051  17.105  0.4611 -0.7950  0.2708
 9165SOL    HW238958   3.593   4.029  17.144  0.3043 -0.8610 -2.1244
 9166SOL     OW38959   1.036   2.098   5.150  0.3185 -0.0268  0.2931
 9166SOL    HW138960   1.030   2.013   5.107  0.6489  0.0075  0.1761
 9166SOL    HW238961   0.960   2.092   5.207  0.2159  1.2434  0.2996
 9167SOL     OW38962   2.783   2.730   6.755  0.6144 -0.3492 -0.6642
 9167SOL    HW138963   2.855   2.755   6.814  0.6407 -2.1048  0.0584
 9167SOL    HW238964   2.820   2.655   6.709 -0.1060 -2.1812  1.7045
 9168SOL     OW38965   0.252   0.262   2.704 -0.2012 -0.2906  0.4844
 9168SOL    HW138966   0.194   0.333   2.732 -0.2940 -0.2994  0.3122
 9168SOL    HW238967   0.301   0.256   2.786 -1.0784 -2.0147  0.8649
 9169SOL     OW38968   1.831   0.962  17.552  0.4840 -0.4336  0.1902
 9169SOL    HW138969   1.759   1.024  17.566  1.9760  0.7471  2.6531
 9169SOL    HW238970   1.872   0.997  17.473  0.0203  0.5172  0.3610
 9170SOL     OW38971   2.856   4.559   7.004  0.2566  0.5665 -0.2327
 9170SOL    HW138972   2.882   4.499   7.074  0.3667 -1.2359 -1.8002
 9170SOL    HW238973   2.767   4.522   7.007  1.2640 -2.1209 -3.2655
 9171SOL     OW38974   2.233   2.632  17.210 -0.1767  0.1495  0.3074
 9171SOL    HW138975   2.147   2.590  17.212 -0.4707  0.7366 -0.1034
 9171SOL    HW238976   2.304   2.570  17.228 -0.0066  0.6315  1.2721
 9172SOL     OW38977   3.657   0.665  11.769 -0.2354 -0.2569 -0.4880
 9172SOL    HW138978   3.641   0.580  11.811 -2.1718  0.0575 -0.5964
 9172SOL    HW238979   3.698   0.716  11.839 -1.4781 -1.2436  0.9611
 9173SOL     OW38980   1.402   2.357   2.292 -0.3507  0.1569  0.7497
 9173SOL    HW138981   1.481   2.391   2.249 -0.2858 -0.8641  0.0854
 9173SOL    HW238982   1.347   2.435   2.283 -0.6424 -0.3528 -1.8605
 9174SOL     OW38983   4.561   1.872  14.821  0.5415  0.1075  0.2377
 9174SOL    HW138984   4.586   1.898  14.732  0.4130  1.0405  0.4774
 9174SOL    HW238985   4.647   1.843  14.852  0.3690 -0.1186  0.5060
 9175SOL     OW38986   0.296   2.242  15.832  0.0680  0.3459 -0.4501
 9175SOL    HW138987   0.346   2.278  15.759  1.1869  0.8426  0.5569
 9175SOL    HW238988   0.324   2.151  15.835  0.8770  0.6127  0.0129
 9176SOL     OW38989   2.661   3.295   1.988  0.0880 -0.3311  0.0883
 9176SOL    HW138990   2.705   3.380   1.997 -3.3547  1.3684  0.8796
 9176SOL    HW238991   2.567   3.314   1.984  0.6623  2.1086 -2.1011
 9177SOL     OW38992   4.534   0.629  16.115  0.2913  0.0072 -0.4798
 9177SOL    HW138993   4.468   0.579  16.164  1.7398 -1.5141 -0.0922
 9177SOL    HW238994   4.471   0.678  16.062 -0.0221  2.6193  2.2989
 9178SOL     OW38995   3.145   0.954   3.227 -0.3455  0.3627  0.1162
 9178SOL    HW138996   3.115   0.978   3.140 -1.2619 -0.0529  0.3201
 9178SOL    HW238997   3.121   0.862   3.229  1.2782 -0.0721 -0.3986
 9179SOL     OW38998   3.459   4.413   3.849  0.3194 -0.0645  0.3024
 9179SOL    HW138999   3.380   4.392   3.798  1.1028  1.2265 -1.4549
 9179SOL    HW239000   3.520   4.395   3.778  1.7798  1.3546  1.1864
 9180SOL     OW39001   4.434   2.040   8.028 -0.2141 -0.6898  0.3343
 9180SOL    HW139002   4.383   2.069   7.953  0.1729 -1.9243 -0.4092
 9180SOL    HW239003   4.484   2.116   8.057 -2.9600  0.3203  2.3167
 9181SOL     OW39004   1.305   0.094   7.022  0.1729  0.3066 -0.1134
 9181SOL    HW139005   1.347   0.172   6.985 -0.2092  1.5467  2.0138
 9181SOL    HW239006   1.231   0.142   7.060  0.7276  1.2510 -0.2223
 9182SOL     OW39007   3.268   1.684  16.262 -0.6229  0.3121  0.1305
 9182SOL    HW139008   3.295   1.776  16.267  1.4176 -0.2324 -0.9391
 9182SOL    HW239009   3.308   1.655  16.180 -0.3776 -1.3038  0.8206
 9183SOL     OW39010   4.103   0.088  15.346 -0.1695  0.5683  0.0832
 9183SOL    HW139011   4.073   0.080  15.255 -0.3091 -0.3440  0.2080
 9183SOL    HW239012   4.112   4.715  15.369  0.3020  0.9691  1.4998
 9184SOL     OW39013   1.876   0.290   6.132 -0.2705 -0.0456  0.2439
 9184SOL    HW139014   1.888   0.326   6.219  0.4079 -1.2469  0.6452
 9184SOL    HW239015   1.952   0.232   6.127  0.9283  1.2745  3.4420
 9185SOL     OW39016   2.052   3.995   8.380 -0.7086 -0.6052 -0.0531
 9185SOL    HW139017   2.084   4.049   8.452  0.9415  0.0886 -1.3045
 9185SOL    HW239018   2.073   4.050   8.304  0.6096 -1.4783 -0.3081
 9186SOL     OW39019   4.430   0.517   2.626 -0.1231 -1.0127 -0.0663
 9186SOL    HW139020   4.405   0.424   2.629 -2.4126 -0.3347  1.8763
 9186SOL    HW239021   4.361   0.552   2.682  0.9848  0.4365  0.3732
 9187SOL     OW39022   1.400   0.723   2.027  0.0618  0.5503  0.4876
 9187SOL    HW139023   1.474   0.718   2.087  1.4208 -0.6244 -1.2700
 9187SOL    HW239024   1.332   0.762   2.082 -0.4084 -0.6089  0.7345
 9188SOL     OW39025   0.598   3.200   3.979 -0.7835  0.1763 -0.4541
 9188SOL    HW139026   0.625   3.126   4.033  1.0963  0.0806 -1.5448
 9188SOL    HW239027   0.667   3.215   3.915  0.0256 -2.4026 -0.1771
 9189SOL     OW39028   3.459   0.727   5.215  0.4310 -0.2120 -0.4177
 9189SOL    HW139029   3.489   0.682   5.294  0.9384 -1.0863 -1.1129
 9189SOL    HW239030   3.463   0.656   5.152 -0.5693  1.8236 -2.7885
 9190SOL     OW39031   3.219   2.840   5.313 -0.2934  0.2900 -0.0030
 9190SOL    HW139032   3.273   2.761   5.320  1.5018  1.5629  0.6144
 9190SOL    HW239033   3.136   2.804   5.344 -0.2751  0.5242  0.3244
 9191SOL     OW39034   1.565   2.401   6.262  0.1663  0.0455 -0.5778
 9191SOL    HW139035   1.638   2.370   6.316 -1.1095 -0.3072  0.9341
 9191SOL    HW239036   1.541   2.487   6.296 -1.6387 -0.9880  0.7244
 9192SOL     OW39037   3.334   1.427   1.220  0.5093 -0.6348  0.1888
 9192SOL    HW139038   3.319   1.342   1.179 -0.9535 -0.8796  1.2101
 9192SOL    HW239039   3.294   1.408   1.305 -2.2365 -0.8997 -1.1452
 9193SOL     OW39040   4.310   2.698   4.321 -0.7413 -0.4841 -0.3199
 9193SOL    HW139041   4.251   2.672   4.392 -1.6820  0.9756 -0.5468
 9193SOL    HW239042   4.393   2.699   4.369 -0.8347  1.2356 -0.1626
 9194SOL     OW39043   2.240   2.857  12.858  0.3358 -0.3713  0.2770
 9194SOL    HW139044   2.219   2.808  12.937 -1.9480 -0.4434 -0.3505
 9194SOL    HW239045   2.164   2.830  12.805 -0.8632  0.9917  1.2973
 9195SOL     OW39046   1.804   2.977   1.596 -0.2339 -0.1182 -0.1678
 9195SOL    HW139047   1.792   3.052   1.539 -1.1012 -0.2603 -0.1664
 9195SOL    HW239048   1.736   2.922   1.558  0.2765 -1.0088  0.2014
 9196SOL     OW39049   3.252   1.633   3.792  0.1358 -0.5965  0.6949
 9196SOL    HW139050   3.197   1.645   3.869 -2.5131 -0.5079 -1.2214
 9196SOL    HW239051   3.309   1.559   3.814 -0.3803 -1.1694  0.0763
 9197SOL     OW39052   3.292   3.216   9.848  0.7753 -0.2485 -0.0431
 9197SOL    HW139053   3.201   3.214   9.878  0.8453 -1.4878  0.0668
 9197SOL    HW239054   3.277   3.213   9.753 -0.8499 -1.6523  0.2716
 9198SOL     OW39055   2.726   0.950   9.251  0.4127  0.2170 -0.5673
 9198SOL    HW139056   2.633   0.949   9.275  0.7986 -0.6254  0.9428
 9198SOL    HW239057   2.722   0.956   9.156  4.6519  1.2075 -0.6577
 9199SOL     OW39058   3.497   0.406   4.530  0.0765  0.2516  0.4357
 9199SOL    HW139059   3.403   0.422   4.542 -0.0113  1.3077 -1.7004
 9199SOL    HW239060   3.524   0.411   4.622 -2.5118 -0.1408  1.2108
 9200SOL     OW39061   2.998   2.550   3.976  0.0285 -0.1125 -0.6855
 9200SOL    HW139062   2.969   2.634   3.940  3.3458  1.5382  0.5381
 9200SOL    HW239063   2.918   2.501   3.995 -1.2134  2.8915  1.8250
 9201SOL     OW39064   1.940   0.449  10.850  0.2706 -0.6335 -0.3914
 9201SOL    HW139065   1.852   0.415  10.833  0.1941 -1.2511  1.2501
 9201SOL    HW239066   1.988   0.368  10.836  1.3984 -0.0180 -0.0964
 9202SOL     OW39067   3.893   1.536   4.588  0.1457 -0.2588 -0.5956
 9202SOL    HW139068   3.805   1.534   4.552 -0.1393 -1.2737  0.1625
 9202SOL    HW239069   3.928   1.450   4.563  0.2778 -0.4465  0.2369
 9203SOL     OW39070   3.911   2.478   2.439 -0.4037  0.1963 -0.4768
 9203SOL    HW139071   3.923   2.418   2.366 -1.4263  1.9594 -2.1024
 9203SOL    HW239072   3.906   2.421   2.515  2.0447  0.1179 -0.3674
 9204SOL     OW39073   1.143   1.456   4.035  0.0434 -0.0195 -0.2325
 9204SOL    HW139074   1.140   1.447   3.940 -2.0689 -2.4728  0.0823
 9204SOL    HW239075   1.212   1.520   4.054 -1.5871  1.0462  2.1357
 9205SOL     OW39076   4.057   2.927  17.545 -0.0718 -0.3539 -0.1562
 9205SOL    HW139077   4.007   3.001  17.580  0.6806 -0.5158  1.2178
 9205SOL    HW239078   4.138   2.971  17.520  0.0224  0.5986  1.8805
 9206SOL     OW39079   0.610   4.417   1.500  0.5204  0.7121 -0.6563
 9206SOL    HW139080   0.615   4.424   1.405 -3.0488 -2.8895 -1.0704
 9206SOL    HW239081   0.540   4.476   1.527  0.9115  0.8672  0.0174
 9207SOL     OW39082   0.666   3.268   7.860 -0.1527  0.2414 -0.4218
 9207SOL    HW139083   0.576   3.247   7.885  0.6005 -0.0168  2.0813
 9207SOL    HW239084   0.661   3.253   7.766  0.8476 -1.7953 -0.1445
 9208SOL     OW39085   1.055   0.548  11.334 -0.4875  0.0257  0.3494
 9208SOL    HW139086   0.988   0.590  11.280  0.0951  1.0332  0.4048
 9208SOL    HW239087   1.114   0.510  11.270 -0.7907  2.2577 -1.2679
 9209SOL     OW39088   0.015   0.086   4.431  0.4056 -0.2615  1.1700
 9209SOL    HW139089   4.695   0.058   4.514 -2.2265 -0.6241 -0.2033
 9209SOL    HW239090   0.042   0.003   4.392 -0.8486 -0.2294  0.2560
 9210SOL     OW39091   4.305   2.363   2.547  0.0898 -0.0711 -0.6279
 9210SOL    HW139092   4.370   2.433   2.557  0.8270 -0.9098  0.5858
 9210SOL    HW239093   4.311   2.332   2.457  0.6299 -1.6601 -0.0608
 9211SOL     OW39094   4.153   3.909  16.924 -0.4744  0.2396  0.1784
 9211SOL    HW139095   4.242   3.944  16.918  0.0283 -1.1220 -0.2206
 9211SOL    HW239096   4.115   3.947  16.845  0.4086  2.1200  0.6547
 9212SOL     OW39097   2.892   4.511   4.411 -0.1277 -0.3012 -0.0187
 9212SOL    HW139098   2.908   4.417   4.419 -1.6870 -0.4928  0.8967
 9212SOL    HW239099   2.861   4.531   4.500 -0.6027 -2.1062  0.2163
 9213SOL     OW39100   2.086   2.289   8.579  0.7401  0.0010 -0.2142
 9213SOL    HW139101   2.163   2.293   8.521  1.0411  0.3654  0.2036
 9213SOL    HW239102   2.020   2.320   8.517  1.5729  1.1539 -0.5379
 9214SOL     OW39103   2.373   4.680  10.519 -0.2608 -0.6642  0.4484
 9214SOL    HW139104   2.398   4.608  10.461  1.8361  0.8564 -0.4871
 9214SOL    HW239105   2.421   4.641  10.593 -0.4803 -1.4973  0.1531
 9215SOL     OW39106   1.938   2.296   1.437  0.0125 -0.3294  0.1369
 9215SOL    HW139107   1.938   2.313   1.343  1.1597 -1.7313 -0.1053
 9215SOL    HW239108   2.031   2.309   1.455 -0.0158 -0.1505  0.1543
 9216SOL     OW39109   1.872   2.588   2.926  0.2940 -0.2725  0.3684
 9216SOL    HW139110   1.872   2.678   2.893 -1.2657 -0.3654  0.1009
 9216SOL    HW239111   1.810   2.549   2.863 -1.1929  1.0441  1.0135
 9217SOL     OW39112   0.932   0.648  11.122  0.4450 -0.3115  1.0157
 9217SOL    HW139113   1.018   0.686  11.107 -0.7612  3.2569  3.0301
 9217SOL    HW239114   0.943   0.575  11.061 -0.4005  1.9736 -1.8731
 9218SOL     OW39115   3.822   0.346   3.107 -0.5442 -0.5501 -0.0388
 9218SOL    HW139116   3.749   0.357   3.168 -0.3048  2.3894 -0.2910
 9218SOL    HW239117   3.784   0.349   3.020 -1.6863 -0.4701  0.4670
 9219SOL     OW39118   3.903   3.867  16.995 -0.3081  0.7704  0.3255
 9219SOL    HW139119   3.996   3.848  16.983 -0.8384 -0.6141 -1.4429
 9219SOL    HW239120   3.897   3.952  16.951 -0.3662  1.0325  0.8396
 9220SOL     OW39121   2.289   0.988   3.949 -0.1243 -0.7633 -0.1931
 9220SOL    HW139122   2.241   0.958   3.872 -0.4455 -1.5692  0.3171
 9220SOL    HW239123   2.221   0.981   4.016 -1.4466 -1.2827 -1.5781
 9221SOL     OW39124   0.795   1.473   4.622  0.8242  0.2048  0.2930
 9221SOL    HW139125   0.873   1.434   4.583 -0.0861 -1.7162  0.3799
 9221SOL    HW239126   0.832   1.515   4.700  0.4905  2.3791 -0.7319
 9222SOL     OW39127   0.174   2.585  15.004  0.2298 -0.5590  0.0647
 9222SOL    HW139128   0.210   2.553  14.922 -0.3869 -0.3055 -0.3102
 9222SOL    HW239129   0.084   2.569  14.975  0.9202 -1.1725 -1.7282
 9223SOL     OW39130   2.953   3.427   6.021  0.5872  0.0468  0.1051
 9223SOL    HW139131   2.980   3.508   5.979  3.0048  0.0370  1.6628
 9223SOL    HW239132   2.996   3.359   5.969  0.4727  1.4595 -1.8410
 9224SOL     OW39133   3.022   1.095   3.423  0.0033  0.2327  0.6540
 9224SOL    HW139134   3.097   1.038   3.409 -1.8649 -2.8975  3.3634
 9224SOL    HW239135   3.048   1.161   3.358  0.1100  0.0816  0.5460
 9225SOL     OW39136   4.529   3.151   5.649 -0.0351 -0.0454  0.6759
 9225SOL    HW139137   4.450   3.115   5.691 -2.0943  0.9885 -2.3178
 9225SOL    HW239138   4.507   3.128   5.559  1.8952  1.2825 -0.1358
 9226SOL     OW39139   3.620   3.064   6.245  0.1933 -0.5429 -0.1229
 9226SOL    HW139140   3.676   3.137   6.271  0.4547 -0.6420 -0.4199
 9226SOL    HW239141   3.648   2.992   6.301 -0.7643 -1.5034 -0.8744
 9227SOL     OW39142   3.140   2.712   6.549  0.4270  0.2835  0.2116
 9227SOL    HW139143   3.189   2.675   6.623  1.5486 -1.2383 -1.2806
 9227SOL    HW239144   3.178   2.666   6.474  0.9078  4.4045 -2.0327
 9228SOL     OW39145   0.789   1.212   1.138 -0.2470 -0.5849  0.6396
 9228SOL    HW139146   0.800   1.164   1.055 -0.5305 -1.8378  1.3305
 9228SOL    HW239147   0.750   1.145   1.194 -1.1841  0.0495  0.7324
 9229SOL     OW39148   3.005   3.008   5.162  0.2661  0.3116  0.4741
 9229SOL    HW139149   3.011   3.051   5.248  1.5357  2.1083 -0.4889
 9229SOL    HW239150   3.049   2.926   5.185  0.4468  0.3147  0.1349
 9230SOL     OW39151   3.972   0.667   0.086  0.2940 -0.0395  0.1108
 9230SOL    HW139152   3.905   0.670   0.018  1.4009  1.0075 -0.9194
 9230SOL    HW239153   3.945   0.588   0.134 -1.2959  0.4657  0.0451
 9231SOL     OW39154   1.818   3.017   3.653  0.0734  0.3177 -0.0228
 9231SOL    HW139155   1.847   2.975   3.734 -0.4636 -3.5256 -1.8376
 9231SOL    HW239156   1.818   3.110   3.674  1.8283  0.1110  0.9180
 9232SOL     OW39157   3.481   1.453   2.696  0.2945  0.0738  0.0243
 9232SOL    HW139158   3.570   1.464   2.663  0.4248 -0.5098  0.1945
 9232SOL    HW239159   3.489   1.510   2.772  0.2478 -0.0021  0.0851
 9233SOL     OW39160   1.632   0.743   4.572 -0.0018 -0.2907  0.5363
 9233SOL    HW139161   1.633   0.822   4.518 -2.1905  1.4514  3.0323
 9233SOL    HW239162   1.684   0.685   4.515  0.0624 -0.5815  0.8883
 9234SOL     OW39163   2.049   2.151  15.050  0.2930 -0.6741  1.0205
 9234SOL    HW139164   2.085   2.229  15.094 -0.0205 -0.5500  1.0541
 9234SOL    HW239165   1.967   2.139  15.098  0.0207  1.3687  1.0452
 9235SOL     OW39166   1.229   0.248  10.156  0.3564  0.1144 -0.2718
 9235SOL    HW139167   1.145   0.251  10.110 -0.6518 -2.4828  1.3518
 9235SOL    HW239168   1.242   0.153  10.161 -0.7320 -0.0605 -0.8680
 9236SOL     OW39169   1.842   4.518   7.268  0.0796 -0.1088  0.3600
 9236SOL    HW139170   1.842   4.424   7.285 -2.3332 -0.0604  0.5497
 9236SOL    HW239171   1.762   4.528   7.217  0.4897 -0.1486 -0.2913
 9237SOL     OW39172   3.196   4.674   5.494 -0.0496 -0.2657 -0.1090
 9237SOL    HW139173   3.200   4.621   5.574 -3.6297  0.3057  0.4406
 9237SOL    HW239174   3.111   4.657   5.453 -0.4373 -1.6728  1.2759
 9238SOL     OW39175   4.547   0.939   5.438 -0.0476  0.0121 -0.1535
 9238SOL    HW139176   4.615   0.985   5.388 -1.5034  0.1729 -1.9897
 9238SOL    HW239177   4.484   0.971   5.374  2.0235  0.4678 -1.9841
 9239SOL     OW39178   1.491   1.226   3.974 -0.1502  0.5561  0.2132
 9239SOL    HW139179   1.431   1.274   3.917  2.7842  2.2786 -1.4332
 9239SOL    HW239180   1.574   1.253   3.933  0.6633 -1.3756  0.5709
 9240SOL     OW39181   3.996   2.417   8.176  0.1049 -0.1486  0.3664
 9240SOL    HW139182   3.965   2.401   8.265  2.7299 -0.7326  1.1542
 9240SOL    HW239183   4.029   2.335   8.139 -2.6844 -0.9011 -0.4544
 9241SOL     OW39184   0.977   3.467   3.404  0.6169 -0.1555 -0.4486
 9241SOL    HW139185   0.986   3.445   3.311 -0.1797 -0.3581 -0.4781
 9241SOL    HW239186   1.068   3.474   3.431  0.2515 -0.4584  0.8353
 9242SOL     OW39187   4.317   2.083   3.364 -0.5391  0.2786 -0.4081
 9242SOL    HW139188   4.245   2.098   3.302 -0.7606 -1.6664 -0.6395
 9242SOL    HW239189   4.318   1.989   3.386 -1.0689  0.5294  0.7111
 9243SOL     OW39190   0.326   0.602   5.590 -0.8526  0.1315 -0.5960
 9243SOL    HW139191   0.345   0.556   5.672  0.6755 -0.1524 -1.0986
 9243SOL    HW239192   0.347   0.536   5.525 -0.3183 -0.3745  0.0985
 9244SOL     OW39193   2.505   1.295   9.218 -0.5179  0.3077  1.2546
 9244SOL    HW139194   2.455   1.356   9.164  1.5047 -1.4585 -2.5912
 9244SOL    HW239195   2.590   1.320   9.183 -0.2504  1.9061  3.0208
 9245SOL     OW39196   0.831   4.493   4.995  0.2266 -0.0893 -0.1373
 9245SOL    HW139197   0.913   4.541   5.006  0.5862 -0.8665  0.5475
 9245SOL    HW239198   0.861   4.404   5.012 -1.6054 -0.5193  0.7937
 9246SOL     OW39199   2.609   0.503  15.038  0.5788  0.3613 -0.2071
 9246SOL    HW139200   2.600   0.408  15.037  1.8013  0.2271  1.1223
 9246SOL    HW239201   2.586   0.530  14.949  0.9847 -1.4757 -0.8586
 9247SOL     OW39202   2.320   2.941   5.412 -0.3127  0.3274 -0.1255
 9247SOL    HW139203   2.296   2.983   5.494  0.0832  0.5412 -0.1147
 9247SOL    HW239204   2.410   2.913   5.432 -0.7911  0.6218  2.4123
 9248SOL     OW39205   3.862   1.947   7.027  0.8808 -0.3393  0.4816
 9248SOL    HW139206   3.816   1.895   7.093 -0.2456  0.7761  0.5679
 9248SOL    HW239207   3.867   1.876   6.964  0.2090  0.8120 -0.8519
 9249SOL     OW39208   0.156   0.032   6.148  0.0129  0.0718  0.0754
 9249SOL    HW139209   0.198   0.084   6.081 -0.5917  1.2058  0.5769
 9249SOL    HW239210   0.173   4.665   6.110  0.2917  0.8250 -1.5031
 9250SOL     OW39211   1.809   1.277   7.811 -0.2241  0.5941  0.5484
 9250SOL    HW139212   1.873   1.301   7.879  0.8634 -0.4957 -0.0892
 9250SOL    HW239213   1.724   1.274   7.856 -1.1598 -0.3855 -1.3075
 9251SOL     OW39214   3.984   2.394   2.180 -0.1151  0.0694 -0.1270
 9251SOL    HW139215   3.922   2.442   2.126  1.0796 -1.1127 -2.5348
 9251SOL    HW239216   4.053   2.460   2.176  2.8287 -2.9581  0.4413
 9252SOL     OW39217   2.372   1.188   0.940 -0.0572  0.2243 -0.0841
 9252SOL    HW139218   2.303   1.199   0.874 -2.7009  1.7388  2.8983
 9252SOL    HW239219   2.449   1.155   0.894 -0.3058  0.1032 -0.4174
 9253SOL     OW39220   1.497   3.633  16.844  0.0956  1.0389 -0.4708
 9253SOL    HW139221   1.509   3.597  16.756  0.2749 -2.7383  1.0797
 9253SOL    HW239222   1.585   3.669  16.855  0.1508  0.2044  1.8979
 9254SOL     OW39223   1.446   2.195   1.201  0.2799  0.1568  0.2249
 9254SOL    HW139224   1.464   2.232   1.114 -2.4585  0.3570 -0.2326
 9254SOL    HW239225   1.429   2.103   1.179  0.4786  0.3288 -0.6565
 9255SOL     OW39226   1.836   1.508   3.161  0.0507 -0.6070  0.6558
 9255SOL    HW139227   1.921   1.464   3.173  0.8884  0.8402  0.0919
 9255SOL    HW239228   1.791   1.468   3.235  1.9903 -0.1600  2.1003
 9256SOL     OW39229   2.728   3.499  15.035 -0.2548 -0.0190 -0.0609
 9256SOL    HW139230   2.736   3.575  14.978 -1.1966  2.5313  3.2179
 9256SOL    HW239231   2.632   3.501  15.030 -0.1361  2.1518 -1.4126
 9257SOL     OW39232   2.964   1.064   9.639  0.0074  0.0208 -0.4540
 9257SOL    HW139233   2.893   1.059   9.703  0.3268  0.7946 -0.0433
 9257SOL    HW239234   3.035   1.116   9.678 -0.8100  0.6054  0.2319
 9258SOL     OW39235   0.640   2.109   9.271 -0.6026 -0.2079 -0.3677
 9258SOL    HW139236   0.734   2.100   9.288 -0.4418 -1.3045 -1.8038
 9258SOL    HW239237   0.620   2.202   9.288 -2.0741 -0.7020  0.5864
 9259SOL     OW39238   3.092   1.745   4.038  0.6588 -0.5860  0.9289
 9259SOL    HW139239   3.056   1.723   4.124  1.3204 -0.7443  1.1615
 9259SOL    HW239240   3.017   1.722   3.984  1.5759 -0.5068 -0.3769
 9260SOL     OW39241   0.505   3.253   2.663 -0.1121  0.0035 -0.0288
 9260SOL    HW139242   0.534   3.213   2.744 -0.6479 -2.6115 -1.1077
 9260SOL    HW239243   0.444   3.187   2.629 -0.0481  0.6081 -1.3494
 9261SOL     OW39244   0.441   4.114   9.677 -0.7431 -0.0200  0.1284
 9261SOL    HW139245   0.515   4.170   9.651  0.7756 -1.2606  1.7399
 9261SOL    HW239246   0.487   4.030   9.678 -1.7210 -0.5647 -1.1079
 9262SOL     OW39247   3.535   0.981   6.697 -0.2539 -0.5001 -0.2098
 9262SOL    HW139248   3.468   1.049   6.693  0.4921  0.2254 -0.2362
 9262SOL    HW239249   3.490   0.916   6.642  1.0319 -0.6109 -1.1351
 9263SOL     OW39250   1.453   3.580   6.679  0.3311 -0.1540 -0.2195
 9263SOL    HW139251   1.410   3.631   6.610 -0.0949  1.0567  0.9402
 9263SOL    HW239252   1.372   3.554   6.723  0.3226 -0.5900 -0.4936
 9264SOL     OW39253   2.480   2.897   8.117  0.5633  0.1756  0.2057
 9264SOL    HW139254   2.517   2.920   8.032  0.9126 -0.1719  0.2650
 9264SOL    HW239255   2.419   2.825   8.104  0.6626 -0.1103  1.2892
 9265SOL     OW39256   0.293   0.661   4.211  0.0865  0.5560  0.2697
 9265SOL    HW139257   0.243   0.618   4.142 -0.2477  0.7970  0.3612
 9265SOL    HW239258   0.224   0.677   4.275  1.3771 -2.4205  2.4107
 9266SOL     OW39259   0.394   0.725   7.405 -0.0915 -0.4894  0.1469
 9266SOL    HW139260   0.323   0.663   7.387 -0.3180  0.1271 -1.0289
 9266SOL    HW239261   0.346   0.806   7.426 -1.1558 -0.2850 -3.1234
 9267SOL     OW39262   3.353   1.868  11.783  0.2761  0.0683  0.3592
 9267SOL    HW139263   3.346   1.776  11.756 -0.6118  0.1311  0.3791
 9267SOL    HW239264   3.263   1.890  11.761 -0.2907 -0.6033  1.9898
 9268SOL     OW39265   3.361   1.125  11.937 -0.4283 -0.1844  0.3752
 9268SOL    HW139266   3.355   1.161  11.849  1.3148  1.0479  0.7702
 9268SOL    HW239267   3.454   1.134  11.957 -0.9505 -0.3738  2.9468
 9269SOL     OW39268   3.703   3.802   1.526 -0.1003 -0.1849 -0.5274
 9269SOL    HW139269   3.620   3.781   1.569 -0.5451 -1.1980 -1.8634
 9269SOL    HW239270   3.680   3.799   1.433  1.2598  1.0469 -0.9050
 9270SOL     OW39271   3.923   0.569   6.921 -0.2863 -0.1971 -0.2839
 9270SOL    HW139272   3.896   0.650   6.964  1.6398  1.3391 -2.0167
 9270SOL    HW239273   3.893   0.595   6.834  1.6739 -1.2931 -1.2846
 9271SOL     OW39274   1.046   2.333  15.176 -0.7006  0.1918  0.3977
 9271SOL    HW139275   0.995   2.413  15.163 -0.4921  0.5336  1.7425
 9271SOL    HW239276   1.128   2.350  15.130 -0.5665  0.8314  0.8875
 9272SOL     OW39277   4.568   1.486   5.948 -0.3576  0.3333  0.2231
 9272SOL    HW139278   4.481   1.447   5.952 -0.6523  1.0243  0.6729
 9272SOL    HW239279   4.563   1.534   6.031  0.1171 -1.6115  1.3576
 9273SOL     OW39280   2.474   2.682   7.676  0.5676  0.0797  0.0750
 9273SOL    HW139281   2.452   2.699   7.768  1.7024  1.7498  0.0265
 9273SOL    HW239282   2.392   2.634   7.660  1.3698 -1.4064  0.3931
 9274SOL     OW39283   3.679   3.083   1.684  0.1165 -0.1118 -0.0434
 9274SOL    HW139284   3.754   3.067   1.625  0.0313 -1.7123  0.2732
 9274SOL    HW239285   3.632   3.000   1.674  0.5953 -0.4215  0.2547
 9275SOL     OW39286   2.585   1.772   3.859 -0.2867 -0.0640 -0.7834
 9275SOL    HW139287   2.569   1.682   3.888  0.4640 -0.1729 -0.6910
 9275SOL    HW239288   2.505   1.813   3.827  0.7703  2.3083 -0.4032
 9276SOL     OW39289   1.484   2.598  13.531  0.0075  0.1891  0.0694
 9276SOL    HW139290   1.509   2.648  13.453  1.9811 -0.6498  0.1619
 9276SOL    HW239291   1.397   2.570  13.504  0.5407  0.6785 -2.2049
 9277SOL     OW39292   4.626   2.990   9.593  0.2199 -0.2602  0.0969
 9277SOL    HW139293   4.656   2.987   9.502 -0.5978 -2.7213 -0.0908
 9277SOL    HW239294   4.577   2.908   9.591 -1.7245  0.9113  0.3579
 9278SOL     OW39295   0.882   3.084   3.030  0.0566  0.0514  0.3192
 9278SOL    HW139296   0.954   3.105   3.089  0.8160  2.5026 -1.4513
 9278SOL    HW239297   0.930   3.061   2.950  1.0579  0.1499  0.9030
 9279SOL     OW39298   2.859   3.223  14.569  0.3135  0.6476  0.3044
 9279SOL    HW139299   2.769   3.206  14.596 -0.1940  1.6333 -0.7269
 9279SOL    HW239300   2.911   3.193  14.643 -1.0397 -0.0478  0.9651
 9280SOL     OW39301   4.363   0.178   1.409 -0.7129 -1.1184  0.5436
 9280SOL    HW139302   4.281   0.228   1.415 -0.6844 -0.9485 -0.4443
 9280SOL    HW239303   4.403   0.241   1.348  1.1554 -2.0653  0.8042
 9281SOL     OW39304   2.010   4.014  16.902  0.4208  0.1527 -0.2877
 9281SOL    HW139305   1.957   4.023  16.822  0.1927 -0.4389 -0.2045
 9281SOL    HW239306   1.976   4.073  16.969  1.0811  1.0677 -0.7614
 9282SOL     OW39307   0.751   3.137   5.271  0.0320  0.5246  0.1936
 9282SOL    HW139308   0.792   3.173   5.193  3.6280 -0.9490  1.3865
 9282SOL    HW239309   0.823   3.130   5.334 -1.1312  2.1696  1.6885
 9283SOL     OW39310   1.508   1.902   2.829 -0.8313  0.4060 -0.2866
 9283SOL    HW139311   1.445   1.840   2.865 -1.4137 -0.0215 -2.0781
 9283SOL    HW239312   1.450   1.943   2.765  0.4455  2.2760 -0.2508
 9284SOL     OW39313   2.316   4.321  12.299  0.0578 -0.4746  0.2588
 9284SOL    HW139314   2.316   4.275  12.215  1.7073  0.4304 -0.2415
 9284SOL    HW239315   2.359   4.404  12.278 -0.4127 -0.1731  0.4854
 9285SOL     OW39316   0.019   2.740   1.903  0.4004 -0.6048  0.3142
 9285SOL    HW139317   4.702   2.762   1.989 -0.7756 -0.6874 -0.1571
 9285SOL    HW239318   4.695   2.659   1.876  1.7398 -1.1429 -0.2161
 9286SOL     OW39319   4.187   1.268   7.808 -0.9587 -0.3813  0.0928
 9286SOL    HW139320   4.187   1.363   7.805 -0.3222 -0.3156  2.1820
 9286SOL    HW239321   4.222   1.241   7.723 -2.2627  0.1049 -0.5889
 9287SOL     OW39322   0.427   0.516   6.741 -0.0343  0.3059 -0.1057
 9287SOL    HW139323   0.345   0.565   6.733  0.7706  1.2693 -2.5337
 9287SOL    HW239324   0.402   0.457   6.812  0.6285  1.1199  0.8194
 9288SOL     OW39325   0.287   4.249   7.397 -0.4051  0.7480  0.0708
 9288SOL    HW139326   0.381   4.233   7.398 -0.9864 -2.9676 -3.3699
 9288SOL    HW239327   0.263   4.233   7.488  0.2020 -0.4005  0.0291
 9289SOL     OW39328   2.781   1.067   0.963 -0.6624 -0.0565  0.1445
 9289SOL    HW139329   2.717   1.051   1.033  0.7291 -2.0154  0.9887
 9289SOL    HW239330   2.724   1.064   0.886 -1.7267 -0.6204  0.9340
 9290SOL     OW39331   1.163   3.947   3.170 -0.0191  0.1576  0.2042
 9290SOL    HW139332   1.238   3.983   3.122 -0.7336  1.6619  0.2329
 9290SOL    HW239333   1.144   3.872   3.112  0.4104  0.4240 -0.2862
 9291SOL     OW39334   4.288   0.071   9.592 -0.3805 -0.0056  0.7121
 9291SOL    HW139335   4.200   0.107   9.584 -0.7696 -1.0291  0.3077
 9291SOL    HW239336   4.303   0.056   9.498 -4.2282  1.4638 -0.1193
 9292SOL     OW39337   1.095   4.594   5.057  0.2641  0.1810  0.1643
 9292SOL    HW139338   1.140   4.530   5.003  0.0499  0.5058 -0.3931
 9292SOL    HW239339   1.162   4.661   5.070 -0.4559  0.9538 -0.1088
 9293SOL     OW39340   1.817   1.370  13.940  0.1979 -0.1032  0.0536
 9293SOL    HW139341   1.786   1.411  13.860 -0.7649 -0.5720  0.1841
 9293SOL    HW239342   1.912   1.367  13.937  0.1558  0.9456 -1.9522
 9294SOL     OW39343   4.287   3.963  14.894 -0.0078 -0.1573  0.1130
 9294SOL    HW139344   4.367   3.924  14.929  0.1268  0.1269  0.1231
 9294SOL    HW239345   4.310   4.056  14.890  0.7011 -0.2989  1.0108
 9295SOL     OW39346   0.840   4.655   2.600  0.0631  0.5073  0.0131
 9295SOL    HW139347   0.840   0.022   2.560  1.2976  0.2892 -0.4389
 9295SOL    HW239348   0.902   4.605   2.547  0.2135  1.3816 -0.6326
 9296SOL     OW39349   0.856   0.213  11.299  0.2850  0.4093 -0.0890
 9296SOL    HW139350   0.863   0.236  11.207 -0.8977 -1.6942 -0.7104
 9296SOL    HW239351   0.814   0.127  11.299 -0.6943  0.9043 -2.3894
 9297SOL     OW39352   1.922   3.165  16.193  0.1789  0.5190 -0.4144
 9297SOL    HW139353   1.840   3.214  16.201 -0.2158 -0.2810  0.3756
 9297SOL    HW239354   1.924   3.109  16.271  1.5753  1.6816  0.3983
 9298SOL     OW39355   2.602   3.683   1.478 -0.1376 -0.1240  0.4557
 9298SOL    HW139356   2.591   3.701   1.572  2.1087  1.1920  0.4772
 9298SOL    HW239357   2.598   3.767   1.433  0.0968 -0.0706  0.5303
 9299SOL     OW39358   2.796   3.450   5.229 -0.3999 -0.3762 -0.7081
 9299SOL    HW139359   2.741   3.488   5.298  0.8223 -0.5932  0.3977
 9299SOL    HW239360   2.723   3.413   5.179 -3.6366  2.0423  2.1866
 9300SOL     OW39361   0.230   1.784   3.718 -0.0863 -0.0412  0.4237
 9300SOL    HW139362   0.296   1.854   3.716  1.4042 -1.4522 -0.5280
 9300SOL    HW239363   0.164   1.825   3.662 -1.2858 -1.2046  1.0132
 9301SOL     OW39364   1.701   2.793  15.409 -0.2559 -0.1055  0.3277
 9301SOL    HW139365   1.758   2.741  15.465 -0.0014  1.1809  1.2608
 9301SOL    HW239366   1.766   2.840  15.356 -0.3183  2.8559  2.8975
 9302SOL     OW39367   1.975   2.292   4.416  0.1420 -0.2707 -0.2087
 9302SOL    HW139368   1.887   2.267   4.443 -0.4018 -0.0606 -1.8165
 9302SOL    HW239369   2.025   2.307   4.497 -1.6870 -1.7036  1.1813
 9303SOL     OW39370   2.601   1.706   8.839  0.1277 -0.2218  0.2690
 9303SOL    HW139371   2.687   1.675   8.810  0.9208  2.3197 -0.1643
 9303SOL    HW239372   2.572   1.749   8.758  2.9778  1.3660  0.0749
 9304SOL     OW39373   3.948   2.030   1.027 -0.3384 -0.9597 -0.3891
 9304SOL    HW139374   3.887   2.008   0.957  1.5696 -0.5508 -2.2038
 9304SOL    HW239375   3.984   2.115   0.999 -0.0843 -0.8200  0.3625
 9305SOL     OW39376   2.643   2.350   7.432 -0.2872 -0.1987 -0.4902
 9305SOL    HW139377   2.712   2.357   7.366  0.1187  0.1278 -0.0261
 9305SOL    HW239378   2.641   2.254   7.439 -0.7086 -0.0395  1.5835
 9306SOL     OW39379   3.499   4.442   7.389  0.5167 -0.3917 -0.4129
 9306SOL    HW139380   3.498   4.368   7.329  1.4150 -0.8784  0.1709
 9306SOL    HW239381   3.575   4.497   7.368  0.3793  1.2337  3.3065
 9307SOL     OW39382   4.373   0.959  17.081 -0.0940  0.0732  0.3522
 9307SOL    HW139383   4.375   1.036  17.138  3.9414 -0.9303  1.5361
 9307SOL    HW239384   4.341   0.993  16.998  1.7307 -0.5475 -0.6067
 9308SOL     OW39385   2.706   1.012  13.768  0.3210 -0.1848 -0.3591
 9308SOL    HW139386   2.733   0.997  13.677 -1.1417  1.8740 -1.1121
 9308SOL    HW239387   2.783   1.059  13.802 -0.8241  1.9633 -0.7544
 9309SOL     OW39388   4.094   4.554   2.466 -0.0110 -0.3123 -0.3877
 9309SOL    HW139389   4.090   4.482   2.530 -0.2197 -0.2595 -0.3395
 9309SOL    HW239390   4.114   4.492   2.396  0.2899 -1.7147  0.9161
 9310SOL     OW39391   3.292   2.200   1.792 -0.1035  0.5669 -0.1920
 9310SOL    HW139392   3.369   2.249   1.765 -0.6482  1.6124  0.1345
 9310SOL    HW239393   3.246   2.210   1.708 -1.3634 -0.2128  0.3955
 9311SOL     OW39394   2.634   2.046   8.285  0.0544  0.1177 -0.3771
 9311SOL    HW139395   2.618   2.047   8.190 -0.2249  0.9139 -0.3197
 9311SOL    HW239396   2.617   2.136   8.312 -0.7462  0.2150 -1.1996
 9312SOL     OW39397   4.268   0.162   5.409  0.3621  0.2704 -0.1920
 9312SOL    HW139398   4.191   0.218   5.414 -0.6449 -0.9977 -1.5701
 9312SOL    HW239399   4.319   0.227   5.361  1.5451  0.0221  0.7303
 9313SOL     OW39400   0.665   0.273   6.763  0.6538 -0.4929  0.0199
 9313SOL    HW139401   0.733   0.328   6.802 -2.5803  3.5002  0.0308
 9313SOL    HW239402   0.670   0.283   6.668  1.3067  2.4105  0.3707
 9314SOL     OW39403   1.358   1.471  11.686  0.6505  0.0605 -0.2530
 9314SOL    HW139404   1.390   1.556  11.714 -0.3422 -0.1483  1.5618
 9314SOL    HW239405   1.414   1.413  11.738  0.1409 -0.1829  0.0340
 9315SOL     OW39406   0.242   4.196   1.416 -0.2733 -0.5736  0.2793
 9315SOL    HW139407   0.322   4.189   1.364 -0.7897  0.9730 -0.7451
 9315SOL    HW239408   0.238   4.111   1.458  0.0858  0.2441  1.9487
 9316SOL     OW39409   4.654   3.422   3.497  0.1628 -0.1300 -0.0577
 9316SOL    HW139410   4.624   3.379   3.417  0.2179 -3.1228  1.5482
 9316SOL    HW239411   4.669   3.357   3.565  0.4277 -1.2966 -1.2417
 9317SOL     OW39412   4.303   2.456  16.206 -0.1593 -0.3684  0.3569
 9317SOL    HW139413   4.355   2.376  16.203  1.0118  0.4170 -0.1396
 9317SOL    HW239414   4.288   2.446  16.300 -0.4661 -1.9039  0.1410
 9318SOL     OW39415   2.311   2.971  14.991  0.4350 -0.1430  0.1315
 9318SOL    HW139416   2.257   3.013  15.058  0.0603 -1.4839  0.6743
 9318SOL    HW239417   2.318   2.881  15.024 -0.4941  0.4183  1.8391
 9319SOL     OW39418   0.356   0.144   1.415 -0.4812  0.6368 -0.2713
 9319SOL    HW139419   0.437   0.150   1.364  0.8825 -0.2595  1.8014
 9319SOL    HW239420   0.356   0.049   1.426  1.4950  0.4823 -1.5670
 9320SOL     OW39421   2.520   4.706   5.047  0.5136  0.1987 -0.2180
 9320SOL    HW139422   2.489   4.643   5.112 -1.0926  2.5232  1.2708
 9320SOL    HW239423   2.530   0.062   5.104  2.0214  0.2050 -0.5037
 9321SOL     OW39424   1.722   2.556   3.742 -0.4528 -0.0250  0.1271
 9321SOL    HW139425   1.769   2.480   3.706 -1.6575  0.8753 -3.3412
 9321SOL    HW239426   1.699   2.603   3.662 -0.4989  1.4359  1.0075
 9322SOL     OW39427   1.324   2.474   4.640 -0.1375 -0.3041 -0.6113
 9322SOL    HW139428   1.388   2.438   4.579  0.1406 -0.3883 -0.2679
 9322SOL    HW239429   1.382   2.524   4.698 -0.3363 -1.8911  0.9610
 9323SOL     OW39430   4.472   1.217  13.042 -0.1153  0.2675 -0.8044
 9323SOL    HW139431   4.557   1.188  13.009  0.3786  0.9481 -0.1022
 9323SOL    HW239432   4.411   1.158  12.998 -1.2858  0.6642  0.2843
 9324SOL     OW39433   2.163   0.330   9.253  0.8508  0.2184  0.0212
 9324SOL    HW139434   2.074   0.354   9.279  1.3337  1.9500  0.1008
 9324SOL    HW239435   2.148   0.248   9.207 -2.0805  0.4673  0.4927
 9325SOL     OW39436   0.442   3.658   0.251 -0.0803  0.4482 -0.0877
 9325SOL    HW139437   0.375   3.591   0.261 -0.4367  0.8318  0.0769
 9325SOL    HW239438   0.528   3.616   0.256  0.3697  1.1913 -1.4898
 9326SOL     OW39439   3.357   3.298  14.413  0.0730  0.2724  0.5065
 9326SOL    HW139440   3.448   3.288  14.385 -0.3811 -1.9543 -0.1608
 9326SOL    HW239441   3.333   3.222  14.467 -0.4224  0.7039  0.8959
 9327SOL     OW39442   0.959   3.587   5.373  0.3291 -0.8253 -0.6093
 9327SOL    HW139443   0.926   3.553   5.456  1.2048 -0.5019 -0.1363
 9327SOL    HW239444   0.882   3.578   5.317 -0.2699  1.1148 -0.0727
 9328SOL     OW39445   0.693   1.630   5.870  0.2763 -0.0712  0.3720
 9328SOL    HW139446   0.727   1.584   5.793  0.0542 -0.1132  0.2980
 9328SOL    HW239447   0.687   1.558   5.932  2.5280 -1.4284 -0.9832
 9329SOL     OW39448   0.286   2.522  15.537 -0.3368 -0.1229  0.1869
 9329SOL    HW139449   0.298   2.501  15.444  2.9962 -0.4823  0.7066
 9329SOL    HW239450   0.355   2.466  15.572 -0.8477 -0.5382  0.5251
 9330SOL     OW39451   2.650   0.623   7.151 -0.3469 -0.2886 -0.1903
 9330SOL    HW139452   2.622   0.667   7.231  0.5856 -1.8397  1.0066
 9330SOL    HW239453   2.596   0.544   7.152 -0.8495  0.0787  1.5854
 9331SOL     OW39454   1.838   1.765   6.880 -0.5887  0.8701  0.4920
 9331SOL    HW139455   1.801   1.768   6.968  0.7159  1.1646  1.0299
 9331SOL    HW239456   1.933   1.763   6.890 -0.4595 -0.9104 -1.0747
 9332SOL     OW39457   1.933   0.356   5.094 -0.2033  0.7740  0.1285
 9332SOL    HW139458   1.880   0.374   5.172 -2.3325  1.2579 -1.4326
 9332SOL    HW239459   1.886   0.289   5.043  0.2825 -1.5732  2.7376
 9333SOL     OW39460   1.263   0.138   0.708  0.0776 -0.1029  0.1415
 9333SOL    HW139461   1.204   0.114   0.636  2.3218  0.2995 -1.8204
 9333SOL    HW239462   1.340   0.098   0.668 -1.2458 -3.1346  0.5885
 9334SOL     OW39463   3.654   0.205  11.166  1.0380  0.1608 -0.2702
 9334SOL    HW139464   3.727   0.261  11.192 -0.0180  1.4406 -0.0702
 9334SOL    HW239465   3.632   0.251  11.085 -0.1225  1.5495  0.8145
 9335SOL     OW39466   2.125   2.006   0.452 -0.3954  0.0063 -0.3965
 9335SOL    HW139467   2.114   1.997   0.547 -2.6237 -1.1490 -0.7478
 9335SOL    HW239468   2.220   1.994   0.455 -0.3548  0.6242  1.0532
 9336SOL     OW39469   2.184   0.633   8.305  0.1622  0.0394 -0.1544
 9336SOL    HW139470   2.152   0.569   8.368  2.1435  1.4085  2.2029
 9336SOL    HW239471   2.212   0.585   8.227  0.0560 -2.2747  1.2395
 9337SOL     OW39472   4.557   0.363   7.387 -0.0671 -0.7740  0.1098
 9337SOL    HW139473   4.637   0.330   7.346  1.3228  1.0398  1.3537
 9337SOL    HW239474   4.502   0.371   7.310  2.4755  1.8814 -1.4100
 9338SOL     OW39475   2.821   0.272  12.996  0.2698  0.6434  0.2779
 9338SOL    HW139476   2.910   0.241  12.975  0.3056  0.5622  0.5569
 9338SOL    HW239477   2.839   0.333  13.068 -0.8730  0.3132  0.8367
 9339SOL     OW39478   3.117   4.173   7.614  0.0350 -0.1346  0.6329
 9339SOL    HW139479   3.131   4.245   7.554  0.0836  0.4167  1.3062
 9339SOL    HW239480   3.074   4.215   7.689  1.3885 -1.3204  2.1011
 9340SOL     OW39481   3.630   4.058   5.368 -0.5782 -1.0384  0.0025
 9340SOL    HW139482   3.584   4.022   5.444  0.8595  2.4187  2.5117
 9340SOL    HW239483   3.581   4.135   5.339  1.3544 -0.2895 -1.3521
 9341SOL     OW39484   1.087   3.327   0.100 -0.4626  0.0203 -0.0951
 9341SOL    HW139485   1.062   3.272   0.026 -2.2930  0.3029  0.3144
 9341SOL    HW239486   1.005   3.364   0.131  0.3234  1.4981  0.2463
 9342SOL     OW39487   2.691   0.367  12.583  0.1070 -0.2387  0.2738
 9342SOL    HW139488   2.731   0.286  12.550 -2.4755 -0.8201 -1.4255
 9342SOL    HW239489   2.648   0.343  12.665  1.4907 -0.2530  0.9963
 9343SOL     OW39490   1.037   4.558   4.702  0.4965  0.0494 -0.0991
 9343SOL    HW139491   1.069   4.648   4.710 -2.9401  1.1996  0.8626
 9343SOL    HW239492   0.944   4.574   4.718 -0.2345 -1.6484 -2.6185
 9344SOL     OW39493   3.140   0.482   3.745  0.2171  0.0777 -0.1424
 9344SOL    HW139494   3.125   0.497   3.652 -3.0719  0.8781  0.5454
 9344SOL    HW239495   3.053   0.500   3.780 -0.6589 -1.0855 -1.7072
 9345SOL     OW39496   3.428   3.189   6.416 -0.5684  0.1392 -1.1189
 9345SOL    HW139497   3.474   3.272   6.401 -2.1598  1.1564 -0.4500
 9345SOL    HW239498   3.468   3.135   6.348 -0.9713  0.2422 -1.4431
 9346SOL     OW39499   2.044   3.921   2.754 -0.0839  0.3208 -1.0190
 9346SOL    HW139500   2.023   3.832   2.781  0.6716  0.8054  1.2172
 9346SOL    HW239501   2.043   3.961   2.841  2.1913 -0.0395 -0.8153
 9347SOL     OW39502   4.429   4.519   5.018 -0.0941  0.5972  0.1809
 9347SOL    HW139503   4.413   4.564   5.101 -1.7675 -0.6783  0.5439
 9347SOL    HW239504   4.338   4.492   5.002  1.4848 -3.9187 -1.2364
 9348SOL     OW39505   1.139   2.641   0.726 -0.7870  0.0396  0.4143
 9348SOL    HW139506   1.098   2.723   0.754 -3.8919 -1.8695  1.4522
 9348SOL    HW239507   1.175   2.660   0.640 -0.6964 -1.7345  0.0547
 9349SOL     OW39508   0.213   3.453   0.984  0.1641 -0.3992 -0.4206
 9349SOL    HW139509   0.243   3.367   1.011 -0.9698 -0.2466  1.3325
 9349SOL    HW239510   0.262   3.505   1.047  0.7156  0.3694 -1.4771
 9350SOL     OW39511   3.050   1.037  10.194  0.4660  0.3507  0.2735
 9350SOL    HW139512   3.100   1.020  10.274  1.4080 -2.2400 -0.8458
 9350SOL    HW239513   2.961   1.048  10.224 -0.0702 -0.5985 -0.9465
 9351SOL     OW39514   0.437   4.658  12.738 -0.3559 -0.2411  0.5735
 9351SOL    HW139515   0.465   4.571  12.711  0.6559  1.1110 -2.8054
 9351SOL    HW239516   0.515   4.682  12.788  0.4214 -0.1478 -0.6857
 9352SOL     OW39517   4.716   1.111  16.602  0.0725 -0.3559 -0.2641
 9352SOL    HW139518   4.712   1.064  16.685  1.1149  0.3240  0.1793
 9352SOL    HW239519   0.061   1.059  16.553  2.4441  0.2630  2.1662
 9353SOL     OW39520   1.842   2.526  11.556 -0.3930 -0.2279  0.0496
 9353SOL    HW139521   1.764   2.512  11.503 -2.4846 -0.9655  3.3404
 9353SOL    HW239522   1.828   2.617  11.584 -0.6106 -0.2058 -0.1331
 9354SOL     OW39523   3.031   0.936  16.383 -0.0074  0.0328 -0.1279
 9354SOL    HW139524   3.029   1.024  16.422  1.6911 -0.3586  0.8559
 9354SOL    HW239525   3.091   0.888  16.440 -0.3397  0.5879  0.7029
 9355SOL     OW39526   1.543   0.594   8.107 -0.4434  0.1357  0.4425
 9355SOL    HW139527   1.555   0.667   8.169 -0.1986  0.6762 -0.2407
 9355SOL    HW239528   1.619   0.602   8.048 -0.7349 -2.5878 -0.2618
 9356SOL     OW39529   0.014   1.481   8.072 -0.1940  0.1416 -0.6125
 9356SOL    HW139530   4.716   1.416   8.141  1.0250  1.6350  1.0998
 9356SOL    HW239531   0.109   1.492   8.077 -0.2476  0.9388 -1.5341
 9357SOL     OW39532   1.723   2.699   4.970  0.4364  0.0953  0.3456
 9357SOL    HW139533   1.760   2.787   4.965 -0.9879  0.6022 -1.2881
 9357SOL    HW239534   1.738   2.673   5.061 -0.0681  1.2028  0.7461
 9358SOL     OW39535   3.338   2.542   4.672 -0.3144  0.0618  0.0103
 9358SOL    HW139536   3.391   2.614   4.707 -1.7634 -0.1900  2.7249
 9358SOL    HW239537   3.289   2.575   4.596  1.3458 -0.7287 -1.4053
 9359SOL     OW39538   3.582   1.276   4.313 -0.1099 -0.2650  0.8231
 9359SOL    HW139539   3.577   1.371   4.305 -1.9272 -0.4858 -0.8235
 9359SOL    HW239540   3.547   1.251   4.398  0.8909 -4.1138  0.1083
 9360SOL     OW39541   3.965   2.816   4.299  0.4521 -0.2108 -0.7023
 9360SOL    HW139542   4.006   2.797   4.215 -0.3529  0.2681 -1.2134
 9360SOL    HW239543   3.975   2.911   4.309  1.5227 -0.7626  3.4433
 9361SOL     OW39544   0.761   3.874  10.799  0.0060  0.2431 -0.3771
 9361SOL    HW139545   0.840   3.857  10.850 -0.5580 -2.8821 -0.5417
 9361SOL    HW239546   0.708   3.906  10.872  2.3707  1.0245  0.9640
 9362SOL     OW39547   2.651   1.286  16.890 -0.0727 -0.1107  0.6944
 9362SOL    HW139548   2.708   1.209  16.887  2.0924  1.4989 -0.6056
 9362SOL    HW239549   2.591   1.246  16.952  0.6820 -0.5029  1.1727
 9363SOL     OW39550   1.152   3.920   5.914  0.3722  0.0184 -0.1218
 9363SOL    HW139551   1.139   3.871   5.833 -0.1794  0.4846 -0.3179
 9363SOL    HW239552   1.199   3.862   5.974 -0.2061 -0.9908 -0.6337
 9364SOL     OW39553   3.018   3.535   1.730 -0.2596  0.3635  0.4047
 9364SOL    HW139554   3.096   3.501   1.688  0.0689  1.9230 -0.2451
 9364SOL    HW239555   2.976   3.560   1.647 -1.7697  0.6552  1.2569
 9365SOL     OW39556   4.406   2.094   1.079  0.4780 -0.1617 -0.0511
 9365SOL    HW139557   4.335   2.146   1.042  1.4192 -1.2330 -3.3361
 9365SOL    HW239558   4.450   2.154   1.139 -1.4464  1.3558 -0.1613
 9366SOL     OW39559   2.546   4.688   4.241  0.5496 -0.1314 -0.3152
 9366SOL    HW139560   2.532   0.056   4.279 -0.3973 -0.2374 -0.4059
 9366SOL    HW239561   2.534   4.644   4.325 -0.0552 -0.1768 -0.4209
 9367SOL     OW39562   1.941   2.843  15.772 -0.3379  0.0179 -0.1856
 9367SOL    HW139563   1.951   2.903  15.845 -0.6003  0.4915 -0.5391
 9367SOL    HW239564   1.892   2.771  15.811  0.2906  0.3979  1.2823
 9368SOL     OW39565   0.045   4.685   3.197  0.2691 -0.0172 -0.7282
 9368SOL    HW139566   0.082   0.049   3.169 -1.1899 -0.1076 -2.9050
 9368SOL    HW239567   0.097   4.620   3.150  0.3759  0.0664 -0.7258
 9369SOL     OW39568   3.382   3.363   6.718  0.2758 -0.3595  0.1378
 9369SOL    HW139569   3.386   3.267   6.716 -1.9027 -0.3898 -2.1017
 9369SOL    HW239570   3.424   3.385   6.635 -0.2080 -1.7987 -0.4938
 9370SOL     OW39571   1.696   1.769  16.224  0.0247  0.4679 -0.6947
 9370SOL    HW139572   1.708   1.675  16.209  0.7910  0.1083  2.0483
 9370SOL    HW239573   1.756   1.787  16.296  0.2069 -2.3699 -0.1522
 9371SOL     OW39574   2.129   4.170  12.991 -0.0457  0.3704 -0.2272
 9371SOL    HW139575   2.123   4.204  12.902  0.3672  1.1614  0.0478
 9371SOL    HW239576   2.197   4.103  12.994  0.0537  0.5623  1.5409
 9372SOL     OW39577   0.012   3.717   3.859 -0.2591  0.6399 -0.0323
 9372SOL    HW139578   4.696   3.806   3.861 -0.1611  0.6144  2.9730
 9372SOL    HW239579   4.708   3.698   3.768 -2.4954  1.8218  0.2967
 9373SOL     OW39580   3.732   2.850   4.435 -0.3370 -0.1918  0.1289
 9373SOL    HW139581   3.770   2.878   4.518  0.9999 -1.3166 -0.1138
 9373SOL    HW239582   3.806   2.827   4.379  0.1586 -0.8963  1.0696
 9374SOL     OW39583   0.010   3.191  17.304 -0.2037 -1.0669 -0.7302
 9374SOL    HW139584   4.697   3.233  17.383 -0.1997 -1.1517 -0.6831
 9374SOL    HW239585   4.675   3.112  17.300  0.1542 -1.3521 -0.0327
 9375SOL     OW39586   0.427   2.470   6.578  0.5906  0.0780 -0.0517
 9375SOL    HW139587   0.398   2.559   6.559  3.6084  0.6797 -1.9109
 9375SOL    HW239588   0.493   2.493   6.644 -1.2357 -3.1351  2.8787
 9376SOL     OW39589   0.859   0.091  14.468  0.0022  0.1839 -0.8883
 9376SOL    HW139590   0.766   0.072  14.454  0.8016 -2.8442 -2.1307
 9376SOL    HW239591   0.909   0.040  14.404 -1.6604 -0.6142 -1.5661
 9377SOL     OW39592   3.933   1.696   2.197 -0.4192  0.2130  0.3726
 9377SOL    HW139593   3.949   1.602   2.206 -0.3277  0.0279 -1.8376
 9377SOL    HW239594   3.924   1.705   2.102  2.2013 -3.0915 -0.1671
 9378SOL     OW39595   1.941   0.449   2.282 -0.1483  0.5788  0.4074
 9378SOL    HW139596   1.941   0.378   2.347 -2.1484  0.2662  0.0531
 9378SOL    HW239597   1.972   0.404   2.204  0.0325  1.0900  0.1873
 9379SOL     OW39598   2.459   2.994   2.501  0.1343 -0.6706  0.5525
 9379SOL    HW139599   2.466   3.034   2.587  0.5904  1.8780 -0.6904
 9379SOL    HW239600   2.547   2.955   2.494 -0.3181 -1.5270 -0.4963
 9380SOL     OW39601   3.979   4.069   9.161  0.2679  0.3194  0.5851
 9380SOL    HW139602   3.935   3.983   9.163 -2.4491  1.7016  0.5364
 9380SOL    HW239603   3.900   4.122   9.146 -1.4084 -2.7049 -1.1989
 9381SOL     OW39604   3.379   4.283  17.268 -0.3382  0.1260  0.1941
 9381SOL    HW139605   3.410   4.213  17.209  0.1231  0.0183  0.5585
 9381SOL    HW239606   3.285   4.276  17.251 -0.2016  1.0908 -0.9858
 9382SOL     OW39607   2.456   1.340  11.075  0.7811 -0.0305  0.1436
 9382SOL    HW139608   2.459   1.399  10.999 -0.2241 -0.0597  0.0847
 9382SOL    HW239609   2.537   1.368  11.116 -0.2211  1.4124  1.1182
 9383SOL     OW39610   2.061   0.318   3.165 -0.0804  0.2390 -0.0278
 9383SOL    HW139611   2.017   0.235   3.183 -1.2073  0.7979 -0.1705
 9383SOL    HW239612   2.024   0.381   3.227  1.7321 -1.8213  3.1397
 9384SOL     OW39613   4.422   1.686   7.402  0.5758 -0.5527 -0.3840
 9384SOL    HW139614   4.445   1.723   7.487 -0.1406  0.9383 -0.8423
 9384SOL    HW239615   4.331   1.665   7.424 -0.0376  0.6618 -1.7764
 9385SOL     OW39616   3.977   4.144   5.730  0.8766 -0.4432  0.2779
 9385SOL    HW139617   4.036   4.159   5.803  0.6050  0.5826  0.2754
 9385SOL    HW239618   4.032   4.082   5.682  0.1431 -1.2434  0.4761
 9386SOL     OW39619   4.618   4.248   3.726  0.7744  0.1355  0.0671
 9386SOL    HW139620   4.604   4.320   3.664  1.5437 -0.9183 -1.3320
 9386SOL    HW239621   4.642   4.296   3.805  1.5836 -0.5401  0.2314
 9387SOL     OW39622   3.582   0.024  13.058  0.5597  0.3587 -0.2038
 9387SOL    HW139623   3.564   0.009  13.151 -0.3882 -0.6378 -0.5498
 9387SOL    HW239624   3.664   4.702  13.033  0.2403  0.7327 -1.9018
 9388SOL     OW39625   0.999   1.097   6.540  0.2951  0.1418  0.8505
 9388SOL    HW139626   0.989   1.032   6.471  0.3511 -0.2469  1.2086
 9388SOL    HW239627   0.941   1.061   6.607 -0.7566 -0.1801 -0.2335
 9389SOL     OW39628   1.115   4.230  15.164  0.1230 -0.1769 -0.2051
 9389SOL    HW139629   1.072   4.312  15.189  1.9151 -0.4148  3.6666
 9389SOL    HW239630   1.115   4.236  15.069  1.2502  1.0111 -0.1301
 9390SOL     OW39631   1.116   2.739   6.287  0.1387 -0.1716  0.5549
 9390SOL    HW139632   1.177   2.672   6.317  0.1905  0.1413  1.1441
 9390SOL    HW239633   1.067   2.690   6.220  4.2840 -0.8463 -2.0049
 9391SOL     OW39634   4.624   1.437   7.810  0.5275 -0.2559 -0.0450
 9391SOL    HW139635   4.638   1.507   7.874 -3.7946  0.6580 -0.1454
 9391SOL    HW239636   4.716   1.424   7.786  0.5555 -1.1147  0.5440
 9392SOL     OW39637   0.693   3.382  11.817 -0.2448 -0.4170 -0.0015
 9392SOL    HW139638   0.703   3.425  11.733 -1.8695  0.2385  0.1393
 9392SOL    HW239639   0.644   3.305  11.789  1.6490 -1.1478 -1.2928
 9393SOL     OW39640   3.003   3.359   2.867 -0.1368 -0.4021  0.2288
 9393SOL    HW139641   3.034   3.444   2.898  0.6783 -0.3413 -0.7280
 9393SOL    HW239642   3.070   3.295   2.893 -2.1291 -2.6405 -0.1951
 9394SOL     OW39643   2.306   1.308   4.560 -0.3754 -0.0697  0.0157
 9394SOL    HW139644   2.274   1.232   4.610  0.1935  0.0920  0.6437
 9394SOL    HW239645   2.393   1.318   4.601 -0.3715 -1.7228  0.4177
 9395SOL     OW39646   3.320   3.901   0.600 -0.0990  1.0034  0.0858
 9395SOL    HW139647   3.266   3.980   0.601 -0.8148  0.5198 -0.3225
 9395SOL    HW239648   3.252   3.833   0.596  0.5513  0.3478  0.0999
 9396SOL     OW39649   0.737   2.640   9.243  0.2488 -0.1773  0.3587
 9396SOL    HW139650   0.669   2.651   9.177  2.3945 -0.2403 -1.8937
 9396SOL    HW239651   0.749   2.547   9.224  2.6205  0.3534 -0.7885
 9397SOL     OW39652   1.937   2.680   2.063  0.6506 -0.0384  0.0700
 9397SOL    HW139653   1.968   2.735   1.991 -0.8193  2.1976  1.1501
 9397SOL    HW239654   2.019   2.640   2.093  0.1065 -1.3260 -0.1844
 9398SOL     OW39655   2.616   1.970   4.638 -0.0078 -0.4605 -0.8138
 9398SOL    HW139656   2.622   1.918   4.719 -0.5788 -0.3743 -0.7182
 9398SOL    HW239657   2.557   1.927   4.578 -0.1754 -1.7191  0.2563
 9399SOL     OW39658   0.215   2.170   2.272 -0.2060 -0.1057  0.4857
 9399SOL    HW139659   0.164   2.226   2.331  0.8993  2.2580 -0.8408
 9399SOL    HW239660   0.214   2.095   2.332  1.2077 -0.0772  0.5275
 9400SOL     OW39661   4.151   3.455   7.992 -0.4920 -0.0278  0.4485
 9400SOL    HW139662   4.199   3.536   8.009 -0.1542 -0.4081  1.3108
 9400SOL    HW239663   4.064   3.489   8.014 -0.7028  2.1271 -3.7614
 9401SOL     OW39664   2.033   1.870   6.264  0.0446  0.3187  0.3472
 9401SOL    HW139665   2.095   1.900   6.197 -1.0700  0.0413 -0.8140
 9401SOL    HW239666   1.990   1.800   6.216 -0.7264 -0.3023  1.9657
 9402SOL     OW39667   2.759   1.184   4.821  0.7023  0.3796  0.0356
 9402SOL    HW139668   2.778   1.090   4.828  0.6808  0.3560 -0.2405
 9402SOL    HW239669   2.832   1.206   4.762  0.5155 -0.5910 -0.5585
 9403SOL     OW39670   3.810   1.186  15.277 -0.2423  0.3707  0.2611
 9403SOL    HW139671   3.782   1.180  15.369  1.3401  1.0732  0.7997
 9403SOL    HW239672   3.866   1.111  15.260  0.6906  0.6570  2.0714
 9404SOL     OW39673   1.706   0.239   6.603  0.1502 -0.2637 -0.2377
 9404SOL    HW139674   1.627   0.293   6.604  0.2100 -0.2005  1.0023
 9404SOL    HW239675   1.780   0.293   6.630 -0.1454 -0.2309  0.5031
 9405SOL     OW39676   3.545   0.686   2.781  0.5222  0.4030 -0.0853
 9405SOL    HW139677   3.473   0.707   2.840  1.1651 -0.6850  1.0855
 9405SOL    HW239678   3.565   0.777   2.757 -1.2791  0.7969 -0.0667
 9406SOL     OW39679   0.718   0.779   8.021  0.3990  0.0747 -0.0648
 9406SOL    HW139680   0.696   0.826   8.102  3.9606  2.1677 -0.3347
 9406SOL    HW239681   0.700   0.847   7.956  1.3461  1.2038  0.8339
 9407SOL     OW39682   2.282   2.302   8.853  0.5116  0.1370 -0.2397
 9407SOL    HW139683   2.209   2.363   8.861 -0.1718 -0.4355 -1.8907
 9407SOL    HW239684   2.293   2.266   8.941 -0.2310  2.3276  0.7447
 9408SOL     OW39685   3.417   3.692  13.010 -0.2396 -0.3003 -0.5527
 9408SOL    HW139686   3.418   3.693  13.106  2.3177 -0.7262 -0.5746
 9408SOL    HW239687   3.333   3.651  12.989 -0.5568 -0.3312  0.7482
 9409SOL     OW39688   4.153   4.561  13.888  0.1628 -0.0003 -0.4991
 9409SOL    HW139689   4.217   4.499  13.925 -1.3554 -1.9514 -1.1213
 9409SOL    HW239690   4.205   4.605  13.820  2.0676 -0.5874  0.5714
 9410SOL     OW39691   2.193   3.187   0.941  0.1324  0.1609  0.7151
 9410SOL    HW139692   2.102   3.183   0.912 -0.1162 -0.6883  1.5988
 9410SOL    HW239693   2.220   3.120   0.878 -1.4777  0.5039 -0.3398
 9411SOL     OW39694   4.560   2.154  15.987  0.7479 -0.1930  0.0055
 9411SOL    HW139695   4.629   2.215  16.013  0.5496  0.5178 -1.1268
 9411SOL    HW239696   4.611   2.076  15.965  1.1508 -0.0349  0.3836
 9412SOL     OW39697   3.332   2.864  13.948 -0.1832  0.4139 -0.2706
 9412SOL    HW139698   3.348   2.955  13.923  0.5222  0.0780 -1.0295
 9412SOL    HW239699   3.286   2.876  14.031  0.0018  1.8073 -0.3752
 9413SOL     OW39700   0.338   4.431   6.688 -0.3896  0.2353 -0.1553
 9413SOL    HW139701   0.380   4.382   6.616  0.6355  2.0403 -0.7846
 9413SOL    HW239702   0.406   4.496   6.704  0.4296 -0.3317 -1.2565
 9414SOL     OW39703   1.510   4.350   7.278  0.0801  0.4418  0.1368
 9414SOL    HW139704   1.463   4.345   7.361 -1.6267  2.0333 -0.7329
 9414SOL    HW239705   1.560   4.268   7.285 -2.2440 -1.0126 -0.3967
 9415SOL     OW39706   1.858   2.372   5.054 -0.1805 -0.0552  0.4462
 9415SOL    HW139707   1.883   2.306   5.118 -0.1422 -0.9817 -0.5386
 9415SOL    HW239708   1.769   2.389   5.086 -0.2178  0.6742 -0.0310
 9416SOL     OW39709   1.301   1.655   0.437  0.4269  0.1780 -0.0564
 9416SOL    HW139710   1.269   1.704   0.361 -1.1160 -0.4716  0.1785
 9416SOL    HW239711   1.380   1.608   0.411  1.1162  0.7609  0.9701
 9417SOL     OW39712   1.621   2.040   2.226  0.4767  0.0486 -0.0586
 9417SOL    HW139713   1.689   2.103   2.203  1.4768 -1.4402 -1.1495
 9417SOL    HW239714   1.603   1.994   2.144  1.1891 -4.3268  2.2308
 9418SOL     OW39715   0.222   1.834   2.695  0.0543  0.3666 -0.6806
 9418SOL    HW139716   0.159   1.888   2.743  0.1477  2.2335 -2.6689
 9418SOL    HW239717   0.196   1.744   2.716 -2.7112  0.9559 -1.4769
 9419SOL     OW39718   1.831   4.053  15.829 -0.3172  0.2436 -0.3257
 9419SOL    HW139719   1.833   4.020  15.919  0.2681  0.4442 -0.2619
 9419SOL    HW239720   1.753   4.108  15.828 -1.2767 -1.1234 -0.3499
 9420SOL     OW39721   4.510   0.569   0.883 -0.3066 -0.0072 -0.6343
 9420SOL    HW139722   4.505   0.542   0.974 -2.3534  1.0799 -0.4109
 9420SOL    HW239723   4.459   0.650   0.888 -0.2180 -0.0989  1.6983
 9421SOL     OW39724   2.866   4.021   3.606  0.0293 -0.1067  0.6255
 9421SOL    HW139725   2.815   4.097   3.578 -1.2562 -1.6644 -1.2989
 9421SOL    HW239726   2.803   3.954   3.632  0.5388 -1.6607 -2.1547
 9422SOL     OW39727   1.840   0.668   8.178  0.4986  0.2343  0.2290
 9422SOL    HW139728   1.851   0.623   8.262 -1.2907 -0.0688  0.3101
 9422SOL    HW239729   1.853   0.594   8.119  1.2325  0.0936  0.5729
 9423SOL     OW39730   1.689   3.260   9.848 -0.6238  0.1511  0.0355
 9423SOL    HW139731   1.667   3.173   9.881  1.6217 -0.4190 -0.0328
 9423SOL    HW239732   1.746   3.288   9.920  1.0904 -3.0923 -0.1031
 9424SOL     OW39733   0.370   4.562   2.563 -1.0934 -0.5029 -0.2742
 9424SOL    HW139734   0.459   4.599   2.562 -0.6710 -1.4732  2.7823
 9424SOL    HW239735   0.396   4.482   2.609 -0.6021  0.1152  0.5161
 9425SOL     OW39736   4.020   4.129   8.360 -0.1976  0.2214  0.5703
 9425SOL    HW139737   4.053   4.141   8.449  2.2197 -0.0892 -0.2898
 9425SOL    HW239738   3.929   4.104   8.377 -0.1150 -1.1746 -1.0347
 9426SOL     OW39739   3.446   2.969   5.170 -0.0950 -0.1894 -0.3363
 9426SOL    HW139740   3.367   2.925   5.200 -0.8504  1.7125  0.4883
 9426SOL    HW239741   3.413   3.005   5.088 -0.2045 -1.1509 -0.7058
 9427SOL     OW39742   1.951   0.599  12.541 -0.2665  0.3413  0.0264
 9427SOL    HW139743   1.996   0.587  12.458  1.0171  1.4485  0.5543
 9427SOL    HW239744   1.894   0.674  12.523  1.1493  1.2608 -0.6817
 9428SOL     OW39745   0.535   3.475  16.845 -0.1137 -0.1150 -0.3997
 9428SOL    HW139746   0.453   3.427  16.832 -0.6140  0.3902  0.9612
 9428SOL    HW239747   0.539   3.517  16.759 -1.2376  0.5029 -0.1595
 9429SOL     OW39748   0.045   4.510  12.257  0.5582 -0.0094  0.4813
 9429SOL    HW139749   0.126   4.546  12.221  0.4959  0.4903  0.8394
 9429SOL    HW239750   0.069   4.472  12.342 -1.1941  0.3807  1.1596
 9430SOL     OW39751   1.359   2.158   6.321 -0.0185 -0.0915 -0.2617
 9430SOL    HW139752   1.298   2.175   6.392  0.8962 -1.0405  0.7593
 9430SOL    HW239753   1.389   2.246   6.297  0.0001 -0.4881 -1.6454
 9431SOL     OW39754   0.752   0.897   6.947 -0.0485  0.3941 -0.2548
 9431SOL    HW139755   0.790   0.969   6.997 -1.9966  2.0392 -1.1306
 9431SOL    HW239756   0.661   0.902   6.976 -0.7369 -1.8050 -2.0713
 9432SOL     OW39757   0.738   3.820   6.674  0.5111  0.2935 -0.1709
 9432SOL    HW139758   0.758   3.728   6.691 -1.6435 -0.0084  0.7843
 9432SOL    HW239759   0.802   3.841   6.606 -1.0570 -1.3695 -2.1595
 9433SOL     OW39760   4.629   4.587   6.218 -0.0233 -0.3785  0.3987
 9433SOL    HW139761   4.692   4.657   6.236 -1.1262  0.7941 -0.3115
 9433SOL    HW239762   4.604   4.563   6.307 -1.9585 -1.9726 -0.5822
 9434SOL     OW39763   4.483   1.784   2.970  0.6069  0.1992  0.2887
 9434SOL    HW139764   4.413   1.747   2.917  0.2351 -0.3319  1.1571
 9434SOL    HW239765   4.500   1.706   3.022  0.4743 -0.8113 -1.1843
 9435SOL     OW39766   2.801   1.613   9.494  1.1019 -0.4763  0.5416
 9435SOL    HW139767   2.873   1.676   9.500  1.1875 -0.4984 -0.1910
 9435SOL    HW239768   2.849   1.539   9.457 -0.1115 -2.0960  2.2200
 9436SOL     OW39769   4.003   2.853   2.778  0.4052 -0.1151 -0.1588
 9436SOL    HW139770   3.938   2.869   2.709  2.1532 -2.9439 -2.4406
 9436SOL    HW239771   4.006   2.937   2.823 -1.6957  0.3653 -0.9382
 9437SOL     OW39772   2.348   0.571   2.608  0.9872  0.3035  0.4725
 9437SOL    HW139773   2.410   0.611   2.548  0.3144 -0.8086 -0.9690
 9437SOL    HW239774   2.319   0.503   2.547  2.2039 -0.7947  1.1048
 9438SOL     OW39775   4.003   3.972  11.482 -0.3384 -0.0873  0.2882
 9438SOL    HW139776   3.973   4.042  11.424  2.1757 -0.6060 -1.6784
 9438SOL    HW239777   3.922   3.924  11.499  0.0435 -0.0296  2.2394
 9439SOL     OW39778   3.276   3.698   2.350 -0.2720 -0.1606 -0.3610
 9439SOL    HW139779   3.369   3.676   2.360  0.3838  3.4574  1.2678
 9439SOL    HW239780   3.237   3.630   2.405 -1.0150 -0.3847 -1.1701
 9440SOL     OW39781   0.349   2.442   4.538  0.5512  0.1986  0.8699
 9440SOL    HW139782   0.397   2.524   4.532 -0.9452  1.0253  0.0142
 9440SOL    HW239783   0.400   2.390   4.476  0.9555  2.5131 -0.7374
 9441SOL     OW39784   3.131   1.904   8.584 -0.0533 -0.1221  0.5081
 9441SOL    HW139785   3.046   1.860   8.584  0.7250 -1.6682 -2.1414
 9441SOL    HW239786   3.142   1.964   8.658  0.9138 -0.0020  0.2731
 9442SOL     OW39787   4.477   2.861   0.247  0.2258  0.4867 -0.8091
 9442SOL    HW139788   4.459   2.767   0.245 -1.5425  0.8512 -1.6473
 9442SOL    HW239789   4.499   2.885   0.157  0.6286 -0.3998 -0.9449
 9443SOL     OW39790   2.860   0.557  11.464  0.3322 -0.1961  0.7709
 9443SOL    HW139791   2.899   0.644  11.451  1.4859 -0.5476  1.8957
 9443SOL    HW239792   2.772   0.578  11.433 -0.1171 -1.8358  0.9223
 9444SOL     OW39793   2.770   2.560   7.018  0.2387 -0.3445 -0.0262
 9444SOL    HW139794   2.679   2.535   7.002  0.3174  0.3383 -1.6521
 9444SOL    HW239795   2.784   2.605   6.934 -0.9949 -0.6466 -0.3952
 9445SOL     OW39796   4.153   3.516   6.480 -0.0967  0.4445 -0.3233
 9445SOL    HW139797   4.171   3.610   6.474  2.1415 -0.0576 -1.5569
 9445SOL    HW239798   4.235   3.471   6.499 -0.4159 -0.2200 -0.5189
 9446SOL     OW39799   2.392   1.534  15.896 -0.0833  0.0688 -0.5412
 9446SOL    HW139800   2.414   1.517  15.805 -0.4065  1.4261 -0.8718
 9446SOL    HW239801   2.412   1.624  15.923 -0.4923 -0.1478  0.5081
 9447SOL     OW39802   1.183   1.309   7.067 -0.3724  0.3754  0.0492
 9447SOL    HW139803   1.239   1.288   7.141 -2.1733  3.9978  2.4495
 9447SOL    HW239804   1.184   1.404   7.073 -2.6169  0.4045 -0.0763
 9448SOL     OW39805   4.547   3.565   3.196 -0.0352 -0.4179  0.0053
 9448SOL    HW139806   4.530   3.583   3.104 -0.3588  1.8566  0.5162
 9448SOL    HW239807   4.578   3.641   3.245  0.9415 -0.0214 -1.2266
 9449SOL     OW39808   0.833   2.590   3.520  0.0801 -0.1416 -0.0339
 9449SOL    HW139809   0.749   2.557   3.488  0.5634 -2.2519  0.8641
 9449SOL    HW239810   0.830   2.674   3.474 -2.0187  1.1418  2.4530
 9450SOL     OW39811   2.582   1.159   7.683 -0.6296  1.1386  0.1728
 9450SOL    HW139812   2.539   1.231   7.730 -0.3068  1.4478 -0.0005
 9450SOL    HW239813   2.647   1.137   7.750 -0.6750  2.2739  0.5873
 9451SOL     OW39814   0.438   0.809   4.769  0.3600 -0.4268  0.1209
 9451SOL    HW139815   0.466   0.875   4.705 -0.9358 -0.3268 -0.3628
 9451SOL    HW239816   0.514   0.799   4.825  1.0757 -3.1173 -1.3640
 9452SOL     OW39817   4.255   3.931   8.226 -0.4410  0.2536 -0.8012
 9452SOL    HW139818   4.212   3.851   8.195  0.7645 -0.5006 -0.5074
 9452SOL    HW239819   4.184   3.971   8.276  0.0637  1.1609 -0.8171
 9453SOL     OW39820   2.500   1.775  15.619 -0.1421  0.4290 -0.3384
 9453SOL    HW139821   2.466   1.839  15.680  1.6497 -1.3108  2.5052
 9453SOL    HW239822   2.434   1.706  15.607 -1.7281  2.1232 -1.2982
 9454SOL     OW39823   3.550   1.306   6.641  0.0529 -0.4625  0.0182
 9454SOL    HW139824   3.542   1.340   6.730  0.0943  1.1534 -0.6056
 9454SOL    HW239825   3.464   1.263   6.642  0.4340 -1.1535  1.6674
 9455SOL     OW39826   1.730   0.004   5.767 -0.3679 -0.1718  0.3946
 9455SOL    HW139827   1.721   0.069   5.836  2.2474 -1.7394  2.2078
 9455SOL    HW239828   1.677   0.036   5.693  0.4890 -2.0877 -1.0513
 9456SOL     OW39829   1.091   0.612   5.138 -0.7406  0.4911 -0.1632
 9456SOL    HW139830   1.047   0.624   5.221  0.8170 -2.6455  1.1325
 9456SOL    HW239831   1.019   0.591   5.079 -0.0427  0.5581 -1.0523
 9457SOL     OW39832   4.400   4.517   2.590  0.0885 -0.2228 -0.3451
 9457SOL    HW139833   4.326   4.457   2.603  1.0148 -1.0341  1.1306
 9457SOL    HW239834   4.438   4.495   2.505 -1.3628  0.0196 -1.0544
 9458SOL     OW39835   1.154   1.172   8.772  0.4284 -0.3946 -0.7436
 9458SOL    HW139836   1.153   1.234   8.699 -0.1393  1.7891  1.1003
 9458SOL    HW239837   1.075   1.188   8.824 -0.6426 -1.4602 -2.0626
 9459SOL     OW39838   1.026   4.221   0.074 -0.0071  0.1554 -0.1813
 9459SOL    HW139839   1.076   4.283   0.021 -1.3155 -0.4570 -2.1493
 9459SOL    HW239840   0.969   4.186   0.005 -2.8666  0.4860  2.0253
 9460SOL     OW39841   1.886   0.585   8.439  0.0136  0.1696 -0.3418
 9460SOL    HW139842   1.948   0.532   8.490 -2.4541  0.1373  2.6016
 9460SOL    HW239843   1.808   0.562   8.489  1.0469 -1.8274  0.3741
 9461SOL     OW39844   1.040   3.673   1.746 -0.0785  0.0444 -0.1464
 9461SOL    HW139845   1.016   3.764   1.758 -0.3709  0.4940 -4.0827
 9461SOL    HW239846   0.977   3.644   1.680 -0.4575 -0.2279  0.3310
 9462SOL     OW39847   3.330   4.338   5.004 -0.1874  0.1098  0.2732
 9462SOL    HW139848   3.321   4.434   5.002  0.0931  0.1208 -0.6364
 9462SOL    HW239849   3.362   4.329   4.914 -0.7658  0.3520  0.0351
 9463SOL     OW39850   4.692   1.597  14.487 -0.2414  0.3426  0.2566
 9463SOL    HW139851   4.620   1.537  14.467  2.2178 -2.2275 -1.0231
 9463SOL    HW239852   4.702   1.634  14.400 -0.6373 -0.4511 -0.1254
 9464SOL     OW39853   0.401   1.963   3.669  0.3632  0.0015 -0.3377
 9464SOL    HW139854   0.418   2.051   3.635  2.7183  0.0292  0.8910
 9464SOL    HW239855   0.484   1.948   3.716  1.6288  1.5575 -2.0960
 9465SOL     OW39856   3.908   1.720  11.925  0.1441 -0.6203 -0.4857
 9465SOL    HW139857   3.965   1.797  11.926 -1.3761  0.4935  0.5899
 9465SOL    HW239858   3.833   1.754  11.875  1.6650  0.1254 -2.2727
 9466SOL     OW39859   0.398   1.601  15.062 -0.0591  0.0637  1.3689
 9466SOL    HW139860   0.393   1.691  15.032  1.9941  0.1372  1.2093
 9466SOL    HW239861   0.488   1.609  15.096  0.3249  0.4649  0.2551
 9467SOL     OW39862   1.711   1.164   4.943 -0.6152 -0.2774 -0.2974
 9467SOL    HW139863   1.792   1.114   4.951 -2.0201 -1.9471  3.4036
 9467SOL    HW239864   1.749   1.230   4.885  0.6177  0.5344  1.4207
 9468SOL     OW39865   3.169   0.361  17.520  0.2460  0.0508 -0.1981
 9468SOL    HW139866   3.081   0.356  17.484  0.8142  1.2125 -1.7729
 9468SOL    HW239867   3.140   0.373  17.610 -0.6355  1.5595 -0.6781
 9469SOL     OW39868   3.947   4.396  13.960 -0.0857 -0.8805  0.0977
 9469SOL    HW139869   4.001   4.338  14.014 -0.8186 -0.1279  1.6515
 9469SOL    HW239870   4.016   4.453  13.927 -0.6751  0.4598  1.1844
 9470SOL     OW39871   1.215   2.286  10.004  0.2867  0.4182 -0.1724
 9470SOL    HW139872   1.134   2.336  10.013  0.7510  0.9283  1.1752
 9470SOL    HW239873   1.281   2.352   9.987 -0.8170  0.7037 -3.3898
 9471SOL     OW39874   2.296   1.084   8.854  0.3708  0.6740  0.3378
 9471SOL    HW139875   2.379   1.127   8.873  1.8801 -0.8222 -2.8047
 9471SOL    HW239876   2.246   1.109   8.931  0.9934  0.8685  0.6824
 9472SOL     OW39877   0.974   1.832   5.141  0.0985  0.0215 -0.3126
 9472SOL    HW139878   0.887   1.795   5.126  0.7220 -1.5894  0.0439
 9472SOL    HW239879   1.016   1.833   5.055  0.7672 -0.9130  0.0097
 9473SOL     OW39880   3.595   2.686   8.166  0.4036  0.1958  0.0425
 9473SOL    HW139881   3.503   2.668   8.147 -0.0890  1.1660  1.4736
 9473SOL    HW239882   3.620   2.628   8.238 -0.4901  1.1951  1.1757
 9474SOL     OW39883   3.460   2.875   2.528  0.2258  0.2027 -0.4370
 9474SOL    HW139884   3.508   2.859   2.610 -3.0131 -1.4750  1.1414
 9474SOL    HW239885   3.482   2.966   2.508  1.3431  0.1386  0.4852
 9475SOL     OW39886   0.635   0.365  12.854  0.1463  0.2096  0.0838
 9475SOL    HW139887   0.600   0.388  12.767 -1.9121 -0.1515  0.8013
 9475SOL    HW239888   0.676   0.283  12.829  0.5381  0.4884 -0.1926
 9476SOL     OW39889   3.420   1.358  15.501  0.0203  0.3846 -0.6670
 9476SOL    HW139890   3.342   1.403  15.533  0.5555  1.0080 -0.2273
 9476SOL    HW239891   3.382   1.299  15.437 -1.0581  1.3158 -0.8920
 9477SOL     OW39892   4.408   4.122   7.425  0.1718  0.0160  0.4406
 9477SOL    HW139893   4.375   4.127   7.336  0.5321 -1.5434  0.2195
 9477SOL    HW239894   4.502   4.141   7.413 -0.0112  1.2624  0.9725
 9478SOL     OW39895   4.423   1.383   6.834  0.1048  0.3447  0.0293
 9478SOL    HW139896   4.503   1.330   6.828 -0.0138 -0.0843  2.2573
 9478SOL    HW239897   4.355   1.322   6.806  1.5627 -1.7105  1.0148
 9479SOL     OW39898   0.627   0.785  13.143 -0.6567  0.3452  0.1001
 9479SOL    HW139899   0.548   0.824  13.182 -0.5808  0.5184  0.0786
 9479SOL    HW239900   0.701   0.840  13.168 -1.6106  1.3327  0.7184
 9480SOL     OW39901   0.109   2.561   8.800 -0.2837  0.4501  0.1548
 9480SOL    HW139902   0.124   2.654   8.813  0.5432  0.0166  2.3822
 9480SOL    HW239903   0.090   2.538   8.891 -1.8688 -0.3384 -0.3844
 9481SOL     OW39904   0.401   0.928   0.904 -0.0994 -0.5251 -0.6886
 9481SOL    HW139905   0.324   0.875   0.925  0.9105  0.0416  4.4615
 9481SOL    HW239906   0.471   0.874   0.868 -2.4796 -2.4094 -2.4609
 9482SOL     OW39907   3.523   3.562   4.712 -0.7016  0.1837  0.6855
 9482SOL    HW139908   3.589   3.612   4.666 -1.2246  1.0441  0.8767
 9482SOL    HW239909   3.454   3.549   4.647  1.7153  0.8600 -1.9927
 9483SOL     OW39910   0.986   1.650   0.642  0.5269 -0.0179 -0.8108
 9483SOL    HW139911   1.028   1.734   0.622 -0.0901  0.8228  1.3813
 9483SOL    HW239912   1.008   1.631   0.733  2.3603 -0.3712 -1.3139
 9484SOL     OW39913   1.611   1.481   8.293  0.3963  0.1218 -0.3168
 9484SOL    HW139914   1.602   1.386   8.282 -0.4447  0.2986 -1.1785
 9484SOL    HW239915   1.577   1.489   8.382 -1.2475  1.4718 -1.0660
 9485SOL     OW39916   0.900   0.976   2.052  1.0134 -0.8268  0.4870
 9485SOL    HW139917   0.945   1.061   2.063  0.2583 -0.0641 -2.3983
 9485SOL    HW239918   0.954   0.926   1.991 -1.6829 -0.1435 -2.4168
 9486SOL     OW39919   3.851   2.907   3.163  0.4333 -0.0498  0.0765
 9486SOL    HW139920   3.939   2.945   3.161  0.0768  0.7061 -1.6946
 9486SOL    HW239921   3.797   2.986   3.154  1.6895  0.8774  0.7165
 9487SOL     OW39922   4.639   2.744   7.254 -0.9496 -0.5045 -0.3406
 9487SOL    HW139923   4.689   2.710   7.328 -1.4041  1.5744  0.9254
 9487SOL    HW239924   4.661   2.837   7.259  0.9804 -0.9464 -0.8816
 9488SOL     OW39925   0.204   3.246   7.818 -0.0402 -0.5613 -0.2238
 9488SOL    HW139926   0.110   3.236   7.830 -0.0737 -0.2532 -0.2226
 9488SOL    HW239927   0.219   3.288   7.903  0.3574 -2.2837  0.5603
 9489SOL     OW39928   3.877   4.563   7.658 -0.2280  0.2521 -0.4191
 9489SOL    HW139929   3.959   4.588   7.700  0.6766 -0.1358 -1.9475
 9489SOL    HW239930   3.813   4.591   7.724 -0.7684  0.9277 -1.2331
 9490SOL     OW39931   3.149   1.781  11.532 -0.3156 -0.2199  0.3522
 9490SOL    HW139932   3.102   1.773  11.615  0.0717  0.0510  0.5988
 9490SOL    HW239933   3.083   1.779  11.463  1.2256  2.3722 -1.1975
 9491SOL     OW39934   1.454   0.866   3.481  0.0680  0.0299 -0.5977
 9491SOL    HW139935   1.534   0.821   3.453 -0.5358 -1.4336  0.0480
 9491SOL    HW239936   1.487   0.910   3.559 -1.7249 -1.4650  0.9954
 9492SOL     OW39937   4.594   1.816   5.831  0.3249 -0.3584 -0.3793
 9492SOL    HW139938   4.613   1.829   5.923 -0.3057 -1.2847 -0.1207
 9492SOL    HW239939   4.653   1.742   5.816  2.9803  1.9610 -1.2169
 9493SOL     OW39940   2.604   3.062   0.898 -0.3958 -0.3478 -0.2917
 9493SOL    HW139941   2.594   3.148   0.939 -0.7106 -0.0790 -0.9291
 9493SOL    HW239942   2.594   3.092   0.807 -1.0010 -2.0624 -0.7950
 9494SOL     OW39943   1.327   0.706   8.646 -0.6332 -0.1493 -0.0434
 9494SOL    HW139944   1.397   0.689   8.709 -2.2903  1.7363  2.2852
 9494SOL    HW239945   1.366   0.678   8.563  0.0981  0.9716 -0.0678
 9495SOL     OW39946   2.463   1.478   5.656  0.6505 -0.1007  0.0917
 9495SOL    HW139947   2.542   1.431   5.683  2.1192  1.9963 -0.5338
 9495SOL    HW239948   2.475   1.560   5.705  0.1801 -0.4823  0.8444
 9496SOL     OW39949   3.811   1.409  17.459 -0.3023 -0.6077  0.4937
 9496SOL    HW139950   3.822   1.496  17.498  0.2346 -0.0847 -0.8207
 9496SOL    HW239951   3.878   1.412  17.391  0.9507 -1.7950  1.7057
 9497SOL     OW39952   3.088   0.660   8.882  0.2136 -0.3131 -0.0802
 9497SOL    HW139953   3.007   0.664   8.934 -0.0460 -0.8013 -0.4478
 9497SOL    HW239954   3.132   0.583   8.917  0.1788  0.2992  1.3084
 9498SOL     OW39955   1.017   2.452  11.280  0.3597 -0.8191  0.4819
 9498SOL    HW139956   1.046   2.383  11.339 -1.7713 -2.1705 -0.0483
 9498SOL    HW239957   1.022   2.529  11.337 -1.5355  0.6371 -1.3198
 9499SOL     OW39958   3.213   3.534   9.605 -0.2748 -0.1806  0.4648
 9499SOL    HW139959   3.159   3.584   9.544  0.3243  1.3549  1.1898
 9499SOL    HW239960   3.165   3.452   9.597 -1.5411  0.4651  1.5089
 9500SOL     OW39961   3.299   0.827  17.327  0.2901  0.4248 -0.0632
 9500SOL    HW139962   3.319   0.798  17.238  1.6967  1.5342 -0.0939
 9500SOL    HW239963   3.371   0.789  17.378  0.7225  0.0295 -0.9640
 9501SOL     OW39964   1.839   0.056   9.560 -0.2872  0.7284  0.0412
 9501SOL    HW139965   1.927   0.058   9.600 -0.9277  1.2106  1.4319
 9501SOL    HW239966   1.860   0.077   9.469 -0.5951  2.5403  0.3925
 9502SOL     OW39967   3.787   1.724   6.800 -0.1731 -1.0308  0.5707
 9502SOL    HW139968   3.693   1.727   6.817 -0.1264 -3.2264  1.3100
 9502SOL    HW239969   3.783   1.705   6.706  0.1920  2.2101 -0.0977
 9503SOL     OW39970   1.712   0.228   9.049  0.2961 -0.3053 -0.5325
 9503SOL    HW139971   1.791   0.188   9.014  0.5747  0.3166 -0.6151
 9503SOL    HW239972   1.646   0.159   9.039  0.3199 -0.0579 -2.4512
 9504SOL     OW39973   2.170   3.909  16.534  0.2549 -0.3143  0.3886
 9504SOL    HW139974   2.202   3.999  16.542 -0.4842  0.2305 -2.9459
 9504SOL    HW239975   2.172   3.890  16.441  0.9406 -0.2355  0.3835
 9505SOL     OW39976   4.105   1.755   6.241 -0.1491 -0.0449 -0.2881
 9505SOL    HW139977   4.026   1.771   6.294 -1.4109 -1.0977 -1.8653
 9505SOL    HW239978   4.070   1.705   6.167  0.0805 -0.0850 -0.3695
 9506SOL     OW39979   2.676   3.818   5.156 -0.1334  0.1805 -0.1745
 9506SOL    HW139980   2.739   3.875   5.112 -2.2878  1.6844 -1.2948
 9506SOL    HW239981   2.595   3.845   5.113  0.3301  2.2776  0.2419
 9507SOL     OW39982   1.527   4.003   3.506  0.3361  0.1778  0.7401
 9507SOL    HW139983   1.483   3.918   3.495  1.6521 -0.5160  0.8132
 9507SOL    HW239984   1.472   4.030   3.579  0.1461  3.6144 -0.6590
 9508SOL     OW39985   3.042   3.508   4.765 -0.2904  0.4236  0.3009
 9508SOL    HW139986   2.988   3.450   4.713 -0.2340 -0.5309  1.3108
 9508SOL    HW239987   3.030   3.464   4.849 -0.2118 -0.9726 -0.4285
 9509SOL     OW39988   2.856   3.741  15.152 -0.6303  0.6312 -0.2153
 9509SOL    HW139989   2.859   3.646  15.158  1.7016  0.7686  0.8525
 9509SOL    HW239990   2.942   3.759  15.114  0.6937 -0.1989  2.3878
 9510SOL     OW39991   4.270   0.485   6.679  0.0150  0.5532 -0.0548
 9510SOL    HW139992   4.320   0.403   6.672 -0.7541 -0.0155  0.9725
 9510SOL    HW239993   4.182   0.448   6.670  0.2386  0.1748 -0.6482
 9511SOL     OW39994   2.933   0.185  12.729  0.3046 -0.6032  0.0376
 9511SOL    HW139995   3.000   0.143  12.783  0.1964 -1.4099 -0.4525
 9511SOL    HW239996   2.858   0.130  12.753 -0.2502  0.5052  0.8219
 9512SOL     OW39997   2.953   0.237   6.584  0.5464 -0.0652  0.4392
 9512SOL    HW139998   2.879   0.176   6.576  0.2725  0.4820 -1.2938
 9512SOL    HW239999   3.030   0.186   6.607 -0.2734 -0.9075  1.3498
 9513SOL     OW40000   3.327   1.212   2.243 -0.1154 -0.3658 -0.1851
 9513SOL    HW140001   3.367   1.129   2.266  1.8271  0.6800  0.2191
 9513SOL    HW240002   3.406   1.262   2.264  0.5153 -0.9693 -1.1394
 9514SOL     OW40003   0.361   2.048   4.128  0.3235 -0.1318 -0.2470
 9514SOL    HW140004   0.386   2.000   4.208 -1.2014 -1.9661 -0.8657
 9514SOL    HW240005   0.287   1.993   4.103  0.0407  1.1003 -2.0804
 9515SOL     OW40006   0.112   4.038   6.186  0.5436 -0.1818 -0.2498
 9515SOL    HW140007   0.202   4.009   6.201  1.3733  1.9289 -1.1558
 9515SOL    HW240008   0.107   4.111   6.247 -1.3486  0.7030 -1.4652
 9516SOL     OW40009   2.175   2.501  12.728 -0.0070  0.0924 -0.9563
 9516SOL    HW140010   2.110   2.564  12.760  1.0272 -0.2693  1.8599
 9516SOL    HW240011   2.221   2.476  12.808  0.7542  0.7715 -1.1781
 9517SOL     OW40012   4.217   2.600  17.669  0.0879 -0.1949  0.2474
 9517SOL    HW140013   4.220   2.624   0.081 -1.3126  0.3745  0.1513
 9517SOL    HW240014   4.123   2.609  17.653  0.4228  1.9368 -0.6244
 9518SOL     OW40015   3.254   3.121   0.838 -1.0219 -0.0106  0.7145
 9518SOL    HW140016   3.189   3.063   0.797 -0.3602 -0.8045  0.7811
 9518SOL    HW240017   3.228   3.124   0.930 -1.1894 -0.3390  0.6813
 9519SOL     OW40018   1.828   4.086  15.556  0.1877 -0.1316 -0.0567
 9519SOL    HW140019   1.839   4.067  15.649  1.1181 -1.0309 -0.3484
 9519SOL    HW240020   1.833   4.181  15.560  1.5436 -0.2443  0.7394
 9520SOL     OW40021   1.909   0.698   5.133 -0.1124  0.1189 -0.1529
 9520SOL    HW140022   1.939   0.645   5.060 -1.3984 -1.9324  0.8061
 9520SOL    HW240023   1.817   0.676   5.147 -0.1236 -1.7075 -3.1168
 9521SOL     OW40024   0.962   4.360   2.792 -0.1832  0.1297  0.1608
 9521SOL    HW140025   0.872   4.391   2.779 -0.1169  0.1699 -0.2028
 9521SOL    HW240026   0.978   4.349   2.698 -1.2094  1.0104 -0.1180
 9522SOL     OW40027   2.652   4.390   2.584 -0.7406  0.1779  0.1102
 9522SOL    HW140028   2.584   4.442   2.541 -0.1203 -0.3081 -1.4581
 9522SOL    HW240029   2.715   4.401   2.512  1.8894 -0.9532  2.2589
 9523SOL     OW40030   1.957   0.957   9.973 -0.2185 -0.1105  0.0801
 9523SOL    HW140031   1.891   1.004  10.025 -1.0621 -1.6218  0.3857
 9523SOL    HW240032   1.993   0.911  10.048  1.2033 -1.4316 -1.4184
 9524SOL     OW40033   1.430   0.999   7.786  0.2311  0.0572  0.2740
 9524SOL    HW140034   1.420   1.078   7.734 -0.8363 -1.0073 -1.1203
 9524SOL    HW240035   1.367   0.937   7.748 -0.6002 -0.3453  2.2722
 9525SOL     OW40036   1.830   0.538   2.906 -0.1469  0.3348 -0.4769
 9525SOL    HW140037   1.898   0.538   2.839  0.8369 -1.1467  0.5233
 9525SOL    HW240038   1.776   0.609   2.871 -0.2675  0.8032  0.6572
 9526SOL     OW40039   4.479   4.475  17.390  0.0359  0.2352 -0.3195
 9526SOL    HW140040   4.502   4.386  17.363 -1.2365  0.1616 -1.1254
 9526SOL    HW240041   4.558   4.516  17.356  1.7821 -0.9610  2.2355
 9527SOL     OW40042   0.662   1.568   5.527  0.0922 -0.4003  0.1805
 9527SOL    HW140043   0.701   1.480   5.520  0.3239 -0.2430 -0.5175
 9527SOL    HW240044   0.738   1.624   5.542 -0.4412  0.5869 -0.7955
 9528SOL     OW40045   2.960   4.335   4.874  0.5371 -0.0314 -0.4589
 9528SOL    HW140046   2.909   4.283   4.812  2.4790 -1.7702 -0.5610
 9528SOL    HW240047   2.987   4.410   4.822  0.6956  0.9124  0.9745
 9529SOL     OW40048   3.385   0.417  12.856 -0.6280  0.1012 -0.7100
 9529SOL    HW140049   3.356   0.405  12.766 -0.8693  1.5754 -0.8316
 9529SOL    HW240050   3.478   0.395  12.855 -0.3102  1.4130 -0.7947
 9530SOL     OW40051   2.025   3.827   6.514  0.7239 -0.1356  0.0624
 9530SOL    HW140052   2.069   3.911   6.526 -0.0574  0.3729 -0.6828
 9530SOL    HW240053   2.097   3.781   6.470 -0.4698 -1.1705 -0.8062
 9531SOL     OW40054   2.033   4.459   8.925  0.5314  0.0935 -0.2193
 9531SOL    HW140055   2.058   4.498   9.008 -0.3508 -0.9173  0.5256
 9531SOL    HW240056   1.962   4.397   8.944  0.3475  0.2671 -0.3367
 9532SOL     OW40057   0.119   1.389   4.546 -0.3131 -0.3957  0.2094
 9532SOL    HW140058   0.035   1.358   4.512  0.6196 -1.3671 -1.2338
 9532SOL    HW240059   0.083   1.461   4.596 -0.8363 -1.0836  0.8196
 9533SOL     OW40060   4.045   0.508   3.165 -0.1204  0.2387 -0.2166
 9533SOL    HW140061   3.953   0.508   3.141 -0.8668 -2.6785  2.5854
 9533SOL    HW240062   4.046   0.431   3.222  0.1482  1.3850  1.3428
 9534SOL     OW40063   0.579   2.564   7.942 -0.0568 -0.0699  0.2440
 9534SOL    HW140064   0.510   2.562   8.008 -0.7041 -1.7568 -0.4559
 9534SOL    HW240065   0.661   2.584   7.986 -0.4804 -0.2398  1.1153
 9535SOL     OW40066   4.631   3.447   4.906 -0.4804  0.0114  0.3473
 9535SOL    HW140067   4.589   3.362   4.894 -0.6358  0.2191 -0.6671
 9535SOL    HW240068   4.569   3.492   4.964 -0.5902 -1.6138  1.4665
 9536SOL     OW40069   2.317   3.832   2.064  0.2350 -0.1343  0.1301
 9536SOL    HW140070   2.370   3.877   2.130  1.2482  0.2874 -0.9793
 9536SOL    HW240071   2.298   3.907   2.007 -1.6909 -0.8251 -0.1369
 9537SOL     OW40072   2.381   3.931   3.776 -0.1968 -0.4983 -0.1038
 9537SOL    HW140073   2.316   3.954   3.842  0.1099  0.2587 -0.0670
 9537SOL    HW240074   2.393   4.021   3.744 -1.1174 -0.0236  0.9012
 9538SOL     OW40075   2.043   3.044   2.897  0.9700  0.5019 -0.0173
 9538SOL    HW140076   2.038   3.078   2.987 -1.5022 -1.5558  0.6151
 9538SOL    HW240077   2.083   2.961   2.921 -3.3665 -1.8717 -1.0343
 9539SOL     OW40078   0.405   1.073  13.844 -0.0957  0.6766  0.0377
 9539SOL    HW140079   0.383   1.030  13.926 -1.5657 -0.8878 -1.1756
 9539SOL    HW240080   0.484   1.118  13.875  1.6846  1.2780 -5.2973
 9540SOL     OW40081   1.333   1.936   6.565  0.0058 -0.1634  0.5865
 9540SOL    HW140082   1.352   1.920   6.472  0.9392  2.3260  0.3652
 9540SOL    HW240083   1.247   1.894   6.572 -0.6420  1.4748  2.3807
 9541SOL     OW40084   1.534   4.395  13.638 -0.1702  0.0847  0.1318
 9541SOL    HW140085   1.453   4.395  13.587 -1.0755  0.8111  1.5908
 9541SOL    HW240086   1.533   4.486  13.665 -1.8001 -0.2356  1.1603
 9542SOL     OW40087   3.755   2.159   6.921 -0.5608  0.1647 -0.3172
 9542SOL    HW140088   3.741   2.180   7.013 -0.6449 -1.0181 -0.0677
 9542SOL    HW240089   3.793   2.073   6.937 -0.7745 -0.1096 -1.2609
 9543SOL     OW40090   4.232   4.697  17.433 -0.2301 -0.0708 -0.3127
 9543SOL    HW140091   4.287   0.016  17.365  1.2718  0.5959  1.2647
 9543SOL    HW240092   4.240   4.604  17.413 -0.6284  0.1805 -1.6214
 9544SOL     OW40093   4.424   3.524   5.076  0.4766 -0.2763 -0.5470
 9544SOL    HW140094   4.338   3.551   5.045  0.5156 -0.0701 -0.4777
 9544SOL    HW240095   4.395   3.481   5.156 -0.0032  0.0786 -0.5284
 9545SOL     OW40096   1.452   4.697   0.228 -0.2480  0.2620  0.2533
 9545SOL    HW140097   1.540   0.010   0.243  0.5822  0.1807 -4.4362
 9545SOL    HW240098   1.471   4.604   0.220 -0.7895  0.2659 -1.2225
 9546SOL     OW40099   2.696   3.520   2.421 -0.5106  0.0115 -0.1343
 9546SOL    HW140100   2.679   3.476   2.504 -1.1359  1.0303  0.2645
 9546SOL    HW240101   2.784   3.551   2.445 -1.3688  1.6125  0.9256
 9547SOL     OW40102   3.899   0.257  13.116 -0.0692 -0.2527 -0.0368
 9547SOL    HW140103   3.956   0.183  13.096 -1.2817 -1.0197 -0.5773
 9547SOL    HW240104   3.864   0.251  13.205  1.0651  1.8311  0.5617
 9548SOL     OW40105   1.984   1.674   1.539 -0.1738 -0.1672 -0.1335
 9548SOL    HW140106   1.949   1.585   1.529  0.2196 -0.3186 -0.1462
 9548SOL    HW240107   2.022   1.664   1.626 -1.0760  2.2815  0.5502
 9549SOL     OW40108   4.556   3.841   6.603 -0.3352 -0.7174  0.1502
 9549SOL    HW140109   4.604   3.863   6.683 -0.1572  0.4005 -0.2622
 9549SOL    HW240110   4.632   3.812   6.553 -0.6974 -0.4945 -0.5315
 9550SOL     OW40111   3.267   1.193   4.501  0.3983  0.2667  0.1626
 9550SOL    HW140112   3.249   1.236   4.418 -1.4778  0.2532  0.5644
 9550SOL    HW240113   3.286   1.103   4.477  0.6191  0.7020 -1.2860
 9551SOL     OW40114   4.635   2.552   2.163  0.6324 -0.5848 -0.0750
 9551SOL    HW140115   4.611   2.644   2.168  1.2777 -0.4717  0.8375
 9551SOL    HW240116   0.000   2.549   2.208 -0.3817  1.9847  1.9529
 9552SOL     OW40117   4.235   2.033  15.488  0.2091  0.0404 -0.2009
 9552SOL    HW140118   4.204   2.036  15.398  2.2216  0.3862 -0.8785
 9552SOL    HW240119   4.315   2.085  15.480  1.7890 -2.4165 -0.4555
 9553SOL     OW40120   2.321   0.110  11.075 -0.1845  1.0341  0.5780
 9553SOL    HW140121   2.341   0.159  10.996 -1.3276  0.8190  0.1533
 9553SOL    HW240122   2.283   0.030  11.038  1.9650 -0.2383  1.1586
 9554SOL     OW40123   3.827   1.928  14.913  0.5167 -0.3803  0.2480
 9554SOL    HW140124   3.804   1.881  14.992  0.6274  0.9525  1.0710
 9554SOL    HW240125   3.792   1.864  14.851  0.3968  1.5968 -1.7427
 9555SOL     OW40126   1.998   1.816   0.295  0.1365 -0.4219  0.0747
 9555SOL    HW140127   2.000   1.872   0.218 -1.3679  1.6349  1.5151
 9555SOL    HW240128   2.036   1.881   0.355  1.3725 -0.8635 -0.2310
 9556SOL     OW40129   0.551   4.625   6.693 -0.0137 -0.8929  0.2263
 9556SOL    HW140130   0.627   4.624   6.635  0.6305 -2.3969  1.0965
 9556SOL    HW240131   0.592   4.663   6.771 -0.9945  1.5660 -0.4646
 9557SOL     OW40132   3.501   1.694   8.613  0.9333  0.1401  0.2633
 9557SOL    HW140133   3.489   1.630   8.684  0.2018  0.2517  0.2439
 9557SOL    HW240134   3.479   1.775   8.660 -0.6870 -0.5392  0.6684
 9558SOL     OW40135   0.544   2.642  13.256 -0.1214  0.3503 -0.0552
 9558SOL    HW140136   0.508   2.559  13.288  0.3208  0.2309  0.1239
 9558SOL    HW240137   0.490   2.706  13.302 -2.4986 -1.4251 -0.3525
 9559SOL     OW40138   1.995   2.488   7.316  0.5120 -0.4394  0.1137
 9559SOL    HW140139   1.997   2.583   7.304 -1.7627 -0.3319  0.6718
 9559SOL    HW240140   1.999   2.455   7.227 -0.7314  0.1957 -0.1762
 9560SOL     OW40141   0.717   4.535  12.482 -0.1594  0.1463  0.3421
 9560SOL    HW140142   0.741   4.453  12.438 -1.0088 -0.4536  1.0061
 9560SOL    HW240143   0.694   4.501  12.568  2.5108 -1.2569  0.5172
 9561SOL     OW40144   3.477   1.037   2.369 -0.0729 -0.6633 -1.5841
 9561SOL    HW140145   3.536   1.013   2.297  0.2364  0.1978 -1.6177
 9561SOL    HW240146   3.538   1.083   2.427 -0.0681 -1.0704 -1.2620
 9562SOL     OW40147   3.060   1.775   7.313 -0.8301  0.6938 -0.0165
 9562SOL    HW140148   3.063   1.792   7.407  0.3204  2.5171 -0.3809
 9562SOL    HW240149   3.011   1.693   7.314 -0.0173  0.2048 -1.0743
 9563SOL     OW40150   2.248   1.128   5.567  0.1049 -0.0261  0.2954
 9563SOL    HW140151   2.312   1.113   5.497  1.3647  0.1783  1.4025
 9563SOL    HW240152   2.268   1.065   5.637  0.8164 -1.4756 -1.2105
 9564SOL     OW40153   3.977   2.891   4.916 -0.5107 -0.3136  0.2083
 9564SOL    HW140154   4.049   2.932   4.963  0.0480 -0.6561 -0.3550
 9564SOL    HW240155   3.901   2.910   4.971  0.0830  0.8312  0.6318
 9565SOL     OW40156   3.294   1.102   3.671 -0.1737 -0.0662 -0.0345
 9565SOL    HW140157   3.328   1.088   3.583 -1.4866  1.2484 -0.7333
 9565SOL    HW240158   3.297   1.012   3.705 -1.2249 -0.3816 -0.8145
 9566SOL     OW40159   0.559   0.927   7.196  0.5258 -0.4800 -0.1454
 9566SOL    HW140160   0.586   0.845   7.156  0.8885 -0.1215 -0.6465
 9566SOL    HW240161   0.646   0.953   7.227 -1.0421  2.1332  2.0491
 9567SOL     OW40162   1.080   1.589   2.915 -0.1411  0.4789  0.6902
 9567SOL    HW140163   1.001   1.556   2.958 -1.4331  1.4606 -0.9248
 9567SOL    HW240164   1.123   1.507   2.890  0.8528  1.2371 -0.0764
 9568SOL     OW40165   1.810   1.958   3.174 -0.7276  0.4466  0.4405
 9568SOL    HW140166   1.780   2.026   3.114  0.1577  0.2926 -0.1851
 9568SOL    HW240167   1.847   2.013   3.242  1.6021 -1.1933  0.5290
   4.71949   4.71949  17.68080
