Membrane in water
40167
    1TCq1    O1    1   1.463   4.640  10.602 -0.3179 -0.0129  0.9488
    1TCq1    C1    2   1.470   4.514  10.659 -0.0666  0.8235 -0.3411
    1TCq1    O2    3   1.428   4.408  10.621 -0.2229  0.7815 -1.1022
    1TCq1    C2    4   1.562   4.531  10.772 -0.0124  0.2844  0.2124
    1TCq1    C3    5   1.677   4.606  10.764  0.8356 -0.0428 -0.3580
    1TCq1    C4    6   1.764   4.608  10.870 -0.8239  0.0870  0.1355
    1TCq1    C5    7   1.717   4.568  10.994 -0.1774 -0.1695 -0.3586
    1TCq1    C6    8   1.601   4.512  11.007  0.0511 -0.0295  0.1946
    1TCq1    C7    9   1.525   4.481  10.892  0.9537  0.3727 -0.2142
    1TCq1    C8   10   1.572   4.443  11.131  0.4780 -0.3910  0.3041
    1TCq1    O4   11   1.462   4.401  11.157  0.8941  0.4281  0.6577
    1TCq1    C9   12   1.882   4.692  10.856  0.3205 -0.6556 -0.2543
    1TCq1    O5   13   1.935   0.008  10.960  0.0741 -0.4756 -0.0332
    1TCq1    O6   14   1.920   0.009  10.745 -0.5177 -0.1944  0.4834
    1TCq1    H1   15   1.499   4.713  10.657  1.4728  0.5062 -0.9098
    1TCq1    H2   16   1.706   4.655  10.672 -1.3960 -0.8795 -1.5134
    1TCq1    H3   17   1.773   4.602  11.081 -1.0761  1.5547 -0.4375
    1TCq1    H4   18   1.433   4.423  10.897  1.1101  0.1240 -0.1815
    2MPD2     C   19   1.769   4.113  11.469 -0.1465 -0.4436 -0.1658
    2MPD2    C1   20   1.643   4.165  11.470 -0.1552 -0.2052 -0.8109
    2MPD2    C2   21   1.608   4.268  11.385 -0.1081 -0.1181 -0.3603
    2MPD2    C3   22   1.708   4.310  11.297 -0.2181 -0.0294 -0.1072
    2MPD2    C4   23   1.839   4.262  11.309  0.1463 -0.2463 -0.7782
    2MPD2    C5   24   1.871   4.156  11.391 -0.3141  0.4215  0.1436
    2MPD2     H   25   1.511   4.316  11.386 -0.6663 -1.2175 -0.9435
    2MPD2    H1   26   1.913   4.308  11.244 -0.1901  0.7847 -0.4214
    2MPD2    H2   27   1.802   4.044  11.546 -2.3455 -3.4137 -1.9060
    2MPD2    H3   28   1.975   4.128  11.399 -0.8172 -1.4604  0.1714
    2MPD2     N   29   1.689   4.411  11.197 -0.1055 -0.6030  0.2522
    2MPD2    H5   30   1.772   4.453  11.157 -0.2440 -0.1377  0.4522
    2MPD2    N1   31   1.543   4.108  11.565 -0.2919 -0.4254 -0.6040
    2MPD2    H7   32   1.452   4.153  11.576 -0.7025 -1.1825 -0.9237
    3TCq1    O1   33   1.333   1.107  10.546 -0.3066  0.2984  0.4113
    3TCq1    C1   34   1.417   1.080  10.650  0.3994 -0.0992  0.4410
    3TCq1    O2   35   1.536   1.117  10.652 -0.1462 -0.3150  0.5406
    3TCq1    C2   36   1.371   0.958  10.714  0.8327  0.2330 -0.0154
    3TCq1    C3   37   1.463   0.854  10.711  0.2678 -1.1052 -0.0649
    3TCq1    C4   38   1.412   0.722  10.715 -1.0741  0.5169  0.4807
    3TCq1    C5   39   1.283   0.701  10.747  0.7040 -0.8663  0.0860
    3TCq1    C6   40   1.197   0.808  10.749 -0.3161  0.1973 -0.6964
    3TCq1    C7   41   1.234   0.937  10.725 -0.7862  0.6598  0.1107
    3TCq1    C8   42   1.064   0.785  10.801  1.2678  0.2266  0.3305
    3TCq1    O4   43   1.036   0.668  10.833 -0.2926 -0.0445 -0.1895
    3TCq1    C9   44   1.503   0.605  10.698 -0.0833  0.1864 -0.6431
    3TCq1    O5   45   1.455   0.492  10.682 -0.3255  0.3554 -0.4119
    3TCq1    O6   46   1.612   0.637  10.645  0.0651 -0.4073  0.5920
    3TCq1    H1   47   1.245   1.066  10.559  0.7733 -1.6327  1.6161
    3TCq1    H2   48   1.568   0.872  10.689  0.1420 -2.2110 -1.5402
    3TCq1    H3   49   1.246   0.603  10.776 -1.1946 -0.4542 -0.9602
    3TCq1    H4   50   1.170   1.024  10.730 -0.2046  1.1908 -1.7016
    4MPD2     C   51   0.616   0.955  10.987  0.6632 -0.2440 -0.3633
    4MPD2    C1   52   0.666   1.050  10.909 -0.5140  1.1422  0.4416
    4MPD2    C2   53   0.788   1.036  10.852 -0.0821  0.1875  0.3687
    4MPD2    C3   54   0.862   0.913  10.864 -0.1188  0.9141  0.3105
    4MPD2    C4   55   0.794   0.813  10.933 -1.2594 -0.1080  0.3037
    4MPD2    C5   56   0.677   0.836  10.996 -0.2885  0.2524  0.4325
    4MPD2     H   57   0.827   1.110  10.783 -0.2304  0.9348  1.0949
    4MPD2    H1   58   0.847   0.721  10.952 -1.3554  0.0594  1.3971
    4MPD2    H2   59   0.522   0.967  11.038  0.5240  1.5780 -1.0668
    4MPD2    H3   60   0.637   0.749  11.048 -2.0827  0.3047 -0.8636
    4MPD2     N   61   0.980   0.897  10.793  0.3430 -0.2139  0.1603
    4MPD2    H5   62   1.014   0.971  10.732 -0.2284  1.2034  1.5485
    4MPD2    N1   63   0.609   1.181  10.911 -0.4343  0.3836 -1.0110
    4MPD2    H7   64   0.656   1.247  10.850 -2.7180  1.5480 -1.5107
    5TCq1    O1   65   0.647   2.555  10.875  0.4125  0.0314  0.1489
    5TCq1    C1   66   0.723   2.558  10.762 -0.2048  0.5823 -0.8061
    5TCq1    O2   67   0.810   2.642  10.749  0.2137  0.9042  0.8171
    5TCq1    C2   68   0.749   2.419  10.732 -0.0251 -0.1317  0.1001
    5TCq1    C3   69   0.658   2.345  10.663 -0.2356  1.0061  0.8303
    5TCq1    C4   70   0.697   2.225  10.617 -0.2783  0.9046  0.4486
    5TCq1    C5   71   0.824   2.174  10.636 -0.5496 -0.2069 -0.0858
    5TCq1    C6   72   0.912   2.255  10.703  0.0876 -0.6085 -1.1852
    5TCq1    C7   73   0.874   2.373  10.755  0.2635 -0.0518 -0.8934
    5TCq1    C8   74   1.047   2.205  10.717  0.2618 -0.0800 -0.5308
    5TCq1    O4   75   1.063   2.086  10.733  0.3479 -0.5162 -0.5246
    5TCq1    C9   76   0.608   2.143  10.551  0.3789 -0.3299  0.5993
    5TCq1    O5   77   0.660   2.056  10.474 -0.3651 -0.1045 -0.1937
    5TCq1    O6   78   0.493   2.186  10.540  0.0208  0.3818 -0.0031
    5TCq1    H1   79   0.604   2.471  10.903  2.4429 -1.6600 -1.8235
    5TCq1    H2   80   0.558   2.378  10.636  0.7462  1.2077 -2.5288
    5TCq1    H3   81   0.857   2.076  10.604 -1.1374 -0.0829 -1.0652
    5TCq1    H4   82   0.945   2.437  10.808  1.6220 -2.4415  0.1605
    6MPD2     C   83   1.360   2.389  10.723 -0.0079 -0.0003  1.2632
    6MPD2    C1   84   1.286   2.275  10.722  0.5630  0.4638 -0.2233
    6MPD2    C2   85   1.344   2.150  10.738  0.2345  0.2944 -0.4726
    6MPD2    C3   86   1.479   2.144  10.740 -0.5718  0.6301  0.3700
    6MPD2    C4   87   1.559   2.259  10.721  0.2566  0.3330  0.4213
    6MPD2    C5   88   1.496   2.384  10.716 -0.0432 -0.2616  0.5804
    6MPD2     H   89   1.285   2.059  10.737  1.6770 -0.6323 -1.6464
    6MPD2    H1   90   1.667   2.259  10.729  0.2895  1.3425 -0.0628
    6MPD2    H2   91   1.309   2.485  10.722  1.0535  0.5670  1.0740
    6MPD2    H3   92   1.554   2.475  10.722  0.3983 -0.4706 -0.4361
    6MPD2     N   93   1.535   2.013  10.758  0.3204 -0.0971 -0.7426
    6MPD2    H5   94   1.465   1.939  10.766 -0.0367  0.2211 -0.8996
    6MPD2    N1   95   1.145   2.297  10.700  0.9470 -0.5786 -0.5829
    6MPD2    H7   96   1.123   2.394  10.678  0.0567 -0.9945 -1.5657
    7TCq1    O1   97   3.559   2.328  13.300 -0.3547  0.3103 -0.0833
    7TCq1    C1   98   3.480   2.277  13.399 -0.3961  0.4136  0.1355
    7TCq1    O2   99   3.506   2.294  13.516 -0.1233  0.0743  0.5703
    7TCq1    C2  100   3.463   2.133  13.352 -0.0937 -0.9915 -0.1752
    7TCq1    C3  101   3.425   2.105  13.217 -0.3031 -0.0217  0.3525
    7TCq1    C4  102   3.420   1.977  13.181 -0.1361  0.6207  0.1616
    7TCq1    C5  103   3.458   1.881  13.263  0.2053  0.0029  0.2210
    7TCq1    C6  104   3.496   1.907  13.390 -0.2340  0.2728  0.3882
    7TCq1    C7  105   3.494   2.034  13.447  0.4200  0.5786 -0.5252
    7TCq1    C8  106   3.494   1.794  13.483  0.7069 -1.0262 -0.6256
    7TCq1    O4  107   3.420   1.701  13.462 -0.2437  0.0760  0.3103
    7TCq1    C9  108   3.370   1.947  13.054 -0.5878 -0.8216  0.4634
    7TCq1    O5  109   3.352   1.826  13.027 -0.1754  0.4579  0.3741
    7TCq1    O6  110   3.322   2.041  12.984  0.5219 -0.1556  0.1671
    7TCq1    H1  111   3.547   2.302  13.207  0.1836 -2.2706  0.5725
    7TCq1    H2  112   3.392   2.183  13.150 -0.1669  0.3586  0.7292
    7TCq1    H3  113   3.463   1.777  13.230 -1.6761  0.1981 -0.7006
    7TCq1    H4  114   3.467   2.063  13.548 -0.1039 -0.6071 -0.3225
    8MPD2     C  115   3.645   1.571  13.927 -0.2808  0.0678  0.9598
    8MPD2    C1  116   3.550   1.534  13.839 -0.1028  0.5707  0.5981
    8MPD2    C2  117   3.531   1.616  13.732  0.0042  0.0109 -0.6190
    8MPD2    C3  118   3.604   1.731  13.703 -0.2703 -0.4291 -0.4106
    8MPD2    C4  119   3.677   1.777  13.807 -0.2171  0.0422  0.0079
    8MPD2    C5  120   3.714   1.692  13.911 -0.2293  0.6048 -0.2708
    8MPD2     H  121   3.455   1.595  13.658 -1.1462  0.8501  0.3417
    8MPD2    H1  122   3.727   1.872  13.793  1.6843 -0.8462  0.7358
    8MPD2    H2  123   3.674   1.508  14.011 -0.0049 -1.9106 -0.6063
    8MPD2    H3  124   3.780   1.731  13.988 -0.5565 -0.1694  0.4109
    8MPD2     N  125   3.584   1.815  13.594 -0.7022  0.4276  0.0977
    8MPD2    H5  126   3.640   1.900  13.593  1.3612 -0.9439 -1.0162
    8MPD2    N1  127   3.475   1.415  13.860 -0.3208 -0.1303  0.4448
    8MPD2    H7  128   3.502   1.366  13.945 -0.4061 -0.2661  0.3949
    9TCq1    O1  129   0.542   0.364  11.127 -0.0037 -0.1925  0.0040
    9TCq1    C1  130   0.667   0.377  11.175 -0.4381 -0.4306  0.0549
    9TCq1    O2  131   0.701   0.470  11.246 -0.0778  0.6744  0.1742
    9TCq1    C2  132   0.766   0.318  11.084 -0.0577 -0.7750  0.9444
    9TCq1    C3  133   0.730   0.211  11.000  0.0915  0.3711  0.3719
    9TCq1    C4  134   0.829   0.159  10.921  0.7727 -0.0036  0.2066
    9TCq1    C5  135   0.941   0.225  10.899 -0.2888  0.0111 -0.3144
    9TCq1    C6  136   0.972   0.339  10.970 -1.3479 -0.5784  0.3285
    9TCq1    C7  137   0.885   0.391  11.063 -0.1221  0.6703 -0.5003
    9TCq1    C8  138   1.116   0.377  10.964 -0.1778  0.1846  0.8717
    9TCq1    O4  139   1.176   0.353  10.863 -0.1465 -0.2720  0.6476
    9TCq1    C9  140   0.794   0.053  10.831  0.7118  0.9440  0.5385
    9TCq1    O5  141   0.867   0.047  10.728  0.7490 -0.0654  0.3557
    9TCq1    O6  142   0.668   0.024  10.819 -0.4270 -0.2834 -0.1137
    9TCq1    H1  143   0.537   0.342  11.031  0.0380  1.0334 -0.2745
    9TCq1    H2  144   0.634   0.161  11.006 -0.7303  1.8361 -0.5220
    9TCq1    H3  145   1.017   0.185  10.834  0.8854  0.0676  1.0225
    9TCq1    H4  146   0.903   0.482  11.119 -0.3480 -0.1396  0.8903
   10MPD2     C  147   1.389   0.461  11.058 -0.0106  0.2112  0.2182
   10MPD2    C1  148   1.285   0.421  11.135  0.3520  0.4660 -0.6225
   10MPD2    C2  149   1.302   0.380  11.264 -0.3369 -0.2723  0.5632
   10MPD2    C3  150   1.427   0.398  11.329  1.5904 -0.0976  0.2264
   10MPD2    C4  151   1.535   0.442  11.250 -0.1199 -0.1427 -0.2395
   10MPD2    C5  152   1.509   0.488  11.122 -0.0077 -0.3667 -0.1989
   10MPD2     H  153   1.211   0.344  11.310 -0.8526 -0.8937 -0.9344
   10MPD2    H1  154   1.633   0.454  11.296 -0.3775  0.9661  0.0225
   10MPD2    H2  155   1.382   0.489  10.953 -0.3481 -0.8619 -0.0476
   10MPD2    H3  156   1.591   0.524  11.062 -0.1937 -1.8231 -1.3103
   10MPD2     N  157   1.450   0.365  11.466 -0.4095 -0.6651  0.8483
   10MPD2    H5  158   1.546   0.361  11.499  0.6366  0.4662 -2.0409
   10MPD2    N1  159   1.153   0.406  11.090 -0.1580 -0.0888  0.5944
   10MPD2    H7  160   1.085   0.380  11.160 -1.6485 -2.4602 -1.7395
   11TCq1    O1  161   2.125   0.044  14.740 -0.1805  0.2476  0.3334
   11TCq1    C1  162   2.052   4.662  14.777 -0.0246 -0.9425  0.6993
   11TCq1    O2  163   1.992   4.641  14.879 -0.2415  0.6848 -0.0485
   11TCq1    C2  164   2.047   4.578  14.655  0.1616  0.9287  0.7887
   11TCq1    C3  165   2.011   4.450  14.675  0.8228  0.0398 -0.6159
   11TCq1    C4  166   1.994   4.375  14.562 -0.0828  0.9675 -0.4057
   11TCq1    C5  167   2.000   4.431  14.437  0.4013  0.0345  0.0579
   11TCq1    C6  168   2.030   4.561  14.429  0.1496 -0.4460 -0.4943
   11TCq1    C7  169   2.054   4.644  14.534 -0.1522  0.5793  0.1915
   11TCq1    C8  170   2.092   4.620  14.303  0.1963  0.5921 -0.0134
   11TCq1    O4  171   2.178   4.705  14.315  0.0942 -0.9347  0.3902
   11TCq1    C9  172   1.964   4.241  14.571 -0.1225 -0.7030  0.5076
   11TCq1    O5  173   1.952   4.202  14.689  0.1557  0.0838 -0.2959
   11TCq1    O6  174   1.951   4.165  14.474 -0.2442  0.1415  0.0597
   11TCq1    H1  175   2.186   0.018  14.668 -2.2272  0.7696 -1.6084
   11TCq1    H2  176   2.006   4.404  14.773  1.3613 -1.9589 -1.5190
   11TCq1    H3  177   1.989   4.372  14.347  0.0663  1.9244 -1.1539
   11TCq1    H4  178   2.076   0.025  14.516 -0.1982  0.8479  1.6523
   12MPD2     C  179   2.138   0.002  14.017 -0.0882 -0.2630 -0.3012
   12MPD2    C1  180   2.054   4.617  14.057 -0.2090  0.6108 -0.5288
   12MPD2    C2  181   1.987   4.555  13.953  0.1673  0.1294 -0.0720
   12MPD2    C3  182   1.993   4.588  13.822 -0.5203 -0.0333 -0.0725
   12MPD2    C4  183   2.067   4.697  13.787 -0.8377 -0.7348 -0.6100
   12MPD2    C5  184   2.144   0.043  13.883 -0.3656  0.1008 -0.9271
   12MPD2     H  185   1.929   4.464  13.967 -2.4317  1.8042  0.0533
   12MPD2    H1  186   2.080   0.013  13.687  1.5059 -2.9178 -1.1419
   12MPD2    H2  187   2.189   0.068  14.087  0.7800 -1.4495  0.1751
   12MPD2    H3  188   2.212   0.125  13.864  1.5644 -0.7822  2.1036
   12MPD2     N  189   1.920   4.511  13.728  0.6500  0.0577 -0.3977
   12MPD2    H5  190   1.868   4.432  13.766 -0.0433  1.3978  1.4508
   12MPD2    N1  191   2.035   4.572  14.186 -0.2305  0.0191 -0.3985
   12MPD2    H7  192   1.968   4.496  14.194  1.6467 -1.5128  0.5792
   13TCq1    O1  193   1.961   0.200  11.115  0.0423  0.1294 -0.0021
   13TCq1    C1  194   1.855   0.220  11.203 -0.0954  0.2369  0.5330
   13TCq1    O2  195   1.848   0.308  11.288 -0.4475  0.4537  0.0079
   13TCq1    C2  196   1.738   0.175  11.129  0.4583  0.3575  0.4668
   13TCq1    C3  197   1.727   0.219  11.001  0.0615  0.0991 -0.4004
   13TCq1    C4  198   1.613   0.188  10.931  0.0152  0.6113 -0.4731
   13TCq1    C5  199   1.505   0.127  10.992  0.1648  0.4922 -0.6543
   13TCq1    C6  200   1.514   0.108  11.130 -0.0888  0.2601 -0.5754
   13TCq1    C7  201   1.633   0.124  11.198  0.7120 -0.5407  0.9348
   13TCq1    C8  202   1.394   0.073  11.212 -0.1263  0.2060  0.4068
   13TCq1    O4  203   1.421   0.078  11.331  0.7472 -0.0181 -0.2234
   13TCq1    C9  204   1.612   0.207  10.789  0.1974  0.2453  0.1100
   13TCq1    O5  205   1.713   0.265  10.736  0.3113 -0.1681 -0.2987
   13TCq1    O6  206   1.532   0.139  10.724  0.2690 -0.1970 -0.0615
   13TCq1    H1  207   1.941   0.120  11.061 -2.9997  1.0382 -0.2041
   13TCq1    H2  208   1.803   0.290  10.972 -0.4618  1.2391  1.0213
   13TCq1    H3  209   1.416   0.116  10.930  0.4174 -2.2683 -0.5035
   13TCq1    H4  210   1.652   0.100  11.302 -0.6654  1.3419  1.6161
   14MPD2     C  211   1.043   4.701  11.141  0.2053  0.0991 -0.1609
   14MPD2    C1  212   1.149   0.028  11.219  0.3908  0.6432  0.8690
   14MPD2    C2  213   1.124   0.076  11.344  0.1733  0.6150  0.1486
   14MPD2    C3  214   0.993   0.075  11.398  0.2261 -0.0926  0.2643
   14MPD2    C4  215   0.899   4.722  11.329 -0.1582  0.2938 -0.3769
   14MPD2    C5  216   0.927   4.676  11.203  0.4523 -0.3615 -1.0027
   14MPD2     H  217   1.195   0.132  11.404  2.1956  1.1829 -2.8236
   14MPD2    H1  218   0.795   4.722  11.361 -0.1825  2.0683 -0.4346
   14MPD2    H2  219   1.061   4.658  11.043 -2.3400 -0.9556 -0.1649
   14MPD2    H3  220   0.850   4.628  11.144  1.8107 -1.6008 -1.7752
   14MPD2     N  221   0.972   0.132  11.522 -0.3170 -0.0349  0.2591
   14MPD2    H5  222   1.033   0.209  11.547  0.9942 -0.5298 -1.4244
   14MPD2    N1  223   1.276   0.041  11.152 -0.2327 -0.5316 -0.7727
   14MPD2    H7  224   1.276   0.025  11.052  3.1935 -0.7249 -0.7371
   15TCq1    O1  225   3.074   3.964   2.201 -0.0621  0.0875 -0.1016
   15TCq1    C1  226   3.040   3.846   2.151 -0.1219 -0.0202 -0.0348
   15TCq1    O2  227   3.108   3.745   2.160  0.6617  0.0503  0.3165
   15TCq1    C2  228   2.955   3.874   2.038 -0.5192 -0.2936 -0.7992
   15TCq1    C3  229   2.867   3.977   2.037  0.6952  0.0167  0.1633
   15TCq1    C4  230   2.806   4.002   1.918  0.1186  0.8473 -0.0267
   15TCq1    C5  231   2.837   3.923   1.803  0.3078 -0.8038  0.3709
   15TCq1    C6  232   2.924   3.819   1.817 -0.1151  0.1823 -0.0455
   15TCq1    C7  233   2.991   3.794   1.932 -0.1448  0.5741  0.3154
   15TCq1    C8  234   2.943   3.729   1.710  0.0725  0.1966 -0.3186
   15TCq1    O4  235   2.970   3.608   1.725 -0.3096  0.5052  0.8084
   15TCq1    C9  236   2.705   4.107   1.910 -0.6089  0.0800 -0.9194
   15TCq1    O5  237   2.703   4.194   1.997  0.4223  0.3137 -0.4917
   15TCq1    O6  238   2.655   4.137   1.799  0.5136  0.1011  0.0474
   15TCq1    H1  239   3.034   4.036   2.149 -1.5870 -0.2047  0.6726
   15TCq1    H2  240   2.841   4.023   2.132 -0.4605  0.5852 -0.4300
   15TCq1    H3  241   2.780   3.947   1.714 -1.9935 -1.9502  1.5321
   15TCq1    H4  242   3.067   3.716   1.937 -2.6437 -1.9575 -0.7189
   16MPD2     C  243   2.855   3.823   1.365 -0.3032  0.0092  0.1723
   16MPD2    C1  244   2.903   3.735   1.464 -0.1213  0.6689 -0.4378
   16MPD2    C2  245   2.930   3.610   1.427  0.0862  0.5616 -0.2953
   16MPD2    C3  246   2.913   3.569   1.287  0.0020 -0.5629 -0.1164
   16MPD2    C4  247   2.848   3.650   1.199 -0.2140  0.2898 -0.4591
   16MPD2    C5  248   2.829   3.777   1.240  0.5558  0.1312  0.1341
   16MPD2     H  249   2.989   3.545   1.491 -0.7300  2.5619  2.4664
   16MPD2    H1  250   2.831   3.628   1.094 -0.2281 -1.8509 -0.0231
   16MPD2    H2  251   2.816   3.924   1.380 -1.0048 -0.2562  0.1197
   16MPD2    H3  252   2.781   3.830   1.158 -2.0569 -1.6881  0.4790
   16MPD2     N  253   2.963   3.439   1.242  0.4585  0.7835  0.3326
   16MPD2    H5  254   3.020   3.385   1.307 -2.6991  1.2480  3.4869
   16MPD2    N1  255   2.928   3.797   1.591 -0.2833  0.1135  0.7378
   16MPD2    H7  256   2.900   3.895   1.594  0.9341  0.4069  2.1412
   17TCq1    O1  257   1.577   3.475  10.817  0.2535 -0.1611  0.6238
   17TCq1    C1  258   1.533   3.432  10.938 -0.9308 -0.3148 -0.5658
   17TCq1    O2  259   1.557   3.326  10.998  0.0332  0.7685 -0.6754
   17TCq1    C2  260   1.464   3.548  10.993  0.8592  0.0715 -0.2074
   17TCq1    C3  261   1.346   3.544  11.049 -0.3015  0.5191 -0.5175
   17TCq1    C4  262   1.288   3.655  11.104 -0.6175  0.4118 -0.2075
   17TCq1    C5  263   1.353   3.777  11.095  0.2209  0.1053  0.2260
   17TCq1    C6  264   1.479   3.778  11.038 -1.2734  0.2876  0.2815
   17TCq1    C7  265   1.540   3.665  10.999 -0.2913  0.2780 -0.4043
   17TCq1    C8  266   1.548   3.905  11.020 -0.9188 -0.1152  0.8380
   17TCq1    O4  267   1.503   4.006  11.071  0.3534  0.4791 -0.1066
   17TCq1    C9  268   1.159   3.659  11.178 -0.2967  0.0019  0.7303
   17TCq1    O5  269   1.087   3.557  11.187 -0.1599 -0.6711  0.2039
   17TCq1    O6  270   1.119   3.773  11.210 -0.2409  0.4603  0.1671
   17TCq1    H1  271   1.546   3.565  10.791  0.0319 -0.1797  0.8224
   17TCq1    H2  272   1.280   3.461  11.029 -0.2472 -0.6691  4.1530
   17TCq1    H3  273   1.317   3.872  11.132  1.1086 -0.1297  1.6581
   17TCq1    H4  274   1.645   3.666  10.974  0.4188  0.7153  2.5922
   18MPD2     C  275   1.760   4.102  10.957 -1.2992 -0.4933 -0.7815
   18MPD2    C1  276   1.733   3.993  10.874 -0.1892 -0.4377  0.1619
   18MPD2    C2  277   1.807   3.982  10.753  0.0638  0.2190 -0.1544
   18MPD2    C3  278   1.886   4.087  10.709 -0.2427 -0.9590 -0.1442
   18MPD2    C4  279   1.910   4.193  10.796  0.9936  0.5930  0.4549
   18MPD2    C5  280   1.848   4.193  10.915 -0.3460  0.5545 -0.3247
   18MPD2     H  281   1.797   3.895  10.688 -0.5192 -0.1720  0.4569
   18MPD2    H1  282   1.980   4.274  10.778 -0.3371  2.2343  2.6888
   18MPD2    H2  283   1.713   4.118  11.054 -2.4030 -3.4709 -0.8420
   18MPD2    H3  284   1.890   4.268  10.982 -0.1585 -0.4462  0.6758
   18MPD2     N  285   1.970   4.082  10.596  0.7583  0.1470  0.4240
   18MPD2    H5  286   2.028   4.165  10.583 -1.3050  1.4442 -0.4737
   18MPD2    N1  287   1.636   3.895  10.911 -0.3710  0.1252 -0.0730
   18MPD2    H7  288   1.623   3.817  10.848  1.9564  0.0281 -0.4320
   19TMC2    C1  289   2.744   4.503  13.604 -0.4286 -0.0137 -0.6220
   19TMC2    C2  290   2.702   4.499  13.468  0.6203 -0.4931 -0.0197
   19TMC2    C3  291   2.635   4.386  13.418 -0.0846 -0.3582  0.1921
   19TMC2    C4  292   2.718   4.388  13.683  0.0809  0.2801  0.5058
   19TMC2    C5  293   2.654   4.281  13.627 -0.1174  0.1003 -0.4325
   19TMC2    C6  294   2.607   4.276  13.500  0.4804  0.2118 -0.2323
   19TMC2     C  295   2.841   4.607  13.627  0.5086  0.2836  0.6329
   19TMC2     O  296   2.858   4.686  13.535 -0.2060  0.6878 -0.1415
   19TMC2     H  297   2.734   4.570  13.393 -0.1917 -0.4793 -0.3630
   19TMC2    H1  298   2.738   4.392  13.789  0.8578 -2.7909  0.4991
   19TMC2    H2  299   2.554   4.188  13.463 -1.5706  0.5882  1.8230
   19TMC2    C7  300   2.588   4.191  13.722 -0.0840 -0.0047 -0.5869
   19TMC2    C8  301   2.566   4.407  13.297  0.1984  0.3857 -0.3152
   19TMC2    O1  302   2.575   4.074  13.689  0.1888 -0.0070 -0.0358
   19TMC2    O2  303   2.555   4.511  13.231  0.1336 -0.0576  0.1129
   19TMC2    O5  304   2.519   4.285  13.257 -0.6228  0.6903  0.1161
   19TMC2    H5  305   2.573   4.210  13.291 -1.1356  0.4955  0.5065
   20MPD2     C  306   3.035   0.087  13.741  0.1085  0.3655 -0.7088
   20MPD2    C1  307   2.997   4.694  13.798 -0.8234 -0.6974  0.4413
   20MPD2    C2  308   3.048   4.664  13.922  0.0951  0.7423  0.2750
   20MPD2    C3  309   3.149   0.014  13.975 -0.3175  0.5462  0.2527
   20MPD2    C4  310   3.180   0.132  13.913  0.6514  0.5729  0.5745
   20MPD2    C5  311   3.124   0.167  13.795 -0.2364 -0.2912  0.5176
   20MPD2     H  312   2.999   4.584  13.976 -0.9493  1.2326  0.0518
   20MPD2    H1  313   3.260   0.195  13.951 -0.1286  1.9784 -0.1087
   20MPD2    H2  314   2.988   0.121  13.649  0.4626 -0.9652 -1.3808
   20MPD2    H3  315   3.152   0.260  13.747  0.3785 -1.3287 -1.1066
   20MPD2     N  316   3.209   4.707  14.100 -0.0774 -0.1900 -0.2048
   20MPD2    H5  317   3.284   0.045  14.130  0.2615  0.2041 -1.8877
   20MPD2    N1  318   2.901   4.605  13.748 -0.6075  0.1268 -0.2026
   20MPD2    H7  319   2.880   4.523  13.805  0.6923 -0.5491 -0.6978
   21MPD2     C  320   1.097   0.574  14.650 -0.3776  0.4077  0.9386
   21MPD2    C1  321   0.998   0.486  14.624  0.0402 -0.2141  0.3220
   21MPD2    C2  322   0.877   0.529  14.593 -0.6937  1.2177  0.2749
   21MPD2    C3  323   0.843   0.664  14.586 -0.4796 -0.3993 -0.5868
   21MPD2    C4  324   0.947   0.755  14.601 -0.7938 -0.3530  0.5002
   21MPD2    C5  325   1.070   0.710  14.635 -0.4460  0.4284  0.1922
   21MPD2     H  326   0.792   0.464  14.576 -1.1672  2.2259 -1.2952
   21MPD2    H1  327   0.932   0.862  14.610  1.1957 -0.0713  0.6359
   21MPD2    H2  328   1.199   0.538  14.655 -1.2526 -2.0335  1.2164
   21MPD2    H3  329   1.151   0.781  14.648 -0.4083  0.2346  0.9623
   21MPD2     N  330   0.709   0.701  14.568  0.2650 -0.4961  0.5045
   21MPD2    H5  331   0.697   0.800  14.583 -0.7811 -0.2601 -1.9365
   21MPD2    N1  332   1.023   0.348  14.631  0.3918 -0.0824  0.2317
   21MPD2    H7  333   0.944   0.285  14.628  1.5114 -1.5057  0.6307
   22TCq2    C1  334   0.603   0.625  14.518 -0.3033 -0.3904  0.1137
   22TCq2    O2  335   0.601   0.512  14.472  0.5347 -0.1602 -0.2769
   22TCq2    C2  336   0.479   0.700  14.532  0.1636  0.0736  0.1587
   22TCq2    C3  337   0.485   0.815  14.611  0.4129 -0.2658  0.8981
   22TCq2    C4  338   0.396   0.919  14.590  0.5656  0.0584  0.2791
   22TCq2    C5  339   0.294   0.902  14.501 -0.1099  0.0649 -0.4443
   22TCq2    C6  340   0.293   0.789  14.423  0.4830  0.0508 -0.2535
   22TCq2    C7  341   0.385   0.685  14.437 -0.0777  0.4168  0.4587
   22TCq2    C8  342   0.184   0.759  14.324 -0.1617 -0.6264  0.1440
   22TCq2    O4  343   0.201   0.687  14.227 -0.1588  0.4146  0.1267
   22TCq2    C9  344   0.413   1.036  14.656  0.2013 -0.2558 -0.0898
   22TCq2    O5  345   0.325   1.121  14.652 -0.0318 -0.9852 -0.5084
   22TCq2    O6  346   0.490   1.026  14.753  0.1607 -0.1764 -0.9546
   22TCq2    H2  347   0.560   0.835  14.686  0.5515 -0.8479  0.9119
   22TCq2    H3  348   0.233   0.987  14.473 -0.6424 -0.8119 -1.9605
   22TCq2    H4  349   0.400   0.601  14.369 -0.5227  1.2827 -0.7127
   23MPD2     C  350   2.457   1.374  14.711 -0.2602  0.0692  0.4308
   23MPD2    C1  351   2.350   1.335  14.793 -0.1640 -0.2388  0.0318
   23MPD2    C2  352   2.225   1.395  14.780 -0.2718  0.4344  0.6766
   23MPD2    C3  353   2.209   1.506  14.703 -0.9586  0.5876 -0.1008
   23MPD2    C4  354   2.318   1.549  14.628 -0.5018  0.2026  0.1331
   23MPD2    C5  355   2.438   1.480  14.629 -0.1605 -0.3751  0.6836
   23MPD2     H  356   2.141   1.360  14.839  0.5711  1.6830  2.6499
   23MPD2    H1  357   2.299   1.636  14.565  0.9165  1.0475  0.8761
   23MPD2    H2  358   2.552   1.324  14.699 -0.2531 -0.0607  1.0191
   23MPD2    H3  359   2.524   1.514  14.572 -0.5150  0.8167  0.8457
   23MPD2     N  360   2.086   1.583  14.690 -0.5556  0.0315  0.5320
   23MPD2    H5  361   2.098   1.674  14.647  0.8714 -0.7350 -0.7048
   23MPD2    N1  362   2.371   1.224  14.882  0.1822 -0.3256  0.0844
   23MPD2    H7  363   2.291   1.195  14.937  1.7594 -4.5980  0.0573
   24TCq2    C1  364   1.962   1.539  14.733  0.1697 -0.0299 -0.9608
   24TCq2    O2  365   1.921   1.423  14.748 -0.2117  0.2114  0.1011
   24TCq2    C2  366   1.866   1.648  14.720 -0.6793 -0.7635 -0.5020
   24TCq2    C3  367   1.898   1.772  14.675  0.2216  0.9365  0.2581
   24TCq2    C4  368   1.804   1.843  14.605  0.7808 -0.4034  0.5836
   24TCq2    C5  369   1.685   1.789  14.583  0.4346  0.0034  0.0057
   24TCq2    C6  370   1.647   1.671  14.642  0.0953  0.9083  0.0257
   24TCq2    C7  371   1.742   1.596  14.700 -0.2002  0.5721 -0.0870
   24TCq2    C8  372   1.508   1.623  14.641 -0.0884  0.3245  0.3713
   24TCq2    O4  373   1.481   1.551  14.733 -0.0925  0.1395 -0.1176
   24TCq2    C9  374   1.848   1.969  14.552 -0.5016  0.4454 -0.7120
   24TCq2    O5  375   1.762   2.055  14.541 -0.0531 -0.1320  0.0175
   24TCq2    O6  376   1.973   1.982  14.527  0.1777  0.2302 -0.0002
   24TCq2    H2  377   1.996   1.815  14.690  1.0507 -0.8097 -0.1272
   24TCq2    H3  378   1.607   1.848  14.538 -0.0853 -0.7526 -0.0898
   24TCq2    H4  379   1.711   1.507  14.754 -0.5422 -0.5499 -2.1278
   25TMC2    C1  380   1.215   3.283  11.300 -0.5028  0.2536  0.1019
   25TMC2    C2  381   1.337   3.350  11.321 -0.1059  0.5212 -0.5927
   25TMC2    C3  382   1.336   3.446  11.416  0.2603 -0.2539 -0.0721
   25TMC2    C4  383   1.104   3.304  11.380  0.1362 -0.3744  0.1411
   25TMC2    C5  384   1.116   3.399  11.475  0.0657  0.5151  0.0221
   25TMC2    C6  385   1.230   3.469  11.498 -0.2324  0.7055 -0.6818
   25TMC2     C  386   1.230   3.142  11.256 -0.4992  0.0440 -0.0689
   25TMC2     O  387   1.344   3.095  11.271 -0.2095  0.0997  0.9350
   25TMC2     H  388   1.420   3.341  11.251 -0.7384 -1.1552 -1.1378
   25TMC2    H1  389   1.013   3.246  11.376 -0.6873  0.8635  0.7742
   25TMC2    H2  390   1.242   3.547  11.573  0.6925 -0.5933  0.5268
   25TMC2    C7  391   1.009   3.444  11.555  0.2265  0.2727  0.1227
   25TMC2    C8  392   1.462   3.522  11.426 -0.0265  0.7043  0.4068
   25TMC2    O1  393   1.027   3.478  11.670  0.1342  0.1711  0.3056
   25TMC2    O2  394   1.556   3.513  11.349 -0.1552  0.6150 -0.1936
   25TMC2    O5  395   1.477   3.561  11.551  0.6213  0.0933  0.0942
   25TMC2    H5  396   1.420   3.541  11.628  1.7176 -1.8494  0.3782
   26MPD2     C  397   1.029   2.752  11.002 -0.4022  0.3271  1.1396
   26MPD2    C1  398   0.943   2.860  11.012  0.0156  0.9647  0.3951
   26MPD2    C2  399   0.976   2.972  11.077 -0.1134 -0.1002 -0.2174
   26MPD2    C3  400   1.100   2.978  11.132 -0.8060 -1.0039  0.3105
   26MPD2    C4  401   1.197   2.874  11.123 -0.1123 -0.9031 -0.9056
   26MPD2    C5  402   1.148   2.758  11.071  1.2535 -0.5559  0.5762
   26MPD2     H  403   0.898   3.047  11.092 -0.5409 -1.0277  2.2429
   26MPD2    H1  404   1.298   2.889  11.157 -0.6357 -1.4796  0.9015
   26MPD2    H2  405   0.994   2.663  10.951 -2.3256 -0.5649  4.0289
   26MPD2    H3  406   1.215   2.673  11.073  1.6635 -0.2284  0.7981
   26MPD2     N  407   1.121   3.102  11.190  0.1339 -0.1067  0.6946
   26MPD2    H5  408   1.043   3.167  11.184  1.5646  1.3709 -1.5883
   26MPD2    N1  409   0.806   2.839  10.961  0.9671 -0.5268 -0.1476
   26MPD2    H7  410   0.805   2.762  10.894  2.1639 -0.1710 -0.5692
   27TMC2    C1  411   4.220   0.777  12.055 -0.2754 -0.6217 -0.4244
   27TMC2    C2  412   4.144   0.806  11.945 -1.0376  0.6436 -0.1131
   27TMC2    C3  413   4.115   0.942  11.926  0.1771  0.0926  0.1749
   27TMC2    C4  414   4.268   0.882  12.131 -0.0925  0.1156  0.1822
   27TMC2    C5  415   4.231   1.008  12.108  0.2825 -0.3383 -0.0702
   27TMC2    C6  416   4.153   1.049  12.008  0.5570  0.6169  0.1261
   27TMC2     C  417   4.182   0.652  12.125 -0.2378  0.8709  0.1296
   27TMC2     O  418   4.213   0.545  12.079 -0.6847 -0.3213 -0.9537
   27TMC2     H  419   4.075   0.732  11.906  0.1704 -0.7431  0.4245
   27TMC2    H1  420   4.338   0.865  12.212 -0.0379 -1.1369 -0.1314
   27TMC2    H2  421   4.138   1.154  11.988  1.3154  0.4213 -1.4527
   27TMC2    C7  422   4.235   1.086  12.232  0.4087  0.9562 -0.0867
   27TMC2    C8  423   4.030   0.966  11.813  0.0972  0.1864 -0.6233
   27TMC2    O1  424   4.217   1.022  12.337 -0.0603 -0.5689  0.1282
   27TMC2    O2  425   4.048   0.902  11.710 -0.1895 -0.1496 -0.1255
   27TMC2    O5  426   3.963   1.083  11.828  0.3494  0.5846  0.2692
   27TMC2    H5  427   3.939   1.091  11.923  1.6344  0.6158  0.5920
   28MPD2     C  428   4.113   0.423  12.579 -1.0036  0.2045  0.0734
   28MPD2    C1  429   4.068   0.550  12.577 -0.1801 -0.1216 -1.0741
   28MPD2    C2  430   4.093   0.640  12.475 -0.1791 -0.5028  0.9074
   28MPD2    C3  431   4.138   0.590  12.353  0.6623  0.3843 -0.0971
   28MPD2    C4  432   4.170   0.448  12.350  0.3576 -0.3243 -0.8152
   28MPD2    C5  433   4.165   0.371  12.465 -0.3385 -0.6281 -0.0148
   28MPD2     H  434   4.064   0.744  12.484  0.5425 -0.3015  0.9481
   28MPD2    H1  435   4.214   0.408  12.260  1.2556  1.0070 -0.9657
   28MPD2    H2  436   4.100   0.355  12.663  0.0924  0.5916  0.5501
   28MPD2    H3  437   4.204   0.271  12.480 -0.3049 -1.0259 -2.7149
   28MPD2     N  438   4.149   0.687  12.247 -0.6626 -0.0772  0.4086
   28MPD2    H5  439   4.151   0.785  12.275  3.1199  0.4569 -1.8609
   28MPD2    N1  440   3.984   0.575  12.686  0.0301 -0.3125  0.6278
   28MPD2    H7  441   3.969   0.501  12.754 -1.7397 -0.4040  0.1371
   29MPD2     C  442   3.474   2.910  14.310 -0.2244 -0.5069  0.1567
   29MPD2    C1  443   3.558   2.881  14.410  0.3056 -0.7743 -0.3117
   29MPD2    C2  444   3.592   2.987  14.489  0.0379 -0.3744  0.6157
   29MPD2    C3  445   3.538   3.116  14.488  0.1344  0.3481  0.0917
   29MPD2    C4  446   3.446   3.133  14.388  0.2841 -0.5196  0.1004
   29MPD2    C5  447   3.414   3.031  14.303 -0.1342 -0.3672  0.2770
   29MPD2     H  448   3.655   2.967  14.575 -0.8158 -0.2029  1.2903
   29MPD2    H1  449   3.408   3.234  14.377 -2.2326 -1.8048 -2.9910
   29MPD2    H2  450   3.436   2.841  14.236 -3.1697 -0.4335  1.6147
   29MPD2    H3  451   3.348   3.056  14.220 -0.7582  0.2206  0.9521
   29MPD2     N  452   3.586   3.227  14.565  0.6559  0.5632 -0.6239
   29MPD2    H5  453   3.539   3.315  14.546  0.1206  0.7195  1.4009
   29MPD2    N1  454   3.628   2.761  14.429 -0.4053  0.1030 -0.1067
   29MPD2    H7  455   3.682   2.753  14.515 -2.3159  0.3371  1.1143
   30TCq2    C1  456   3.695   3.225  14.649  0.6087 -0.4916 -0.3244
   30TCq2    O2  457   3.767   3.134  14.679  0.0631  0.2347 -0.0060
   30TCq2    C2  458   3.735   3.357  14.689 -0.6738 -0.5466 -0.4968
   30TCq2    C3  459   3.787   3.387  14.813 -0.1306 -0.1786  0.0932
   30TCq2    C4  460   3.794   3.516  14.851  0.1012 -0.6341 -0.0368
   30TCq2    C5  461   3.773   3.614  14.764  0.0413  0.4303  0.5435
   30TCq2    C6  462   3.737   3.584  14.634  0.1009  0.1266 -0.2700
   30TCq2    C7  463   3.716   3.457  14.595  0.4107  0.9495 -0.4168
   30TCq2    C8  464   3.705   3.695  14.546 -0.8106 -0.2734 -0.3110
   30TCq2    O4  465   3.660   3.670  14.435  0.2440  0.1774  0.0619
   30TCq2    C9  466   3.831   3.552  14.984 -0.2263  0.6640 -1.0260
   30TCq2    O5  467   3.806   3.461  15.068  0.3528 -0.4972 -0.4972
   30TCq2    O6  468   3.872   3.669  15.008  0.5826  0.1232  0.3612
   30TCq2    H2  469   3.797   3.304  14.883  1.5389  1.1816  1.4614
   30TCq2    H3  470   3.789   3.714  14.803  1.0263  0.8054 -0.8072
   30TCq2    H4  471   3.703   3.452  14.487  0.9567 -0.4328 -0.4304
   31MPD2     C  472   2.180   2.800  14.797  0.4204  0.2453  0.2652
   31MPD2    C1  473   2.046   2.792  14.769  0.0542  0.9226 -0.2040
   31MPD2    C2  474   1.956   2.727  14.840 -0.6732  0.5602 -1.0332
   31MPD2    C3  475   2.003   2.656  14.944 -0.4072  0.5375  1.2062
   31MPD2    C4  476   2.130   2.673  14.995 -0.3274 -0.1221  0.6447
   31MPD2    C5  477   2.219   2.748  14.924  0.3805  0.5769  0.3320
   31MPD2     H  478   1.853   2.715  14.807 -0.9660  2.1277 -0.6754
   31MPD2    H1  479   2.173   2.635  15.087  0.8743 -0.5126 -0.0823
   31MPD2    H2  480   2.251   2.864  14.747  0.4214  0.1747  0.1762
   31MPD2    H3  481   2.311   2.787  14.966  0.7443 -1.0105  1.0092
   31MPD2     N  482   1.926   2.566  15.023 -0.0345 -0.3216 -0.2034
   31MPD2    H5  483   1.966   2.521  15.106 -0.8712 -1.5317 -0.4608
   31MPD2    N1  484   2.008   2.860  14.653 -0.2130  0.8885  0.1242
   31MPD2    H7  485   2.081   2.883  14.586  0.1997 -0.5144  0.0870
   32TCq2    C1  486   1.796   2.522  14.990  0.6335 -1.0097  0.4228
   32TCq2    O2  487   1.717   2.564  14.903  0.3444  0.1580  0.2417
   32TCq2    C2  488   1.738   2.425  15.078  0.0614  0.0297 -0.0286
   32TCq2    C3  489   1.601   2.408  15.065  0.5448  0.3366 -0.0069
   32TCq2    C4  490   1.543   2.291  15.115  0.0117  0.4344 -0.2398
   32TCq2    C5  491   1.614   2.207  15.202 -0.3720 -0.5778  0.1791
   32TCq2    C6  492   1.740   2.241  15.220 -0.7820 -0.6429 -0.0823
   32TCq2    C7  493   1.808   2.339  15.157  0.1826  0.1798 -0.1944
   32TCq2    C8  494   1.829   2.139  15.283 -0.3305 -0.5609  0.6135
   32TCq2    O4  495   1.936   2.100  15.236  0.6062  0.0332  0.5349
   32TCq2    C9  496   1.399   2.269  15.090  0.0187  0.7179  0.5291
   32TCq2    O5  497   1.350   2.334  14.993  0.4650 -0.4729  0.2644
   32TCq2    O6  498   1.337   2.227  15.189 -0.6933  0.3599 -0.3985
   32TCq2    H2  499   1.546   2.474  14.997  1.2167  0.5498 -0.3419
   32TCq2    H3  500   1.564   2.124  15.250 -0.3963  0.7361  2.4634
   32TCq2    H4  501   1.916   2.339  15.161  0.2297 -0.6784 -1.5970
   33MPD2     C  502   2.549   4.562  10.348  0.0611  0.2346 -0.2204
   33MPD2    C1  503   2.412   4.534  10.345  0.5945 -0.5907 -0.1359
   33MPD2    C2  504   2.331   4.646  10.337 -0.5370 -0.0200 -0.3886
   33MPD2    C3  505   2.373   0.054  10.323 -0.2774  0.0046 -0.1130
   33MPD2    C4  506   2.508   0.081  10.334 -0.3021  0.6405 -0.3837
   33MPD2    C5  507   2.592   4.695  10.333  1.1347 -0.5897  0.0749
   33MPD2     H  508   2.225   4.624  10.324  0.0953 -2.6587 -0.9433
   33MPD2    H1  509   2.554   0.178  10.343 -0.3717  0.4210  2.3668
   33MPD2    H2  510   2.624   4.486  10.367 -0.3960 -0.1386  0.0808
   33MPD2    H3  511   2.694   4.712  10.366  1.1655  0.3623 -0.5233
   33MPD2     N  512   2.270   0.152  10.304 -0.1309 -0.0400  0.2090
   33MPD2    H5  513   2.175   0.117  10.310  0.1896 -0.8505  0.6151
   33MPD2    N1  514   2.364   4.398  10.348  0.3884 -0.0540  0.0126
   33MPD2    H7  515   2.432   4.322  10.352  0.0777 -0.2290  1.7931
   34TCq2    C1  516   2.302   0.281  10.255  0.3362  0.5282  0.2036
   34TCq2    O2  517   2.404   0.322  10.204 -0.1266 -0.1711 -1.1687
   34TCq2    C2  518   2.192   0.365  10.252  0.8605  0.0253 -0.0814
   34TCq2    C3  519   2.100   0.368  10.350 -0.7701  0.1157 -1.2610
   34TCq2    C4  520   2.014   0.473  10.340  0.5398 -0.1450 -0.3760
   34TCq2    C5  521   2.016   0.579  10.250 -0.6715 -0.5194 -0.8292
   34TCq2    C6  522   2.110   0.560  10.152  0.2273  0.8578 -0.1399
   34TCq2    C7  523   2.190   0.449  10.146  0.3647 -0.4192 -0.4853
   34TCq2    C8  524   2.128   0.651  10.038  0.0801 -0.3929 -0.0402
   34TCq2    O4  525   2.219   0.618   9.962  0.1906  0.0249  0.1729
   34TCq2    C9  526   1.917   0.471  10.451  0.4669  0.5165  0.3558
   34TCq2    O5  527   1.830   0.563  10.465 -0.3962  0.3148  0.5410
   34TCq2    O6  528   1.902   0.364  10.523  0.0364  0.3584 -0.5130
   34TCq2    H2  529   2.093   0.305  10.438  0.9644  0.4221 -0.9231
   34TCq2    H3  530   1.944   0.661  10.247  1.4514  1.3511 -0.1942
   34TCq2    H4  531   2.261   0.425  10.068  0.3451 -3.4274  0.4362
   35MPD2     C  532   3.835   1.545  12.197  0.1821  0.1522 -0.1902
   35MPD2    C1  533   3.838   1.419  12.139 -0.4147  0.0413  0.3355
   35MPD2    C2  534   3.793   1.416  12.007  0.1795  0.0562  0.4867
   35MPD2    C3  535   3.770   1.537  11.938  0.8116  0.2153 -0.0728
   35MPD2    C4  536   3.776   1.662  11.991 -0.0148 -0.3755  0.1607
   35MPD2    C5  537   3.817   1.661  12.126 -0.0801 -0.5403 -0.2633
   35MPD2     H  538   3.783   1.320  11.959  2.6406  1.2209 -2.3903
   35MPD2    H1  539   3.772   1.753  11.932 -1.5173  0.2358  1.1835
   35MPD2    H2  540   3.844   1.564  12.303 -0.9110  0.0021 -0.0632
   35MPD2    H3  541   3.827   1.756  12.177  2.3027 -0.6013 -0.6116
   35MPD2     N  542   3.739   1.516  11.800 -0.0187  0.0358 -0.0069
   35MPD2    H5  543   3.749   1.422  11.763  2.7813  0.8802 -1.3922
   35MPD2    N1  544   3.842   1.302  12.218 -0.3027 -0.6571 -0.0240
   35MPD2    H7  545   3.843   1.316  12.318  0.7006 -1.6406  0.1076
   36TCq2    C1  546   3.696   1.615  11.718 -0.1422  0.1887  0.5475
   36TCq2    O2  547   3.688   1.734  11.736 -0.2252  0.2899  0.3376
   36TCq2    C2  548   3.658   1.572  11.584  0.1076 -0.4537 -0.2598
   36TCq2    C3  549   3.668   1.662  11.481  0.2943 -0.2000 -0.2947
   36TCq2    C4  550   3.616   1.619  11.359 -0.3315 -1.2140  0.0635
   36TCq2    C5  551   3.559   1.497  11.336 -0.4046 -0.2934  0.4316
   36TCq2    C6  552   3.537   1.418  11.445 -0.3599  0.0041  0.6138
   36TCq2    C7  553   3.594   1.451  11.570 -0.9824  0.2928  0.6326
   36TCq2    C8  554   3.445   1.298  11.437 -0.1191  0.0146  0.6653
   36TCq2    O4  555   3.442   1.217  11.531 -0.0143  0.2236  0.7533
   36TCq2    C9  556   3.637   1.715  11.252 -0.1446 -0.4514  0.3764
   36TCq2    O5  557   3.712   1.815  11.270 -0.3351 -0.1793 -0.0340
   36TCq2    O6  558   3.575   1.702  11.146 -0.1652 -0.1451 -0.4553
   36TCq2    H2  559   3.721   1.755  11.496  0.6519 -0.0370 -2.6442
   36TCq2    H3  560   3.539   1.465  11.235  3.8950  0.3818 -0.6467
   36TCq2    H4  561   3.580   1.385  11.654 -0.0379  0.7358  1.1348
   37TMC2    C1  562   0.658   1.456  11.889 -0.2173 -0.3391  0.1803
   37TMC2    C2  563   0.665   1.525  11.769 -0.6990 -0.4999  0.3918
   37TMC2    C3  564   0.785   1.541  11.712 -0.5314 -0.6365 -0.1685
   37TMC2    C4  565   0.770   1.389  11.934 -0.4055 -0.2747  0.0174
   37TMC2    C5  566   0.891   1.400  11.868  0.5227 -0.8505 -0.0624
   37TMC2    C6  567   0.902   1.476  11.757 -0.0443 -0.1171 -0.6679
   37TMC2     C  568   0.533   1.447  11.961  0.2861  0.2677  0.1198
   37TMC2     O  569   0.419   1.444  11.910  0.2001  0.1529 -0.3519
   37TMC2     H  570   0.582   1.592  11.749 -0.0293  0.5702  1.2319
   37TMC2    H1  571   0.758   1.309  12.007  0.5329  1.3989  2.0255
   37TMC2    H2  572   1.000   1.490  11.713  0.8470  2.8586  2.3084
   37TMC2    C7  573   0.999   1.396  11.961 -0.2878  0.1595  0.5001
   37TMC2    C8  574   0.797   1.639  11.602  0.6124  0.6056  0.0141
   37TMC2    O1  575   0.968   1.386  12.081  0.2520  0.1783 -0.2438
   37TMC2    O2  576   0.841   1.749  11.628 -0.3365  0.1035  0.1639
   37TMC2    O5  577   0.689   1.625  11.528 -0.4201 -0.2567  0.1576
   37TMC2    H5  578   0.664   1.531  11.539 -2.2188  0.2456  0.3889
   38MPD2     C  579   0.279   1.405  12.401  0.9287 -0.0800  0.4556
   38MPD2    C1  580   0.409   1.366  12.427  0.2536  0.4960  0.0498
   38MPD2    C2  581   0.496   1.376  12.317 -0.3826 -0.3243  0.5766
   38MPD2    C3  582   0.455   1.424  12.192 -0.5067  0.2194 -0.7849
   38MPD2    C4  583   0.325   1.456  12.170  0.7467 -0.1559  0.0520
   38MPD2    C5  584   0.240   1.446  12.273 -0.2270  0.4003  0.2588
   38MPD2     H  585   0.599   1.346  12.332 -0.0672  0.6430  0.3125
   38MPD2    H1  586   0.282   1.498  12.079 -0.5701 -3.0644 -0.6787
   38MPD2    H2  587   0.217   1.415  12.489  1.5025  0.7137  0.7666
   38MPD2    H3  588   0.135   1.469  12.264 -0.1470  0.3855 -0.6255
   38MPD2     N  589   0.559   1.428  12.091 -0.3129 -0.4183 -0.8712
   38MPD2    H5  590   0.655   1.409  12.117 -0.1579  0.7413 -0.5977
   38MPD2    N1  591   0.450   1.334  12.555 -0.7251 -0.3580  0.1745
   38MPD2    H7  592   0.549   1.318  12.573 -0.1265  0.6837 -2.1919
   39MPD2     C  593   3.722   2.562   0.996  0.5167 -0.3286 -0.5740
   39MPD2    C1  594   3.649   2.536   1.109  0.0880 -0.1080 -0.2499
   39MPD2    C2  595   3.515   2.577   1.121  0.8940 -0.8540 -0.5014
   39MPD2    C3  596   3.460   2.637   1.008 -0.5978 -0.1585 -0.4604
   39MPD2    C4  597   3.540   2.664   0.894  0.2417  0.3221  0.4402
   39MPD2    C5  598   3.664   2.620   0.890  0.2797  0.1399  1.0002
   39MPD2     H  599   3.454   2.554   1.207 -0.3210  1.8058 -0.6566
   39MPD2    H1  600   3.498   2.705   0.803  2.0463  0.1402 -0.4629
   39MPD2    H2  601   3.823   2.524   0.983  0.6025  0.6050 -2.5799
   39MPD2    H3  602   3.723   2.653   0.805 -0.8226 -0.1033  0.1399
   39MPD2     N  603   3.327   2.683   1.006 -0.6784  0.1472  0.3823
   39MPD2    H5  604   3.291   2.699   0.912  1.2696 -0.4653 -0.4616
   39MPD2    N1  605   3.716   2.470   1.209 -0.4358  0.2317  0.8039
   39MPD2    H7  606   3.806   2.438   1.175 -1.9963 -1.5077 -1.7045
   40TCq2    C1  607   3.661   2.433   1.330  0.1402 -0.6388 -0.4145
   40TCq2    O2  608   3.546   2.447   1.370  0.2996  0.7314 -0.3887
   40TCq2    C2  609   3.754   2.375   1.423 -0.1853 -0.4977 -0.2048
   40TCq2    C3  610   3.713   2.280   1.513  0.4044  1.0488 -0.2801
   40TCq2    C4  611   3.810   2.208   1.582  0.2377 -0.1195  0.4753
   40TCq2    C5  612   3.948   2.230   1.561  0.2812  0.4109 -0.3980
   40TCq2    C6  613   3.980   2.331   1.469  0.5550 -0.5045 -0.3871
   40TCq2    C7  614   3.883   2.404   1.396 -0.0318 -0.1605  0.1454
   40TCq2    C8  615   4.122   2.369   1.466 -0.3259 -0.4171 -0.2306
   40TCq2    O4  616   4.199   2.291   1.517 -0.6993  0.2754 -0.3723
   40TCq2    C9  617   3.757   2.095   1.662  0.2266 -0.4535 -0.1707
   40TCq2    O5  618   3.636   2.059   1.651  0.1523 -0.0316 -0.2508
   40TCq2    O6  619   3.841   2.025   1.726  0.5935 -0.8177  0.2717
   40TCq2    H2  620   3.612   2.249   1.539  0.5852  1.7010  1.2125
   40TCq2    H3  621   4.021   2.175   1.619 -0.6703 -0.1443  0.2729
   40TCq2    H4  622   3.910   2.484   1.328 -1.8623  1.1521  0.9636
   41TMC2    C1  623   2.598   1.249  13.441  0.1842  0.5791 -0.4403
   41TMC2    C2  624   2.548   1.219  13.318 -0.5501  0.4561 -0.1381
   41TMC2    C3  625   2.631   1.236  13.210 -0.4140  0.3782  0.6713
   41TMC2    C4  626   2.730   1.287  13.454  0.6588  0.3779 -0.2241
   41TMC2    C5  627   2.807   1.296  13.346 -0.9412 -0.5717  0.1479
   41TMC2    C6  628   2.761   1.261  13.220  0.6006 -0.9647 -0.3659
   41TMC2     C  629   2.534   1.189  13.559  0.3505 -0.5711  0.5289
   41TMC2     O  630   2.453   1.101  13.533  0.0462 -0.1975  0.1670
   41TMC2     H  631   2.449   1.177  13.306 -0.4141 -0.3839  1.7142
   41TMC2    H1  632   2.779   1.290  13.551  1.4233  1.1745 -0.6431
   41TMC2    H2  633   2.829   1.269  13.135  2.1100  1.5663  1.0449
   41TMC2    C7  634   2.945   1.329  13.371 -0.2025 -0.6046  0.1151
   41TMC2    C8  635   2.582   1.196  13.079 -0.1468 -0.9313  0.7115
   41TMC2    O1  636   2.976   1.380  13.475 -0.3048 -0.2901  0.0260
   41TMC2    O2  637   2.659   1.174  12.982  0.2043  1.0557 -0.0731
   41TMC2    O5  638   2.455   1.248  13.066 -1.0377  0.0256  0.1399
   41TMC2    H5  639   2.424   1.296  13.145 -1.5710 -1.2083  0.6778
   42MPD2     C  640   2.501   1.056  13.837  0.3236 -0.3987  0.3783
   42MPD2    C1  641   2.560   1.180  13.801  0.3578  0.0613  0.6683
   42MPD2    C2  642   2.611   1.255  13.905 -0.3316 -0.5068 -0.2148
   42MPD2    C3  643   2.603   1.210  14.037  0.2519  0.4794 -0.2259
   42MPD2    C4  644   2.548   1.083  14.063 -0.0770  0.8739  0.6965
   42MPD2    C5  645   2.499   1.006  13.964 -0.5076 -0.0420  0.7043
   42MPD2     H  646   2.665   1.347  13.883 -1.0072 -0.0950 -0.1570
   42MPD2    H1  647   2.543   1.037  14.161  3.1013 -0.7951  0.0764
   42MPD2    H2  648   2.476   0.978  13.766  1.1550 -0.9786  0.7232
   42MPD2    H3  649   2.459   0.907  13.980 -2.4619  0.6303 -0.0675
   42MPD2     N  650   2.657   1.280  14.147 -0.1533  0.8354  0.5195
   42MPD2    H5  651   2.647   1.239  14.240  0.1814 -0.0277  0.1717
   42MPD2    N1  652   2.586   1.238  13.676  0.6690 -0.4716  0.1397
   42MPD2    H7  653   2.635   1.326  13.672  1.6291 -0.9457  1.4669
   43MPD2     C  654   3.835   3.793   0.941 -0.6291 -0.7858  0.1901
   43MPD2    C1  655   3.918   3.887   0.888 -0.2564  0.9232  0.5359
   43MPD2    C2  656   3.903   4.022   0.928  0.4183  0.5373  0.1856
   43MPD2    C3  657   3.801   4.058   1.013  0.5211  0.4466 -1.1701
   43MPD2    C4  658   3.714   3.961   1.061  0.8319 -0.3817 -0.5135
   43MPD2    C5  659   3.733   3.830   1.020 -0.0007 -0.0317  0.1942
   43MPD2     H  660   3.973   4.098   0.895 -0.0951  0.4450 -1.1219
   43MPD2    H1  661   3.642   3.986   1.138  1.2729 -2.1765  0.4841
   43MPD2    H2  662   3.839   3.689   0.912 -0.8359 -0.8299  0.3154
   43MPD2    H3  663   3.675   3.751   1.067 -0.0554  0.5142  1.0384
   43MPD2     N  664   3.787   4.188   1.072 -0.0206 -0.0413 -0.0481
   43MPD2    H5  665   3.714   4.208   1.139 -0.1288 -1.0019  0.1194
   43MPD2    N1  666   4.019   3.837   0.801 -0.2812 -0.1116  0.2384
   43MPD2    H7  667   4.019   3.737   0.784  1.4706 -0.4072  1.9358
   44TCq2    C1  668   4.012   4.616   1.368 -0.2812 -0.0202 -0.4232
   44TCq2    O2  669   4.120   4.621   1.310 -0.1554  0.0226  0.0284
   44TCq2    C2  670   3.893   4.576   1.294  0.0955 -0.2618 -0.3179
   44TCq2    C3  671   3.761   4.599   1.337 -0.7199 -0.1910 -0.0035
   44TCq2    C4  672   3.671   4.507   1.287  0.9113 -0.9642  0.2720
   44TCq2    C5  673   3.702   4.417   1.187  0.0732  0.4953 -0.3539
   44TCq2    C6  674   3.831   4.415   1.134 -0.7576  0.4882  0.2472
   44TCq2    C7  675   3.921   4.495   1.188 -0.2797 -0.8476  0.2571
   44TCq2    C8  676   3.879   4.293   1.063  0.0649 -0.2712  0.0433
   44TCq2    O4  677   3.992   4.287   1.012  0.6627  0.6323 -0.1945
   44TCq2    C9  678   3.540   4.508   1.341  0.5056 -0.2292  0.3599
   44TCq2    O5  679   3.465   4.413   1.308 -0.1299  0.3450  0.0495
   44TCq2    O6  680   3.526   4.580   1.441  0.5703 -0.5796  0.0351
   44TCq2    H2  681   3.728   4.667   1.415  0.1255  0.0497  0.1511
   44TCq2    H3  682   3.623   4.352   1.153 -0.3030  0.1091  1.2745
   44TCq2    H4  683   4.022   4.483   1.150 -0.9108  2.1255 -2.3246
   45TMC2    C1  684   0.551   0.824   9.716  0.1625 -0.5035  0.1625
   45TMC2    C2  685   0.670   0.781   9.768  0.1053  1.0936  0.1243
   45TMC2    C3  686   0.752   0.875   9.822  0.3551 -0.3809  0.2238
   45TMC2    C4  687   0.510   0.960   9.721 -0.7721 -0.0617  0.2275
   45TMC2    C5  688   0.603   1.050   9.780  0.1334  0.1808 -0.4156
   45TMC2    C6  689   0.723   1.001   9.838 -0.3320  0.7824  0.3605
   45TMC2     C  690   0.477   0.727   9.631  0.5443 -0.2466  0.7447
   45TMC2     O  691   0.501   0.613   9.664 -0.4682 -0.3247  0.7460
   45TMC2     H  692   0.690   0.675   9.759  1.7053  1.2597  1.7450
   45TMC2    H1  693   0.406   0.983   9.703 -0.5387  2.8292  2.6263
   45TMC2    H2  694   0.787   1.070   9.892  1.3354 -2.3280  2.3462
   45TMC2    C7  695   0.599   1.192   9.775 -0.7567 -0.8466 -0.0178
   45TMC2    C8  696   0.876   0.834   9.877  0.0588  0.8546  0.4352
   45TMC2    O1  697   0.660   1.247   9.868 -0.6815  0.2919 -0.4232
   45TMC2    O2  698   0.939   0.746   9.820  0.5399 -0.1465  0.2526
   45TMC2    O5  699   0.885   0.877  10.001 -0.0793 -0.3588  0.1650
   45TMC2    H5  700   0.825   0.949  10.029  0.6677 -0.7175  2.7477
   46MPD2     C  701   0.295   0.563   9.459  0.2479 -0.0046  0.1916
   46MPD2    C1  702   0.302   0.699   9.446 -0.5171 -0.0147  0.8679
   46MPD2    C2  703   0.221   0.765   9.344 -0.0040  0.5161  0.4892
   46MPD2    C3  704   0.136   0.694   9.268 -0.6948  0.3321 -0.1744
   46MPD2    C4  705   0.140   0.550   9.277  0.2255 -0.3421  0.4233
   46MPD2    C5  706   0.222   0.489   9.373 -0.6328 -0.5541 -0.2453
   46MPD2     H  707   0.225   0.869   9.315 -0.3548  0.6394  0.8726
   46MPD2    H1  708   0.082   0.477   9.223  0.3406 -0.3089  0.2527
   46MPD2    H2  709   0.356   0.517   9.535 -0.5880  0.1829  0.9743
   46MPD2    H3  710   0.211   0.383   9.391  1.6911 -0.6618  0.5221
   46MPD2     N  711   0.059   0.761   9.168  0.4919 -0.0164  0.1090
   46MPD2    H5  712   0.059   0.862   9.155 -3.5681  0.1043  1.0409
   46MPD2    N1  713   0.397   0.776   9.529 -0.4361  0.3024 -0.8690
   46MPD2    H7  714   0.411   0.872   9.497  2.6112  1.0345  2.7082
   47TMC2    C1  715   2.560   1.874   9.501 -0.2459 -0.4973  0.0533
   47TMC2    C2  716   2.624   1.806   9.400 -0.4679  0.1668  0.2378
   47TMC2    C3  717   2.589   1.826   9.273  0.7315 -0.3559 -0.4621
   47TMC2    C4  718   2.453   1.961   9.484 -0.0653  0.1166  0.3171
   47TMC2    C5  719   2.427   1.974   9.351 -0.4456 -0.0213  0.9119
   47TMC2    C6  720   2.489   1.911   9.245 -0.3655 -0.1344 -0.0757
   47TMC2     C  721   2.605   1.862   9.640  0.2527 -0.0790  0.3778
   47TMC2     O  722   2.559   1.941   9.717 -0.0398  0.1503  0.3388
   47TMC2     H  723   2.693   1.723   9.412  0.2214  0.5224 -1.2234
   47TMC2    H1  724   2.424   2.028   9.565 -1.8056  0.3528 -0.4980
   47TMC2    H2  725   2.470   1.938   9.142  1.2133 -2.0499 -0.8878
   47TMC2    C7  726   2.304   2.045   9.327 -0.0577 -0.0713  0.1852
   47TMC2    C8  727   2.658   1.749   9.172 -0.6702  0.3008  0.5846
   47TMC2    O1  728   2.278   2.076   9.211 -0.1321 -0.1030 -0.1845
   47TMC2    O2  729   2.767   1.689   9.188 -0.0449  0.1751 -0.1062
   47TMC2    O5  730   2.568   1.716   9.074  0.3800 -0.1013  0.2365
   47TMC2    H5  731   2.475   1.738   9.094  0.0137 -0.6701 -0.8817
   48MPD2     C  732   2.808   1.859   9.860 -0.1395 -0.0682 -0.0699
   48MPD2    C1  733   2.797   1.761   9.768  0.0973  1.3018  0.6634
   48MPD2    C2  734   2.879   1.655   9.773  0.3560 -0.8144  0.4813
   48MPD2    C3  735   2.978   1.641   9.873  0.7670  0.1205 -0.0499
   48MPD2    C4  736   2.983   1.740   9.973  0.2719 -0.0553  0.6355
   48MPD2    C5  737   2.903   1.852   9.959 -0.9267 -0.5018 -0.4914
   48MPD2     H  738   2.866   1.576   9.700  1.7922 -1.2617  0.7064
   48MPD2    H1  739   3.052   1.751  10.056  0.7605  0.4552  0.1639
   48MPD2    H2  740   2.754   1.953   9.862 -1.7931 -0.9806 -1.4817
   48MPD2    H3  741   2.904   1.935  10.029 -2.1027 -0.5037 -0.4674
   48MPD2     N  742   3.048   1.519   9.868  0.0865  0.5510 -0.1236
   48MPD2    H5  743   3.022   1.444   9.805  1.9040 -0.8099  0.7506
   48MPD2    N1  744   2.703   1.767   9.656 -0.6481 -0.6366 -0.3968
   48MPD2    H7  745   2.707   1.690   9.590 -1.2794  0.1163 -1.3044
   49MPD2     C  746   1.467   3.608   9.734  0.2669 -0.3254 -0.0594
   49MPD2    C1  747   1.350   3.549   9.781  0.6832 -0.4248 -0.1319
   49MPD2    C2  748   1.328   3.544   9.918 -0.6735 -0.4629  0.1114
   49MPD2    C3  749   1.418   3.596  10.014 -0.2045 -0.2490 -0.1194
   49MPD2    C4  750   1.531   3.656   9.959 -0.4452 -0.0359 -0.3203
   49MPD2    C5  751   1.552   3.662   9.824 -0.3485  0.8152 -0.3734
   49MPD2     H  752   1.228   3.523   9.955 -0.6795 -0.3467  0.1625
   49MPD2    H1  753   1.612   3.706  10.011  0.5800 -0.6924 -1.2643
   49MPD2    H2  754   1.483   3.625   9.629 -0.9322 -0.8468 -0.3205
   49MPD2    H3  755   1.635   3.722   9.790 -0.2848 -0.6043 -2.6908
   49MPD2     N  756   1.411   3.591  10.155  0.2659  0.2218 -0.2091
   49MPD2    H5  757   1.477   3.639  10.214  0.3505 -0.3119  0.1302
   49MPD2    N1  758   1.250   3.490   9.697 -0.0423  0.1476  0.7507
   49MPD2    H7  759   1.169   3.441   9.733 -1.6964  1.7807 -0.7890
   50TCq2    C1  760   1.253   3.476   9.560 -0.1111 -0.0234  0.0460
   50TCq2    O2  761   1.336   3.522   9.484 -0.1076  0.2192 -0.0392
   50TCq2    C2  762   1.135   3.400   9.502 -0.0696 -0.4908 -0.3483
   50TCq2    C3  763   1.103   3.425   9.371 -0.3939 -0.4038 -0.7109
   50TCq2    C4  764   1.004   3.355   9.311  0.5839 -0.1254 -0.1129
   50TCq2    C5  765   0.930   3.267   9.375  0.3826  0.5775 -0.0528
   50TCq2    C6  766   0.960   3.251   9.510 -0.2243  0.0981  0.0473
   50TCq2    C7  767   1.070   3.306   9.574 -0.3249  0.5196  0.7559
   50TCq2    C8  768   0.860   3.168   9.585  0.1553 -0.3094  0.6946
   50TCq2    O4  769   0.773   3.106   9.525 -0.3154  0.7604  0.4341
   50TCq2    C9  770   0.990   3.383   9.174  0.0361  0.5143  0.1583
   50TCq2    O5  771   1.079   3.436   9.106  0.4059  0.0737 -1.0626
   50TCq2    O6  772   0.891   3.330   9.120 -0.5243  0.0267  0.0216
   50TCq2    H2  773   1.172   3.485   9.313  0.6588 -0.3782  0.5665
   50TCq2    H3  774   0.845   3.226   9.321  1.0224 -0.9904  0.1123
   50TCq2    H4  775   1.100   3.283   9.675  0.7786  1.3320  0.6022
   51MPD2     C  776   2.584   1.928   1.637  0.3194  0.3268  0.5110
   51MPD2    C1  777   2.452   1.973   1.628  0.1299 -0.4087 -0.3672
   51MPD2    C2  778   2.422   2.079   1.716 -0.0231  0.1892  0.6219
   51MPD2    C3  779   2.506   2.130   1.815 -0.7993  0.2077  0.2748
   51MPD2    C4  780   2.630   2.076   1.821 -0.9043  0.4292 -0.0749
   51MPD2    C5  781   2.673   1.981   1.729 -0.0053 -0.1360 -0.4298
   51MPD2     H  782   2.321   2.117   1.701  1.0098  2.2080 -1.2117
   51MPD2    H1  783   2.691   2.105   1.905 -0.8167 -1.7381  0.6066
   51MPD2    H2  784   2.616   1.844   1.576  0.2773 -0.1419  1.1400
   51MPD2    H3  785   2.764   1.922   1.736  0.6343  0.9110  0.0957
   51MPD2     N  786   2.469   2.229   1.907  0.3976  0.6584 -0.0366
   51MPD2    H5  787   2.538   2.259   1.975  0.6061 -1.0691  0.5044
   51MPD2    N1  788   2.354   1.920   1.542  0.0520  0.3313  0.8667
   51MPD2    H7  789   2.261   1.959   1.557 -1.1607 -1.9041 -0.7997
   52TCq2    C1  790   2.354   2.297   1.897 -0.0695  0.5356 -0.0471
   52TCq2    O2  791   2.248   2.276   1.837 -0.1343  0.0143 -0.6761
   52TCq2    C2  792   2.352   2.416   1.987  0.0076 -0.8249 -0.3306
   52TCq2    C3  793   2.237   2.491   1.991 -0.6966  0.4961 -0.4835
   52TCq2    C4  794   2.235   2.612   2.050  0.6393  0.2157 -0.7847
   52TCq2    C5  795   2.350   2.674   2.090  0.3926 -0.8227  0.1206
   52TCq2    C6  796   2.462   2.594   2.101 -0.3343 -0.3466 -0.0521
   52TCq2    C7  797   2.466   2.460   2.051  0.1802 -0.0845  0.1993
   52TCq2    C8  798   2.567   2.651   2.187 -0.4778 -0.0866 -1.0151
   52TCq2    O4  799   2.578   2.773   2.174  0.2181 -0.9900 -0.6797
   52TCq2    C9  800   2.113   2.684   2.070 -0.0063  0.3950 -0.3277
   52TCq2    O5  801   2.009   2.631   2.029 -0.1398  0.4636 -0.3286
   52TCq2    O6  802   2.114   2.775   2.157  0.1002  0.2155 -0.0565
   52TCq2    H2  803   2.143   2.450   1.955 -0.1757  0.3485 -1.6404
   52TCq2    H3  804   2.368   2.769   2.138  1.1008 -1.2586  0.7194
   52TCq2    H4  805   2.555   2.400   2.056  1.4569  1.5148 -2.7815
   53TMC2    C1  806   1.446   1.403  12.521 -0.4085 -0.3834 -0.1456
   53TMC2    C2  807   1.539   1.372  12.619  0.0621 -0.2676  0.6426
   53TMC2    C3  808   1.497   1.402  12.748  0.5026 -0.0657 -0.7269
   53TMC2    C4  809   1.326   1.463  12.551 -0.7684  0.2803 -0.0523
   53TMC2    C5  810   1.293   1.493  12.679 -0.3759  0.1009 -0.1920
   53TMC2    C6  811   1.376   1.454  12.784  0.1573  0.0171 -0.4757
   53TMC2     C  812   1.491   1.406  12.383 -0.3677 -0.3470 -0.0945
   53TMC2     O  813   1.612   1.398  12.361 -0.2746 -0.0072 -0.1623
   53TMC2     H  814   1.637   1.331  12.595  0.1102  1.6468 -2.4176
   53TMC2    H1  815   1.263   1.507  12.474  0.8070  0.2995 -1.3442
   53TMC2    H2  816   1.366   1.486  12.887 -0.5833 -0.1925 -0.4818
   53TMC2    C7  817   1.171   1.566  12.705 -0.2820 -0.4638  0.1465
   53TMC2    C8  818   1.569   1.334  12.855 -0.1261  1.0355 -0.4843
   53TMC2    O1  819   1.122   1.622  12.612 -0.1503 -0.3136  0.1845
   53TMC2    O2  820   1.498   1.272  12.933  0.6224  0.6548 -0.3932
   53TMC2    O5  821   1.702   1.352  12.838  0.1840 -0.4166 -0.2129
   53TMC2    H5  822   1.723   1.417  12.767 -3.4109  0.7588 -0.1968
   54MPD2     C  823   1.486   1.493  12.098  0.2075  0.8225 -0.0121
   54MPD2    C1  824   1.378   1.444  12.164 -0.0045 -0.1375  0.1752
   54MPD2    C2  825   1.253   1.432  12.106  0.5159 -0.0603 -0.1933
   54MPD2    C3  826   1.242   1.462  11.974 -0.0535  0.1307  0.8324
   54MPD2    C4  827   1.353   1.505  11.897  0.0667  0.4240  0.4838
   54MPD2    C5  828   1.468   1.527  11.969 -0.3655  0.2656 -0.2412
   54MPD2     H  829   1.177   1.383  12.166  0.0150 -1.2737 -1.8058
   54MPD2    H1  830   1.356   1.537  11.794 -0.4721 -2.8545 -0.5279
   54MPD2    H2  831   1.589   1.493  12.132  0.2325 -0.0367 -0.0796
   54MPD2    H3  832   1.554   1.569  11.918 -0.9679 -1.2048 -2.4788
   54MPD2     N  833   1.120   1.441  11.910  0.0004  0.0545  0.1635
   54MPD2    H5  834   1.130   1.470  11.814  0.8297  0.5009  0.3860
   54MPD2    N1  835   1.383   1.413  12.300 -0.1668 -0.0800 -0.2285
   54MPD2    H7  836   1.294   1.396  12.345 -0.7636  4.4179  0.2225
   55MPD2     C  837   2.341   0.439   0.283 -0.6250  0.8845  0.3009
   55MPD2    C1  838   2.281   0.323   0.325  0.2126  0.5091 -0.3876
   55MPD2    C2  839   2.154   0.323   0.388  0.3123  0.5780 -0.0033
   55MPD2    C3  840   2.083   0.438   0.396  0.5893 -0.3788 -0.2185
   55MPD2    C4  841   2.151   0.556   0.358 -0.6445 -0.0033  0.0334
   55MPD2    C5  842   2.277   0.557   0.310 -0.1556  0.8904 -0.7724
   55MPD2     H  843   2.107   0.231   0.420  0.9564  0.2945  0.1449
   55MPD2    H1  844   2.103   0.652   0.376 -0.0780  0.5832 -1.5030
   55MPD2    H2  845   2.439   0.428   0.238  0.1993 -0.5786  2.4678
   55MPD2    H3  846   2.321   0.653   0.285  0.5648  1.2145  1.6607
   55MPD2     N  847   1.965   0.425   0.473  0.7780 -0.7196  1.0209
   55MPD2    H5  848   1.944   0.335   0.514 -1.2846 -0.0147  1.5213
   55MPD2    N1  849   2.344   0.200   0.294  0.0831  0.1005 -0.9966
   55MPD2    H7  850   2.431   0.201   0.242  0.0006  2.3914 -1.0950
   56TCq2    C1  851   2.294   0.077   0.340  0.2597  0.3737 -0.0453
   56TCq2    O2  852   2.222   0.054   0.437  0.5890  0.1192  0.3339
   56TCq2    C2  853   2.377   4.689   0.297  0.0311 -0.0134  0.2528
   56TCq2    C3  854   2.385   4.676   0.158  0.1647 -0.2095 -0.5815
   56TCq2    C4  855   2.399   4.546   0.110 -0.1446  0.6240 -0.2854
   56TCq2    C5  856   2.405   4.435   0.190  0.2807  0.2758 -0.0001
   56TCq2    C6  857   2.402   4.453   0.325 -0.4163 -0.2299  0.3034
   56TCq2    C7  858   2.387   4.580   0.379 -0.4984 -0.2705 -0.0077
   56TCq2    C8  859   2.392   4.333   0.402 -0.0906  0.3541  0.2601
   56TCq2    O4  860   2.419   4.227   0.349  0.4797  0.4844  0.1375
   56TCq2    C9  861   2.388   4.519  17.659  0.2680 -0.4125 -0.5431
   56TCq2    O5  862   2.386   4.610  17.578 -0.0911 -0.1565  0.3531
   56TCq2    O6  863   2.360   4.400  17.626  0.1300 -0.3748 -0.1020
   56TCq2    H2  864   2.368   0.033   0.087  1.5025 -0.3538 -1.0649
   56TCq2    H3  865   2.406   4.338   0.143  0.1381  1.2000 -1.9101
   56TCq2    H4  866   2.382   4.590   0.486 -1.9253 -1.3934  0.0376
   57TMC2    C1  867   1.296   0.125  13.790  0.3437  0.1128  0.0546
   57TMC2    C2  868   1.372   0.020  13.834  0.2149  0.9980 -0.0910
   57TMC2    C3  869   1.498   0.001  13.781 -0.7299  0.6041 -0.0388
   57TMC2    C4  870   1.347   0.205  13.689 -0.2979  0.1194 -0.2274
   57TMC2    C5  871   1.477   0.191  13.645  0.0327 -0.7554 -1.0440
   57TMC2    C6  872   1.553   0.089  13.692  0.1828  0.1821 -1.2899
   57TMC2     C  873   1.157   0.152  13.829 -0.7141 -0.0174  0.0730
   57TMC2     O  874   1.108   0.251  13.780  0.1225  0.0426  0.3878
   57TMC2     H  875   1.347   4.667  13.908  1.5571  0.9262  0.2907
   57TMC2    H1  876   1.287   0.279  13.637  0.9442  0.0080 -1.7978
   57TMC2    H2  877   1.653   0.082  13.652  1.7450  1.4262  2.4634
   57TMC2    C7  878   1.501   0.237  13.512 -0.1690  0.3419  0.6817
   57TMC2    C8  879   1.568   4.603  13.806 -0.2420 -0.5034  0.0057
   57TMC2    O1  880   1.502   0.356  13.497 -0.2541 -0.4251 -0.2320
   57TMC2    O2  881   1.507   4.498  13.835  0.0085  0.3347  0.8897
   57TMC2    O5  882   1.673   4.645  13.876 -0.1274 -0.0049  0.2097
   57TMC2    H5  883   1.687   0.018  13.861 -4.5748  0.5547 -0.3429
   58MPD2     C  884   0.700   0.091  14.039  0.3012 -0.4528  0.4009
   58MPD2    C1  885   0.781   0.200  14.034 -0.3526  0.1627  0.5451
   58MPD2    C2  886   0.910   0.182  13.989  0.3712 -0.1169 -0.1631
   58MPD2    C3  887   0.957   0.062  13.940 -0.1383  0.2132  0.7398
   58MPD2    C4  888   0.877   4.674  13.941  1.0957  0.7691 -0.0718
   58MPD2    C5  889   0.749   4.696  13.991 -0.1245  0.1797 -0.0434
   58MPD2     H  890   0.980   0.265  13.977  0.7104 -0.4400 -0.4260
   58MPD2    H1  891   0.913   4.582  13.897  1.0569  1.0789 -0.7456
   58MPD2    H2  892   0.597   0.088  14.073  0.5098 -2.9102  0.8373
   58MPD2    H3  893   0.680   4.612  13.996 -0.5953  0.5800  0.1219
   58MPD2     N  894   1.089   0.045  13.885 -0.0164  0.7454 -0.7984
   58MPD2    H5  895   1.127   4.674  13.880 -2.1179 -0.0503 -2.0666
   58MPD2    N1  896   0.738   0.326  14.085 -0.1013  0.0029 -0.1414
   58MPD2    H7  897   0.803   0.404  14.088  0.2444 -0.3206  0.7820
   59MPD2     C  898   3.411   0.262  13.138 -0.0093  0.7656 -0.1278
   59MPD2    C1  899   3.543   0.249  13.097 -0.2859 -0.0628  0.3598
   59MPD2    C2  900   3.642   0.329  13.149 -0.2543  0.1171 -0.4639
   59MPD2    C3  901   3.603   0.418  13.251 -0.6711  0.4684 -1.0492
   59MPD2    C4  902   3.469   0.420  13.297  0.2959 -0.4789 -0.1761
   59MPD2    C5  903   3.380   0.345  13.239 -0.5650 -0.2883  0.0927
   59MPD2     H  904   3.739   0.328  13.102  0.2081  1.7252  0.4425
   59MPD2    H1  905   3.431   0.485  13.375  1.1273 -0.8298  0.5295
   59MPD2    H2  906   3.336   0.205  13.083 -0.0005 -0.1913  0.8452
   59MPD2    H3  907   3.276   0.353  13.268 -0.9629 -2.3368 -0.7872
   59MPD2     N  908   3.705   0.488  13.313  0.3951 -0.0576 -0.2435
   59MPD2    H5  909   3.690   0.530  13.404  1.7592 -1.2853  0.5366
   59MPD2    N1  910   3.582   0.157  12.996 -0.7947 -0.1916 -0.3939
   59MPD2    H7  911   3.671   0.171  12.950  0.2957 -1.9547  1.1481
   60TCq2    C1  912   3.511   0.034  12.972  0.7316 -1.0717  0.4280
   60TCq2    O2  913   3.419   4.707  13.035  0.2980 -0.2983  0.3904
   60TCq2    C2  914   3.542   4.691  12.848  0.1621  0.2114  0.2592
   60TCq2    C3  915   3.503   4.564  12.826  0.0684 -0.1599 -0.2351
   60TCq2    C4  916   3.534   4.504  12.709  0.7619  0.2588 -0.4902
   60TCq2    C5  917   3.597   4.569  12.608 -0.6471 -0.8147  0.1708
   60TCq2    C6  918   3.624   4.695  12.630  0.2020 -0.2297 -1.0212
   60TCq2    C7  919   3.590   0.037  12.744 -0.0371  0.7867 -0.4231
   60TCq2    C8  920   3.675   0.045  12.510  0.3609  0.1750 -0.5005
   60TCq2    O4  921   3.696   4.696  12.413  0.0664 -0.1564  0.1800
   60TCq2    C9  922   3.479   4.369  12.691 -0.1166 -0.0544  0.4304
   60TCq2    O5  923   3.399   4.333  12.780 -1.1476 -0.4839 -0.6483
   60TCq2    O6  924   3.466   4.334  12.570  0.2626  0.7366 -0.8507
   60TCq2    H2  925   3.454   4.510  12.906 -1.2286 -0.8650 -1.4864
   60TCq2    H3  926   3.614   4.519  12.513 -2.6154 -0.2796 -0.4457
   60TCq2    H4  927   3.629   0.137  12.758 -1.1106  0.8372  2.1121
   61MPD2     C  928   2.653   1.972  15.835 -0.2589  0.3842 -0.6649
   61MPD2    C1  929   2.702   2.102  15.829 -0.3170 -0.2112 -0.3294
   61MPD2    C2  930   2.757   2.144  15.709  0.1046  0.1474 -0.0234
   61MPD2    C3  931   2.753   2.068  15.595  0.4853  0.8353 -0.9972
   61MPD2    C4  932   2.681   1.949  15.598 -0.3350 -0.0739 -0.5525
   61MPD2    C5  933   2.649   1.894  15.720 -0.2554 -0.9050 -0.6358
   61MPD2     H  934   2.808   2.240  15.713 -1.1297  0.8342 -0.5830
   61MPD2    H1  935   2.674   1.884  15.511  1.6678  0.7062 -1.2842
   61MPD2    H2  936   2.612   1.935  15.928 -0.5588  1.8947 -0.1970
   61MPD2    H3  937   2.596   1.800  15.722  0.7130 -1.4265  0.3382
   61MPD2     N  938   2.779   2.125  15.470 -0.4389 -0.1180 -0.1601
   61MPD2    H5  939   2.739   2.079  15.389  1.3564  0.0768 -1.1586
   61MPD2    N1  940   2.722   2.175  15.948  0.1885 -0.0965 -0.3486
   61MPD2    H7  941   2.763   2.267  15.937 -0.8030  0.3456 -0.2641
   62TCq2    C1  942   2.672   2.147  16.071 -0.0806 -0.6464  0.4185
   62TCq2    O2  943   2.598   2.058  16.109  0.3383  0.3374  0.1338
   62TCq2    C2  944   2.677   2.264  16.154  0.2092  0.4409  0.5009
   62TCq2    C3  945   2.581   2.278  16.253 -0.2940 -0.0365 -0.6727
   62TCq2    C4  946   2.559   2.404  16.311 -0.3539  0.9035 -0.1606
   62TCq2    C5  947   2.633   2.510  16.278 -0.2194 -0.1370  0.3604
   62TCq2    C6  948   2.722   2.494  16.182 -0.3052  0.1638  0.2964
   62TCq2    C7  949   2.752   2.377  16.126 -0.3684 -0.5132 -0.2933
   62TCq2    C8  950   2.773   2.606  16.104  0.1236  0.0066  0.6963
   62TCq2    O4  951   2.846   2.582  16.011  0.1153 -0.1097 -0.2709
   62TCq2    C9  952   2.442   2.420  16.390 -0.0817  0.6711  0.4052
   62TCq2    O5  953   2.379   2.321  16.437  0.2878 -0.3156  0.8525
   62TCq2    O6  954   2.400   2.541  16.402 -0.3951  0.0910 -0.2585
   62TCq2    H2  955   2.510   2.199  16.274 -0.1843  0.0036 -0.1491
   62TCq2    H3  956   2.610   2.607  16.322 -1.3166  0.8099 -2.2672
   62TCq2    H4  957   2.848   2.361  16.076 -0.7766 -1.5959 -0.7301
   63TMC2    C1  958   2.553   1.811  10.313  0.2069  0.1537 -0.1193
   63TMC2    C2  959   2.685   1.798  10.363 -0.6727 -0.0448 -0.3390
   63TMC2    C3  960   2.785   1.888  10.325  0.0469 -0.1922 -0.0037
   63TMC2    C4  961   2.530   1.911  10.226 -0.4215 -0.2339  0.6274
   63TMC2    C5  962   2.627   2.002  10.198 -0.0069 -0.9103  0.4913
   63TMC2    C6  963   2.755   1.996  10.250  0.3777  0.6286 -0.3693
   63TMC2     C  964   2.435   1.748  10.365 -0.7936  0.2424 -0.4142
   63TMC2     O  965   2.322   1.779  10.322  0.4348 -0.4459  0.5433
   63TMC2     H  966   2.701   1.727  10.443 -0.2776  0.4267 -0.0008
   63TMC2    H1  967   2.435   1.923  10.175  0.1932  1.4475 -0.1368
   63TMC2    H2  968   2.841   2.051  10.213 -0.1788  2.9047  1.6780
   63TMC2    C7  969   2.601   2.093  10.095 -0.5894  0.7846 -0.6608
   63TMC2    C8  970   2.877   1.910  10.430  0.5175  0.0524 -0.5144
   63TMC2    O1  971   2.502   2.068  10.026  0.1054 -0.3904 -0.1016
   63TMC2    O2  972   2.896   1.822  10.510 -0.4599 -0.1107  0.3629
   63TMC2    O5  973   2.851   2.030  10.468  0.1223 -0.0825  0.1792
   63TMC2    H5  974   2.841   2.093  10.393 -0.6847 -0.6289 -0.1655
   64MPD2     C  975   2.224   1.367  10.640 -0.1413  0.0064 -0.2034
   64MPD2    C1  976   2.357   1.359  10.651  0.1599 -0.4645 -0.4719
   64MPD2    C2  977   2.432   1.468  10.605  0.1644 -0.2341  0.1138
   64MPD2    C3  978   2.375   1.563  10.528  0.0788  0.2933  0.0148
   64MPD2    C4  979   2.238   1.579  10.536  0.4308  0.2330 -0.3363
   64MPD2    C5  980   2.162   1.478  10.592 -0.1073 -0.4509 -0.0843
   64MPD2     H  981   2.540   1.461  10.590 -0.1845 -1.0888 -2.0338
   64MPD2    H1  982   2.175   1.658  10.497  3.1777  2.4621 -0.3052
   64MPD2    H2  983   2.164   1.282  10.672 -2.3182  1.9492  0.8360
   64MPD2    H3  984   2.056   1.485  10.609 -0.1653 -2.0828  0.2587
   64MPD2     N  985   2.466   1.651  10.458 -0.8483 -0.1194  0.8090
   64MPD2    H5  986   2.560   1.658  10.496 -0.9091 -1.2043  1.1546
   64MPD2    N1  987   2.432   1.243  10.697  0.1304  0.3382 -0.3232
   64MPD2    H7  988   2.530   1.265  10.679 -0.2581  1.7387 -0.7012
   65MPD2     C  989   3.644   1.200  16.068  0.1432 -0.6416  0.0260
   65MPD2    C1  990   3.645   1.214  15.932  0.4746 -0.8473  0.0328
   65MPD2    C2  991   3.565   1.131  15.849 -0.0091  0.1825 -0.1411
   65MPD2    C3  992   3.471   1.048  15.907 -0.1910  0.0647 -0.7707
   65MPD2    C4  993   3.478   1.032  16.043  0.9115 -0.5594  0.3577
   65MPD2    C5  994   3.559   1.109  16.121  0.2044  0.4001  0.0726
   65MPD2     H  995   3.569   1.140  15.741 -0.1279  1.4595 -0.0399
   65MPD2    H1  996   3.422   0.958  16.099 -2.1271  3.4839  2.6553
   65MPD2    H2  997   3.693   1.269  16.136  0.3455 -0.7598  0.0004
   65MPD2    H3  998   3.552   1.090  16.228 -1.6079  1.5160  0.1511
   65MPD2     N  999   3.388   0.969  15.828  0.5741 -0.1683 -0.2451
   65MPD2    H5 1000   3.354   0.886  15.876 -1.9460 -0.3858 -2.3900
   65MPD2    N1 1001   3.726   1.306  15.861  0.1826  0.5941 -0.0591
   65MPD2    H7 1002   3.711   1.318  15.762  0.2271 -0.4431 -0.1965
   66TCq2    C1 1003   3.788   1.411  15.917 -0.0011  0.2767 -0.0589
   66TCq2    O2 1004   3.778   1.455  16.029  0.0535  0.1865 -0.3536
   66TCq2    C2 1005   3.856   1.492  15.818 -0.5242 -0.4012  0.1709
   66TCq2    C3 1006   3.875   1.427  15.694 -0.5036  0.1900  0.2107
   66TCq2    C4 1007   3.887   1.507  15.579  0.0648  0.4653  0.0765
   66TCq2    C5 1008   3.910   1.641  15.602  0.0220  0.4826 -0.6540
   66TCq2    C6 1009   3.902   1.696  15.730  0.8944  0.3207 -0.4899
   66TCq2    C7 1010   3.867   1.626  15.837  0.3361 -0.0051 -0.0845
   66TCq2    C8 1011   3.880   1.844  15.723  1.6657 -0.6663 -0.0846
   66TCq2    O4 1012   3.944   1.908  15.638  0.3314  0.0460 -0.6904
   66TCq2    C9 1013   3.918   1.445  15.452 -0.4385  0.4432 -0.1985
   66TCq2    O5 1014   3.924   1.320  15.451  0.4098 -0.5452  0.8225
   66TCq2    O6 1015   3.947   1.521  15.362 -0.3648  0.1217 -0.0723
   66TCq2    H2 1016   3.885   1.319  15.686 -0.8268  0.2193 -0.6837
   66TCq2    H3 1017   3.926   1.702  15.514 -2.2738 -0.9468 -2.0481
   66TCq2    H4 1018   3.848   1.677  15.931  0.3829  1.6640 -0.9852
   67MPD2     C 1019   3.502   0.571  14.339  0.1313  0.1976  0.7075
   67MPD2    C1 1020   3.450   0.464  14.420  0.4915  0.3072 -0.6726
   67MPD2    C2 1021   3.323   0.420  14.395 -0.2239 -0.2522 -0.2538
   67MPD2    C3 1022   3.252   0.468  14.283 -0.1912 -0.2175  0.1560
   67MPD2    C4 1023   3.314   0.557  14.197  0.4518 -0.7159 -0.0438
   67MPD2    C5 1024   3.438   0.607  14.228  0.7748  0.6224  0.4846
   67MPD2     H 1025   3.269   0.349  14.456 -0.8200  0.4382  0.0246
   67MPD2    H1 1026   3.275   0.593  14.103  1.2225 -0.1175 -0.1386
   67MPD2    H2 1027   3.601   0.611  14.358  1.8763 -3.7503 -0.1077
   67MPD2    H3 1028   3.476   0.689  14.167  2.3331 -0.3044  0.2377
   67MPD2     N 1029   3.119   0.433  14.242  0.5546  0.1481 -0.3060
   67MPD2    H5 1030   3.076   0.470  14.158  1.3708  2.2849  0.2202
   67MPD2    N1 1031   3.517   0.419  14.531  0.3677  0.0269 -0.1303
   67MPD2    H7 1032   3.463   0.359  14.592  0.4132  0.8096  0.6748
   68TCq2    C1 1033   3.652   0.424  14.549 -0.0157  0.2877 -0.6465
   68TCq2    O2 1034   3.737   0.486  14.484 -0.6579 -0.8717 -0.7952
   68TCq2    C2 1035   3.688   0.369  14.684 -0.3245  0.2781 -0.2401
   68TCq2    C3 1036   3.606   0.274  14.745 -0.2153  0.3183  0.0761
   68TCq2    C4 1037   3.643   0.240  14.871 -0.4795  0.0159 -0.0291
   68TCq2    C5 1038   3.748   0.284  14.938  0.1301 -0.0806 -0.2769
   68TCq2    C6 1039   3.831   0.362  14.867 -0.1614  0.1702  0.4195
   68TCq2    C7 1040   3.806   0.410  14.741  0.6404  0.6815 -0.5433
   68TCq2    C8 1041   3.961   0.395  14.927 -0.8828 -0.7452 -0.2881
   68TCq2    O4 1042   4.057   0.407  14.851 -0.3487 -0.3386  0.2650
   68TCq2    C9 1043   3.549   0.152  14.935  0.4211 -0.0471  0.3636
   68TCq2    O5 1044   3.446   0.116  14.875  0.0007 -0.0942 -0.4278
   68TCq2    O6 1045   3.586   0.102  15.039  0.2424 -0.0016 -0.6371
   68TCq2    H2 1046   3.530   0.220  14.689 -0.1047  0.2107  0.0317
   68TCq2    H3 1047   3.768   0.240  15.035  1.7435 -0.5886 -0.8411
   68TCq2    H4 1048   3.884   0.460  14.686  2.4539 -1.7241 -0.1857
   69TMC2    C1 1049   1.474   1.822  12.485  0.2533  0.2017 -0.1580
   69TMC2    C2 1050   1.342   1.837  12.436  0.3739  0.4078 -0.0850
   69TMC2    C3 1051   1.326   1.813  12.300 -0.7228 -0.1931 -0.2061
   69TMC2    C4 1052   1.584   1.795  12.404  0.6739  0.0365 -0.2780
   69TMC2    C5 1053   1.553   1.780  12.270 -0.0634 -0.1135  0.2705
   69TMC2    C6 1054   1.426   1.790  12.214 -0.0146 -0.6389  0.1671
   69TMC2     C 1055   1.499   1.818  12.629 -0.2456  0.6163  0.3449
   69TMC2     O 1056   1.610   1.779  12.657  0.0055 -0.4485 -0.3312
   69TMC2     H 1057   1.255   1.841  12.502  0.3069  0.9117 -0.2006
   69TMC2    H1 1058   1.681   1.778  12.449  0.6299  3.3599  1.1224
   69TMC2    H2 1059   1.406   1.760  12.111 -0.0618 -3.2825  0.9378
   69TMC2    C7 1060   1.668   1.772  12.180 -0.3206  0.1001  0.2129
   69TMC2    C8 1061   1.196   1.776  12.250 -0.7583  0.4576 -0.9166
   69TMC2    O1 1062   1.763   1.709  12.226 -0.2448 -0.0504  0.1773
   69TMC2    O2 1063   1.103   1.750  12.324 -0.0075 -0.5656 -0.7509
   69TMC2    O5 1064   1.181   1.809  12.123  0.4961 -0.0810 -0.2184
   69TMC2    H5 1065   1.257   1.853  12.080  0.6632 -1.7884 -1.6971
   70MPD2     C 1066   1.273   1.917  12.895  0.0665  0.1080  0.8198
   70MPD2    C1 1067   1.384   1.857  12.838  0.3535 -0.1613  0.5318
   70MPD2    C2 1068   1.464   1.784  12.918  0.6881  0.4818  0.0604
   70MPD2    C3 1069   1.441   1.765  13.053 -0.3177 -0.4400  0.0240
   70MPD2    C4 1070   1.327   1.825  13.102 -0.0212  0.6548  0.0096
   70MPD2    C5 1071   1.242   1.904  13.030 -0.2816 -0.1885 -0.3839
   70MPD2     H 1072   1.549   1.735  12.872  0.2974  0.6532 -0.8262
   70MPD2    H1 1073   1.299   1.813  13.206  0.7299 -0.4303  0.0834
   70MPD2    H2 1074   1.210   1.981  12.834 -0.3187 -2.7974 -1.8215
   70MPD2    H3 1075   1.167   1.965  13.078 -1.7042 -1.5663 -0.8210
   70MPD2     N 1076   1.514   1.669  13.128 -0.3376 -0.1078 -0.2314
   70MPD2    H5 1077   1.488   1.659  13.226  0.2003 -1.1659 -0.1929
   70MPD2    N1 1078   1.401   1.884  12.701  1.0265  0.0526  0.1754
   70MPD2    H7 1079   1.326   1.937  12.658  1.4471 -1.5686 -2.5631
   71TMC2    C1 1080   2.850   2.125   1.316  0.4333 -0.5541 -0.0175
   71TMC2    C2 1081   2.964   2.081   1.375 -0.2769  0.0216 -0.0309
   71TMC2    C3 1082   2.987   2.109   1.509  0.1985 -0.1261 -0.4422
   71TMC2    C4 1083   2.760   2.199   1.383  0.6830  0.6324 -0.7087
   71TMC2    C5 1084   2.788   2.225   1.517  0.2852  0.1030  0.2823
   71TMC2    C6 1085   2.898   2.183   1.586 -0.1570  0.3186  0.3715
   71TMC2     C 1086   2.834   2.123   1.173  0.0776 -0.0387 -0.2782
   71TMC2     O 1087   2.927   2.087   1.104  0.1190 -0.6989  0.3679
   71TMC2     H 1088   3.028   2.024   1.309 -0.5961 -0.3183 -0.0485
   71TMC2    H1 1089   2.685   2.260   1.334  0.2864  0.9487  0.2998
   71TMC2    H2 1090   2.913   2.208   1.690  0.0887 -0.2204  0.4627
   71TMC2    C7 1091   2.712   2.323   1.587 -0.6296  0.1436  0.7120
   71TMC2    C8 1092   3.115   2.067   1.574  0.5509 -0.2464 -0.4443
   71TMC2    O1 1093   2.764   2.379   1.685  0.4862 -0.4176  1.0699
   71TMC2    O2 1094   3.195   2.148   1.628 -0.1708 -0.2309  0.5756
   71TMC2    O5 1095   3.148   1.967   1.491  0.9312 -0.2880 -0.2931
   71TMC2    H5 1096   3.074   1.912   1.456  0.0288 -0.3723  1.6982
   72MPD2     C 1097   2.581   2.169   0.736  0.8269  0.6624 -0.0440
   72MPD2    C1 1098   2.714   2.177   0.764  0.3403 -0.2399  0.4655
   72MPD2    C2 1099   2.750   2.161   0.896 -0.0221  0.1832  0.2093
   72MPD2    C3 1100   2.657   2.150   0.999  0.1309 -0.1038 -0.2965
   72MPD2    C4 1101   2.526   2.161   0.974  0.1298  0.1602  0.0215
   72MPD2    C5 1102   2.493   2.161   0.838  0.2006 -1.0842 -0.1181
   72MPD2     H 1103   2.858   2.160   0.906 -0.4490  1.8678  4.5846
   72MPD2    H1 1104   2.452   2.180   1.050 -0.5866  1.9571 -1.1389
   72MPD2    H2 1105   2.536   2.178   0.638  1.1980  0.3514 -0.2434
   72MPD2    H3 1106   2.388   2.162   0.814  0.1518 -1.4395  0.0844
   72MPD2     N 1107   2.702   2.143   1.130 -0.0594 -0.2715 -0.6936
   72MPD2    H5 1108   2.632   2.148   1.203 -0.7399  1.4803 -1.4626
   72MPD2    N1 1109   2.805   2.218   0.667 -0.3650 -0.0521  0.1734
   72MPD2    H7 1110   2.899   2.220   0.703  0.3587  2.4209 -1.8546
   73TMC2    C1 1111   3.063   4.033  13.788 -0.2908  0.0994 -0.2875
   73TMC2    C2 1112   2.938   4.047  13.842 -0.9100  0.0992  0.0837
   73TMC2    C3 1113   2.923   4.042  13.977 -0.2241 -0.4884  0.8004
   73TMC2    C4 1114   3.173   4.003  13.869  0.6837 -0.6802  0.4207
   73TMC2    C5 1115   3.156   4.014  14.006 -0.2046 -0.2395  0.3810
   73TMC2    C6 1116   3.030   4.025  14.062  0.1517  0.4539 -0.0058
   73TMC2     C 1117   3.084   4.124  13.674  0.3316  0.0895  0.3485
   73TMC2     O 1118   3.195   4.171  13.682 -0.3700 -0.0777 -0.3288
   73TMC2     H 1119   2.854   4.042  13.773 -2.4315  2.3749  1.7717
   73TMC2    H1 1120   3.274   3.996  13.828 -0.2283  3.1370 -2.4322
   73TMC2    H2 1121   3.025   4.045  14.168 -2.1988 -0.5926  0.0751
   73TMC2    C7 1122   3.252   4.105  14.060  0.2737 -0.6379  0.3629
   73TMC2    C8 1123   2.791   4.051  14.035 -0.3242  0.4216 -0.0386
   73TMC2    O1 1124   3.279   4.108  14.181 -0.2482  0.2800 -0.6379
   73TMC2    O2 1125   2.788   4.073  14.155 -0.2276 -0.4161  0.4329
   73TMC2    O5 1126   2.717   3.953  13.974 -0.4591  0.6737  0.5477
   73TMC2    H5 1127   2.750   3.923  13.887  0.9490  4.2450 -0.1471
   74MPD2     C 1128   3.003   4.407  13.256  0.2466 -0.2222  0.1649
   74MPD2    C1 1129   3.076   4.428  13.375 -0.8158 -0.2013  0.1803
   74MPD2    C2 1130   3.058   4.346  13.490 -0.6464  0.6544  0.3681
   74MPD2    C3 1131   2.985   4.231  13.481  0.4758 -0.3177  0.1947
   74MPD2    C4 1132   2.910   4.213  13.367 -0.4935 -0.1936 -0.5615
   74MPD2    C5 1133   2.927   4.296  13.254  0.2063 -0.6109 -0.5925
   74MPD2     H 1134   3.109   4.371  13.582  0.3820 -0.2546  0.0444
   74MPD2    H1 1135   2.841   4.130  13.360 -2.7946  1.4605  2.5862
   74MPD2    H2 1136   3.025   4.468  13.169 -0.0870  3.3849  2.5951
   74MPD2    H3 1137   2.874   4.273  13.163 -1.0043 -0.2558  0.0264
   74MPD2     N 1138   2.980   4.133  13.584 -0.8619 -0.4727 -0.1070
   74MPD2    H5 1139   2.931   4.044  13.572 -1.1476 -0.3008 -0.2069
   74MPD2    N1 1140   3.164   4.537  13.385 -0.0728  0.1586 -0.3549
   74MPD2    H7 1141   3.155   4.611  13.316  2.6007  1.4080  0.6229
   75TCq2    C1 1142   3.038   0.335  14.292 -0.2021  0.2624  0.6784
   75TCq2    O2 1143   3.070   0.242  14.365  0.5447 -0.6909 -0.6244
   75TCq2    C2 1144   2.911   0.334  14.209  0.2005  0.1317 -0.2840
   75TCq2    C3 1145   2.859   0.210  14.172 -0.0870  0.1930  0.0288
   75TCq2    C4 1146   2.776   0.196  14.061 -0.3249  0.5105  0.1917
   75TCq2    C5 1147   2.761   0.306  13.985 -1.0855  0.2251 -0.1212
   75TCq2    C6 1148   2.811   0.423  14.026  0.6147  0.2133  0.4086
   75TCq2    C7 1149   2.891   0.446  14.138 -0.1582 -0.5411  0.4189
   75TCq2    C8 1150   2.809   0.545  13.940 -0.7995 -0.0302 -0.6325
   75TCq2    O4 1151   2.886   0.638  13.971 -0.1631  0.0054 -0.1318
   75TCq2    C9 1152   2.736   0.063  14.016 -0.0146 -0.8604  0.4226
   75TCq2    O5 1153   2.774   4.690  14.086  0.7789  0.4700 -0.0343
   75TCq2    O6 1154   2.662   0.066  13.913  0.6986  0.4475  0.1221
   75TCq2    H2 1155   2.898   0.126  14.228  1.1774  0.7988  0.0663
   75TCq2    H3 1156   2.698   0.307  13.896 -0.3758  2.3521 -0.5975
   75TCq2    H4 1157   2.925   0.542  14.177  2.4129 -1.6312  0.8767
   76MPD2     C 1158   2.550   1.288  12.133  0.9246 -0.4175  0.3480
   76MPD2    C1 1159   2.500   1.207  12.034  0.3208  0.3833 -0.7678
   76MPD2    C2 1160   2.529   1.073  12.034  0.3513  0.4146  0.2518
   76MPD2    C3 1161   2.616   1.030  12.130  0.1111  0.4190  0.2790
   76MPD2    C4 1162   2.654   1.112  12.231  0.4747  0.9303 -0.3030
   76MPD2    C5 1163   2.619   1.243  12.235 -0.6840  0.5506 -0.0323
   76MPD2     H 1164   2.488   1.000  11.965 -1.2007  1.2879  0.2499
   76MPD2    H1 1165   2.725   1.074  12.303  0.2438  1.3902  0.1684
   76MPD2    H2 1166   2.528   1.394  12.126  0.8396 -0.4282  0.4583
   76MPD2    H3 1167   2.652   1.304  12.318  3.2775 -1.5300 -0.0790
   76MPD2     N 1168   2.642   0.891  12.151  0.4766 -0.3295 -0.5386
   76MPD2    H5 1169   2.699   0.869  12.232  1.5471  0.9251 -0.9505
   76MPD2    N1 1170   2.418   1.278  11.937 -0.2000 -0.8413 -0.2586
   76MPD2    H7 1171   2.388   1.374  11.954 -0.3404 -0.9069 -0.1433
   77TCq2    C1 1172   2.603   0.787  12.068  0.0156  0.0019 -0.3877
   77TCq2    O2 1173   2.532   0.791  11.972  0.7883  0.4535  0.0646
   77TCq2    C2 1174   2.653   0.659  12.114 -0.1777  0.1771  0.0021
   77TCq2    C3 1175   2.562   0.559  12.096 -0.0302  0.4697 -0.1501
   77TCq2    C4 1176   2.591   0.441  12.148 -0.1700 -0.9200  0.4275
   77TCq2    C5 1177   2.703   0.424  12.223  0.0149 -0.1203 -0.0768
   77TCq2    C6 1178   2.787   0.528  12.246 -0.1875 -0.5558  0.9747
   77TCq2    C7 1179   2.772   0.651  12.181  0.0878  0.2328 -0.1194
   77TCq2    C8 1180   2.919   0.489  12.293  0.4932  0.1794 -0.2994
   77TCq2    O4 1181   2.948   0.372  12.297 -0.1593  0.0626 -0.5159
   77TCq2    C9 1182   2.514   0.329  12.131  0.3721  0.1516 -0.0532
   77TCq2    O5 1183   2.527   0.236  12.218  0.2096  0.0630  0.6907
   77TCq2    O6 1184   2.422   0.339  12.047  0.0076 -0.3509  0.5286
   77TCq2    H2 1185   2.470   0.580  12.042  0.4605  2.6400 -0.1449
   77TCq2    H3 1186   2.723   0.325  12.264  2.2037  0.3671  0.0196
   77TCq2    H4 1187   2.838   0.737  12.182  1.2595 -0.6343 -4.3633
   78MPD1     C 1188   3.987   0.615   2.493  0.9883  0.1384 -0.2244
   78MPD1    C1 1189   4.078   0.709   2.454 -0.1536 -0.4778 -0.1158
   78MPD1    C2 1190   4.211   0.672   2.431 -0.5533 -0.2942 -0.3503
   78MPD1    C3 1191   4.254   0.536   2.429  0.1597  0.0550 -1.2087
   78MPD1    C4 1192   4.155   0.445   2.450  1.1296  0.2524 -0.0005
   78MPD1    C5 1193   4.022   0.482   2.474  0.0970 -0.3036  0.6225
   78MPD1     H 1194   4.277   0.756   2.412 -0.5087 -0.7930 -2.4440
   78MPD1    H1 1195   4.180   0.340   2.444 -0.8727 -0.2759  1.0012
   78MPD1    H2 1196   3.882   0.631   2.515  0.7793  0.2542 -1.3036
   78MPD1    H3 1197   3.955   0.398   2.489 -0.5305  0.6072  2.7784
   78MPD1     N 1198   4.388   0.495   2.414  0.3481 -0.1893 -0.4462
   78MPD1    H5 1199   4.414   0.398   2.427 -0.0971 -0.0362  1.5357
   78MPD1    N1 1200   4.045   0.840   2.495 -0.1990  0.3485  0.1152
   78MPD1    H6 1201   3.944   0.854   2.495 -0.1864  0.3828  1.8034
   78MPD1    H7 1202   4.094   0.910   2.439 -0.8136  2.0597  1.7285
   79TCq2    C1 1203   4.493   0.585   2.389  0.0303 -0.6764 -0.0816
   79TCq2    O2 1204   4.488   0.698   2.344 -0.5862 -0.0550 -0.2650
   79TCq2    C2 1205   4.619   0.524   2.421 -0.1063  0.6125  0.6332
   79TCq2    C3 1206   4.623   0.485   2.551 -0.5276 -0.7229 -0.4135
   79TCq2    C4 1207   0.020   0.480   2.609 -0.1460 -0.0002 -0.8843
   79TCq2    C5 1208   0.132   0.518   2.541 -0.1630 -0.9803 -0.5307
   79TCq2    C6 1209   0.122   0.574   2.420  0.1201 -0.2230 -0.5429
   79TCq2    C7 1210   0.005   0.573   2.354  0.2465  0.3472  0.4970
   79TCq2    C8 1211   0.242   0.608   2.344  0.3923 -0.0210 -0.6035
   79TCq2    O4 1212   0.218   0.659   2.234  0.1121 -0.7575  0.1957
   79TCq2    C9 1213   0.030   0.434   2.743  0.3867 -0.4111  0.3487
   79TCq2    O5 1214   0.138   0.461   2.803 -0.8630  0.0101 -0.1461
   79TCq2    O6 1215   4.659   0.369   2.795 -0.0353 -0.5751  0.2606
   79TCq2    H2 1216   4.536   0.464   2.613  0.2611 -0.4841  0.7690
   79TCq2    H3 1217   0.228   0.516   2.591  0.9405 -0.2289 -2.5773
   79TCq2    H4 1218   4.703   0.620   2.260  2.3986 -0.0267 -0.2544
   80MPD2     C 1219   1.252   1.108  12.572  0.0176 -0.5145  0.9337
   80MPD2    C1 1220   1.137   1.147  12.501 -0.4221  0.2500  0.1500
   80MPD2    C2 1221   1.033   1.205  12.570 -0.5552  0.4214  0.2582
   80MPD2    C3 1222   1.037   1.212  12.712  0.1935  0.2741 -0.2488
   80MPD2    C4 1223   1.150   1.177  12.777  0.5997 -0.3366  0.2846
   80MPD2    C5 1224   1.256   1.118  12.711  0.0908 -0.0027 -0.2090
   80MPD2     H 1225   0.944   1.233  12.514 -0.4838  1.8373  0.8580
   80MPD2    H1 1226   1.159   1.168  12.885 -1.9745 -0.8899  0.4562
   80MPD2    H2 1227   1.347   1.080  12.528 -0.2132  1.5276 -0.8177
   80MPD2    H3 1228   1.349   1.106  12.766 -0.0632  2.0244  0.5162
   80MPD2     N 1229   0.924   1.261  12.784 -0.0667 -0.2801  0.4548
   80MPD2    H5 1230   0.926   1.263  12.885 -0.0525  0.9536  0.4283
   80MPD2    N1 1231   1.129   1.118  12.364 -0.2991 -0.4166 -0.0150
   80MPD2    H7 1232   1.034   1.110  12.328 -0.2182 -0.1691 -0.2819
   81TCq2    C1 1233   1.233   1.071  12.285  0.3871  0.7349  0.0296
   81TCq2    O2 1234   1.355   1.078  12.296 -0.1427 -0.2248  0.6896
   81TCq2    C2 1235   1.181   1.049  12.153  0.0763 -1.2987  0.3857
   81TCq2    C3 1236   1.262   1.073  12.047 -0.1680 -0.1027  0.0379
   81TCq2    C4 1237   1.212   1.045  11.917 -0.1350  0.5315  0.0770
   81TCq2    C5 1238   1.085   1.011  11.899 -0.1110 -0.8121  0.2720
   81TCq2    C6 1239   1.009   0.979  12.011  0.4833 -0.6447 -0.3968
   81TCq2    C7 1240   1.052   0.995  12.140 -0.2365 -0.3298 -0.1319
   81TCq2    C8 1241   0.886   0.903  11.995 -0.0429  0.5942 -0.0022
   81TCq2    O4 1242   0.818   0.950  11.906 -0.0658 -0.3251  0.0162
   81TCq2    C9 1243   1.288   1.060  11.788 -0.7938 -0.2206  0.1280
   81TCq2    O5 1244   1.221   1.084  11.685  0.0549 -0.1344 -0.3503
   81TCq2    O6 1245   1.404   1.099  11.805  0.5041  0.8831 -0.3208
   81TCq2    H2 1246   1.364   1.107  12.061 -0.2792 -0.4402  1.6578
   81TCq2    H3 1247   1.050   0.979  11.802 -0.0675  0.8070 -0.2788
   81TCq2    H4 1248   0.996   0.959  12.226  0.0058 -0.3138  0.0325
   82MPD2     C 1249   4.520   0.710  10.293 -0.2179 -0.0801 -0.3042
   82MPD2    C1 1250   4.434   0.606  10.295 -0.1032 -0.2081 -0.4140
   82MPD2    C2 1251   4.474   0.489  10.347 -0.5752 -0.1081 -0.1710
   82MPD2    C3 1252   4.602   0.475  10.391 -0.2369 -0.3043 -0.4076
   82MPD2    C4 1253   4.679   0.591  10.404 -0.1473  0.4144  0.0113
   82MPD2    C5 1254   4.646   0.706  10.348 -0.0367  0.2340 -0.3112
   82MPD2     H 1255   4.406   0.405  10.336 -0.9486  0.1930 -0.1410
   82MPD2    H1 1256   0.057   0.594  10.443  0.5642  1.0802 -1.8701
   82MPD2    H2 1257   4.479   0.804  10.258  1.3072  1.1869  1.2727
   82MPD2    H3 1258   4.703   0.798  10.353  2.3363 -1.2300 -0.5402
   82MPD2     N 1259   4.652   0.352  10.442 -0.2784 -0.5607  0.1350
   82MPD2    H5 1260   0.025   0.349  10.475 -1.3896 -1.6517  3.2071
   82MPD2    N1 1261   4.306   0.626  10.232  0.2233  0.3026  0.4127
   82MPD2    H7 1262   4.279   0.719  10.202 -1.8968 -0.5377 -0.2492
   83TCq2    C1 1263   4.576   0.235  10.465  0.1150  0.1231 -0.0212
   83TCq2    O2 1264   4.469   0.213  10.417  0.3958 -0.0046  0.1986
   83TCq2    C2 1265   4.649   0.125  10.525  0.0485 -0.8008 -0.1079
   83TCq2    C3 1266   0.061   0.135  10.560 -0.7718  0.7091 -0.0873
   83TCq2    C4 1267   0.119   0.038  10.633 -0.6065  0.3115  0.5475
   83TCq2    C5 1268   0.050   4.644  10.652  0.2538 -0.6805  0.7916
   83TCq2    C6 1269   4.642   4.629  10.601 -0.1078 -0.4639 -0.2231
   83TCq2    C7 1270   4.584   0.011  10.531  0.1713  0.0873  0.2276
   83TCq2    C8 1271   4.557   4.531  10.665  0.0648 -0.1721  0.1869
   83TCq2    O4 1272   4.587   4.501  10.781 -0.4528 -0.1894 -0.0131
   83TCq2    C9 1273   0.247   0.057  10.695 -0.7290  0.4161 -0.2662
   83TCq2    O5 1274   0.270   0.173  10.733  0.6727 -0.0550 -0.2876
   83TCq2    O6 1275   0.305   4.677  10.738 -0.3558 -0.4923 -0.2675
   83TCq2    H2 1276   0.112   0.231  10.559  1.9509 -0.7212  1.4147
   83TCq2    H3 1277   0.089   4.565  10.715  0.6726 -0.5327  0.7160
   83TCq2    H4 1278   4.479   0.012  10.507  0.4207  1.2491 -0.8311
   84TCq2    C1 1279   1.311   3.525  10.225 -0.1036  0.5499  0.4281
   84TCq2    O2 1280   1.227   3.445  10.187 -0.0545  1.0990  0.1213
   84TCq2    C2 1281   1.313   3.552  10.365  0.2555 -0.0296  0.4121
   84TCq2    C3 1282   1.408   3.633  10.428 -0.8837  0.2475  0.1661
   84TCq2    C4 1283   1.393   3.658  10.558  0.0459  0.5365  0.0611
   84TCq2    C5 1284   1.292   3.608  10.636 -0.1068  0.2449 -0.0046
   84TCq2    C6 1285   1.194   3.535  10.569  0.0853 -0.0746  0.1215
   84TCq2    C7 1286   1.209   3.503  10.433 -0.2108  0.3551 -0.3269
   84TCq2    C8 1287   1.060   3.525  10.621 -0.6255 -0.7087  0.8346
   84TCq2    O4 1288   0.976   3.490  10.540 -0.1696 -0.6891 -0.2534
   84TCq2    C9 1289   1.498   3.735  10.618 -0.1758  0.2950 -0.1319
   84TCq2    O5 1290   1.516   3.846  10.558 -0.0904 -0.4021  0.3115
   84TCq2    O6 1291   1.537   3.706  10.734  0.2238 -0.5795  0.3634
   84TCq2    H2 1292   1.500   3.663  10.381  0.5581 -0.4480  2.5483
   84TCq2    H3 1293   1.289   3.626  10.743  2.2946  1.1218 -0.0841
   84TCq2    H4 1294   1.131   3.445  10.386  1.1485 -1.7857  0.0682
   85MPD2     C 1295   0.590   2.265  16.384 -0.3717  0.3191  0.7680
   85MPD2    C1 1296   0.686   2.219  16.298 -0.1843 -0.2868 -0.2666
   85MPD2    C2 1297   0.779   2.303  16.251 -0.2132 -0.6376 -0.1904
   85MPD2    C3 1298   0.771   2.443  16.283 -0.4225 -0.6840 -0.2416
   85MPD2    C4 1299   0.676   2.494  16.363 -0.1521  0.1335  0.6202
   85MPD2    C5 1300   0.589   2.399  16.413 -1.3417 -0.1976 -0.6268
   85MPD2     H 1301   0.852   2.268  16.179  0.0379  0.2617 -0.3623
   85MPD2    H1 1302   0.669   2.599  16.389 -1.0876  0.0241  0.8141
   85MPD2    H2 1303   0.506   2.208  16.420 -0.0683  0.3944  1.5902
   85MPD2    H3 1304   0.508   2.433  16.477 -0.9470  0.2869 -0.3866
   85MPD2     N 1305   0.844   2.535  16.204  0.2372 -0.3955  0.2805
   85MPD2    H5 1306   0.887   2.496  16.120 -0.9475  0.2352 -0.6354
   85MPD2    N1 1307   0.700   2.081  16.259  0.0013  0.3713 -0.0223
   85MPD2    H7 1308   0.780   2.055  16.203 -0.8769  0.2558 -1.2304
   86TCq2    C1 1309   0.886   2.661  16.233  0.4500 -0.7566  0.4294
   86TCq2    O2 1310   0.869   2.722  16.336  0.6964  0.5408 -0.2507
   86TCq2    C2 1311   0.969   2.722  16.131  0.1846 -0.1417  0.3334
   86TCq2    C3 1312   0.964   2.857  16.123  0.0782  0.1413 -0.0935
   86TCq2    C4 1313   1.033   2.916  16.017 -0.5587  0.0690  0.2902
   86TCq2    C5 1314   1.070   2.839  15.907  0.6125  0.0239 -0.0321
   86TCq2    C6 1315   1.059   2.701  15.918 -0.0737 -0.6563  0.2693
   86TCq2    C7 1316   1.026   2.641  16.040  0.0452 -0.0026  0.2926
   86TCq2    C8 1317   1.128   2.631  15.816 -0.4216  0.4374  0.3965
   86TCq2    O4 1318   1.186   2.526  15.852 -0.5297  0.2045  0.2382
   86TCq2    C9 1319   1.035   3.056  16.002  0.2380  0.0664  0.1350
   86TCq2    O5 1320   0.929   3.119  16.032  0.3118 -0.0498 -0.4260
   86TCq2    O6 1321   1.129   3.103  15.927 -0.5186 -0.5109  0.4262
   86TCq2    H2 1322   0.916   2.912  16.203 -0.8517 -0.0040 -0.5477
   86TCq2    H3 1323   1.124   2.881  15.823 -0.0313  2.0001  0.5462
   86TCq2    H4 1324   1.037   2.533  16.050 -0.2881 -0.0988 -0.4171
   87MPD2     C 1325   3.059   1.277   1.506  0.0078 -0.3945 -0.3824
   87MPD2    C1 1326   3.134   1.264   1.392 -0.0813  0.3759  0.5964
   87MPD2    C2 1327   3.080   1.311   1.271 -0.2593  0.0548 -0.2906
   87MPD2    C3 1328   2.962   1.389   1.271 -0.6372 -0.5778 -0.2574
   87MPD2    C4 1329   2.896   1.401   1.390  0.1957 -0.0438 -0.1778
   87MPD2    C5 1330   2.941   1.346   1.509  0.0642  0.2999  0.2098
   87MPD2     H 1331   3.137   1.298   1.180 -1.1127 -0.0241 -0.8096
   87MPD2    H1 1332   2.803   1.457   1.387 -0.5180 -1.1643  0.8450
   87MPD2    H2 1333   3.086   1.238   1.604 -1.9754 -2.6250 -0.7292
   87MPD2    H3 1334   2.893   1.371   1.603 -2.8519 -0.8779 -0.9782
   87MPD2     N 1335   2.893   1.425   1.153 -0.0857  0.1705 -0.6597
   87MPD2    H5 1336   2.799   1.459   1.173 -0.3368 -0.4680 -0.7696
   87MPD2    N1 1337   3.261   1.199   1.399  0.4625 -0.1879  0.4587
   87MPD2    H7 1338   3.284   1.165   1.492 -1.9152 -0.9840  0.7625
   88TCq2    C1 1339   3.350   1.190   1.295  0.2760  0.6571 -0.4473
   88TCq2    O2 1340   3.341   1.227   1.180  0.1767  0.0140 -0.9596
   88TCq2    C2 1341   3.473   1.123   1.327 -0.3766  0.1272 -0.1178
   88TCq2    C3 1342   3.524   1.123   1.454 -0.2600  0.5310 -1.0789
   88TCq2    C4 1343   3.637   1.056   1.492  0.2025 -0.7503  0.1233
   88TCq2    C5 1344   3.700   0.983   1.394 -0.0654  0.0923  0.2625
   88TCq2    C6 1345   3.649   0.989   1.264 -0.3469 -0.2162  0.0754
   88TCq2    C7 1346   3.542   1.059   1.226  0.2100  0.7058 -0.0759
   88TCq2    C8 1347   3.747   0.942   1.163 -0.1877  0.1800  0.2443
   88TCq2    O4 1348   3.743   1.000   1.053  0.4857 -0.2400  0.2259
   88TCq2    C9 1349   3.658   1.024   1.630 -0.0523 -0.0717 -0.0478
   88TCq2    O5 1350   3.753   0.945   1.658 -0.5574 -0.0033  0.0647
   88TCq2    O6 1351   3.556   1.036   1.701  0.5947 -0.3137 -0.1675
   88TCq2    H2 1352   3.469   1.178   1.530 -0.4810 -0.7483 -0.3172
   88TCq2    H3 1353   3.790   0.930   1.421 -1.0980 -1.3393  0.8888
   88TCq2    H4 1354   3.503   1.053   1.125  1.7458 -0.7174 -0.5945
   89MPD2     C 1355   4.395   2.494   1.392  0.2414 -0.4716 -0.2612
   89MPD2    C1 1356   4.270   2.562   1.392 -0.6654  0.4595 -0.2034
   89MPD2    C2 1357   4.262   2.700   1.376 -0.0820 -0.4982  0.3294
   89MPD2    C3 1358   4.375   2.777   1.338 -0.1101  0.8629  0.1906
   89MPD2    C4 1359   4.496   2.700   1.319 -0.1346 -0.0966 -0.0904
   89MPD2    C5 1360   4.504   2.570   1.355  0.3777  0.3693 -0.0025
   89MPD2     H 1361   4.169   2.754   1.387  1.2254  1.8840 -0.5055
   89MPD2    H1 1362   4.591   2.735   1.282  0.5244  0.6603  2.2763
   89MPD2    H2 1363   4.413   2.387   1.393 -1.7509 -0.7931  1.3294
   89MPD2    H3 1364   4.600   2.529   1.326  0.5453  0.6109  0.2134
   89MPD2     N 1365   4.350   2.915   1.315 -0.0900  0.1204 -0.4844
   89MPD2    H5 1366   4.255   2.951   1.312  0.0961  0.7104  0.6773
   89MPD2    N1 1367   4.149   2.492   1.410  0.0931 -0.0247  0.1869
   89MPD2    H7 1368   4.067   2.547   1.388 -0.6512 -1.0412  0.4276
   90TCq2    C1 1369   4.451   2.996   1.276 -0.3665 -0.4696 -0.2692
   90TCq2    O2 1370   4.567   2.966   1.265  0.0722  0.1674 -0.0782
   90TCq2    C2 1371   4.400   3.134   1.248  0.2346 -0.0562  0.3458
   90TCq2    C3 1372   4.277   3.168   1.299 -0.0350  0.3674  0.0679
   90TCq2    C4 1373   4.207   3.267   1.234  0.0794 -0.3259 -0.3762
   90TCq2    C5 1374   4.259   3.320   1.118 -0.8940 -0.3430  0.8852
   90TCq2    C6 1375   4.384   3.295   1.086  0.1585  0.1179  0.5739
   90TCq2    C7 1376   4.464   3.202   1.149 -0.0576 -0.2221  0.1367
   90TCq2    C8 1377   4.442   3.361   0.973  0.3205  0.0519  1.0034
   90TCq2    O4 1378   4.542   3.319   0.919  0.1745 -0.0654 -0.0227
   90TCq2    C9 1379   4.077   3.307   1.280  0.2201 -0.5744  0.0741
   90TCq2    O5 1380   4.025   3.413   1.234 -0.3282  0.6154  0.5492
   90TCq2    O6 1381   4.012   3.223   1.356 -0.2487 -0.3310  0.0098
   90TCq2    H2 1382   4.231   3.123   1.386 -0.2449 -1.3870 -0.9477
   90TCq2    H3 1383   4.202   3.397   1.067  1.6853  0.5184 -0.7228
   90TCq2    H4 1384   4.548   3.153   1.101  0.7065 -0.3425  1.6087
   91TMC2    C1 1385   1.321   3.232  16.762  0.3928  0.0927 -0.5850
   91TMC2    C2 1386   1.343   3.350  16.697  0.4748 -0.3025 -0.1058
   91TMC2    C3 1387   1.239   3.426  16.663  0.5676 -0.1863  0.1200
   91TMC2    C4 1388   1.193   3.196  16.808 -0.0160  0.6552 -0.2230
   91TMC2    C5 1389   1.088   3.271  16.757  0.2928 -0.5899  0.3179
   91TMC2    C6 1390   1.115   3.392  16.700 -0.0392 -0.3122 -0.3155
   91TMC2     C 1391   1.415   3.122  16.749 -1.4703  0.4598  0.8980
   91TMC2     O 1392   1.367   3.011  16.776 -1.1328 -0.3368 -0.6824
   91TMC2     H 1393   1.440   3.379  16.658  0.1875  0.6362 -0.1111
   91TMC2    H1 1394   1.169   3.105  16.862 -0.4907  1.6228  1.1862
   91TMC2    H2 1395   1.040   3.468  16.682  0.7184  0.3029 -0.8727
   91TMC2    C7 1396   0.955   3.219  16.760 -0.1687 -0.2554 -0.0462
   91TMC2    C8 1397   1.258   3.563  16.616  0.2369 -0.3755 -0.4329
   91TMC2    O1 1398   0.927   3.154  16.858  0.5091  0.4997  0.1866
   91TMC2    O2 1399   1.367   3.608  16.615  0.2829 -0.2073 -0.0575
   91TMC2    O5 1400   1.165   3.583  16.519  0.3293 -0.1326 -0.1493
   91TMC2    H5 1401   1.085   3.528  16.529  0.8154 -1.0251 -1.1791
   92MPD2     C 1402   1.673   2.954  16.714 -0.2522  0.1979  0.5781
   92MPD2    C1 1403   1.667   3.088  16.728  0.1379 -0.4220 -0.2266
   92MPD2    C2 1404   1.788   3.160  16.736  0.5092 -0.3760 -0.1487
   92MPD2    C3 1405   1.909   3.104  16.733  1.0084  1.0216  0.1557
   92MPD2    C4 1406   1.916   2.971  16.699  0.1510  0.3945  0.6044
   92MPD2    C5 1407   1.801   2.900  16.703  0.1857 -0.7342 -0.7106
   92MPD2     H 1408   1.789   3.267  16.751 -2.0808 -0.4694  0.7703
   92MPD2    H1 1409   2.012   2.928  16.670  0.5368  1.7909 -0.1860
   92MPD2    H2 1410   1.586   2.890  16.703 -0.8361  0.3409  4.1349
   92MPD2    H3 1411   1.820   2.795  16.683 -1.2591 -1.3172  0.9265
   92MPD2     N 1412   2.025   3.184  16.743 -0.4914 -0.4322 -0.0095
   92MPD2    H5 1413   2.016   3.284  16.752 -5.5474 -1.0751  1.9484
   92MPD2    N1 1414   1.543   3.167  16.732  0.1675 -0.1506 -0.0331
   92MPD2    H7 1415   1.555   3.267  16.722  0.1902  0.0447  1.8727
   93MPD2     C 1416   2.669   3.012  13.569 -0.9254 -0.0651 -0.3969
   93MPD2    C1 1417   2.606   3.094  13.660 -0.1155  0.2130  0.1286
   93MPD2    C2 1418   2.474   3.080  13.688  0.2670 -1.5929 -0.8674
   93MPD2    C3 1419   2.393   3.003  13.612  0.1233  0.3256 -0.6452
   93MPD2    C4 1420   2.456   2.912  13.526 -0.3658 -0.3541 -0.0935
   93MPD2    C5 1421   2.594   2.911  13.514 -0.2099 -0.2238 -0.8515
   93MPD2     H 1422   2.436   3.144  13.767 -2.4229 -1.5794 -2.1593
   93MPD2    H1 1423   2.397   2.846  13.464  2.2552 -0.2966 -2.6134
   93MPD2    H2 1424   2.773   3.021  13.540 -0.6851  2.3692  1.2138
   93MPD2    H3 1425   2.653   2.838  13.462  0.6990 -1.4560  1.9357
   93MPD2     N 1426   2.251   3.008  13.624  0.5378 -0.3779 -0.5336
   93MPD2    H5 1427   2.218   3.075  13.693  0.9209 -0.9637  0.2183
   93MPD2    N1 1428   2.678   3.201  13.726  0.1242  0.0203 -0.4250
   93MPD2    H7 1429   2.620   3.263  13.782 -0.2054 -1.2249  0.6105
   94TCq2    C1 1430   2.813   3.222  13.722  0.2154  0.2133  0.1056
   94TCq2    O2 1431   2.903   3.170  13.657 -0.6169 -0.1793 -0.0538
   94TCq2    C2 1432   2.847   3.351  13.776 -0.4248 -0.0036  0.4612
   94TCq2    C3 1433   2.756   3.460  13.774 -0.0243  1.0084 -0.2750
   94TCq2    C4 1434   2.803   3.588  13.785 -0.9339  0.9682 -0.6134
   94TCq2    C5 1435   2.938   3.617  13.801  0.1450 -0.7970 -0.2258
   94TCq2    C6 1436   3.024   3.504  13.807 -0.4311  0.3321 -0.2866
   94TCq2    C7 1437   2.980   3.372  13.800  0.3060 -0.4031 -0.3320
   94TCq2    C8 1438   3.164   3.534  13.800 -0.3229 -0.4017 -0.4487
   94TCq2    O4 1439   3.240   3.449  13.745  0.0839  0.5653 -0.5663
   94TCq2    C9 1440   2.718   3.695  13.769 -0.3117  0.2997 -0.2150
   94TCq2    O5 1441   2.767   3.811  13.770  0.2181  0.0988 -0.2416
   94TCq2    O6 1442   2.599   3.676  13.728  0.0993  0.0031 -0.2006
   94TCq2    H2 1443   2.651   3.441  13.755 -0.2150  1.2501  0.5684
   94TCq2    H3 1444   2.968   3.720  13.787  0.1988 -0.6699  0.7874
   94TCq2    H4 1445   3.051   3.291  13.790  0.8373  0.0367 -0.1364
   95TMC2    C1 1446   2.668   0.231  16.181 -0.8419 -0.0071 -0.3592
   95TMC2    C2 1447   2.681   0.269  16.312  0.2861 -0.5197  0.5034
   95TMC2    C3 1448   2.583   0.230  16.400  0.3609  0.1954 -0.8816
   95TMC2    C4 1449   2.554   0.164  16.137 -0.6670 -0.4062  0.8006
   95TMC2    C5 1450   2.467   0.109  16.224  0.0050 -1.3844 -0.1941
   95TMC2    C6 1451   2.481   0.138  16.360 -0.3796  0.3884 -0.0906
   95TMC2     C 1452   2.766   0.283  16.088  0.1224  0.3515  0.4980
   95TMC2     O 1453   2.814   0.392  16.115 -1.0270 -0.4164  0.2074
   95TMC2     H 1454   2.775   0.315  16.340 -0.0150  0.9796 -0.9477
   95TMC2    H1 1455   2.544   0.134  16.033  2.5800 -1.7995  0.8883
   95TMC2    H2 1456   2.407   0.093  16.426  0.0153 -0.0733  0.0322
   95TMC2    C7 1457   2.355   0.021  16.185  0.3219  0.2711  0.7161
   95TMC2    C8 1458   2.630   0.223  16.539 -0.0491  0.3113 -0.5234
   95TMC2    O1 1459   2.264   0.008  16.269  0.7913  0.2084 -0.1084
   95TMC2    O2 1460   2.744   0.244  16.579 -0.4394  0.1721  0.3628
   95TMC2    O5 1461   2.523   0.259  16.609 -0.0638  0.5082 -0.2844
   95TMC2    H5 1462   2.442   0.263  16.555 -0.8710  0.0739  0.9084
   96MPD2     C 1463   2.934   0.308  15.605  0.1231 -1.2785  0.6376
   96MPD2    C1 1464   2.941   0.400  15.700  0.0398  0.2081  0.3275
   96MPD2    C2 1465   2.895   0.375  15.828 -0.2442  0.4843 -0.0327
   96MPD2    C3 1466   2.841   0.254  15.856 -0.2147  0.1659  0.3449
   96MPD2    C4 1467   2.839   0.153  15.759 -0.5183  0.1895  0.7974
   96MPD2    C5 1468   2.881   0.183  15.637 -0.3672  0.3843  0.4406
   96MPD2     H 1469   2.882   0.460  15.894  0.3842  1.8065 -1.6271
   96MPD2    H1 1470   2.798   0.056  15.783 -0.4347  0.1296  0.6933
   96MPD2    H2 1471   2.964   0.324  15.502 -1.8614  0.8977  0.3770
   96MPD2    H3 1472   2.874   0.102  15.565 -0.9769  0.7812  0.0579
   96MPD2     N 1473   2.775   0.211  15.975  0.1277 -0.1990 -0.0387
   96MPD2    H5 1474   2.731   0.120  15.970 -1.8967  0.8405 -1.0728
   96MPD2    N1 1475   2.989   0.528  15.654  0.1011  0.4587  0.6118
   96MPD2    H7 1476   3.016   0.540  15.557  1.3899  0.8094  1.0066
   97MPD2     C 1477   0.804   2.729   0.735  0.1848  0.9334 -0.4136
   97MPD2    C1 1478   0.669   2.718   0.700  0.9400 -0.3829  0.7311
   97MPD2    C2 1479   0.625   2.834   0.634 -0.1661  0.8023  0.1940
   97MPD2    C3 1480   0.695   2.952   0.610 -0.6181  0.2839  0.5680
   97MPD2    C4 1481   0.826   2.950   0.649 -0.0710  0.0465 -0.1177
   97MPD2    C5 1482   0.885   2.839   0.705 -0.6239  0.9704  0.2759
   97MPD2     H 1483   0.519   2.825   0.609  0.3652 -1.5806 -1.2282
   97MPD2    H1 1484   0.886   3.039   0.637 -0.2585  0.3867  1.4485
   97MPD2    H2 1485   0.847   2.639   0.776 -1.3233  0.0655 -0.7267
   97MPD2    H3 1486   0.989   2.829   0.736 -1.0068 -0.5843  1.0492
   97MPD2     N 1487   0.658   3.064   0.528 -0.2522 -0.2072 -0.0106
   97MPD2    H5 1488   0.727   3.137   0.523  0.4547 -0.7298  2.0684
   97MPD2    N1 1489   0.598   2.601   0.738  0.9277 -0.1460 -0.2787
   97MPD2    H7 1490   0.639   2.533   0.801 -0.9128 -0.8309  0.1944
   98TCq2    C1 1491   0.539   3.076   0.452  0.1875 -0.1092 -0.2592
   98TCq2    O2 1492   0.452   2.992   0.439 -0.0359 -0.1747  0.2674
   98TCq2    C2 1493   0.529   3.195   0.367 -1.0446  0.0994  1.1606
   98TCq2    C3 1494   0.432   3.187   0.269 -0.0560 -0.5915 -0.5071
   98TCq2    C4 1495   0.374   3.297   0.214  0.5711  0.0673 -0.1889
   98TCq2    C5 1496   0.404   3.415   0.266 -0.2974  0.5486 -0.4192
   98TCq2    C6 1497   0.502   3.432   0.361  0.5179  1.1760  0.2405
   98TCq2    C7 1498   0.568   3.317   0.411  0.2308  0.2744  1.3779
   98TCq2    C8 1499   0.554   3.572   0.388  0.8316  0.0668  0.1032
   98TCq2    O4 1500   0.655   3.568   0.451  0.0562 -0.0138 -0.3468
   98TCq2    C9 1501   0.273   3.287   0.113  0.4310 -0.5538 -0.6575
   98TCq2    O5 1502   0.294   3.198   0.032  0.2591  0.4606  0.0011
   98TCq2    O6 1503   0.205   3.388   0.091 -0.0213 -0.4646  0.1421
   98TCq2    H2 1504   0.391   3.091   0.241 -3.1960  0.2837  1.0734
   98TCq2    H3 1505   0.353   3.499   0.219 -0.7031  1.5887  1.8630
   98TCq2    H4 1506   0.630   3.315   0.499  1.2055  0.4623  0.6881
   99MPD2     C 1507   4.232   0.106   1.781 -1.0044  0.6019  0.3752
   99MPD2    C1 1508   4.096   0.092   1.810  0.0123 -0.8908  0.3791
   99MPD2    C2 1509   4.015   0.040   1.716  0.1606 -0.0760 -0.1879
   99MPD2    C3 1510   4.060   0.000   1.585  0.0653 -0.0941 -0.2955
   99MPD2    C4 1511   4.193   0.025   1.561 -0.1321  0.5554 -0.2711
   99MPD2    C5 1512   4.276   0.063   1.660 -0.4365 -0.4359 -0.3123
   99MPD2     H 1513   3.912   0.017   1.739  0.0602  1.4160  0.8231
   99MPD2    H1 1514   4.233   0.013   1.460  1.3838 -0.9046  0.5026
   99MPD2    H2 1515   4.302   0.138   1.858 -2.2552  0.4018  1.6083
   99MPD2    H3 1516   4.382   0.075   1.644 -0.7246  2.5176 -0.0381
   99MPD2     N 1517   3.971   4.657   1.500 -0.1003 -0.3547 -0.2399
   99MPD2    H5 1518   3.875   4.642   1.528 -0.4093  2.4514  0.1901
   99MPD2    N1 1519   4.042   0.101   1.942 -0.2179 -0.2081  0.1217
   99MPD2    H7 1520   3.949   0.072   1.969 -0.4722  0.8809  0.4268
  100TCq2    C1 1521   4.117   0.142   2.052  0.0875 -0.2212 -0.4102
  100TCq2    O2 1522   4.231   0.182   2.057 -0.0431 -0.2837  0.4282
  100TCq2    C2 1523   4.043   0.137   2.177 -0.3231 -0.0495  0.5143
  100TCq2    C3 1524   4.111   0.097   2.291 -1.0313 -0.1272 -0.4201
  100TCq2    C4 1525   4.041   0.074   2.404 -0.6414 -0.1867 -0.1908
  100TCq2    C5 1526   3.904   0.086   2.405  0.5977  0.0225  0.2420
  100TCq2    C6 1527   3.839   0.114   2.287 -0.2020  0.2273  0.4644
  100TCq2    C7 1528   3.910   0.157   2.175  0.2122 -0.1548 -0.6344
  100TCq2    C8 1529   3.704   0.165   2.300  0.0106  0.9306  0.0486
  100TCq2    O4 1530   3.666   0.189   2.415  0.1557  0.2760 -0.0597
  100TCq2    C9 1531   4.113   0.039   2.522  0.4472  0.1484 -0.4995
  100TCq2    O5 1532   4.057   0.054   2.638  0.2268  0.2385  0.1994
  100TCq2    O6 1533   4.234   0.009   2.504  0.2388 -0.8405  0.4250
  100TCq2    H2 1534   4.219   0.089   2.294 -1.2152 -2.0947  1.4949
  100TCq2    H3 1535   3.846   0.048   2.488  1.6084 -1.1905  0.3916
  100TCq2    H4 1536   3.850   0.189   2.090 -0.7057  0.4721  0.2412
  101MPD2     C 1537   4.512   1.150  13.301  0.0650  0.3914 -0.6185
  101MPD2    C1 1538   4.381   1.196  13.317 -0.7105  0.1146 -0.2508
  101MPD2    C2 1539   4.277   1.110  13.353  0.1592  0.2017 -0.2876
  101MPD2    C3 1540   4.305   0.979  13.379 -0.4119 -0.4763 -0.1093
  101MPD2    C4 1541   4.437   0.937  13.366 -0.0670 -0.1093 -0.5313
  101MPD2    C5 1542   4.538   1.022  13.337 -0.2741  0.6978  0.4078
  101MPD2     H 1543   4.174   1.142  13.354  0.0277 -0.1740 -1.3330
  101MPD2    H1 1544   4.461   0.834  13.388  2.6071  0.2942 -1.4322
  101MPD2    H2 1545   4.595   1.212  13.266 -0.3643  1.6032  0.4950
  101MPD2    H3 1546   4.637   0.979  13.330 -1.2754 -1.5989  0.2612
  101MPD2     N 1547   4.195   0.900  13.416 -0.0750  0.4652 -1.2863
  101MPD2    H5 1548   4.106   0.939  13.442  0.5336  0.8349  0.2194
  101MPD2    N1 1549   4.353   1.332  13.286 -0.3144 -0.2602 -0.2869
  101MPD2    H7 1550   4.421   1.390  13.239 -1.2988  0.2123 -1.1214
  102TCq2    C1 1551   4.375   1.663  12.952  0.3768  1.6371  0.2557
  102TCq2    O2 1552   4.454   1.576  12.936 -0.3784  0.6797  0.5599
  102TCq2    C2 1553   4.286   1.651  13.068 -0.1129 -0.0203  0.2305
  102TCq2    C3 1554   4.238   1.765  13.134  0.0801  0.0713  0.1807
  102TCq2    C4 1555   4.200   1.753  13.260  0.1329  0.1147 -0.0700
  102TCq2    C5 1556   4.178   1.633  13.319  0.3739  0.4940 -0.9714
  102TCq2    C6 1557   4.235   1.522  13.255  0.1026  0.0365  0.2595
  102TCq2    C7 1558   4.286   1.529  13.132 -0.2464  0.0504 -0.2294
  102TCq2    C8 1559   4.236   1.398  13.321 -0.6362 -0.3769 -0.3037
  102TCq2    O4 1560   4.145   1.374  13.403  0.0545 -0.0263 -0.3588
  102TCq2    C9 1561   4.141   1.866  13.340  0.7966 -0.4036  0.2887
  102TCq2    O5 1562   4.171   1.980  13.297 -0.1349 -0.0099  0.5973
  102TCq2    O6 1563   4.081   1.839  13.444 -0.2207 -0.3841  0.3080
  102TCq2    H2 1564   4.235   1.866  13.095  0.2191  0.3792  0.9837
  102TCq2    H3 1565   4.136   1.626  13.418 -1.9563  0.9287 -1.9273
  102TCq2    H4 1566   4.300   1.431  13.090 -0.0310  0.1452 -0.3766
  103TMC2    C1 1567   3.543   0.927  12.667 -0.2449  0.2053  0.2082
  103TMC2    C2 1568   3.673   0.968  12.664 -0.3799 -0.1161 -0.7149
  103TMC2    C3 1569   3.708   1.071  12.744  0.2263 -0.5191 -0.1507
  103TMC2    C4 1570   3.454   0.981  12.765 -0.2396 -0.4428  0.7127
  103TMC2    C5 1571   3.490   1.080  12.849  0.7126  0.2392  0.0740
  103TMC2    C6 1572   3.617   1.131  12.831 -0.1337 -0.3310  0.8893
  103TMC2     C 1573   3.505   0.811  12.600  0.0472  0.5801 -0.5139
  103TMC2     O 1574   3.592   0.731  12.570 -0.2944  0.2566  0.0186
  103TMC2     H 1575   3.744   0.924  12.595  0.8278 -0.0416  0.4831
  103TMC2    H1 1576   3.373   0.910  12.779  1.2134 -2.2416  0.0112
  103TMC2    H2 1577   3.649   1.204  12.905  2.2286 -1.2879  0.7876
  103TMC2    C7 1578   3.384   1.154  12.922  0.2752  0.0670  0.0212
  103TMC2    C8 1579   3.827   1.143  12.722  0.1436 -0.6022  0.2821
  103TMC2    O1 1580   3.272   1.136  12.886  0.3838 -0.1370 -0.8071
  103TMC2    O2 1581   3.841   1.262  12.758  0.0144 -0.0272 -0.0107
  103TMC2    O5 1582   3.936   1.068  12.708  0.9003 -0.0639 -0.6056
  103TMC2    H5 1583   3.918   0.973  12.687  1.4094  0.0764 -1.6787
  104MPD2     C 1584   3.367   0.566  12.522  0.0763 -0.2932 -0.6889
  104MPD2    C1 1585   3.307   0.685  12.516  0.2234  0.2570  0.2759
  104MPD2    C2 1586   3.188   0.695  12.449  0.0202  1.0596 -0.2064
  104MPD2    C3 1587   3.125   0.581  12.400  0.4923  0.1913 -0.2801
  104MPD2    C4 1588   3.193   0.459  12.399 -0.6431 -0.4714  0.3101
  104MPD2    C5 1589   3.309   0.451  12.470  0.1161 -0.3916  0.0037
  104MPD2     H 1590   3.134   0.788  12.446 -1.1784  0.3062 -1.9428
  104MPD2    H1 1591   3.157   0.366  12.358 -0.7457 -0.9428  1.4601
  104MPD2    H2 1592   3.460   0.550  12.574  0.3015 -1.4390 -1.4372
  104MPD2    H3 1593   3.359   0.355  12.476  1.2845  0.1726 -0.5912
  104MPD2     N 1594   2.992   0.594  12.344 -0.3109 -0.3148  0.5809
  104MPD2    H5 1595   2.948   0.685  12.352 -0.4018 -0.4283  1.3919
  104MPD2    N1 1596   3.372   0.804  12.562  0.1101 -0.3298  0.2651
  104MPD2    H7 1597   3.313   0.885  12.577  0.8237  0.4885 -1.2389
  105MPD2     C 1598   4.598   0.572  17.580  0.5424 -0.7013 -0.5778
  105MPD2    C1 1599   4.493   0.663  17.577 -0.7815 -0.1791 -0.3133
  105MPD2    C2 1600   4.467   0.723   0.004 -0.4442 -0.9908  0.0203
  105MPD2    C3 1601   4.521   0.692   0.130 -0.1342 -0.5371  0.5695
  105MPD2    C4 1602   4.618   0.595   0.129 -0.2758  0.3337  0.3624
  105MPD2    C5 1603   4.650   0.537   0.009  0.5066  0.1666 -0.6525
  105MPD2     H 1604   4.387   0.795  17.688 -0.4446 -1.1136 -0.8600
  105MPD2    H1 1605   4.677   0.562   0.213  1.4963  0.8300 -0.6795
  105MPD2    H2 1606   4.627   0.508  17.497  0.6279  0.2961 -1.3087
  105MPD2    H3 1607   0.012   0.470   0.006  0.0620 -0.5305  2.2064
  105MPD2     N 1608   4.481   0.756   0.251 -0.0109  0.1704  0.3255
  105MPD2    H5 1609   4.408   0.826   0.239 -1.0453 -0.9156  0.3348
  105MPD2    N1 1610   4.433   0.707  17.455 -0.5477  0.5040  0.1685
  105MPD2    H7 1611   4.358   0.775  17.460 -0.0405  1.1808 -1.3994
  106TCq2    C1 1612   4.502   0.712   0.381 -0.1480 -0.2765  0.6935
  106TCq2    O2 1613   4.568   0.608   0.423  0.0474 -0.2278  0.3759
  106TCq2    C2 1614   4.433   0.792   0.480  0.6134 -0.1993  0.6150
  106TCq2    C3 1615   4.409   0.924   0.463 -0.0236  0.1848 -0.6483
  106TCq2    C4 1616   4.335   0.988   0.555  0.7432 -0.2799  0.8707
  106TCq2    C5 1617   4.281   0.924   0.663 -0.6827  0.4114 -0.7539
  106TCq2    C6 1618   4.302   0.787   0.678  0.6490 -0.0626  0.2939
  106TCq2    C7 1619   4.372   0.718   0.580  0.4827 -0.1957  0.1390
  106TCq2    C8 1620   4.234   0.706   0.775  0.2314  0.4550 -1.3866
  106TCq2    O4 1621   4.266   0.588   0.781  0.5215  0.2241  0.3763
  106TCq2    C9 1622   4.324   1.128   0.543  0.4704 -0.6319 -0.6387
  106TCq2    O5 1623   4.266   1.183   0.641 -0.4485  0.1761 -0.4781
  106TCq2    O6 1624   4.371   1.185   0.438  0.3479  0.5709  0.0953
  106TCq2    H2 1625   4.478   0.977   0.397  0.6652 -0.4462 -0.4352
  106TCq2    H3 1626   4.224   0.988   0.730 -2.3723 -1.9302  0.0284
  106TCq2    H4 1627   4.379   0.610   0.578  0.0828 -0.2231  0.2624
  107TMC2    C1 1628   0.711   3.902  11.568  0.4349 -0.3294  0.0671
  107TMC2    C2 1629   0.846   3.878  11.604 -0.0110  0.1058  0.9955
  107TMC2    C3 1630   0.931   3.809  11.521  0.1480  0.3552  0.3630
  107TMC2    C4 1631   0.673   3.848  11.445 -0.1299  0.5974  0.0403
  107TMC2    C5 1632   0.764   3.788  11.363 -0.1045  0.8278 -0.0341
  107TMC2    C6 1633   0.894   3.760  11.402  0.4510 -0.7397  0.5471
  107TMC2     C 1634   0.630   4.010  11.630 -1.1514  0.6955 -0.6261
  107TMC2     O 1635   0.526   4.029  11.573  0.0269  0.1605  0.2604
  107TMC2     H 1636   0.893   3.920  11.692 -0.1737  0.3886  0.9467
  107TMC2    H1 1637   0.568   3.841  11.420 -0.1136 -1.4643  0.5279
  107TMC2    H2 1638   0.961   3.691  11.351  2.2260  0.8526  0.6956
  107TMC2    C7 1639   0.713   3.752  11.231 -0.1475  0.3334 -0.1330
  107TMC2    C8 1640   1.065   3.786  11.572 -0.1602 -0.3133  0.2784
  107TMC2    O1 1641   0.600   3.776  11.195 -0.7247  0.0357  0.9980
  107TMC2    O2 1642   1.090   3.793  11.688 -0.0927  0.2743 -0.6152
  107TMC2    O5 1643   1.143   3.791  11.463  0.2337 -0.1309 -0.0385
  107TMC2    H5 1644   1.098   3.781  11.377  2.4517  2.0642 -1.4488
  108MPD2     C 1645   0.730   4.239  11.896 -0.2420  0.2220 -0.0119
  108MPD2    C1 1646   0.640   4.176  11.819  0.0040 -0.6529 -0.3231
  108MPD2    C2 1647   0.503   4.185  11.832 -0.7838  0.5548 -0.0594
  108MPD2    C3 1648   0.458   4.252  11.950 -1.2291 -0.1960  0.4424
  108MPD2    C4 1649   0.552   4.313  12.030 -0.3442 -0.3267  0.1763
  108MPD2    C5 1650   0.685   4.302  12.004 -0.1975 -0.2401 -0.6024
  108MPD2     H 1651   0.445   4.138  11.754  1.6303 -1.7293 -0.4953
  108MPD2    H1 1652   0.531   4.366  12.122  2.8878  2.1567 -0.5130
  108MPD2    H2 1653   0.835   4.238  11.871 -0.3594 -2.3447 -0.4110
  108MPD2    H3 1654   0.764   4.347  12.064  2.0436 -1.6274 -2.5082
  108MPD2     N 1655   0.322   4.257  11.974  0.4765  0.2430  0.0794
  108MPD2    H5 1656   0.258   4.248  11.896 -0.6557  0.3826  0.9808
  108MPD2    N1 1657   0.701   4.083  11.729  0.5668  0.2505 -0.3474
  108MPD2    H7 1658   0.797   4.060  11.750  0.6471 -0.9378 -1.9736
  109MPD2     C 1659   1.098   1.094   1.594  0.4019  0.1412 -0.0543
  109MPD2    C1 1660   1.010   1.205   1.600  0.0499 -0.1964 -0.1869
  109MPD2    C2 1661   1.026   1.304   1.508 -0.4278 -0.1578 -0.5321
  109MPD2    C3 1662   1.136   1.316   1.427 -0.2079  0.4629 -0.0225
  109MPD2    C4 1663   1.227   1.211   1.419  0.1095  0.1574 -0.0288
  109MPD2    C5 1664   1.202   1.104   1.501 -0.2769 -0.5325 -0.0829
  109MPD2     H 1665   0.963   1.391   1.523 -0.2834  0.1138 -1.5219
  109MPD2    H1 1666   1.304   1.189   1.346 -0.7240 -0.3868 -0.7507
  109MPD2    H2 1667   1.087   1.000   1.647  1.1362 -0.6243 -1.2608
  109MPD2    H3 1668   1.269   1.020   1.491  0.7840  0.2378  0.5305
  109MPD2     N 1669   1.143   1.434   1.343  0.2620  0.2026  0.3701
  109MPD2    H5 1670   1.067   1.502   1.345 -0.2954 -0.4840  3.0602
  109MPD2    N1 1671   0.893   1.210   1.677  0.2793  0.3548  0.1805
  109MPD2    H7 1672   0.819   1.275   1.653 -0.0808 -0.0075  0.3197
  110TCq2    C1 1673   1.238   1.456   1.248  0.1380  0.3661 -0.4269
  110TCq2    O2 1674   1.346   1.399   1.235 -0.4952 -0.0560 -0.7200
  110TCq2    C2 1675   1.202   1.554   1.144 -0.6811 -0.0039 -0.1073
  110TCq2    C3 1676   1.300   1.585   1.047 -0.0728 -0.2049  0.2532
  110TCq2    C4 1677   1.262   1.670   0.947 -0.6561 -0.2907  0.1152
  110TCq2    C5 1678   1.151   1.748   0.954 -0.2331 -0.4850  0.1678
  110TCq2    C6 1679   1.063   1.728   1.054 -0.1416  0.5227 -0.5849
  110TCq2    C7 1680   1.076   1.616   1.135 -0.1284  0.1780  0.5682
  110TCq2    C8 1681   0.939   1.798   1.041  0.3975  0.3322 -0.5120
  110TCq2    O4 1682   0.929   1.875   0.948  0.3499  0.1753 -0.1645
  110TCq2    C9 1683   1.370   1.697   0.847 -0.5972  1.0048  0.1671
  110TCq2    O5 1684   1.384   1.814   0.806 -0.0824 -0.3751 -0.2060
  110TCq2    O6 1685   1.451   1.603   0.824 -0.1882 -0.4882  0.6054
  110TCq2    H2 1686   1.390   1.525   1.039  0.0725  0.1086 -0.4373
  110TCq2    H3 1687   1.130   1.820   0.876 -0.5198  0.0417  0.7311
  110TCq2    H4 1688   1.000   1.585   1.206  0.4926 -0.0777  1.1170
  111TMC2    C1 1689   0.457   2.106  11.497  0.1470 -0.0669 -0.1173
  111TMC2    C2 1690   0.571   2.171  11.463  0.1068  0.1811  0.4403
  111TMC2    C3 1691   0.683   2.144  11.534 -0.3704  0.0559 -0.7813
  111TMC2    C4 1692   0.452   2.027  11.607  0.1340  0.1782  0.0427
  111TMC2    C5 1693   0.561   2.011  11.681  0.4821 -0.7929  0.4241
  111TMC2    C6 1694   0.681   2.062  11.644  0.0106 -0.0857 -0.2468
  111TMC2     C 1695   0.344   2.126  11.416 -0.1031  0.0403  0.7520
  111TMC2     O 1696   0.365   2.160  11.302  0.0456 -0.2567  0.2008
  111TMC2     H 1697   0.580   2.240  11.379 -1.2900 -1.2833 -0.9030
  111TMC2    H1 1698   0.362   1.969  11.628  0.4003  0.0747  0.9107
  111TMC2    H2 1699   0.772   2.036  11.697 -0.2954 -1.7450 -0.5092
  111TMC2    C7 1700   0.547   1.922  11.794  0.1145 -1.1447 -0.1203
  111TMC2    C8 1701   0.803   2.217  11.522 -0.0070 -0.0541 -0.1808
  111TMC2    O1 1702   0.439   1.929  11.848  0.5939 -0.3319  0.0924
  111TMC2    O2 1703   0.887   2.226  11.612  0.0718  0.3417  0.2653
  111TMC2    O5 1704   0.825   2.225  11.392  0.5191  0.5610 -0.6008
  111TMC2    H5 1705   0.759   2.172  11.342  0.0845  0.0033  0.5768
  112MPD2     C 1706   4.558   2.201  11.356 -0.0495  0.0283 -0.4773
  112MPD2    C1 1707   4.663   2.189  11.261  0.1763 -0.1781  0.1559
  112MPD2    C2 1708   0.065   2.154  11.303 -0.5177  0.1901  0.3516
  112MPD2    C3 1709   0.095   2.142  11.439 -0.3157  0.0033  0.4889
  112MPD2    C4 1710   4.717   2.163  11.526  0.1648 -0.1874 -0.1525
  112MPD2    C5 1711   4.589   2.184  11.489  0.1976 -0.3047  0.4730
  112MPD2     H 1712   0.137   2.149  11.222  1.9896 -0.8481  2.6516
  112MPD2    H1 1713   0.014   2.166  11.633  0.5449  0.1503 -0.2324
  112MPD2    H2 1714   4.453   2.222  11.335  0.3457  1.9259 -0.5495
  112MPD2    H3 1715   4.511   2.188  11.564 -0.5403 -0.4462 -0.2863
  112MPD2     N 1716   0.227   2.126  11.490 -0.8746 -0.0413  0.2745
  112MPD2    H5 1717   0.228   2.110  11.590  2.7080 -1.0869  0.0625
  112MPD2    N1 1718   4.635   2.203  11.123 -0.1829 -0.0964  0.4955
  112MPD2    H7 1719   4.714   2.189  11.060  0.0985  0.4484  0.7298
  113MPD2     C 1720   3.174   4.678   1.531  0.2287  0.0120 -0.3895
  113MPD2    C1 1721   3.074   0.043   1.549  0.1595  0.3504 -0.5823
  113MPD2    C2 1722   2.958   0.038   1.467  0.1547  0.6439 -0.0751
  113MPD2    C3 1723   2.941   4.655   1.381  0.0812 -0.0580  0.2335
  113MPD2    C4 1724   3.042   4.566   1.365 -0.0798 -0.1045 -0.0388
  113MPD2    C5 1725   3.158   4.578   1.436  0.8528  0.5464  0.5896
  113MPD2     H 1726   2.868   0.096   1.481  0.7247  1.4582  0.1882
  113MPD2    H1 1727   3.027   4.483   1.297  2.1273  0.0898 -0.7402
  113MPD2    H2 1728   3.267   4.686   1.587  0.8904 -0.2447 -1.4421
  113MPD2    H3 1729   3.240   4.511   1.410 -0.7036 -2.2102  2.7812
  113MPD2     N 1730   2.826   4.622   1.309 -0.3346  0.4467  0.4517
  113MPD2    H5 1731   2.836   4.540   1.250 -0.3072  0.3870  0.5390
  113MPD2    N1 1732   3.086   0.150   1.641 -0.1241 -0.1356 -0.0455
  113MPD2    H7 1733   3.014   0.220   1.623  0.0403 -0.1473 -0.7369
  114TCq2    C1 1734   2.713   4.698   1.300 -0.1577  0.9611 -0.0037
  114TCq2    O2 1735   2.705   0.092   1.333  0.3090  0.1857 -0.0027
  114TCq2    C2 1736   2.615   4.648   1.205  1.0926 -0.0802  0.5021
  114TCq2    C3 1737   2.564   0.018   1.113 -0.1690  0.6534  0.3250
  114TCq2    C4 1738   2.524   4.692   0.996  0.0191 -0.0703 -0.4686
  114TCq2    C5 1739   2.530   4.558   0.972 -0.0656  0.2497 -0.1502
  114TCq2    C6 1740   2.572   4.467   1.065  0.0734  0.3637 -0.0294
  114TCq2    C7 1741   2.624   4.514   1.181 -0.7108 -0.2910  0.1149
  114TCq2    C8 1742   2.574   4.323   1.028  0.4822 -0.5261  0.1969
  114TCq2    O4 1743   2.555   4.301   0.905  0.1252 -0.4044 -0.0379
  114TCq2    C9 1744   2.449   0.044   0.905  0.4109 -0.3611  0.1782
  114TCq2    O5 1745   2.402   4.711   0.800  0.0108  0.3383  0.1259
  114TCq2    O6 1746   2.428   0.167   0.935  0.2156  0.3591 -0.3893
  114TCq2    H2 1747   2.571   0.124   1.134 -0.4868  0.2900  2.3349
  114TCq2    H3 1748   2.486   4.514   0.883 -1.1301  1.8224 -0.4143
  114TCq2    H4 1749   2.661   4.444   1.255  0.3292 -0.8847 -0.9511
  115TMC2    C1 1750   3.838   2.646  17.642 -0.8615  0.0389  0.1813
  115TMC2    C2 1751   3.892   2.545   0.019  0.4963  0.1100 -1.3450
  115TMC2    C3 1752   3.996   2.571   0.108 -0.3113  0.2454  0.0015
  115TMC2    C4 1753   3.867   2.775  17.670 -0.0202 -0.4789 -0.7245
  115TMC2    C5 1754   3.968   2.800   0.067 -0.3020 -0.1820 -0.1020
  115TMC2    C6 1755   4.040   2.703   0.131 -0.1479  0.2311  0.1532
  115TMC2     C 1756   3.723   2.620  17.564  0.3835 -0.2408 -0.1856
  115TMC2     O 1757   3.676   2.512  17.582 -0.6150  0.0092 -0.1821
  115TMC2     H 1758   3.877   2.439   0.001 -3.3419  0.8619 -2.5304
  115TMC2    H1 1759   3.810   2.855  17.624  0.9154  0.8241  0.3660
  115TMC2    H2 1760   4.117   2.725   0.203 -0.2133 -1.8004  0.8154
  115TMC2    C7 1761   4.007   2.934   0.103 -0.3268 -0.4668  0.6865
  115TMC2    C8 1762   4.041   2.464   0.195  0.2738 -0.4029  0.6862
  115TMC2    O1 1763   4.077   2.941   0.202 -0.2453  0.3738 -0.6958
  115TMC2    O2 1764   4.155   2.421   0.194 -0.1840  0.4487  0.4792
  115TMC2    O5 1765   3.929   2.404   0.241 -0.1374 -0.0298  0.3942
  115TMC2    H5 1766   3.848   2.457   0.232  0.1085  0.4539  1.0586
  116MPD2     C 1767   3.443   2.626  17.126  0.2628 -0.1417  0.1862
  116MPD2    C1 1768   3.445   2.542  17.231  0.4517  0.4187  0.1084
  116MPD2    C2 1769   3.532   2.557  17.335  0.6629 -0.2460  0.3981
  116MPD2    C3 1770   3.604   2.673  17.348  0.5098  0.5395 -0.9557
  116MPD2    C4 1771   3.602   2.770  17.245  0.0791  0.2736 -0.1978
  116MPD2    C5 1772   3.527   2.738  17.127  0.0338 -0.0954 -0.1714
  116MPD2     H 1773   3.529   2.483  17.415  0.4695 -0.1588  0.4709
  116MPD2    H1 1774   3.648   2.868  17.248  0.2835  0.1485  0.9346
  116MPD2    H2 1775   3.393   2.605  17.032 -1.4883  0.7288  0.9154
  116MPD2    H3 1776   3.529   2.809  17.046  1.1030 -0.0995 -0.1550
  116MPD2     N 1777   3.697   2.701  17.459 -0.3987  0.6500  0.5087
  116MPD2    H5 1778   3.757   2.783  17.455 -0.2231  0.3797 -1.9622
  116MPD2    N1 1779   3.366   2.429  17.204  0.6246 -0.4662  0.2762
  116MPD2    H7 1780   3.319   2.416  17.114 -0.6531 -0.8098  0.9840
  117TMC2    C1 1781   2.028   3.570  13.977 -0.2885  0.2398  0.0176
  117TMC2    C2 1782   2.096   3.459  13.937  0.1181 -0.1537  0.5280
  117TMC2    C3 1783   2.223   3.476  13.907  0.6584 -0.1230  0.2854
  117TMC2    C4 1784   2.090   3.691  13.984 -0.1462  0.0903 -0.0994
  117TMC2    C5 1785   2.225   3.703  13.943  0.0480 -0.7464  0.4670
  117TMC2    C6 1786   2.296   3.591  13.909  0.5695 -0.2849  0.2084
  117TMC2     C 1787   1.885   3.576  13.941 -0.3178 -0.4933  0.7142
  117TMC2     O 1788   1.825   3.470  13.934  0.1977  0.5544 -0.0275
  117TMC2     H 1789   2.042   3.365  13.930  0.9138 -0.4665 -1.3198
  117TMC2    H1 1790   2.036   3.773  14.029  0.0699  1.0545 -1.5763
  117TMC2    H2 1791   2.403   3.595  13.892  0.3803 -2.4170 -1.4512
  117TMC2    C7 1792   2.292   3.829  13.937 -0.3288 -0.3104 -0.1195
  117TMC2    C8 1793   2.308   3.363  13.878 -0.4074  0.4047 -0.3519
  117TMC2    O1 1794   2.396   3.824  13.872  0.0793  0.5642 -0.1392
  117TMC2    O2 1795   2.422   3.375  13.830  0.2592  0.2570  0.2946
  117TMC2    O5 1796   2.234   3.252  13.878 -0.0011 -0.3213  0.5539
  117TMC2    H5 1797   2.155   3.261  13.935  0.4738  0.1904  1.1342
  118MPD2     C 1798   2.189   4.169  14.037 -0.1341 -0.3107  0.3998
  118MPD2    C1 1799   2.269   4.073  13.985  0.4071  0.1450 -0.2147
  118MPD2    C2 1800   2.389   4.108  13.919 -0.0975  0.2141 -0.3735
  118MPD2    C3 1801   2.409   4.238  13.887  0.1002  0.1752 -0.1300
  118MPD2    C4 1802   2.325   4.335  13.930 -0.1202 -0.0282  0.0032
  118MPD2    C5 1803   2.214   4.300  14.006 -0.6898 -0.3633  0.6441
  118MPD2     H 1804   2.467   4.039  13.888  1.6396  0.8860  2.3985
  118MPD2    H1 1805   2.338   4.440  13.907 -0.5181 -0.6358 -3.0275
  118MPD2    H2 1806   2.098   4.150  14.092 -0.4166 -3.1205 -1.0246
  118MPD2    H3 1807   2.142   4.366  14.052 -0.3436 -0.5625  1.4705
  118MPD2     N 1808   2.513   4.275  13.798 -0.1276  0.3122 -0.2847
  118MPD2    H5 1809   2.534   4.374  13.783 -0.6557  0.6611  1.3532
  118MPD2    N1 1810   2.226   3.936  14.000 -0.4567  0.5028 -0.0522
  118MPD2    H7 1811   2.136   3.919  14.044 -0.3972 -2.2280 -0.9488
  119MPD2     C 1812   1.104   0.604  14.225 -0.6476  0.0562 -0.0252
  119MPD2    C1 1813   0.983   0.655  14.173 -0.2131  0.3101  0.2667
  119MPD2    C2 1814   0.949   0.622  14.042  0.0797  0.5891 -0.1762
  119MPD2    C3 1815   1.032   0.542  13.958 -0.0093  0.3738 -0.5778
  119MPD2    C4 1816   1.152   0.499  14.013  0.2639  0.3032  1.2590
  119MPD2    C5 1817   1.177   0.529  14.145  0.2804 -0.1933  0.2936
  119MPD2     H 1818   0.864   0.665  13.992 -0.3445 -0.3732 -0.2826
  119MPD2    H1 1819   1.218   0.442  13.948 -0.5617  1.8128 -0.8852
  119MPD2    H2 1820   1.133   0.623  14.327 -2.3907 -1.6150  0.7915
  119MPD2    H3 1821   1.271   0.494  14.186 -1.0087 -1.9702  1.6957
  119MPD2     N 1822   0.992   0.500  13.831 -0.1552 -0.0525 -0.7785
  119MPD2    H5 1823   1.064   0.466  13.768 -0.8154 -0.1124 -1.5088
  119MPD2    N1 1824   0.906   0.739  14.258 -0.3132  0.4216  0.0994
  119MPD2    H7 1825   0.955   0.779  14.338 -0.5782  0.8507  0.0439
  120TCq2    C1 1826   0.865   0.508  13.782  0.0716  0.2664  0.5956
  120TCq2    O2 1827   0.756   0.529  13.841 -0.0730 -0.7089  0.0322
  120TCq2    C2 1828   0.841   0.456  13.654  0.3294 -0.5699  0.1582
  120TCq2    C3 1829   0.951   0.465  13.569 -0.2566  0.1666  0.3766
  120TCq2    C4 1830   0.923   0.446  13.435 -0.1402 -0.0572  0.1347
  120TCq2    C5 1831   0.795   0.422  13.393  0.6708 -0.4608  0.3873
  120TCq2    C6 1832   0.695   0.407  13.485  0.3636  0.2052  0.4322
  120TCq2    C7 1833   0.715   0.425  13.622  0.3669 -0.6078 -0.0566
  120TCq2    C8 1834   0.559   0.417  13.438 -0.4231 -0.1785  0.5590
  120TCq2    O4 1835   0.545   0.430  13.320  0.3808 -0.4795 -0.6183
  120TCq2    C9 1836   1.023   0.458  13.338 -0.1710  0.3995  0.0722
  120TCq2    O5 1837   1.139   0.450  13.385 -0.0834 -0.3439  0.2386
  120TCq2    O6 1838   0.985   0.469  13.217  0.3880 -0.1427 -0.8890
  120TCq2    H2 1839   1.054   0.481  13.598  0.2994 -1.0463 -0.9513
  120TCq2    H3 1840   0.774   0.403  13.288 -0.6124  0.1435  0.5384
  120TCq2    H4 1841   0.637   0.432  13.697  0.1670  0.2618 -0.3365
  121TMC2    C1 1842   2.167   2.245  13.963  0.2107  0.5050 -0.1864
  121TMC2    C2 1843   2.153   2.373  13.924  0.1092 -0.5648 -0.0556
  121TMC2    C3 1844   2.058   2.452  13.982 -1.1693 -0.2106  0.5782
  121TMC2    C4 1845   2.087   2.189  14.061 -0.1629 -0.0735  0.1028
  121TMC2    C5 1846   1.977   2.266  14.108 -1.1709  0.3262  0.3630
  121TMC2    C6 1847   1.963   2.403  14.068 -0.5505 -0.3122  1.0833
  121TMC2     C 1848   2.274   2.168  13.901  0.0452 -0.0801 -0.2714
  121TMC2     O 1849   2.325   2.084  13.971  0.4756 -0.0286 -0.3366
  121TMC2     H 1850   2.226   2.424  13.863 -1.3345 -1.5124 -2.5784
  121TMC2    H1 1851   2.122   2.096  14.104  1.0130  0.5441  0.4594
  121TMC2    H2 1852   1.878   2.461  14.103 -1.8543 -0.1640 -2.4003
  121TMC2    C7 1853   1.861   2.194  14.152  0.4351 -0.5994  0.2615
  121TMC2    C8 1854   2.076   2.592  13.962  0.3813  0.4031 -0.6870
  121TMC2    O1 1855   1.882   2.076  14.183 -0.2146 -0.1317  0.3228
  121TMC2    O2 1856   2.148   2.627  13.870 -0.3095 -0.2606  0.4711
  121TMC2    O5 1857   2.072   2.648  14.086 -0.2362 -0.0823 -0.3592
  121TMC2    H5 1858   2.044   2.589  14.159  0.0627  0.2619  0.0342
  122MPD2     C 1859   2.466   2.044  13.703  0.0042  0.4603 -0.1106
  122MPD2    C1 1860   2.392   2.160  13.686 -0.3478  0.5195  0.2439
  122MPD2    C2 1861   2.401   2.233  13.569  1.1422  0.5648  0.7298
  122MPD2    C3 1862   2.491   2.193  13.473  0.2051  0.4245 -0.6212
  122MPD2    C4 1863   2.562   2.074  13.481  0.2102  0.5952  0.3628
  122MPD2    C5 1864   2.541   2.005  13.596 -0.6667 -0.5428 -0.2199
  122MPD2     H 1865   2.338   2.321  13.557  0.7617  0.2604  0.4879
  122MPD2    H1 1866   2.638   2.056  13.406  0.7818  1.9797  0.6088
  122MPD2    H2 1867   2.472   1.982  13.792 -2.3089  1.0611  0.4539
  122MPD2    H3 1868   2.599   1.917  13.620  0.9185  0.2446 -1.0856
  122MPD2     N 1869   2.518   2.269  13.351  0.4668  0.1826  0.4865
  122MPD2    H5 1870   2.590   2.227  13.293 -0.7029 -1.6081  0.3270
  122MPD2    N1 1871   2.299   2.210  13.774  0.0907  0.0367 -0.3036
  122MPD2    H7 1872   2.239   2.281  13.735 -0.4914  0.1511  0.7983
  123MPD2     C 1873   0.820   0.906   9.103  0.5620 -0.3695 -0.6022
  123MPD2    C1 1874   0.858   0.776   9.145  0.0967  0.2373  0.0929
  123MPD2    C2 1875   0.993   0.757   9.157 -0.3410  0.1499  0.7053
  123MPD2    C3 1876   1.086   0.845   9.129 -0.5872 -0.5796  0.0630
  123MPD2    C4 1877   1.050   0.973   9.102 -0.2312 -0.5102  0.3333
  123MPD2    C5 1878   0.917   1.004   9.099  0.1333  0.5043  0.2815
  123MPD2     H 1879   1.014   0.652   9.172 -0.3140  0.1908  0.9606
  123MPD2    H1 1880   1.114   1.055   9.072  1.2417 -1.8685 -0.2113
  123MPD2    H2 1881   0.716   0.930   9.086  0.8891  1.9674  0.6840
  123MPD2    H3 1882   0.886   1.103   9.068 -2.1569 -0.0572  0.7291
  123MPD2     N 1883   1.225   0.799   9.124 -0.2729 -0.0094 -0.4210
  123MPD2    H5 1884   1.240   0.701   9.149 -0.3745  0.1660  0.3249
  123MPD2    N1 1885   0.766   0.658   9.163  0.3518  0.5056  0.0889
  123MPD2    H7 1886   0.806   0.565   9.174 -3.5425 -1.0452  1.4076
  124TCq2    C1 1887   1.340   0.871   9.086  0.1051  0.2228 -0.0352
  124TCq2    O2 1888   1.340   0.971   9.014  0.2081  0.0811  0.3212
  124TCq2    C2 1889   1.463   0.795   9.110 -0.5579  0.1905 -0.0742
  124TCq2    C3 1890   1.568   0.818   9.023 -0.0821  0.2643 -0.0835
  124TCq2    C4 1891   1.690   0.760   9.060  0.4194 -0.4452  0.4384
  124TCq2    C5 1892   1.695   0.680   9.171  0.2826  0.0220 -0.0991
  124TCq2    C6 1893   1.584   0.649   9.244  0.5222  0.3388 -0.2534
  124TCq2    C7 1894   1.464   0.701   9.211  0.2950  0.1925 -0.6236
  124TCq2    C8 1895   1.582   0.536   9.339 -0.1764  0.0917  0.4662
  124TCq2    O4 1896   1.476   0.506   9.385  0.1842 -0.8297  0.1571
  124TCq2    C9 1897   1.809   0.779   8.988  0.1215  0.6200 -0.0652
  124TCq2    O5 1898   1.809   0.859   8.893 -0.1584  0.4590 -0.2910
  124TCq2    O6 1899   1.893   0.684   8.999 -0.4270 -0.1909 -1.0324
  124TCq2    H2 1900   1.548   0.876   8.934 -4.3189  2.8596  2.5557
  124TCq2    H3 1901   1.797   0.656   9.199  0.0054 -0.2537  0.6662
  124TCq2    H4 1902   1.384   0.700   9.284  1.2584  1.1067  0.4380
  125TMC2    C1 1903   1.792   2.501   8.877 -0.3063  0.3256  0.1980
  125TMC2    C2 1904   1.673   2.567   8.863 -0.3023 -0.5057  0.1712
  125TMC2    C3 1905   1.569   2.541   8.944 -0.1506  0.0554  0.4408
  125TMC2    C4 1906   1.805   2.402   8.968  0.5035 -0.0804  0.4503
  125TMC2    C5 1907   1.706   2.383   9.060 -0.0777  0.0615  0.3624
  125TMC2    C6 1908   1.580   2.443   9.043  0.2282 -0.5200 -0.6201
  125TMC2     C 1909   1.883   2.509   8.761  0.1030 -0.3587 -0.5437
  125TMC2     O 1910   1.988   2.447   8.772  0.2120 -0.4549 -0.2740
  125TMC2     H 1911   1.677   2.664   8.814 -2.1243 -0.3567  0.2884
  125TMC2    H1 1912   1.895   2.342   8.975 -0.9715 -2.3457 -0.0498
  125TMC2    H2 1913   1.505   2.422   9.119 -0.1142  0.9439 -0.5539
  125TMC2    C7 1914   1.717   2.280   9.169  0.0968  1.0051  0.2975
  125TMC2    C8 1915   1.469   2.647   8.966  0.5865 -0.3346  0.2123
  125TMC2    O1 1916   1.623   2.237   9.227  0.1564  0.1843 -0.2115
  125TMC2    O2 1917   1.403   2.661   9.069  0.5951  0.6778 -0.4134
  125TMC2    O5 1918   1.449   2.692   8.844  0.3089 -0.1509  0.2900
  125TMC2    H5 1919   1.502   2.639   8.782 -0.7793 -0.4166 -0.4091
  126MPD1     C 1920   2.025   2.645   8.292 -1.1658 -0.4827  0.1556
  126MPD1    C1 1921   1.921   2.728   8.337 -0.1629 -0.7724 -0.4761
  126MPD1    C2 1922   1.858   2.688   8.452 -0.0873  0.5239 -0.7405
  126MPD1    C3 1923   1.910   2.598   8.540 -0.5491  0.1718  0.2356
  126MPD1    C4 1924   2.027   2.533   8.508  0.1617  0.6251 -0.2081
  126MPD1    C5 1925   2.070   2.549   8.383 -1.3588  0.1796  0.2270
  126MPD1     H 1926   1.765   2.730   8.489  0.8538 -0.4761  2.7496
  126MPD1    H1 1927   2.091   2.472   8.569  0.4063  1.1988  0.1049
  126MPD1    H2 1928   2.075   2.656   8.196 -1.9004 -3.0055 -0.5402
  126MPD1    H3 1929   2.160   2.497   8.352 -2.3244 -0.4711 -1.4971
  126MPD1     N 1930   1.837   2.585   8.656 -0.5845 -0.1693 -0.0582
  126MPD1    H5 1931   1.748   2.633   8.663 -0.2666  0.1990  1.4646
  126MPD1    N1 1932   1.869   2.824   8.254 -0.1677  0.9397 -0.0247
  126MPD1    H6 1933   1.936   2.847   8.181 -0.3838 -1.3760 -0.9442
  126MPD1    H7 1934   1.827   2.905   8.299 -2.4113  0.2099 -0.7931
  127MPD2     C 1935   2.981   0.863   9.311 -0.5341  0.2037 -0.4788
  127MPD2    C1 1936   2.890   0.939   9.378 -0.2045  0.0335  0.7152
  127MPD2    C2 1937   2.933   1.004   9.486  0.4488 -0.0114 -0.7808
  127MPD2    C3 1938   3.061   0.985   9.536  0.5464 -1.0948  0.0068
  127MPD2    C4 1939   3.152   0.896   9.478  0.4874  0.5484  0.6740
  127MPD2    C5 1940   3.106   0.831   9.360  0.5650  0.0230  0.1976
  127MPD2     H 1941   2.867   1.068   9.544 -0.0303 -1.0101 -0.2205
  127MPD2    H1 1942   3.256   0.879   9.504  0.7588  1.0296 -0.1047
  127MPD2    H2 1943   2.952   0.818   9.216  1.0781 -0.3394 -0.7119
  127MPD2    H3 1944   3.173   0.761   9.312 -0.5503 -1.0209  0.1640
  127MPD2     N 1945   3.098   1.063   9.643  0.7092 -0.3452 -0.3375
  127MPD2    H5 1946   3.026   1.128   9.675  0.1464 -1.1843  0.0928
  127MPD2    N1 1947   2.751   0.947   9.342  0.4051  0.2300  0.5657
  127MPD2    H7 1948   2.735   0.910   9.249  2.5579  0.9928 -0.1155
  128TCq2    C1 1949   2.651   0.983   9.430  0.7737 -0.5118  0.0038
  128TCq2    O2 1950   2.653   0.989   9.553  0.5995 -0.7053  0.6582
  128TCq2    C2 1951   2.524   0.978   9.363  0.5417 -0.0117  0.0910
  128TCq2    C3 1952   2.519   1.009   9.229  0.0914 -0.3058 -0.0354
  128TCq2    C4 1953   2.392   1.040   9.194 -0.2689  1.2197  0.2838
  128TCq2    C5 1954   2.280   1.038   9.278 -0.0707  0.4872 -0.1957
  128TCq2    C6 1955   2.296   0.995   9.403  0.1116 -0.2615  0.7136
  128TCq2    C7 1956   2.416   0.967   9.449  0.0931 -0.5143  0.3388
  128TCq2    C8 1957   2.176   0.998   9.493 -1.0517  0.0902 -0.1961
  128TCq2    O4 1958   2.074   1.030   9.441 -0.2821  0.0513 -0.0362
  128TCq2    C9 1959   2.359   1.058   9.055  0.6431 -0.1814 -0.3651
  128TCq2    O5 1960   2.244   1.095   9.032  0.3825 -0.2428 -0.4003
  128TCq2    O6 1961   2.450   1.048   8.964  0.4882 -0.8265 -0.0696
  128TCq2    H2 1962   2.599   1.002   9.156  0.8040  0.2415  0.7030
  128TCq2    H3 1963   2.180   1.053   9.239 -0.0690 -2.4523 -1.3143
  128TCq2    H4 1964   2.432   0.936   9.552  2.0706 -0.5780  0.0123
  129MPD2     C 1965   1.579   1.446   1.664 -0.1364  0.4130  0.5712
  129MPD2    C1 1966   1.643   1.355   1.580  0.1659 -0.2561  0.3734
  129MPD2    C2 1967   1.740   1.408   1.499  0.0967 -0.3306  0.4060
  129MPD2    C3 1968   1.762   1.544   1.490  0.6903  0.2356  0.6871
  129MPD2    C4 1969   1.689   1.638   1.558  0.1439 -0.6945  0.7079
  129MPD2    C5 1970   1.601   1.585   1.656 -0.1286 -0.6083  0.2827
  129MPD2     H 1971   1.810   1.342   1.449 -1.3514 -2.2059  0.8617
  129MPD2    H1 1972   1.710   1.745   1.556  0.3707 -0.7391  0.7205
  129MPD2    H2 1973   1.499   1.406   1.726  0.5928 -0.2939  1.0574
  129MPD2    H3 1974   1.552   1.655   1.722  0.2851 -0.6144  0.6010
  129MPD2     N 1975   1.871   1.590   1.411  0.2550 -0.4410  0.1507
  129MPD2    H5 1976   1.925   1.522   1.360  2.3413  1.9969 -0.8911
  129MPD2    N1 1977   1.610   1.210   1.577  0.0642 -0.3368  0.6607
  129MPD2    H7 1978   1.664   1.153   1.512 -1.0230  0.1367 -0.6612
  130TCq2    C1 1979   1.536   1.142   1.665  0.9095 -0.4815 -0.6510
  130TCq2    O2 1980   1.481   1.184   1.767  0.4162 -0.9830  0.5091
  130TCq2    C2 1981   1.529   1.005   1.640  0.2215  0.5233  0.6841
  130TCq2    C3 1982   1.587   0.956   1.527  0.0039  0.2912 -0.1732
  130TCq2    C4 1983   1.553   0.824   1.495 -0.5932  0.0905 -0.1841
  130TCq2    C5 1984   1.468   0.754   1.573 -0.3513  0.4682 -0.2747
  130TCq2    C6 1985   1.405   0.820   1.676 -0.1391 -0.1404  0.4119
  130TCq2    C7 1986   1.441   0.944   1.719  0.4618 -0.3440  0.4454
  130TCq2    C8 1987   1.308   0.752   1.757 -0.4513 -0.5826  0.5078
  130TCq2    O4 1988   1.246   0.820   1.835  0.4229 -0.3292 -0.0499
  130TCq2    C9 1989   1.618   0.749   1.386 -0.2385  0.4128 -0.2933
  130TCq2    O5 1990   1.566   0.648   1.336  0.0961 -0.0826 -0.0232
  130TCq2    O6 1991   1.720   0.798   1.333  0.0321 -0.1841 -0.4147
  130TCq2    H2 1992   1.664   1.003   1.466  0.2749 -0.5291 -0.4638
  130TCq2    H3 1993   1.442   0.652   1.546 -0.4315  0.3467  0.2633
  130TCq2    H4 1994   1.398   0.985   1.810  0.7966  3.7872 -1.2596
  131MPD2     C 1995   0.910   0.031   9.663  0.2676  0.2309  0.4289
  131MPD2    C1 1996   0.909   0.166   9.677  0.3141  0.3405  0.7400
  131MPD2    C2 1997   0.820   0.238   9.598  0.0828  0.0335  0.0616
  131MPD2    C3 1998   0.756   0.167   9.492 -0.5382  0.4462 -0.0427
  131MPD2    C4 1999   0.765   0.033   9.481 -0.7704  0.6043 -0.6964
  131MPD2    C5 2000   0.846   4.686   9.566  0.0758  0.3108 -0.2007
  131MPD2     H 2001   0.802   0.344   9.611 -1.6755  0.0538 -2.5734
  131MPD2    H1 2002   0.752   4.710   9.384 -0.8474  0.3183 -0.5522
  131MPD2    H2 2003   0.974   4.702   9.735  0.8663 -1.2768 -1.1969
  131MPD2    H3 2004   0.865   4.583   9.542 -0.2993 -0.3311  2.2572
  131MPD2     N 2005   0.679   0.237   9.399  0.4002  0.1488  0.2545
  131MPD2    H5 2006   0.686   0.338   9.402 -0.1631  0.2300 -0.9301
  131MPD2    N1 2007   1.001   0.231   9.767 -0.0279 -0.6197 -0.2739
  131MPD2    H7 2008   1.060   0.167   9.820  2.1212  0.7001 -1.0370
  132TCq2    C1 2009   1.264   0.688  10.001 -0.6851  0.5440 -0.1422
  132TCq2    O2 2010   1.346   0.711  10.089 -0.1448 -0.0100  1.3054
  132TCq2    C2 2011   1.167   0.584  10.023 -0.3883  0.0453 -0.2872
  132TCq2    C3 2012   1.198   0.499  10.129  0.5116  0.8060  0.1254
  132TCq2    C4 2013   1.158   0.364  10.124  0.1434 -0.4695 -0.1791
  132TCq2    C5 2014   1.089   0.319  10.011 -0.2866 -0.0091  0.7657
  132TCq2    C6 2015   1.074   0.407   9.906  0.1120 -0.4920 -0.1212
  132TCq2    C7 2016   1.105   0.541   9.911  0.3638 -0.3741 -0.7064
  132TCq2    C8 2017   1.001   0.365   9.787  0.5375 -0.2932 -0.4615
  132TCq2    O4 2018   0.966   0.453   9.711  0.2462 -0.0439 -1.0361
  132TCq2    C9 2019   1.175   0.283  10.241 -0.0642 -0.3669 -0.4250
  132TCq2    O5 2020   1.152   0.160  10.237 -0.1695  0.3478  0.5073
  132TCq2    O6 2021   1.219   0.339  10.350  0.2145 -0.2881  0.4544
  132TCq2    H2 2022   1.260   0.521  10.215 -0.7340  0.7689  1.0251
  132TCq2    H3 2023   1.053   0.217  10.021 -1.9751  0.5793  0.5314
  132TCq2    H4 2024   1.112   0.590   9.815 -1.5353 -0.7304 -1.0105
  133MPD2     C 2025   0.047   1.640   9.056 -0.0733 -0.2260 -0.1605
  133MPD2    C1 2026   0.107   1.525   9.097 -0.1992 -0.4375  0.4341
  133MPD2    C2 2027   0.049   1.403   9.080  0.5998  0.6735 -0.5318
  133MPD2    C3 2028   4.656   1.389   9.009 -0.0031 -0.0696 -0.1969
  133MPD2    C4 2029   4.584   1.500   8.973  0.1570 -0.4168 -0.3714
  133MPD2    C5 2030   4.643   1.622   8.998 -0.4223  0.0956 -0.3478
  133MPD2     H 2031   0.096   1.311   9.115  0.4995  0.9842  0.4334
  133MPD2    H1 2032   4.491   1.499   8.917 -0.2082 -3.4907  0.2744
  133MPD2    H2 2033   0.103   1.733   9.058  0.2575 -0.4612  1.2103
  133MPD2    H3 2034   4.578   1.700   8.959  1.5494  1.9189 -0.0151
  133MPD2     N 2035   4.603   1.262   8.971 -0.4095  0.2945 -0.6540
  133MPD2    H5 2036   4.509   1.274   8.934 -1.0305  0.9104  1.0985
  133MPD2    N1 2037   0.236   1.545   9.147  0.5127  0.1592 -0.2338
  133MPD2    H7 2038   0.272   1.640   9.151 -0.6532  0.7187 -3.0142
  134TCq2    C1 2039   0.318   1.435   9.189  0.8729 -0.3200 -0.2278
  134TCq2    O2 2040   0.304   1.312   9.180 -0.2469 -0.5290 -0.2927
  134TCq2    C2 2041   0.444   1.477   9.255  0.4127 -0.5698 -0.2985
  134TCq2    C3 2042   0.451   1.608   9.298  0.2746  0.2020 -0.5639
  134TCq2    C4 2043   0.567   1.654   9.342 -0.6001  0.3119 -0.6851
  134TCq2    C5 2044   0.671   1.572   9.339  0.5474 -0.1600 -0.1795
  134TCq2    C6 2045   0.667   1.446   9.281  0.3221  0.0146  1.0757
  134TCq2    C7 2046   0.547   1.395   9.242  0.2029 -0.0608  0.1663
  134TCq2    C8 2047   0.791   1.360   9.260 -0.0550  0.5500  1.4015
  134TCq2    O4 2048   0.773   1.242   9.292  0.1238 -0.3045 -0.1112
  134TCq2    C9 2049   0.587   1.790   9.384 -0.6423 -0.5787 -0.3489
  134TCq2    O5 2050   0.712   1.817   9.400  0.6241 -0.2879  0.1217
  134TCq2    O6 2051   0.491   1.871   9.367 -0.2833 -0.3347  0.8567
  134TCq2    H2 2052   0.367   1.674   9.314  0.2901 -0.1458  0.9522
  134TCq2    H3 2053   0.769   1.610   9.367  0.9483 -0.4171 -1.2428
  134TCq2    H4 2054   0.540   1.294   9.203  1.8255  0.4814 -1.5332
  135MPD2     C 2055   1.721   2.834   9.184 -0.2497 -0.1752  0.5114
  135MPD2    C1 2056   1.784   2.736   9.265  0.1761 -0.4483 -0.2255
  135MPD2    C2 2057   1.901   2.673   9.226 -0.0100  0.3443 -0.7449
  135MPD2    C3 2058   1.947   2.701   9.100  0.3222  0.1334 -0.1735
  135MPD2    C4 2059   1.887   2.805   9.026  0.2309 -0.1044  0.5599
  135MPD2    C5 2060   1.782   2.872   9.071  0.3636 -0.0299 -0.1065
  135MPD2     H 2061   1.940   2.598   9.294 -0.7679 -0.2549 -0.9650
  135MPD2    H1 2062   1.918   2.834   8.926 -0.3713  1.0318  0.6989
  135MPD2    H2 2063   1.627   2.884   9.202 -0.3340 -1.0265  2.4956
  135MPD2    H3 2064   1.734   2.944   9.006 -2.3942  0.7118  2.7805
  135MPD2     N 2065   2.062   2.638   9.044 -0.1134 -0.3080 -0.1257
  135MPD2    H5 2066   2.099   2.688   8.964  0.9932  0.5136  0.8918
  135MPD2    N1 2067   1.730   2.697   9.387 -0.2358 -0.5858 -0.2059
  135MPD2    H7 2068   1.759   2.609   9.429  2.1524  1.8353  3.1865
  136TCq2    C1 2069   1.638   2.773   9.463  0.0381 -0.2296  0.9810
  136TCq2    O2 2070   1.601   2.886   9.440 -0.0985  0.0909 -0.3742
  136TCq2    C2 2071   1.628   2.720   9.597 -0.3296  1.4623  0.5545
  136TCq2    C3 2072   1.607   2.806   9.698  0.2286 -0.5111 -0.0033
  136TCq2    C4 2073   1.565   2.753   9.819 -0.7617 -0.2969 -0.4142
  136TCq2    C5 2074   1.543   2.618   9.824  0.0790 -0.3763 -0.9727
  136TCq2    C6 2075   1.556   2.536   9.723  0.2788  0.3944  0.2814
  136TCq2    C7 2076   1.620   2.584   9.610 -0.1180 -0.3040  0.3546
  136TCq2    C8 2077   1.519   2.393   9.729  0.2656  0.3557  0.1990
  136TCq2    O4 2078   1.558   2.318   9.640  0.5743  0.0957 -0.1341
  136TCq2    C9 2079   1.509   2.840   9.922 -0.6579 -0.1814  0.5402
  136TCq2    O5 2080   1.532   2.966   9.913 -0.2385  0.1731 -0.6696
  136TCq2    O6 2081   1.457   2.784  10.021 -0.1885  0.3805 -0.1161
  136TCq2    H2 2082   1.611   2.914   9.684 -0.3697 -0.3417  1.1286
  136TCq2    H3 2083   1.508   2.588   9.922 -0.6478 -0.2323 -1.1914
  136TCq2    H4 2084   1.653   2.525   9.526 -1.2699  0.1867 -0.4420
  137MPD2     C 2085   2.339   1.528   9.624  0.0795  0.1738 -0.0512
  137MPD2    C1 2086   2.220   1.595   9.622 -0.5916  0.3809  0.0337
  137MPD2    C2 2087   2.156   1.620   9.738 -1.0504  0.2962  0.2307
  137MPD2    C3 2088   2.208   1.588   9.865 -0.6243  0.3661  0.2769
  137MPD2    C4 2089   2.327   1.520   9.865 -0.7455 -0.6787 -0.4423
  137MPD2    C5 2090   2.386   1.477   9.747  0.0731 -0.1015 -0.0273
  137MPD2     H 2091   2.054   1.659   9.741 -0.6417  1.6589 -3.2305
  137MPD2    H1 2092   2.381   1.514   9.959 -1.1389 -1.1432 -0.2487
  137MPD2    H2 2093   2.383   1.505   9.528  1.3237  3.2856 -0.2263
  137MPD2    H3 2094   2.481   1.428   9.757  0.4801  1.2337  2.6285
  137MPD2     N 2095   2.141   1.634   9.981 -0.3709 -0.3439 -0.8444
  137MPD2    H5 2096   2.067   1.701   9.958 -0.7358  0.8970  4.0660
  137MPD2    N1 2097   2.166   1.634   9.495  0.5345  0.2018  0.3096
  137MPD2    H7 2098   2.228   1.604   9.420 -1.6459  1.4473 -1.9817
  138TCq2    C1 2099   2.037   1.674   9.474  0.2859 -0.1082  0.2559
  138TCq2    O2 2100   1.943   1.674   9.551 -0.3492  0.2867  0.2731
  138TCq2    C2 2101   2.019   1.732   9.349  0.5388 -1.0761  0.4018
  138TCq2    C3 2102   2.123   1.738   9.257 -0.9697 -0.3696 -0.0014
  138TCq2    C4 2103   2.098   1.786   9.134  0.6239  0.0302  0.3579
  138TCq2    C5 2104   1.974   1.832   9.109  0.1594 -0.2994  0.0741
  138TCq2    C6 2105   1.874   1.819   9.193 -0.2365  0.0815 -0.0209
  138TCq2    C7 2106   1.891   1.768   9.313  0.2528 -0.3273  0.7089
  138TCq2    C8 2107   1.746   1.883   9.159  0.5181 -0.3842 -0.5399
  138TCq2    O4 2108   1.729   1.956   9.061  0.1950  0.2842 -0.1888
  138TCq2    C9 2109   2.202   1.783   9.031  0.2558 -0.0157  0.7183
  138TCq2    O5 2110   2.170   1.837   8.922 -0.4086 -0.7890  0.0979
  138TCq2    O6 2111   2.317   1.750   9.056 -0.1294 -0.0164 -0.1776
  138TCq2    H2 2112   2.220   1.690   9.266 -0.7324 -0.1166 -1.2555
  138TCq2    H3 2113   1.940   1.869   9.013 -1.3737 -1.4904  0.1547
  138TCq2    H4 2114   1.814   1.777   9.389 -1.7600  2.0256 -1.6252
  139TMC2    C1 2115   2.019   0.081  13.190  0.9223  0.0367 -0.0398
  139TMC2    C2 2116   1.955   0.112  13.073  0.7024  0.3028 -0.3311
  139TMC2    C3 2117   1.885   0.231  13.069  0.3429  0.2755 -0.3336
  139TMC2    C4 2118   1.989   0.166  13.303  0.6112 -0.2546 -0.4495
  139TMC2    C5 2119   1.917   0.284  13.287 -0.3439 -0.6472  0.2694
  139TMC2    C6 2120   1.871   0.326  13.167  0.2839  0.5564  0.3463
  139TMC2     C 2121   2.044   4.661  13.217  0.4052  1.2093  0.6322
  139TMC2     O 2122   2.001   4.593  13.126 -0.4685  0.0856  0.0146
  139TMC2     H 2123   1.942   0.048  12.986  1.0531  2.1703 -1.7775
  139TMC2    H1 2124   1.995   0.126  13.404 -1.8481  0.1993 -0.1412
  139TMC2    H2 2125   1.840   0.430  13.162  0.0975  0.4614 -0.3985
  139TMC2    C7 2126   1.876   0.364  13.398 -0.2684 -0.2134 -0.3288
  139TMC2    C8 2127   1.866   0.279  12.930  0.4653 -0.1048 -0.5535
  139TMC2    O1 2128   1.778   0.435  13.376  0.5577  0.1556  0.5450
  139TMC2    O2 2129   1.789   0.374  12.915 -0.0674  0.1953  0.5341
  139TMC2    O5 2130   1.979   0.269  12.860  0.0600 -0.0374 -0.3555
  139TMC2    H5 2131   2.055   0.229  12.906  0.5432  1.6231  0.3073
  140MPD2     C 2132   2.191   4.490  13.504 -0.3967 -0.9741  0.5830
  140MPD2    C1 2133   2.131   4.503  13.381 -0.0232  0.6119  0.7166
  140MPD2    C2 2134   2.129   4.397  13.294 -0.5079 -0.4781  0.5239
  140MPD2    C3 2135   2.189   4.276  13.339  0.4607 -0.2945  0.2264
  140MPD2    C4 2136   2.243   4.258  13.463  0.2529  0.5811  0.4477
  140MPD2    C5 2137   2.242   4.365  13.543  0.3183 -0.1074 -0.4126
  140MPD2     H 2138   2.081   4.395  13.197  0.7136  0.7163 -0.1097
  140MPD2    H1 2139   2.287   4.167  13.503  1.6225  2.0882  2.3544
  140MPD2    H2 2140   2.187   4.567  13.581  2.8054  1.8579 -2.1413
  140MPD2    H3 2141   2.284   4.353  13.642 -0.3140  0.6103 -0.0584
  140MPD2     N 2142   2.175   4.168  13.250 -0.3797  0.1705  0.8790
  140MPD2    H5 2143   2.147   4.192  13.155 -0.6689  2.2876  1.4903
  140MPD2    N1 2144   2.093   4.636  13.343  0.4310 -0.6254  0.7036
  140MPD2    H7 2145   2.098   4.704  13.417  0.2570 -0.9983  1.0596
  141TCq2    C1 2146   2.701   1.409  14.141 -0.0166 -0.2713  1.2724
  141TCq2    O2 2147   2.687   1.486  14.047  0.5892  0.4142 -0.1694
  141TCq2    C2 2148   2.735   1.468  14.268  0.3931 -0.6870 -0.1290
  141TCq2    C3 2149   2.806   1.394  14.365  0.1476  0.0730  0.0478
  141TCq2    C4 2150   2.831   1.455  14.481  0.7687  0.3839  0.7415
  141TCq2    C5 2151   2.788   1.582  14.503  0.1980  0.7913 -0.3078
  141TCq2    C6 2152   2.728   1.656  14.402  0.1965 -0.2886 -0.0706
  141TCq2    C7 2153   2.699   1.594  14.290 -0.2558  0.4273  0.8641
  141TCq2    C8 2154   2.649   1.779  14.421 -0.2043 -0.2226  0.3462
  141TCq2    O4 2155   2.547   1.798  14.352  0.2561 -0.2519 -0.4952
  141TCq2    C9 2156   2.879   1.382  14.587  0.7349  0.6118 -0.3287
  141TCq2    O5 2157   2.884   1.444  14.698 -0.0223  0.5726  0.4747
  141TCq2    O6 2158   2.906   1.261  14.573  0.4937 -0.4020  0.1859
  141TCq2    H2 2159   2.825   1.291  14.337 -0.3970 -0.0689  0.2002
  141TCq2    H3 2160   2.813   1.634  14.595 -0.5801  2.1327 -0.8509
  141TCq2    H4 2161   2.637   1.634  14.210  0.7036  1.8081  0.8204
  142MPD2     C 2162   1.713   4.301  10.433  1.1074 -0.0164 -0.4635
  142MPD2    C1 2163   1.617   4.303  10.340 -0.1660 -0.1160 -0.8637
  142MPD2    C2 2164   1.582   4.425  10.287 -0.1256  0.2234  0.3151
  142MPD2    C3 2165   1.653   4.536  10.309  0.0266 -0.4112 -0.2965
  142MPD2    C4 2166   1.758   4.529  10.394  0.1462  0.8331 -0.3273
  142MPD2    C5 2167   1.793   4.408  10.459 -0.7032 -0.0747  0.5165
  142MPD2     H 2168   1.497   4.422  10.220  0.2259  0.4232 -0.1374
  142MPD2    H1 2169   1.822   4.612  10.421 -0.9907  1.8714 -0.8444
  142MPD2    H2 2170   1.742   4.215  10.492 -1.7962 -1.4972 -1.1848
  142MPD2    H3 2171   1.875   4.414  10.530  0.7138  1.3545 -1.2480
  142MPD2     N 2172   1.627   4.660  10.247  0.9536 -1.0356 -0.1086
  142MPD2    H5 2173   1.683   0.013  10.283 -1.8090  1.6909 -1.5932
  142MPD2    N1 2174   1.545   4.185  10.311  0.2770 -0.1774  0.1606
  142MPD2    H7 2175   1.580   4.106  10.365  0.0044  1.7782  3.1955
  143TCq2    C1 2176   1.530   4.684  10.152 -0.2140  0.8799  0.4349
  143TCq2    O2 2177   1.468   4.599  10.088 -0.4228 -0.5017  0.0313
  143TCq2    C2 2178   1.527   0.104  10.125  0.1929 -0.3102 -0.1488
  143TCq2    C3 2179   1.545   0.190  10.224 -0.2189  0.0750 -0.5909
  143TCq2    C4 2180   1.559   0.325  10.189  0.4018 -0.0387 -0.2775
  143TCq2    C5 2181   1.558   0.373  10.061  0.3008  0.1365 -0.1700
  143TCq2    C6 2182   1.538   0.278   9.959 -0.4427 -1.0646 -0.1277
  143TCq2    C7 2183   1.521   0.146   9.992 -0.6132  0.0552 -0.3920
  143TCq2    C8 2184   1.557   0.312   9.816 -0.1514 -0.4527 -0.8236
  143TCq2    O4 2185   1.550   0.432   9.785  0.1170  0.5877  0.5276
  143TCq2    C9 2186   1.581   0.421  10.301  0.3478 -0.3978 -0.4928
  143TCq2    O5 2187   1.557   0.376  10.417  0.5805  0.1141 -0.3566
  143TCq2    O6 2188   1.588   0.546  10.276 -0.0308 -0.0001 -0.1236
  143TCq2    H2 2189   1.543   0.167  10.330 -0.6607  1.2753 -0.3439
  143TCq2    H3 2190   1.576   0.476  10.034  0.7166  0.3365  0.8371
  143TCq2    H4 2191   1.505   0.067   9.919 -2.3003  0.9686 -1.0076
  144MPD2     C 2192   2.871   4.017   0.805 -0.1072 -0.2527 -0.6372
  144MPD2    C1 2193   2.881   3.887   0.792  0.0681 -0.1487  0.3487
  144MPD2    C2 2194   2.973   3.817   0.873  0.0806 -0.5969 -0.1309
  144MPD2    C3 2195   3.054   3.885   0.968  0.3398  0.4100 -0.0969
  144MPD2    C4 2196   3.038   4.026   0.981  0.5795  0.0642 -1.4095
  144MPD2    C5 2197   2.950   4.093   0.895 -0.0438  0.4004  0.7658
  144MPD2     H 2198   2.979   3.710   0.859 -0.0146 -0.3630 -1.9284
  144MPD2    H1 2199   3.086   4.076   1.064 -1.4909  1.2672 -0.9167
  144MPD2    H2 2200   2.803   4.072   0.742  0.6548  0.6223 -0.6944
  144MPD2    H3 2201   2.940   4.200   0.902  1.9216  0.7407 -1.2785
  144MPD2     N 2202   3.132   3.810   1.055 -0.4097  0.0817  0.0522
  144MPD2    H5 2203   3.169   3.864   1.133  1.3627 -1.5846  0.3565
  144MPD2    N1 2204   2.794   3.807   0.713 -0.2923 -0.3569  0.3282
  144MPD2    H7 2205   2.803   3.706   0.713 -2.0292 -0.5263 -2.7351
  145TCq2    C1 2206   3.160   3.680   1.035 -0.0220 -0.2900 -0.2043
  145TCq2    O2 2207   3.137   3.598   0.947  0.0330 -0.3866 -0.1517
  145TCq2    C2 2208   3.248   3.633   1.137 -0.5127  0.7455 -0.2964
  145TCq2    C3 2209   3.328   3.529   1.107 -0.5295  0.3932 -0.5198
  145TCq2    C4 2210   3.423   3.491   1.198  0.8125  0.0430 -0.2425
  145TCq2    C5 2211   3.436   3.565   1.312 -0.8112 -0.6531 -0.6398
  145TCq2    C6 2212   3.343   3.659   1.340  0.1160  0.1987  0.8284
  145TCq2    C7 2213   3.244   3.695   1.260 -0.0585 -0.4492 -0.4622
  145TCq2    C8 2214   3.344   3.700   1.485 -0.7183  0.3755 -0.3581
  145TCq2    O4 2215   3.417   3.633   1.558  0.0094  0.4984 -0.5235
  145TCq2    C9 2216   3.520   3.380   1.176 -0.3797  0.6910  0.1520
  145TCq2    O5 2217   3.501   3.316   1.068  0.1296  0.2552  0.2865
  145TCq2    O6 2218   3.622   3.378   1.247 -0.0933 -0.0073 -0.0589
  145TCq2    H2 2219   3.319   3.483   1.009  0.0311 -1.2208  0.2013
  145TCq2    H3 2220   3.515   3.536   1.380  0.5699  0.8588 -1.6150
  145TCq2    H4 2221   3.157   3.751   1.291 -0.1883 -1.3315  0.7665
  146TMC2    C1 2222   4.199   2.786  12.840  0.3851  0.2665  0.4745
  146TMC2    C2 2223   4.111   2.881  12.787 -0.2094  0.2276 -0.4603
  146TMC2    C3 2224   4.042   2.845  12.677 -0.0440  0.1775 -1.1222
  146TMC2    C4 2225   4.223   2.668  12.787  0.4367 -0.6678  0.2550
  146TMC2    C5 2226   4.150   2.643  12.676  0.3618  0.3569  0.5321
  146TMC2    C6 2227   4.053   2.723  12.620  0.5446  0.0811  0.1925
  146TMC2     C 2228   4.228   2.825  12.980  0.4547  0.1483 -0.5354
  146TMC2     O 2229   4.163   2.909  13.041 -0.1548 -0.2105 -0.1191
  146TMC2     H 2230   4.120   2.984  12.819  1.1810  0.2291 -0.8576
  146TMC2    H1 2231   4.303   2.612  12.834  0.3448 -0.9385  0.0912
  146TMC2    H2 2232   4.000   2.691  12.531  1.0007  1.7562 -0.6779
  146TMC2    C7 2233   4.177   2.521  12.606  0.0957 -0.4220  0.9982
  146TMC2    C8 2234   3.945   2.946  12.631  0.3153 -0.8035 -0.2096
  146TMC2    O1 2235   4.107   2.485  12.509 -0.2089 -0.4126 -0.0439
  146TMC2    O2 2236   3.981   3.066  12.627 -0.5254  0.0865  0.8246
  146TMC2    O5 2237   3.828   2.889  12.582 -0.1507  0.0330  0.4969
  146TMC2    H5 2238   3.815   2.792  12.595  1.8908 -0.3739 -0.5347
  147MPD2     C 2239   4.497   2.172  12.484  0.4981 -0.7807 -0.2469
  147MPD2    C1 2240   4.511   2.193  12.621 -0.1721 -0.1219 -0.6122
  147MPD2    C2 2241   4.433   2.280  12.691  0.3619 -0.1055  0.1594
  147MPD2    C3 2242   4.337   2.344  12.603  0.0709 -0.3889 -0.1256
  147MPD2    C4 2243   4.332   2.319  12.465  1.2138 -0.3522  0.0147
  147MPD2    C5 2244   4.409   2.232  12.405 -0.3646  0.0497 -0.0637
  147MPD2     H 2245   4.437   2.303  12.797 -2.7146 -0.7142  0.3993
  147MPD2    H1 2246   4.268   2.379  12.401  0.7394 -0.3153  0.5267
  147MPD2    H2 2247   4.569   2.111  12.432  0.0034  0.0591 -1.9061
  147MPD2    H3 2248   4.406   2.219  12.298  0.9429  2.3502 -0.3938
  147MPD2     N 2249   4.276   2.455  12.663  0.5384 -0.2181  0.1237
  147MPD2    H5 2250   4.311   2.477  12.756  0.9552 -0.8776  0.1291
  147MPD2    N1 2251   4.613   2.105  12.676  0.2138 -0.4039 -0.4325
  147MPD2    H7 2252   4.666   2.046  12.612  0.5871  0.3043 -0.7750
  148MPD2     C 2253   0.524   0.819  10.231  0.6999 -0.4964  0.1766
  148MPD2    C1 2254   0.459   0.737  10.320  0.1094  0.0126  0.1175
  148MPD2    C2 2255   0.354   0.655  10.285  0.2537 -0.0807 -0.1950
  148MPD2    C3 2256   0.323   0.657  10.149  0.2969  0.7354 -0.3074
  148MPD2    C4 2257   0.394   0.728  10.057 -0.0988 -0.3992 -0.2800
  148MPD2    C5 2258   0.485   0.821  10.103 -0.2297 -0.5965  0.0990
  148MPD2     H 2259   0.298   0.598  10.358  1.1429  1.5038  1.7178
  148MPD2    H1 2260   0.370   0.732   9.952  1.5911 -0.2110 -0.6570
  148MPD2    H2 2261   0.602   0.891  10.252 -0.6475  1.1484 -0.4402
  148MPD2    H3 2262   0.540   0.882  10.032  1.4936 -1.8982  0.3131
  148MPD2     N 2263   0.220   0.588  10.094  0.5673  0.3356 -0.5058
  148MPD2    H5 2264   0.218   0.589   9.992  1.6240 -0.6990 -0.5384
  148MPD2    N1 2265   0.504   0.727  10.455  0.1570  0.5076  0.3313
  148MPD2    H7 2266   0.460   0.661  10.518  0.8284 -1.4842 -1.2695
  149TCq2    C1 2267   0.609   0.800  10.507 -0.1192 -0.4069  0.0969
  149TCq2    O2 2268   0.670   0.904  10.473 -0.1840  0.1588 -0.2600
  149TCq2    C2 2269   0.654   0.730  10.628  0.2609  0.7307 -0.8987
  149TCq2    C3 2270   0.558   0.670  10.702 -0.2962  0.3436 -0.7288
  149TCq2    C4 2271   0.581   0.551  10.761  0.0652  0.7830  0.5243
  149TCq2    C5 2272   0.696   0.483  10.725  0.1721  0.0527 -0.5142
  149TCq2    C6 2273   0.782   0.544  10.637  0.2243 -0.2129 -0.7164
  149TCq2    C7 2274   0.772   0.673  10.602 -0.0593  0.4540  0.4743
  149TCq2    C8 2275   0.795   0.462  10.516  0.0160  0.2648 -0.2865
  149TCq2    O4 2276   0.749   0.349  10.539 -0.5155 -0.8756 -0.4412
  149TCq2    C9 2277   0.478   0.472  10.818 -0.1514 -0.0366 -0.5073
  149TCq2    O5 2278   0.504   0.357  10.863 -0.4511  0.2422  0.3329
  149TCq2    O6 2279   0.362   0.519  10.814  0.0851 -0.0628  0.6073
  149TCq2    H2 2280   0.471   0.723  10.738  0.7724  1.8496 -0.4057
  149TCq2    H3 2281   0.707   0.382  10.762 -0.2478 -0.1545 -0.9581
  149TCq2    H4 2282   0.838   0.719  10.529 -0.0830 -1.4238 -0.7499
  150MPD2     C 2283   1.794   0.206  12.168  0.5190 -0.0361  0.0204
  150MPD2    C1 2284   1.748   0.327  12.125 -0.0860 -0.5472 -0.1353
  150MPD2    C2 2285   1.830   0.440  12.134 -0.4831  0.0977  0.5067
  150MPD2    C3 2286   1.954   0.433  12.191 -0.3390  0.6901 -0.0685
  150MPD2    C4 2287   1.996   0.315  12.240 -0.7239 -0.0997  0.1048
  150MPD2    C5 2288   1.921   0.201  12.222 -0.5574 -0.0152  0.8193
  150MPD2     H 2289   1.793   0.537  12.104  0.6571 -0.0692 -1.3869
  150MPD2    H1 2290   2.095   0.289  12.276 -1.0259 -0.1897  0.8807
  150MPD2    H2 2291   1.731   0.119  12.153  1.3256 -0.3796 -1.3690
  150MPD2    H3 2292   1.954   0.109  12.269  1.2888 -0.5665 -1.5235
  150MPD2     N 2293   2.020   0.555  12.227 -0.2311  0.3596  0.2303
  150MPD2    H5 2294   1.979   0.645  12.206 -1.7888 -0.3211  0.3559
  150MPD2    N1 2295   1.619   0.333  12.069  0.7378  0.7813  0.3625
  150MPD2    H7 2296   1.567   0.246  12.079  2.4271 -0.2179  0.5746
  151TCq2    C1 2297   2.148   0.564  12.280  0.1651 -0.4051 -0.2965
  151TCq2    O2 2298   2.225   0.476  12.308 -0.1754 -0.4047 -0.1583
  151TCq2    C2 2299   2.190   0.699  12.304 -0.2016 -0.2979 -0.6469
  151TCq2    C3 2300   2.102   0.804  12.287  0.0673  0.4876  0.3507
  151TCq2    C4 2301   2.137   0.921  12.350 -0.0058  0.5151  0.2002
  151TCq2    C5 2302   2.255   0.933  12.415 -0.2325 -0.2791 -0.9975
  151TCq2    C6 2303   2.336   0.828  12.438  0.3786  0.0453 -0.1141
  151TCq2    C7 2304   2.307   0.707  12.378  0.0089 -0.0249 -0.4117
  151TCq2    C8 2305   2.465   0.844  12.504 -0.5927  0.1989 -0.2752
  151TCq2    O4 2306   2.485   0.956  12.543  0.0345 -0.2820 -0.5017
  151TCq2    C9 2307   2.040   1.028  12.338  0.0512  0.3856  0.0871
  151TCq2    O5 2308   2.075   1.144  12.372 -0.4023  0.6041  0.1599
  151TCq2    O6 2309   1.944   1.011  12.252  0.6218  0.5873 -0.5142
  151TCq2    H2 2310   2.012   0.800  12.226  0.7070  1.6230 -0.6669
  151TCq2    H3 2311   2.282   1.029  12.459 -0.8742 -0.1199 -0.9577
  151TCq2    H4 2312   2.363   0.617  12.399  1.9702  1.4251  0.6409
  152MPD2     C 2313   1.327   4.562  12.731  0.6911 -0.1602 -0.0824
  152MPD2    C1 2314   1.340   4.678  12.659 -0.0311 -0.6430 -1.2456
  152MPD2    C2 2315   1.220   0.021  12.634  0.3122  0.8888  0.1238
  152MPD2    C3 2316   1.102   4.712  12.697 -0.0496 -0.3137  0.8326
  152MPD2    C4 2317   1.095   4.597  12.769 -0.1542  0.8167 -0.3855
  152MPD2    C5 2318   1.207   4.518  12.782 -0.4116  0.5768  0.8224
  152MPD2     H 2319   1.226   0.110  12.571 -1.0836 -1.2569 -3.0479
  152MPD2    H1 2320   1.005   4.561  12.817  1.1010 -1.0371  0.5772
  152MPD2    H2 2321   1.421   4.514  12.756  0.7481 -0.9692 -1.8431
  152MPD2    H3 2322   1.197   4.422  12.831 -0.3549  0.8258  1.3217
  152MPD2     N 2323   0.993   0.078  12.674 -0.3008 -0.1548  0.6651
  152MPD2    H5 2324   1.018   0.158  12.616 -2.4003  1.6511  2.2699
  152MPD2    N1 2325   1.468   4.723  12.614  0.0547  0.8704  0.5563
  152MPD2    H7 2326   1.551   4.686  12.660  0.6281  1.1804 -0.2281
  153TCq2    C1 2327   1.494   0.114  12.545 -0.9520 -0.0801  0.5992
  153TCq2    O2 2328   1.412   0.188  12.492  0.2544 -0.3839  0.4769
  153TCq2    C2 2329   1.638   0.142  12.514 -0.3090 -0.4071 -0.3514
  153TCq2    C3 2330   1.737   0.047  12.532  0.2770  0.2589  0.3140
  153TCq2    C4 2331   1.863   0.086  12.555 -0.1234  0.6697  0.3659
  153TCq2    C5 2332   1.897   0.221  12.577 -0.1745  0.3274 -0.4637
  153TCq2    C6 2333   1.794   0.312  12.564 -0.2911 -0.4532  0.2098
  153TCq2    C7 2334   1.668   0.267  12.523 -0.2840 -0.1406  0.6348
  153TCq2    C8 2335   1.825   0.452  12.559  0.4780  0.3215  0.0157
  153TCq2    O4 2336   1.736   0.524  12.519 -0.1130 -0.6152 -0.4544
  153TCq2    C9 2337   1.958   4.706  12.575 -0.3528 -0.5120  0.4934
  153TCq2    O5 2338   2.078   0.020  12.596  0.1245 -0.3659 -0.6539
  153TCq2    O6 2339   1.919   4.590  12.538 -0.6117 -0.0236 -0.3002
  153TCq2    H2 2340   1.716   4.663  12.533 -0.3709  0.3826  0.4306
  153TCq2    H3 2341   2.000   0.240  12.603 -0.6339  1.0590  0.8587
  153TCq2    H4 2342   1.591   0.336  12.492  0.5165  0.0588 -0.8940
  154MPD2     C 2343   2.871   0.260   0.928 -0.6967  0.6577 -0.0760
  154MPD2    C1 2344   2.889   0.285   1.061 -0.2092 -0.3162  0.3140
  154MPD2    C2 2345   2.797   0.360   1.126  0.4055  0.4240 -1.0429
  154MPD2    C3 2346   2.677   0.401   1.062 -0.8136 -0.3540 -0.4170
  154MPD2    C4 2347   2.660   0.371   0.929 -0.4744 -0.0667  0.5682
  154MPD2    C5 2348   2.755   0.304   0.866  0.2328  0.7697 -0.2096
  154MPD2     H 2349   2.815   0.383   1.231 -0.7280 -0.5406 -0.6450
  154MPD2    H1 2350   2.569   0.394   0.876 -1.5152 -0.9933  1.9379
  154MPD2    H2 2351   2.942   0.202   0.870 -0.7129 -1.4765  2.0588
  154MPD2    H3 2352   2.736   0.271   0.764 -0.7371  0.6842  0.0049
  154MPD2     N 2353   2.575   0.466   1.136 -0.1139 -0.4738  0.3270
  154MPD2    H5 2354   2.605   0.486   1.231 -0.0952  1.5817 -0.1025
  154MPD2    N1 2355   3.010   0.246   1.122  0.0041 -0.3303  0.3225
  154MPD2    H7 2356   3.070   0.183   1.070 -1.0626 -2.4006  1.5720
  155TCq2    C1 2357   3.062   0.292   1.247  0.4529 -0.3437 -0.0247
  155TCq2    O2 2358   3.026   0.381   1.327  0.1423  0.1736 -0.6244
  155TCq2    C2 2359   3.199   0.252   1.261 -0.7281 -0.2835 -0.5762
  155TCq2    C3 2360   3.290   0.342   1.312  0.1470 -0.4413  0.3790
  155TCq2    C4 2361   3.423   0.332   1.294 -0.1648  0.1018 -0.5525
  155TCq2    C5 2362   3.463   0.235   1.207 -0.4224  1.2438  0.8229
  155TCq2    C6 2363   3.378   0.146   1.160 -0.1360  0.1113 -0.2554
  155TCq2    C7 2364   3.246   0.149   1.191 -0.5276 -0.4429  0.1422
  155TCq2    C8 2365   3.430   0.037   1.074  1.0697 -0.0268 -0.7883
  155TCq2    O4 2366   3.349   4.673   1.036  0.1144 -0.1359 -0.5411
  155TCq2    C9 2367   3.508   0.436   1.341 -0.0854 -0.0824 -0.5460
  155TCq2    O5 2368   3.458   0.527   1.407 -0.3383 -0.7118  0.1310
  155TCq2    O6 2369   3.627   0.430   1.310 -0.1605 -0.4724 -0.7548
  155TCq2    H2 2370   3.246   0.425   1.365  1.1241 -0.1105  0.6735
  155TCq2    H3 2371   3.570   0.232   1.186 -0.9615  0.2085 -1.7188
  155TCq2    H4 2372   3.187   0.063   1.162 -0.7448 -1.0950  2.4881
  156MPD2     C 2373   1.545   2.276  12.373  0.4938 -0.1309  0.3310
  156MPD2    C1 2374   1.543   2.359  12.266  0.2228  0.3317  0.5416
  156MPD2    C2 2375   1.620   2.473  12.280  0.1488  0.1333 -0.5090
  156MPD2    C3 2376   1.713   2.484  12.374 -0.0459 -0.0501 -1.1525
  156MPD2    C4 2377   1.727   2.389  12.469 -0.2348 -0.0637 -0.1536
  156MPD2    C5 2378   1.636   2.297  12.473  0.5098 -0.6333  0.6920
  156MPD2     H 2379   1.616   2.546  12.200  1.1094  0.9521  0.1791
  156MPD2    H1 2380   1.802   2.389  12.547  0.1418 -3.7673 -0.4947
  156MPD2    H2 2381   1.479   2.190  12.371 -0.8941  0.8807  2.5005
  156MPD2    H3 2382   1.642   2.216  12.545 -2.4885 -0.8016  0.7604
  156MPD2     N 2383   1.795   2.598  12.364  0.2985 -0.3149  0.1098
  156MPD2    H5 2384   1.765   2.663  12.291  0.3985 -0.2048  0.1653
  156MPD2    N1 2385   1.469   2.322  12.156 -0.1747  0.5706 -0.2517
  156MPD2    H7 2386   1.407   2.242  12.156  0.7633 -0.1532 -0.1916
  157TCq2    C1 2387   1.460   2.397  12.039 -0.1996 -0.0123  0.5419
  157TCq2    O2 2388   1.520   2.496  12.000  0.4715 -0.2207  0.2965
  157TCq2    C2 2389   1.407   2.323  11.925  0.1979 -0.2790  0.3733
  157TCq2    C3 2390   1.381   2.187  11.935  0.1419  0.0041  0.1849
  157TCq2    C4 2391   1.371   2.117  11.818  0.1537  0.5426  0.1831
  157TCq2    C5 2392   1.397   2.180  11.693 -0.5229  0.3500 -1.3214
  157TCq2    C6 2393   1.418   2.320  11.689  1.2347  0.4930  0.1974
  157TCq2    C7 2394   1.405   2.389  11.805  0.7263 -0.6110 -0.4191
  157TCq2    C8 2395   1.460   2.390  11.571  0.7460  0.7483  0.5631
  157TCq2    O4 2396   1.503   2.504  11.594  0.1135 -0.1828  0.5390
  157TCq2    C9 2397   1.335   1.977  11.826 -0.6263  0.7654  0.5835
  157TCq2    O5 2398   1.316   1.926  11.938  0.1697 -0.3193 -0.5436
  157TCq2    O6 2399   1.307   1.925  11.716 -0.0993 -0.5300  0.1108
  157TCq2    H2 2400   1.383   2.129  12.027  0.1986 -1.0708 -0.4943
  157TCq2    H3 2401   1.406   2.118  11.605  1.3842 -1.9980  0.5112
  157TCq2    H4 2402   1.425   2.495  11.801  0.5171 -0.5914 -0.9883
  158TMC2    C1 2403   1.947   1.691  13.463 -0.4079  0.3970 -0.0146
  158TMC2    C2 2404   1.948   1.789  13.366 -0.2824  0.8219  0.4821
  158TMC2    C3 2405   1.839   1.862  13.331 -0.2419 -0.0109  0.3258
  158TMC2    C4 2406   1.825   1.653  13.514  0.4159 -0.1216 -0.0368
  158TMC2    C5 2407   1.711   1.731  13.489 -0.2142  0.1445 -0.7920
  158TMC2    C6 2408   1.726   1.838  13.402 -0.4040 -0.4056 -0.2308
  158TMC2     C 2409   2.059   1.599  13.482  0.3079  0.2487  0.2516
  158TMC2     O 2410   2.124   1.559  13.388 -0.3421  0.0134  0.2597
  158TMC2     H 2411   2.042   1.835  13.336  1.2133 -3.5438 -1.5639
  158TMC2    H1 2412   1.820   1.571  13.584  0.4734 -0.0866  0.0089
  158TMC2    H2 2413   1.642   1.905  13.392 -0.3890 -0.3010  0.3418
  158TMC2    C7 2414   1.576   1.677  13.491  0.6962 -0.5134 -0.0683
  158TMC2    C8 2415   1.851   1.994  13.276  0.9327  0.4659 -0.1051
  158TMC2    O1 2416   1.507   1.701  13.394  0.5403 -0.1247 -0.4520
  158TMC2    O2 2417   1.789   2.082  13.328  1.1367  0.2473  0.1264
  158TMC2    O5 2418   1.904   1.991  13.155  0.2754 -0.3594 -0.2842
  158TMC2    H5 2419   1.938   1.905  13.123 -1.8453 -1.0361 -0.6583
  159MPD2     C 2420   2.188   1.221  13.792  0.2717 -0.6068 -0.6151
  159MPD2    C1 2421   2.167   1.339  13.865  0.7702  0.2167  0.3904
  159MPD2    C2 2422   2.154   1.460  13.799 -0.2168  0.7139  0.1863
  159MPD2    C3 2423   2.140   1.460  13.660  0.1549  0.1994  0.3458
  159MPD2    C4 2424   2.169   1.346  13.587 -0.5792  0.0494  0.0029
  159MPD2    C5 2425   2.194   1.229  13.655 -0.1166 -0.2577 -0.5545
  159MPD2     H 2426   2.127   1.555  13.846  0.7449  0.3004  1.5768
  159MPD2    H1 2427   2.156   1.339  13.480  0.4146  1.0396 -0.1838
  159MPD2    H2 2428   2.198   1.123  13.836 -0.1381  0.6479  2.3046
  159MPD2    H3 2429   2.218   1.138  13.600 -0.6065  0.7550 -2.4238
  159MPD2     N 2430   2.071   1.574  13.612  0.0669  0.7187 -0.0339
  159MPD2    H5 2431   2.016   1.635  13.671  0.7101  2.7141 -1.4779
  159MPD2    N1 2432   2.164   1.323  14.009 -0.3036  0.0004  0.0691
  159MPD2    H7 2433   2.196   1.235  14.049  0.1328  0.3218  0.4210
  160TMC2    C1 2434   1.898   4.128   1.934  0.1283  0.1452 -0.1536
  160TMC2    C2 2435   1.942   4.026   2.010 -0.1789 -0.0329 -0.2536
  160TMC2    C3 2436   2.028   3.934   1.963  0.5238  0.2534 -0.1075
  160TMC2    C4 2437   1.949   4.148   1.811  0.0657 -0.3601  0.0066
  160TMC2    C5 2438   2.045   4.058   1.762  0.3558  0.0396  0.1568
  160TMC2    C6 2439   2.090   3.951   1.839  0.1792 -0.2262  0.7707
  160TMC2     C 2440   1.809   4.225   1.991  0.4618 -0.0302  0.3597
  160TMC2     O 2441   1.801   4.247   2.111 -0.5587 -0.1261 -0.5887
  160TMC2     H 2442   1.907   4.021   2.113  0.7485  0.7636  0.0983
  160TMC2    H1 2443   1.926   4.240   1.759  0.9088  0.4734  1.1020
  160TMC2    H2 2444   2.176   3.893   1.808 -2.0808 -2.2994 -1.6642
  160TMC2    C7 2445   2.092   4.058   1.619 -0.3260 -0.4626 -0.4738
  160TMC2    C8 2446   2.087   3.841   2.065 -0.4375 -0.0349  0.3350
  160TMC2    O1 2447   2.115   3.950   1.572  0.1295 -1.0310  0.0361
  160TMC2    O2 2448   2.054   3.832   2.184 -0.2231 -0.0754  0.8025
  160TMC2    O5 2449   2.115   3.736   1.988  0.2700  0.6099  0.2737
  160TMC2    H5 2450   2.095   3.750   1.893  1.1084 -0.5698 -0.0712
  161MPD2     C 2451   1.592   4.424   2.024 -0.5718 -0.2331  0.1179
  161MPD2    C1 2452   1.624   4.351   1.906  0.1066 -0.5282 -0.0225
  161MPD2    C2 2453   1.562   4.384   1.785 -0.4923 -0.5123  0.0984
  161MPD2    C3 2454   1.475   4.492   1.776 -0.0386  0.0426  0.7879
  161MPD2    C4 2455   1.457   4.577   1.888  0.9464 -0.0483 -0.6156
  161MPD2    C5 2456   1.507   4.534   2.012 -0.8275 -0.4011  0.1243
  161MPD2     H 2457   1.594   4.335   1.694  0.0999  0.4092 -0.1872
  161MPD2    H1 2458   1.404   4.671   1.880  0.9226 -0.1950 -2.2000
  161MPD2    H2 2459   1.629   4.395   2.122  0.2226 -1.3891 -0.5107
  161MPD2    H3 2460   1.470   4.583   2.102 -0.4883  0.7593 -0.3606
  161MPD2     N 2461   1.424   4.535   1.649 -0.1764 -0.0891  0.0743
  161MPD2    H5 2462   1.387   4.630   1.644  0.1972  0.1899  2.3095
  161MPD2    N1 2463   1.724   4.258   1.893 -0.1706 -0.0191  0.5048
  161MPD2    H7 2464   1.738   4.217   1.801  0.7494  1.7197 -0.1193
  162TMC2    C1 2465   0.030   1.228   1.159 -0.6114  0.3220  0.0053
  162TMC2    C2 2466   4.650   1.174   1.221  0.0503  0.8416 -0.3512
  162TMC2    C3 2467   4.670   1.095   1.331  0.3565 -0.0190  0.7481
  162TMC2    C4 2468   0.155   1.213   1.208  0.1019  0.0552 -0.0300
  162TMC2    C5 2469   0.178   1.128   1.318 -0.7215 -0.5080  0.0765
  162TMC2    C6 2470   0.072   1.065   1.381  0.1930  0.0653  0.7480
  162TMC2     C 2471   0.027   1.327   1.051  0.7817 -0.0650 -0.6355
  162TMC2     O 2472   4.667   1.417   1.055  1.1988  0.3193 -0.0205
  162TMC2     H 2473   4.550   1.181   1.180  0.2651  2.7217 -0.5519
  162TMC2    H1 2474   0.232   1.263   1.151  0.0885 -1.6380 -1.5340
  162TMC2    H2 2475   0.096   0.999   1.464 -1.2674 -0.0468  1.0818
  162TMC2    C7 2476   0.312   1.094   1.342  0.6385  0.4412  0.3408
  162TMC2    C8 2477   4.557   1.053   1.413 -0.5415 -0.1552 -0.6186
  162TMC2    O1 2478   0.392   1.134   1.263  0.2735  0.0602  0.0928
  162TMC2    O2 2479   4.585   0.977   1.505  0.2253 -0.0874 -0.5721
  162TMC2    O5 2480   4.463   1.151   1.407 -0.3947  0.1398  0.3147
  162TMC2    H5 2481   4.447   1.198   1.322 -0.9419 -1.3800 -0.4154
  163MPD2     C 2482   0.158   1.493   0.584  0.2287 -0.1433 -0.0756
  163MPD2    C1 2483   0.200   1.362   0.599  0.7765  0.1602  1.0309
  163MPD2    C2 2484   0.188   1.293   0.721  0.3293  0.5536  0.3689
  163MPD2    C3 2485   0.117   1.354   0.824  0.0072  0.0680 -1.5992
  163MPD2    C4 2486   0.070   1.485   0.807 -0.6249  0.1548  0.1369
  163MPD2    C5 2487   0.091   1.548   0.688 -0.2546 -0.7673  0.6368
  163MPD2     H 2488   0.212   1.187   0.724 -0.7152  0.3723  2.1562
  163MPD2    H1 2489   0.027   1.544   0.887  2.4326 -1.6166  3.0757
  163MPD2    H2 2490   0.157   1.547   0.490 -0.2015  0.3118  0.1916
  163MPD2    H3 2491   0.052   1.649   0.686  2.3735  0.2570  0.4307
  163MPD2     N 2492   0.100   1.284   0.945 -0.0805 -0.4378 -0.6120
  163MPD2    H5 2493   0.143   1.192   0.945 -0.9118 -0.8239 -0.3113
  163MPD2    N1 2494   0.248   1.292   0.482  0.4440  0.0471  0.1732
  163MPD2    H7 2495   0.233   1.342   0.395  2.9705 -1.6337 -1.2263
  164TCq2    C1 2496   0.502   1.221  10.974 -0.3791  0.2284  0.8004
  164TCq2    O2 2497   0.413   1.154  11.014  0.0676 -0.1556  0.2528
  164TCq2    C2 2498   0.488   1.364  10.986 -0.6627  0.2216  0.8853
  164TCq2    C3 2499   0.605   1.426  11.031 -0.4150 -0.6511  0.1893
  164TCq2    C4 2500   0.586   1.545  11.096  0.2828 -0.4107  0.0744
  164TCq2    C5 2501   0.463   1.592  11.130 -0.3681 -0.5400 -0.1187
  164TCq2    C6 2502   0.347   1.525  11.087 -0.1659 -0.1889 -0.2836
  164TCq2    C7 2503   0.362   1.407  11.022  0.2403  0.0897 -0.0693
  164TCq2    C8 2504   0.218   1.576  11.127  0.1999 -0.1064 -0.9027
  164TCq2    O4 2505   0.123   1.509  11.085 -0.2048 -0.4773  0.3009
  164TCq2    C9 2506   0.706   1.618  11.144 -0.0430 -0.0562 -0.0341
  164TCq2    O5 2507   0.819   1.570  11.131 -0.0556  0.2678 -0.1903
  164TCq2    O6 2508   0.674   1.725  11.194  0.0693 -0.7297 -0.0885
  164TCq2    H2 2509   0.704   1.396  10.998  0.6145  1.6244  1.2003
  164TCq2    H3 2510   0.458   1.686  11.184 -2.8881  0.8839 -2.7903
  164TCq2    H4 2511   0.274   1.345  11.012  0.8952 -0.8146 -0.1823
  165MPD2     C 2512   2.832   2.488   2.388  0.5535 -0.4795 -0.6891
  165MPD2    C1 2513   2.764   2.593   2.329  0.1976 -0.1009 -0.1666
  165MPD2    C2 2514   2.808   2.722   2.341 -0.5732 -0.8574 -0.4960
  165MPD2    C3 2515   2.914   2.751   2.430  0.0186 -0.2946 -0.7366
  165MPD2    C4 2516   2.992   2.648   2.476 -0.6459  0.3714  0.0435
  165MPD2    C5 2517   2.949   2.519   2.462  0.1361 -0.7025  0.4888
  165MPD2     H 2518   2.754   2.800   2.289  0.1703 -0.3343 -0.4772
  165MPD2    H1 2519   3.080   2.673   2.534  1.4465 -1.8490 -2.1807
  165MPD2    H2 2520   2.800   2.384   2.387 -0.5673 -0.1348 -0.9448
  165MPD2    H3 2521   3.001   2.442   2.518  2.3851 -0.1497 -0.8472
  165MPD2     N 2522   2.943   2.886   2.461  0.1541  0.3505  0.6273
  165MPD2    H5 2523   3.036   2.902   2.498  0.8182 -0.9268 -0.4921
  165MPD2    N1 2524   2.649   2.562   2.247  0.7498  0.1493 -0.6735
  165MPD2    H7 2525   2.626   2.464   2.232 -1.6546  0.0948  3.2974
  166TCq2    C1 2526   2.850   2.990   2.443  0.2955 -0.3292  0.0787
  166TCq2    O2 2527   2.736   2.983   2.395  0.1988 -0.1695 -0.6329
  166TCq2    C2 2528   2.917   3.124   2.455 -0.7543  0.2730  0.6868
  166TCq2    C3 2529   3.043   3.137   2.515  0.0846 -0.7668  1.1020
  166TCq2    C4 2530   3.091   3.272   2.512 -0.2532  0.0436 -0.2493
  166TCq2    C5 2531   3.033   3.368   2.443 -0.2991 -0.2852  0.1324
  166TCq2    C6 2532   2.913   3.340   2.381  0.8408 -0.1812 -0.3295
  166TCq2    C7 2533   2.851   3.224   2.390  0.0213 -0.0320  0.4596
  166TCq2    C8 2534   2.859   3.429   2.284 -0.2578 -0.0902  0.7922
  166TCq2    O4 2535   2.811   3.371   2.186  0.1350  0.2208 -0.0288
  166TCq2    C9 2536   3.202   3.317   2.593 -0.8428  0.6535 -0.1021
  166TCq2    O5 2537   3.278   3.223   2.633 -0.4637 -0.0329 -0.2141
  166TCq2    O6 2538   3.182   3.433   2.636  0.7574 -0.2900 -0.3060
  166TCq2    H2 2539   3.094   3.062   2.574  1.6959 -0.4391  0.1188
  166TCq2    H3 2540   3.068   3.470   2.445 -1.5458  0.1082  1.7016
  166TCq2    H4 2541   2.749   3.212   2.355 -0.1887  1.5072  0.5649
  167TMC2    C1 2542   4.100   1.371  12.912 -0.0057 -0.2869 -0.1141
  167TMC2    C2 2543   4.002   1.417  12.988 -0.1175 -0.2032  0.7194
  167TMC2    C3 2544   3.943   1.328  13.069  0.0681 -0.0773 -0.6315
  167TMC2    C4 2545   4.143   1.242  12.927  0.0859  0.1820  0.4060
  167TMC2    C5 2546   4.086   1.156  13.018  0.4997  0.2685  0.3648
  167TMC2    C6 2547   3.969   1.198  13.077 -0.1804 -0.0296 -0.5916
  167TMC2     C 2548   4.128   1.448  12.790 -0.3689 -0.3632 -0.3985
  167TMC2     O 2549   4.087   1.564  12.792  0.1094  0.2168 -0.7126
  167TMC2     H 2550   3.964   1.518  12.986 -3.1885 -1.3731 -0.1946
  167TMC2    H1 2551   4.231   1.218  12.869 -0.2227  0.1684 -0.0605
  167TMC2    H2 2552   3.933   1.139  13.160 -0.3584  0.5630 -0.2513
  167TMC2    C7 2553   4.129   1.017  13.037  0.2329 -0.0247 -0.2871
  167TMC2    C8 2554   3.814   1.368  13.129 -0.2501 -0.7622 -0.4636
  167TMC2    O1 2555   4.073   0.957  13.127 -0.2126  0.2984  0.7460
  167TMC2    O2 2556   3.772   1.312  13.230 -0.3619  0.6054  0.3677
  167TMC2    O5 2557   3.738   1.417  13.023  0.2076 -0.1156  0.5919
  167TMC2    H5 2558   3.794   1.448  12.948 -1.3261 -0.7667 -0.8315
  168MPD2     C 2559   4.187   1.520  12.508  0.8697  0.9769  0.2735
  168MPD2    C1 2560   4.179   1.389  12.549 -0.2631 -0.0678  0.1966
  168MPD2    C2 2561   4.207   1.284  12.457  0.6216  0.3240 -0.0129
  168MPD2    C3 2562   4.233   1.312  12.321  0.8219  0.1290  0.9913
  168MPD2    C4 2563   4.241   1.446  12.284 -0.7259  0.0448 -0.1826
  168MPD2    C5 2564   4.220   1.546  12.378  0.1803 -0.6803 -0.5869
  168MPD2     H 2565   4.199   1.184  12.497  0.5563  0.8592  1.2898
  168MPD2    H1 2566   4.246   1.482  12.182 -3.8372  0.2034 -0.2736
  168MPD2    H2 2567   4.171   1.601  12.578 -0.7667  1.8099 -1.0630
  168MPD2    H3 2568   4.226   1.649  12.345  1.4632 -0.4070  0.4920
  168MPD2     N 2569   4.255   1.221  12.217 -0.5819  0.6249  0.1631
  168MPD2    H5 2570   4.268   1.258  12.124 -1.9452 -1.5736 -0.9000
  168MPD2    N1 2571   4.155   1.363  12.685  0.5209  0.0588 -0.2123
  168MPD2    H7 2572   4.142   1.265  12.707  0.3924 -0.4171 -2.3644
  169MPD1     C 2573   1.161   0.861   9.498  0.7451 -0.0415  0.2250
  169MPD1    C1 2574   1.163   0.738   9.564  0.3008 -0.0067  1.0338
  169MPD1    C2 2575   1.283   0.689   9.615  0.1442 -0.4103  0.0384
  169MPD1    C3 2576   1.400   0.760   9.598 -0.2946 -0.3499 -0.5674
  169MPD1    C4 2577   1.390   0.886   9.541 -0.2666  0.2159  0.1020
  169MPD1    C5 2578   1.269   0.938   9.497 -0.4419 -0.8186 -0.8516
  169MPD1     H 2579   1.288   0.586   9.649  3.0850 -0.5844 -0.9656
  169MPD1    H1 2580   1.470   0.958   9.531 -1.6751  1.6764 -0.6283
  169MPD1    H2 2581   1.072   0.884   9.440  2.0099 -0.5933 -1.9347
  169MPD1    H3 2582   1.257   1.039   9.459  1.2097 -0.0388  0.7095
  169MPD1     N 2583   1.527   0.706   9.639  0.5777 -0.7236 -0.2843
  169MPD1    H5 2584   1.513   0.621   9.694  2.0599 -0.6904  0.1525
  169MPD1    N1 2585   1.051   0.658   9.543  0.1509  0.2856  0.3354
  169MPD1    H6 2586   0.966   0.714   9.534  1.5320  2.4932  1.0458
  169MPD1    H7 2587   1.025   0.600   9.623  2.1305 -1.0999 -0.0246
  170MPD1     C 2588   1.078   2.979  12.854  0.2472  0.1518 -0.3063
  170MPD1    C1 2589   0.977   3.054  12.795 -0.2884 -0.1288 -0.0029
  170MPD1    C2 2590   0.883   3.102  12.887 -0.1229 -0.3396 -0.2217
  170MPD1    C3 2591   0.905   3.100  13.023  0.0918 -0.9156 -0.8447
  170MPD1    C4 2592   1.008   3.023  13.078 -0.3294  0.0431 -0.0142
  170MPD1    C5 2593   1.085   2.959  12.995  0.3520 -0.0389  0.2519
  170MPD1     H 2594   0.794   3.145  12.844 -0.4035  0.9129  1.6456
  170MPD1    H1 2595   1.028   3.011  13.184 -1.1678  0.1102  0.1515
  170MPD1    H2 2596   1.157   2.933  12.796  0.8811  0.7054  0.1321
  170MPD1    H3 2597   1.159   2.889  13.032 -0.9672 -0.6059  1.8253
  170MPD1     N 2598   0.810   3.173  13.104  1.1782  0.1027  0.4893
  170MPD1    H5 2599   0.725   3.217  13.068  0.3902 -0.1695  2.0191
  170MPD1    N1 2600   0.946   3.054  12.660 -0.5064 -0.1165  0.3134
  170MPD1    H6 2601   0.906   3.143  12.633  1.0914 -0.0085 -1.6804
  170MPD1    H7 2602   1.025   3.041  12.598 -0.7353  0.6133 -0.1379
  171MPD1     C 2603   4.306   4.525  15.362  0.7076 -0.2569  0.1043
  171MPD1    C1 2604   4.311   4.417  15.281  0.1008  0.4197  0.1228
  171MPD1    C2 2605   4.291   4.292  15.337  0.3470 -0.2735  1.1895
  171MPD1    C3 2606   4.279   4.269  15.474  0.4549 -0.0392  0.7389
  171MPD1    C4 2607   4.295   4.377  15.557 -0.3388 -1.2504 -0.6834
  171MPD1    C5 2608   4.307   4.501  15.498  0.7157  0.1786  0.2794
  171MPD1     H 2609   4.281   4.210  15.267  0.4739 -0.5307  1.4752
  171MPD1    H1 2610   4.302   4.367  15.665 -0.4554  0.2751 -0.5358
  171MPD1    H2 2611   4.304   4.627  15.326 -1.4542 -0.9398 -1.6739
  171MPD1    H3 2612   4.305   4.589  15.561  1.1367  0.8572 -0.6413
  171MPD1     N 2613   4.250   4.142  15.534  0.4589 -0.1827  0.1792
  171MPD1    H5 2614   4.250   4.141  15.636  0.0018  1.5527  0.1963
  171MPD1    N1 2615   4.320   4.432  15.136  0.1810 -0.3608  0.1167
  171MPD1    H6 2616   4.355   4.348  15.091 -1.1479 -0.8447 -0.0084
  171MPD1    H7 2617   4.375   4.510  15.102  0.0732  0.1687  1.1355
  172MPD1     C 2618   3.286   3.172   0.448 -0.4549 -0.7354 -0.3815
  172MPD1    C1 2619   3.205   3.282   0.422 -0.0287 -0.1609  0.6957
  172MPD1    C2 2620   3.259   3.399   0.470  0.2489 -0.5660  0.0112
  172MPD1    C3 2621   3.366   3.405   0.555 -0.0289 -0.1216 -0.3472
  172MPD1    C4 2622   3.435   3.295   0.581 -0.3315 -0.0714 -0.0230
  172MPD1    C5 2623   3.393   3.175   0.530 -0.2978  0.1716 -0.3330
  172MPD1     H 2624   3.215   3.489   0.428 -1.0752 -0.9828  0.5144
  172MPD1    H1 2625   3.516   3.304   0.653 -0.4100 -1.0437  0.1941
  172MPD1    H2 2626   3.270   3.071   0.411  1.7723 -1.0713 -0.3864
  172MPD1    H3 2627   3.456   3.088   0.541 -0.9256 -0.3086 -0.5649
  172MPD1     N 2628   3.412   3.528   0.607 -0.5324 -0.2203  0.4974
  172MPD1    H5 2629   3.495   3.521   0.665 -0.1519 -0.4496 -0.0655
  172MPD1    N1 2630   3.116   3.283   0.309  0.4447 -0.2561 -0.2781
  172MPD1    H6 2631   3.056   3.364   0.313  0.1725 -0.4268 -0.9808
  172MPD1    H7 2632   3.058   3.200   0.299  2.5465 -1.7599 -0.0992
  173MPD1     C 2633   3.905   4.291  13.935 -0.1526 -0.3868 -0.0421
  173MPD1    C1 2634   3.881   4.179  13.864  0.8289 -0.5189 -0.5531
  173MPD1    C2 2635   3.872   4.060  13.933  0.1697 -0.9246 -0.1425
  173MPD1    C3 2636   3.912   4.060  14.065 -0.2797  0.0899 -0.1392
  173MPD1    C4 2637   3.950   4.177  14.129  0.0581 -0.0911  0.8255
  173MPD1    C5 2638   3.938   4.291  14.065 -0.3116  0.2826  0.4982
  173MPD1     H 2639   3.834   3.977  13.874  3.0173 -2.5874  0.3897
  173MPD1    H1 2640   3.976   4.179  14.234  0.4338  2.0365  0.6955
  173MPD1    H2 2641   3.895   4.389  13.890 -2.3090  0.0738  1.4031
  173MPD1    H3 2642   3.937   4.380  14.128 -1.2428  1.3095 -0.9499
  173MPD1     N 2643   3.917   3.936  14.135  0.0372 -0.1711 -0.7110
  173MPD1    H5 2644   3.886   3.855  14.082 -0.4022  0.6222 -1.6677
  173MPD1    N1 2645   3.862   4.197  13.729  0.5969  0.1723  0.6299
  173MPD1    H6 2646   3.906   4.281  13.690  0.9384  0.2593  1.2062
  173MPD1    H7 2647   3.888   4.111  13.682 -0.6250  0.8792 -1.3458
  174MPD1     C 2648   3.385   3.259  14.049  0.0104 -0.0942  0.6477
  174MPD1    C1 2649   3.518   3.225  14.016 -0.3540  0.3268 -0.1172
  174MPD1    C2 2650   3.617   3.311  14.065  0.1112  0.6739 -0.7525
  174MPD1    C3 2651   3.589   3.418  14.148 -0.0153 -0.3407 -0.0180
  174MPD1    C4 2652   3.454   3.457  14.169 -0.9508 -0.1013 -0.5766
  174MPD1    C5 2653   3.359   3.369  14.130  1.3664  0.2545  0.8179
  174MPD1     H 2654   3.718   3.284  14.035  0.3355 -0.6720  1.1717
  174MPD1    H1 2655   3.427   3.547  14.222 -1.4375 -0.6610  0.1257
  174MPD1    H2 2656   3.307   3.214  13.989  0.9835  0.6405 -1.1668
  174MPD1    H3 2657   3.258   3.407  14.142 -0.0563 -2.2962 -3.3542
  174MPD1     N 2658   3.694   3.493  14.206 -0.2386 -0.5540  0.0801
  174MPD1    H5 2659   3.676   3.580  14.255  0.4215  0.9832 -2.4423
  174MPD1    N1 2660   3.545   3.122  13.922 -0.5221  0.2276  0.1531
  174MPD1    H6 2661   3.487   3.039  13.937  0.6950 -0.1364  2.8098
  174MPD1    H7 2662   3.643   3.097  13.918 -1.0500 -1.8388  0.2037
  175MPD1     C 2663   2.459   4.288  15.837 -0.1740 -0.5246 -0.4815
  175MPD1    C1 2664   2.590   4.336  15.817  1.0072  0.4394  0.5416
  175MPD1    C2 2665   2.658   4.384  15.931 -0.4584  0.4472  1.2799
  175MPD1    C3 2666   2.594   4.397  16.057  0.6514 -0.0483  0.0668
  175MPD1    C4 2667   2.463   4.360  16.066 -0.1027  0.5601 -0.0912
  175MPD1    C5 2668   2.400   4.306  15.958  0.0614  0.4095 -0.0508
  175MPD1     H 2669   2.766   4.395  15.931 -0.5858  1.6014 -1.8998
  175MPD1    H1 2670   2.403   4.372  16.155  1.5730  0.8146  0.9945
  175MPD1    H2 2671   2.405   4.249  15.752 -0.8448  1.6522 -1.0375
  175MPD1    H3 2672   2.297   4.281  15.980  0.2511 -1.0529 -0.7856
  175MPD1     N 2673   2.652   4.449  16.177  0.9305  0.2513 -0.1645
  175MPD1    H5 2674   2.593   4.443  16.260 -0.4036 -0.9963 -1.2106
  175MPD1    N1 2675   2.655   4.321  15.698 -0.5527  0.3220 -0.2860
  175MPD1    H6 2676   2.742   4.371  15.680 -0.8815  1.2718  0.8096
  175MPD1    H7 2677   2.591   4.337  15.620 -1.2598  0.3820  0.3094
  176MPD1     C 2678   0.583   2.324   0.461  0.2929  0.3919 -0.2283
  176MPD1    C1 2679   0.491   2.227   0.486  0.1734 -0.1149  0.6535
  176MPD1    C2 2680   0.368   2.257   0.446 -0.0096  0.1653  0.4352
  176MPD1    C3 2681   0.327   2.379   0.383 -0.8589  0.1590  0.5482
  176MPD1    C4 2682   0.419   2.473   0.377  0.3806 -0.9863  0.0808
  176MPD1    C5 2683   0.548   2.443   0.405  0.0164  0.4450  0.4292
  176MPD1     H 2684   0.293   2.179   0.452 -0.2107  0.2121 -1.4048
  176MPD1    H1 2685   0.407   2.576   0.346 -0.9257 -0.8324  1.0913
  176MPD1    H2 2686   0.688   2.307   0.479 -0.1936 -2.4161 -0.0433
  176MPD1    H3 2687   0.620   2.520   0.379  0.1123 -0.1434 -1.0358
  176MPD1     N 2688   0.194   2.384   0.341  0.0316  0.4467  0.1632
  176MPD1    H5 2689   0.131   2.306   0.349  1.4173 -0.6665  0.2026
  176MPD1    N1 2690   0.535   2.104   0.547 -0.0784  0.2211 -0.6598
  176MPD1    H6 2691   0.465   2.065   0.610  1.4871 -0.1223  0.8597
  176MPD1    H7 2692   0.627   2.111   0.591 -0.9182  0.3867  1.1056
  177MPD1     C 2693   3.529   0.764  10.498 -0.2759  0.5179 -0.1638
  177MPD1    C1 2694   3.422   0.710  10.426  0.6572  0.0906  0.0346
  177MPD1    C2 2695   3.364   0.793  10.334  0.0640 -0.6747 -1.0983
  177MPD1    C3 2696   3.417   0.919  10.301 -0.1854 -0.1737 -0.2756
  177MPD1    C4 2697   3.526   0.969  10.371  0.2969  0.4013 -0.1027
  177MPD1    C5 2698   3.574   0.890  10.470  0.1201 -0.1581 -0.6009
  177MPD1     H 2699   3.272   0.760  10.285 -1.0764 -1.7560  1.7515
  177MPD1    H1 2700   3.568   1.067  10.350  1.1404 -0.3248 -1.7744
  177MPD1    H2 2701   3.584   0.716  10.578 -0.4950 -0.7266 -0.7645
  177MPD1    H3 2702   3.665   0.920  10.522  0.0992 -0.3858 -0.4357
  177MPD1     N 2703   3.362   0.985  10.188 -0.2712 -0.2620  0.1564
  177MPD1    H5 2704   3.301   0.939  10.121 -1.0505  0.5544  0.2961
  177MPD1    N1 2705   3.361   0.591  10.466  0.9508  0.0609  0.3698
  177MPD1    H6 2706   3.320   0.533  10.393 -0.8045  0.9011  0.6747
  177MPD1    H7 2707   3.422   0.528  10.517  0.7763 -0.8166 -0.5200
  178MPD1     C 2708   0.007   2.128   0.003  0.8311  0.0324  0.1351
  178MPD1    C1 2709   4.653   2.188  17.600 -0.3048  0.5818 -0.7629
  178MPD1    C2 2710   4.713   2.248  17.492  0.0912 -0.1916 -0.1076
  178MPD1    C3 2711   0.127   2.257  17.485 -0.3639 -0.4623 -0.5981
  178MPD1    C4 2712   0.201   2.215  17.590  0.0397 -0.0557 -1.1098
  178MPD1    C5 2713   0.141   2.142  17.693 -0.2382 -0.1482  0.2681
  178MPD1     H 2714   4.658   2.292  17.409 -1.1484 -0.4006  0.6057
  178MPD1    H1 2715   0.309   2.220  17.597  0.1668 -1.9875 -1.7545
  178MPD1    H2 2716   4.696   2.075   0.091 -0.7468  0.2250 -0.3464
  178MPD1    H3 2717   0.197   2.099   0.082 -2.4166  1.0406  2.3559
  178MPD1     N 2718   0.195   2.317  17.382  0.1274  0.4695  0.1739
  178MPD1    H5 2719   0.292   2.341  17.399  0.0846 -1.4695  3.2349
  178MPD1    N1 2720   4.517   2.157  17.600 -0.5338  0.7908  0.2441
  178MPD1    H6 2721   4.460   2.237  17.572  1.1698  1.7061 -0.6386
  178MPD1    H7 2722   4.475   2.128  17.688  0.0509 -0.5719  0.0706
  179MPD1     C 2723   0.284   1.087  15.891  0.3430  0.4623 -0.1054
  179MPD1    C1 2724   0.150   1.049  15.913  0.0378  0.5236 -0.3357
  179MPD1    C2 2725   0.132   0.916  15.946  0.3224  0.4692 -0.7344
  179MPD1    C3 2726   0.242   0.825  15.934 -0.5166 -0.4613  1.1205
  179MPD1    C4 2727   0.362   0.865  15.893  0.1291 -0.0165  0.6593
  179MPD1    C5 2728   0.386   1.003  15.879  0.4250 -0.0906 -0.1885
  179MPD1     H 2729   0.040   0.885  15.994 -0.6924  1.0120 -2.3195
  179MPD1    H1 2730   0.448   0.799  15.890  1.1340  1.4679 -2.6023
  179MPD1    H2 2731   0.310   1.190  15.873  0.5438  0.4501  0.1184
  179MPD1    H3 2732   0.483   1.048  15.866  0.8352 -1.6385 -2.4712
  179MPD1     N 2733   0.220   0.693  15.964 -0.2436 -0.4084  0.0519
  179MPD1    H5 2734   0.303   0.635  15.972 -1.2473 -2.0378 -1.3501
  179MPD1    N1 2735   0.061   1.145  15.950 -0.8075  0.7418  0.1414
  179MPD1    H6 2736   0.073   1.232  15.899  0.6300  1.8138  2.2680
  179MPD1    H7 2737   4.689   1.118  15.927 -1.2084  1.8600  0.5127
  180MPD1     C 2738   1.399   2.640  14.660  0.2943 -1.0310  0.0827
  180MPD1    C1 2739   1.303   2.736  14.696 -0.2181 -0.0213  0.1311
  180MPD1    C2 2740   1.177   2.727  14.647  0.1819  1.0187  0.2998
  180MPD1    C3 2741   1.139   2.628  14.561 -0.1587  0.3590  0.8388
  180MPD1    C4 2742   1.238   2.543  14.511 -0.6693  0.2083 -0.3054
  180MPD1    C5 2743   1.368   2.546  14.563 -0.0628  0.6768  0.0652
  180MPD1     H 2744   1.097   2.794  14.675 -1.0456 -0.7868  1.0733
  180MPD1    H1 2745   1.213   2.463  14.442  0.2164 -1.1383  0.9267
  180MPD1    H2 2746   1.501   2.640  14.698 -0.0019 -0.2322  0.8859
  180MPD1    H3 2747   1.455   2.494  14.524 -1.3743 -1.0662 -0.5434
  180MPD1     N 2748   1.009   2.622  14.517 -0.0649 -0.2791 -0.6695
  180MPD1    H5 2749   0.944   2.676  14.573  0.1513 -0.1741 -0.5202
  180MPD1    N1 2750   1.346   2.849  14.765 -0.5566  0.3651 -0.1921
  180MPD1    H6 2751   1.275   2.897  14.821 -0.1362  0.3315  0.3681
  180MPD1    H7 2752   1.427   2.839  14.825 -1.5170 -0.6276  0.9254
  181MPD1     C 2753   2.073   2.991   9.468 -0.2970 -0.7938  0.2964
  181MPD1    C1 2754   2.005   3.053   9.577 -0.2356  0.0121 -0.2898
  181MPD1    C2 2755   2.041   3.184   9.613 -0.0169  0.2688  0.4276
  181MPD1    C3 2756   2.170   3.230   9.573 -0.2411 -0.1423 -0.3403
  181MPD1    C4 2757   2.240   3.164   9.472 -0.2506 -0.7056  0.1929
  181MPD1    C5 2758   2.195   3.038   9.426  0.4250  0.1922  0.0664
  181MPD1     H 2759   1.991   3.254   9.678 -2.8866 -0.4028 -1.0656
  181MPD1    H1 2760   2.331   3.203   9.428 -0.1398 -1.4844 -0.2772
  181MPD1    H2 2761   2.034   2.900   9.422 -1.3239 -1.1268  1.8128
  181MPD1    H3 2762   2.254   2.983   9.352  0.9309 -0.5589  1.0209
  181MPD1     N 2763   2.229   3.349   9.616  0.2940  0.0702  0.1347
  181MPD1    H5 2764   2.325   3.371   9.589  0.3075 -1.3110 -0.9508
  181MPD1    N1 2765   1.885   3.000   9.624 -0.1478  0.7048 -0.5264
  181MPD1    H6 2766   1.876   2.899   9.631  0.8927  0.6465 -0.0307
  181MPD1    H7 2767   1.857   3.031   9.716  1.6036  1.9275 -0.4038
  182MPD1     C 2768   3.154   2.431   1.991 -0.1224  0.3001 -0.1227
  182MPD1    C1 2769   3.085   2.518   2.070  0.2150 -0.1198  0.9702
  182MPD1    C2 2770   2.989   2.598   2.010  0.3491  0.1092 -0.2757
  182MPD1    C3 2771   2.961   2.584   1.870 -0.3547  0.9632  0.0130
  182MPD1    C4 2772   3.030   2.498   1.787 -0.2512 -0.1236 -0.6134
  182MPD1    C5 2773   3.122   2.417   1.852 -0.1515 -0.5476 -0.1972
  182MPD1     H 2774   2.946   2.678   2.069  0.4172 -0.5833  0.7086
  182MPD1    H1 2775   3.009   2.484   1.682 -0.5094 -0.3651 -0.5280
  182MPD1    H2 2776   3.222   2.358   2.033 -0.0251  1.6761  2.0890
  182MPD1    H3 2777   3.172   2.348   1.785 -0.5087 -1.4941  0.5035
  182MPD1     N 2778   2.854   2.650   1.804 -0.0095 -0.5269  0.1819
  182MPD1    H5 2779   2.841   2.642   1.703  0.4503 -0.6820  0.1374
  182MPD1    N1 2780   3.139   2.548   2.198 -0.2348 -0.1111  0.3318
  182MPD1    H6 2781   3.067   2.564   2.269  1.2100  0.1719  1.7385
  182MPD1    H7 2782   3.192   2.466   2.228  0.8647  0.3854 -0.2625
  183MPD1     C 2783   4.514   3.569   9.433  0.1126 -0.1818  0.6273
  183MPD1    C1 2784   4.480   3.460   9.513  0.6571  0.4368 -0.1222
  183MPD1    C2 2785   4.347   3.435   9.546  0.2940 -0.0614  0.1505
  183MPD1    C3 2786   4.247   3.511   9.495 -0.0733  0.0084  0.1645
  183MPD1    C4 2787   4.277   3.608   9.407 -0.8904 -0.2212 -0.2295
  183MPD1    C5 2788   4.408   3.639   9.376  0.1238  0.2305 -0.0966
  183MPD1     H 2789   4.323   3.352   9.611 -0.8105 -1.7178 -2.3474
  183MPD1    H1 2790   4.202   3.658   9.347 -0.3601 -0.3720 -1.0212
  183MPD1    H2 2791   4.618   3.591   9.411 -0.0377 -0.2907 -0.1819
  183MPD1    H3 2792   4.423   3.720   9.306 -1.6430  0.4924 -0.1614
  183MPD1     N 2793   4.116   3.461   9.518 -0.5511  0.5445  0.0236
  183MPD1    H5 2794   4.098   3.377   9.573  1.3826 -0.7148 -1.3046
  183MPD1    N1 2795   4.577   3.398   9.592 -0.1240 -0.1495  0.2155
  183MPD1    H6 2796   4.667   3.396   9.544 -0.4996  2.0262 -0.5681
  183MPD1    H7 2797   4.546   3.310   9.632  1.5412 -0.6704  0.3657
  184MPD1     C 2798   2.208   0.605  10.632  0.0543 -0.3349  0.3796
  184MPD1    C1 2799   2.132   0.720  10.651  0.8805 -0.0136 -0.6030
  184MPD1    C2 2800   2.137   0.819  10.558 -0.1685  0.1314  1.2003
  184MPD1    C3 2801   2.202   0.802  10.440  0.4390 -0.2932 -0.3621
  184MPD1    C4 2802   2.282   0.687  10.420 -0.1034  0.4052 -0.9970
  184MPD1    C5 2803   2.288   0.595  10.525 -0.4214  0.3298  0.2243
  184MPD1     H 2804   2.076   0.909  10.562  2.9228  2.2655  0.8939
  184MPD1    H1 2805   2.335   0.664  10.328 -1.2897 -5.5156 -0.1981
  184MPD1    H2 2806   2.204   0.522  10.701  2.5281  2.5861  4.0070
  184MPD1    H3 2807   2.331   0.498  10.500  1.0659  0.6615  1.5305
  184MPD1     N 2808   2.193   0.894  10.330  0.1474  0.0209 -0.2315
  184MPD1    H5 2809   2.252   0.878  10.250 -1.8509  1.4732 -1.9719
  184MPD1    N1 2810   2.046   0.725  10.758  0.2253  0.6455 -0.5383
  184MPD1    H6 2811   2.081   0.676  10.840 -0.4778  1.6351  0.3639
  184MPD1    H7 2812   2.028   0.820  10.789 -1.3050  0.2389 -0.1492
  185MPD1     C 2813   1.571   1.653   9.986  0.0151 -0.1228  1.1695
  185MPD1    C1 2814   1.669   1.641   9.885  0.8049 -0.3252  0.2212
  185MPD1    C2 2815   1.770   1.553   9.903 -0.2902 -0.0150  0.1079
  185MPD1    C3 2816   1.773   1.461  10.010 -0.1302  0.2097 -0.5382
  185MPD1    C4 2817   1.665   1.472  10.099  0.5719  0.3252 -0.3170
  185MPD1    C5 2818   1.569   1.569  10.094  0.3693  0.3162  0.3105
  185MPD1     H 2819   1.859   1.558   9.841  0.1485  1.9537  0.9007
  185MPD1    H1 2820   1.658   1.413  10.190 -0.1532  1.1958  0.1903
  185MPD1    H2 2821   1.489   1.724   9.981  0.4772  0.3553  0.3994
  185MPD1    H3 2822   1.494   1.577  10.172 -0.7266 -4.5563 -0.2417
  185MPD1     N 2823   1.855   1.347  10.032 -0.1024 -0.2752  0.5259
  185MPD1    H5 2824   1.857   1.304  10.124 -1.0511 -1.5552 -0.0430
  185MPD1    N1 2825   1.682   1.739   9.784  0.4266 -0.0979  1.0455
  185MPD1    H6 2826   1.718   1.697   9.698  1.5608 -0.4771  1.7016
  185MPD1    H7 2827   1.592   1.771   9.750  0.7217  0.9294  1.2319
  186MPD1     C 2828   1.139   0.712  15.340 -0.0916 -0.0352  0.3617
  186MPD1    C1 2829   1.114   0.613  15.432 -0.8974 -0.2447  0.3540
  186MPD1    C2 2830   1.064   0.640  15.554  0.2747 -0.1608 -0.6773
  186MPD1    C3 2831   1.047   0.775  15.597  0.1462 -0.7291 -0.0124
  186MPD1    C4 2832   1.093   0.866  15.515 -0.1009  0.6303  0.1651
  186MPD1    C5 2833   1.139   0.840  15.387 -0.4053  0.3559 -0.2563
  186MPD1     H 2834   1.026   0.560  15.618  0.2248  0.4034 -0.0083
  186MPD1    H1 2835   1.084   0.971  15.538 -0.2368  0.5594  0.4363
  186MPD1    H2 2836   1.160   0.686  15.237 -0.5577 -0.6257  0.4160
  186MPD1    H3 2837   1.150   0.924  15.319 -1.5489 -1.2147 -2.3756
  186MPD1     N 2838   1.000   0.812  15.727 -0.3276  0.3767 -0.1645
  186MPD1    H5 2839   1.000   0.912  15.745 -0.5682  0.0358  1.7052
  186MPD1    N1 2840   1.124   0.482  15.390  1.3412 -0.0398  0.0888
  186MPD1    H6 2841   1.199   0.462  15.324  2.3309  0.2080  1.1517
  186MPD1    H7 2842   1.142   0.422  15.470  0.7910 -0.1829  0.1061
  187MPD1     C 2843   0.099   2.733   0.485  0.0107  0.2084 -0.0435
  187MPD1    C1 2844   4.687   2.716   0.492  0.0986 -0.0433  0.2150
  187MPD1    C2 2845   4.613   2.785   0.398 -0.7535  0.2157 -0.0027
  187MPD1    C3 2846   4.672   2.859   0.296  0.3886 -0.8319 -0.1424
  187MPD1    C4 2847   0.084   2.880   0.295 -0.1271  0.0734  0.4033
  187MPD1    C5 2848   0.162   2.808   0.384  0.2342  0.1673  0.3789
  187MPD1     H 2849   4.505   2.778   0.401 -0.7999  0.2097 -1.5642
  187MPD1    H1 2850   0.140   2.945   0.229 -1.9995  1.4687  0.1774
  187MPD1    H2 2851   0.161   2.687   0.561 -1.6982 -0.7882  0.7765
  187MPD1    H3 2852   0.267   2.835   0.384  0.5421 -1.0436  0.2388
  187MPD1     N 2853   4.599   2.924   0.194  0.0106 -0.5347  0.4980
  187MPD1    H5 2854   4.650   2.986   0.131  0.5071 -2.8000 -1.3468
  187MPD1    N1 2855   4.629   2.651   0.608  0.1977  0.3594 -0.3267
  187MPD1    H6 2856   4.536   2.612   0.612  0.1886  0.5770  1.4303
  187MPD1    H7 2857   4.685   2.579   0.652 -0.8356 -0.0439  0.3169
  188MPD1     C 2858   0.123   2.552   9.994  0.0787  0.3156 -0.1679
  188MPD1    C1 2859   0.133   2.459  10.105 -0.8056  0.1031 -0.7832
  188MPD1    C2 2860   0.102   2.330  10.086 -1.1663 -0.4748 -0.1840
  188MPD1    C3 2861   0.069   2.277   9.965 -0.2684 -0.2699 -1.1541
  188MPD1    C4 2862   0.061   2.365   9.852 -0.3606 -0.7493  0.1578
  188MPD1    C5 2863   0.088   2.501   9.869  0.6018  0.1359 -0.3830
  188MPD1     H 2864   0.103   2.263  10.172  0.1543  0.2582  0.3781
  188MPD1    H1 2865   0.066   2.325   9.751 -0.1473 -0.0210 -0.1202
  188MPD1    H2 2866   0.142   2.658  10.000  0.2676  0.2018  1.0462
  188MPD1    H3 2867   0.091   2.571   9.786 -2.2150 -1.5585 -1.9179
  188MPD1     N 2868   0.044   2.139   9.934  0.5739  1.1710 -0.5793
  188MPD1    H5 2869   0.023   2.115   9.837 -2.8530 -1.4464  0.7807
  188MPD1    N1 2870   0.163   2.509  10.231 -0.0923 -0.4103 -0.4228
  188MPD1    H6 2871   0.226   2.589  10.226  0.4086 -0.8509 -1.3075
  188MPD1    H7 2872   0.219   2.443  10.285 -0.9198 -0.6082  0.1921
  189MPD1     C 2873   1.646   3.742   0.824 -0.3884 -0.5222  0.2009
  189MPD1    C1 2874   1.560   3.666   0.741 -0.1161  0.3128  0.0046
  189MPD1    C2 2875   1.456   3.730   0.675 -0.5881 -0.6500  0.1488
  189MPD1    C3 2876   1.448   3.869   0.661  0.1034 -0.1102 -0.1220
  189MPD1    C4 2877   1.524   3.946   0.751  0.1552  0.3250 -0.2759
  189MPD1    C5 2878   1.618   3.880   0.832 -0.0938 -0.2520 -0.0890
  189MPD1     H 2879   1.403   3.655   0.617 -3.7121  2.6861 -1.3379
  189MPD1    H1 2880   1.513   4.053   0.765  0.9360  0.3865 -0.0904
  189MPD1    H2 2881   1.723   3.698   0.887 -0.6194  0.4228  1.1329
  189MPD1    H3 2882   1.682   3.944   0.893  0.1403 -0.3089 -0.2760
  189MPD1     N 2883   1.363   3.924   0.567 -0.0381 -0.5819 -0.0247
  189MPD1    H5 2884   1.299   3.859   0.523 -1.1287 -0.9615  2.1125
  189MPD1    N1 2885   1.547   3.527   0.766  0.2012  0.3762  0.2361
  189MPD1    H6 2886   1.489   3.472   0.703  1.4932 -0.3289 -0.3336
  189MPD1    H7 2887   1.630   3.477   0.795  0.9660 -0.1807 -2.9289
  190MPD1     C 2888   0.349   1.337  16.146  0.1339  0.3346  0.0197
  190MPD1    C1 2889   0.288   1.453  16.190 -0.1662  1.2219 -0.4505
  190MPD1    C2 2890   0.299   1.564  16.106 -0.0047  0.3706 -0.1565
  190MPD1    C3 2891   0.384   1.575  15.999  1.3248  0.0748  1.7715
  190MPD1    C4 2892   0.460   1.468  15.965 -0.0617 -1.0698  0.3722
  190MPD1    C5 2893   0.430   1.351  16.032  0.6296  0.3691 -0.0173
  190MPD1     H 2894   0.233   1.648  16.124  0.7968  0.6744  1.3743
  190MPD1    H1 2895   0.530   1.466  15.882  0.4614 -2.4282  0.8354
  190MPD1    H2 2896   0.314   1.240  16.178  1.7482 -0.7101 -1.3795
  190MPD1    H3 2897   0.470   1.260  15.989 -0.6486 -0.3055  0.2153
  190MPD1     N 2898   0.391   1.708  15.943  0.2890 -0.8532 -0.2915
  190MPD1    H5 2899   0.353   1.784  15.998  3.3272 -0.0195  0.6981
  190MPD1    N1 2900   0.191   1.459  16.293 -0.3758 -0.1752 -0.4392
  190MPD1    H6 2901   0.196   1.551  16.336  0.6014 -1.1381  1.5319
  190MPD1    H7 2902   0.200   1.389  16.366 -1.7674 -1.6301 -1.6573
  191MPD1     C 2903   4.562   3.591  12.786 -0.3176  0.8291  0.2270
  191MPD1    C1 2904   4.623   3.567  12.663 -1.0339 -0.4815 -0.8103
  191MPD1    C2 2905   4.615   3.665  12.564  0.1380  0.0349 -0.7273
  191MPD1    C3 2906   4.529   3.769  12.571  0.4636 -0.7509 -0.1573
  191MPD1    C4 2907   4.462   3.790  12.690  0.2802 -0.2067 -0.2467
  191MPD1    C5 2908   4.485   3.706  12.800 -0.3717 -0.6307 -0.5677
  191MPD1     H 2909   4.663   3.638  12.471  1.3483 -1.8309  0.4431
  191MPD1    H1 2910   4.402   3.877  12.713  1.1830  0.4824 -0.5287
  191MPD1    H2 2911   4.560   3.524  12.871  0.3376  0.6805  0.1229
  191MPD1    H3 2912   4.440   3.728  12.896 -0.1702 -2.0136 -0.1572
  191MPD1     N 2913   4.520   3.861  12.464  0.6302  0.6874 -0.3625
  191MPD1    H5 2914   4.591   3.851  12.393  0.0518 -0.7435 -0.7347
  191MPD1    N1 2915   4.707   3.455  12.649 -0.3604 -0.7085 -0.2427
  191MPD1    H6 2916   4.688   3.415  12.557  3.7612 -0.1160 -1.3218
  191MPD1    H7 2917   4.688   3.384  12.719  0.0802 -1.6975 -1.1300
  192MPD1     C 2918   4.169   0.053  12.213  0.1164  0.3442 -0.5121
  192MPD1    C1 2919   4.099   4.693  12.123 -0.3301  0.0797  0.0878
  192MPD1    C2 2920   4.120   4.559  12.134  0.8241  1.0339 -0.6520
  192MPD1    C3 2921   4.209   4.520  12.238  0.4830 -0.2876 -0.5003
  192MPD1    C4 2922   4.272   4.610  12.322 -0.2489 -0.2968  0.0539
  192MPD1    C5 2923   4.250   0.013  12.308 -0.2966 -0.1886 -0.0995
  192MPD1     H 2924   4.064   4.489  12.074  0.2443  1.1430 -0.2364
  192MPD1    H1 2925   4.332   4.573  12.404  0.1782 -1.2033 -0.6736
  192MPD1    H2 2926   4.168   0.161  12.202  1.0490  0.2528 -1.4827
  192MPD1    H3 2927   4.301   0.083  12.374 -0.3055  0.5144 -0.8330
  192MPD1     N 2928   4.245   4.383  12.247 -0.3866 -0.0823  0.3962
  192MPD1    H5 2929   4.323   4.354  12.305  0.8765  1.3990 -0.5507
  192MPD1    N1 2930   3.985   0.023  12.048 -0.2243  0.4826 -0.1256
  192MPD1    H6 2931   3.971   4.690  11.963 -0.0238  0.2310  0.0066
  192MPD1    H7 2932   4.021   0.114  12.020 -0.8608  0.8938  0.4132
  193MPD1     C 2933   3.691   4.085  16.233 -0.7088  0.4995 -0.3437
  193MPD1    C1 2934   3.674   4.199  16.312  0.4779  0.4825  0.0634
  193MPD1    C2 2935   3.772   4.235  16.399 -0.6812 -0.2160  0.3015
  193MPD1    C3 2936   3.885   4.152  16.420 -0.1504 -0.1836 -0.2015
  193MPD1    C4 2937   3.897   4.043  16.339  0.1727  0.5224 -0.2202
  193MPD1    C5 2938   3.806   4.008  16.244  0.4257 -0.2370  1.0340
  193MPD1     H 2939   3.770   4.331  16.450 -1.1092 -0.9678  1.7163
  193MPD1    H1 2940   3.981   3.975  16.355  2.0275  3.0851  0.8768
  193MPD1    H2 2941   3.618   4.046  16.163  0.6012  1.4102 -2.2234
  193MPD1    H3 2942   3.816   3.913  16.192  1.7734  1.4977 -1.8578
  193MPD1     N 2943   3.984   4.167  16.525  0.3466 -0.2318  0.2165
  193MPD1    H5 2944   4.061   4.101  16.534  2.1476  1.8662  0.2078
  193MPD1    N1 2945   3.562   4.281  16.296  0.3385 -0.6999 -0.3784
  193MPD1    H6 2946   3.531   4.304  16.390 -1.9563 -2.0251 -0.8118
  193MPD1    H7 2947   3.488   4.225  16.255  0.4922 -0.2080 -1.3306
  194MPD1     C 2948   2.553   2.076  17.013 -0.3558  0.3952  0.6962
  194MPD1    C1 2949   2.450   2.077  17.106  0.4329 -0.1492 -0.5521
  194MPD1    C2 2950   2.418   1.958  17.172  0.3754 -0.5603  0.5800
  194MPD1    C3 2951   2.476   1.836  17.127 -0.1686 -0.0452  0.3704
  194MPD1    C4 2952   2.576   1.843  17.039 -0.2944  1.0412  0.3003
  194MPD1    C5 2953   2.606   1.957  16.970 -0.7792 -0.2390  0.1998
  194MPD1     H 2954   2.346   1.954  17.253 -0.5858  0.8491 -0.1904
  194MPD1    H1 2955   2.636   1.758  17.007 -1.9762 -0.1921  0.3743
  194MPD1    H2 2956   2.594   2.167  16.970  0.8883 -1.0567 -1.2057
  194MPD1    H3 2957   2.686   1.952  16.897  1.3690  0.8376  2.4721
  194MPD1     N 2958   2.446   1.708  17.176 -0.4240 -0.1463 -0.2003
  194MPD1    H5 2959   2.502   1.630  17.142  0.2691 -0.6757  2.1425
  194MPD1    N1 2960   2.401   2.199  17.160 -0.0499 -0.4493  0.3329
  194MPD1    H6 2961   2.394   2.279  17.098  1.5179  0.1898  0.9733
  194MPD1    H7 2962   2.311   2.191  17.207  0.8607 -3.0991  1.6406
  195MPD1     C 2963   3.332   3.747   0.222 -0.3228 -0.1026 -0.3716
  195MPD1    C1 2964   3.452   3.744   0.285 -0.0595 -0.7231  0.3552
  195MPD1    C2 2965   3.526   3.628   0.290 -0.2542  0.3593 -0.1128
  195MPD1    C3 2966   3.482   3.510   0.245 -0.6072  0.0277 -0.3662
  195MPD1    C4 2967   3.367   3.514   0.174  0.0212  0.2511 -0.6740
  195MPD1    C5 2968   3.297   3.628   0.163  0.5084  0.1388  0.2114
  195MPD1     H 2969   3.624   3.628   0.336 -1.0481  0.4127  1.5720
  195MPD1    H1 2970   3.331   3.425   0.122 -1.6727  0.2034  0.5671
  195MPD1    H2 2971   3.272   3.834   0.199  1.4733  1.0227 -0.7770
  195MPD1    H3 2972   3.206   3.627   0.103 -0.4003  0.2305  1.5962
  195MPD1     N 2973   3.549   3.386   0.253  0.6483  0.4577 -0.0309
  195MPD1    H5 2974   3.516   3.314   0.191 -2.6468 -0.8123  3.2085
  195MPD1    N1 2975   3.517   3.869   0.309 -0.1090 -0.2379  0.6090
  195MPD1    H6 2976   3.595   3.870   0.374  1.0405  0.6229 -0.7649
  195MPD1    H7 2977   3.453   3.944   0.336 -0.6943  0.1657 -1.8476
  196MPD1     C 2978   2.670   2.082  17.396  0.4032 -0.1362 -0.6150
  196MPD1    C1 2979   2.651   2.216  17.427 -1.0115 -0.2736 -0.3685
  196MPD1    C2 2980   2.701   2.265  17.549 -1.1627 -0.7826  0.2058
  196MPD1    C3 2981   2.757   2.182  17.640 -0.3983  0.1395  0.3162
  196MPD1    C4 2982   2.756   2.046  17.621 -0.0855 -0.4467  0.1251
  196MPD1    C5 2983   2.718   1.997  17.495  0.5314 -0.0015 -0.2662
  196MPD1     H 2984   2.700   2.373  17.552  0.4534 -0.8465  3.2346
  196MPD1    H1 2985   2.809   1.983  17.692  1.4902 -1.0117 -1.5485
  196MPD1    H2 2986   2.649   2.037  17.300 -0.2999 -1.5248  0.1991
  196MPD1    H3 2987   2.753   1.898  17.466 -1.7113 -1.6128  2.5249
  196MPD1     N 2988   2.816   2.230   0.067 -0.2413 -0.3295 -0.6214
  196MPD1    H5 2989   2.835   2.152   0.129  0.3060  2.4566  2.6682
  196MPD1    N1 2990   2.623   2.300  17.320 -0.0333  0.3565  0.4921
  196MPD1    H6 2991   2.578   2.389  17.343 -2.9915 -1.0883  0.2750
  196MPD1    H7 2992   2.553   2.245  17.270  1.1180 -0.6425 -0.0037
  197MPD1     C 2993   3.195   4.701   0.298  0.5744 -0.0883  1.2192
  197MPD1    C1 2994   3.207   0.115   0.312 -0.1477 -0.1107 -0.5619
  197MPD1    C2 2995   3.157   0.192   0.213  0.7362 -0.2110 -0.4538
  197MPD1    C3 2996   3.080   0.144   0.109  0.0907  0.3965  0.2583
  197MPD1    C4 2997   3.066   0.002   0.101 -0.4332 -0.0523 -0.0221
  197MPD1    C5 2998   3.131   4.645   0.192 -0.0779 -0.3780 -0.2865
  197MPD1     H 2999   3.188   0.296   0.210 -3.2241  1.0162  0.8490
  197MPD1    H1 3000   3.012   4.675   0.022  0.3326  1.8318 -1.7376
  197MPD1    H2 3001   3.241   4.632   0.367  1.2492 -1.2038 -0.3549
  197MPD1    H3 3002   3.121   4.537   0.187 -0.3015 -0.3301 -0.8963
  197MPD1     N 3003   3.025   0.218   0.004  0.3183  0.6281 -0.3354
  197MPD1    H5 3004   2.979   0.163  17.626  1.2296 -1.3498  0.6209
  197MPD1    N1 3005   3.297   0.172   0.398 -0.2458 -0.1783 -0.7512
  197MPD1    H6 3006   3.281   0.269   0.424 -0.3322 -0.6640  0.9654
  197MPD1    H7 3007   3.309   0.111   0.479 -2.3600 -0.6559 -0.7944
  198MPD1     C 3008   4.441   3.265  15.830 -1.3333  0.4632 -0.6077
  198MPD1    C1 3009   4.488   3.206  15.948 -0.5636  0.2803  0.0531
  198MPD1    C2 3010   4.603   3.253  16.007 -0.5561  0.0704 -0.3681
  198MPD1    C3 3011   4.657   3.366  15.963  0.0841  0.6037  0.3565
  198MPD1    C4 3012   4.596   3.437  15.868  0.1962 -0.1391 -0.4162
  198MPD1    C5 3013   4.492   3.388  15.798  0.1589 -0.3993  0.0519
  198MPD1     H 3014   4.642   3.192  16.088  0.5429  2.0952  0.6153
  198MPD1    H1 3015   4.634   3.535  15.843  0.2112 -0.7931 -2.9320
  198MPD1    H2 3016   4.357   3.219  15.779 -0.5339 -0.7990 -0.8016
  198MPD1    H3 3017   4.453   3.440  15.711  0.6070  1.1090  0.7468
  198MPD1     N 3018   0.051   3.400  16.034 -0.5106  0.7837 -0.0626
  198MPD1    H5 3019   0.100   3.337  16.097 -0.8315  1.4450  0.8684
  198MPD1    N1 3020   4.437   3.081  15.982 -0.3750 -0.4443  0.7171
  198MPD1    H6 3021   4.450   3.072  16.083  1.5143 -0.0043  0.5088
  198MPD1    H7 3022   4.338   3.075  15.958 -1.0135  1.0301  2.9845
  199MPD1     C 3023   2.891   4.380   9.473 -0.1370 -0.2937 -0.1770
  199MPD1    C1 3024   2.805   4.302   9.403  0.5710  0.6830  0.3411
  199MPD1    C2 3025   2.682   4.284   9.457  0.2378  0.0058  0.4449
  199MPD1    C3 3026   2.635   4.350   9.574 -0.6826 -0.1669  0.3481
  199MPD1    C4 3027   2.729   4.431   9.642 -0.2491  0.2821  0.0970
  199MPD1    C5 3028   2.855   4.448   9.584 -0.1249  0.2517  0.7303
  199MPD1     H 3029   2.610   4.228   9.399 -0.6181  2.8882 -1.2412
  199MPD1    H1 3030   2.702   4.484   9.732  1.5913  0.9847  0.2429
  199MPD1    H2 3031   2.993   4.371   9.435  0.6232 -2.8225  2.4817
  199MPD1    H3 3032   2.925   4.512   9.637  2.3527 -2.6808  1.0089
  199MPD1     N 3033   2.502   4.350   9.629  0.0280 -0.3567  0.0828
  199MPD1    H5 3034   2.489   4.404   9.714 -4.0144 -2.3828  0.7151
  199MPD1    N1 3035   2.833   4.272   9.265 -0.0264 -0.2374 -0.3061
  199MPD1    H6 3036   2.931   4.264   9.240 -0.4097 -1.9685 -1.2409
  199MPD1    H7 3037   2.783   4.191   9.228 -2.8185  1.4985 -0.3832
  200MPD1     C 3038   0.284   3.701  14.516  0.2889 -0.4484  1.0488
  200MPD1    C1 3039   0.354   3.803  14.458  0.0271 -0.1695  0.0059
  200MPD1    C2 3040   0.484   3.821  14.498 -0.1438  0.5155 -0.2359
  200MPD1    C3 3041   0.553   3.726  14.581 -0.2060  0.0491 -0.0483
  200MPD1    C4 3042   0.473   3.625  14.640 -0.3307  0.0047  0.1186
  200MPD1    C5 3043   0.342   3.609  14.602 -0.3121  0.2354 -0.1737
  200MPD1     H 3044   0.539   3.902  14.452  1.8195 -0.0691  1.0600
  200MPD1    H1 3045   0.519   3.551  14.704  2.0197  0.1375 -1.4049
  200MPD1    H2 3046   0.179   3.692  14.490  0.9418 -0.1432 -1.6498
  200MPD1    H3 3047   0.283   3.530  14.646 -0.8655  1.6369  1.5931
  200MPD1     N 3048   0.688   3.748  14.603 -0.2282  0.0965  0.4957
  200MPD1    H5 3049   0.729   3.813  14.536  0.0927 -1.3490 -0.7135
  200MPD1    N1 3050   0.291   3.908  14.391 -0.1460  0.6033 -0.1141
  200MPD1    H6 3051   0.356   3.972  14.345 -0.2913  1.6819  1.1925
  200MPD1    H7 3052   0.217   3.880  14.326 -0.9805  0.5608  0.8524
  201MPD1     C 3053   3.525   3.186  13.053  0.3700 -0.3222  0.8362
  201MPD1    C1 3054   3.519   3.106  13.168  0.5775  0.1456  0.2719
  201MPD1    C2 3055   3.617   3.002  13.182  0.2385 -1.1254 -0.1720
  201MPD1    C3 3056   3.691   2.964  13.075  0.1578 -0.0527 -0.4520
  201MPD1    C4 3057   3.691   3.046  12.958 -1.3097  0.3338 -0.2182
  201MPD1    C5 3058   3.611   3.157  12.951 -0.1957  0.2546  0.7161
  201MPD1     H 3059   3.617   2.952  13.278  1.0458 -1.9172 -0.5890
  201MPD1    H1 3060   3.763   3.027  12.879  0.7638  0.6604  1.6009
  201MPD1    H2 3061   3.460   3.271  13.037  0.0502 -0.6962  0.1341
  201MPD1    H3 3062   3.614   3.223  12.865  3.7527 -1.4481 -0.4578
  201MPD1     N 3063   3.771   2.855  13.097 -0.2380  0.0968 -0.8318
  201MPD1    H5 3064   3.777   2.819  13.191 -3.6161  2.4559  0.2761
  201MPD1    N1 3065   3.454   3.161  13.277 -0.5951  0.4205 -0.2337
  201MPD1    H6 3066   3.433   3.084  13.341  0.0125 -0.7557 -1.4771
  201MPD1    H7 3067   3.362   3.198  13.250 -1.0782 -2.5698 -2.6668
  202MPD1     C 3068   4.683   2.524  10.747  0.2252 -0.1482  0.0650
  202MPD1    C1 3069   4.614   2.638  10.725  1.0732  0.0316 -0.0440
  202MPD1    C2 3070   4.564   2.654  10.592  0.1760  0.4609 -0.0207
  202MPD1    C3 3071   4.627   2.588  10.480  0.1888 -0.5605 -0.8727
  202MPD1    C4 3072   4.720   2.492  10.511  0.8622  0.1059  0.3975
  202MPD1    C5 3073   0.013   2.454  10.641  0.8557  0.0020  0.4910
  202MPD1     H 3074   4.506   2.742  10.565 -1.7908 -1.2753 -1.4436
  202MPD1    H1 3075   0.039   2.429  10.434  0.0069 -0.6799  0.5764
  202MPD1    H2 3076   4.710   2.479  10.842 -0.1194 -0.7089 -0.1033
  202MPD1    H3 3077   0.091   2.382  10.663  0.7850  0.0105  0.7633
  202MPD1     N 3078   4.602   2.609  10.345  0.1351  0.0839 -0.1059
  202MPD1    H5 3079   4.663   2.562  10.279  0.0160 -1.2491  0.7253
  202MPD1    N1 3080   4.534   2.693  10.830 -0.4318  0.6656  0.2653
  202MPD1    H6 3081   4.577   2.700  10.922 -0.2974 -0.6554  0.3077
  202MPD1    H7 3082   4.501   2.787  10.809 -1.7382  0.3399  0.8241
  203MPD1     C 3083   1.732   3.693  12.723  0.0495  0.8001  0.1189
  203MPD1    C1 3084   1.705   3.557  12.725  0.4954  0.0782 -0.1187
  203MPD1    C2 3085   1.784   3.470  12.655 -0.1908 -0.9278  0.6957
  203MPD1    C3 3086   1.899   3.514  12.587  0.2890  0.4775  0.6535
  203MPD1    C4 3087   1.933   3.649  12.599  0.2591 -0.4740  0.0275
  203MPD1    C5 3088   1.854   3.732  12.673  0.2267  0.3920  0.5108
  203MPD1     H 3089   1.752   3.367  12.643 -1.6926 -0.5191  1.2061
  203MPD1    H1 3090   2.023   3.690  12.555 -0.9228 -1.0822 -2.9702
  203MPD1    H2 3091   1.672   3.770  12.771 -0.9170  1.2895 -1.8495
  203MPD1    H3 3092   1.877   3.837  12.678  0.8056  0.2127  1.5532
  203MPD1     N 3093   1.987   3.430  12.520 -1.0259 -0.3503 -0.3777
  203MPD1    H5 3094   1.988   3.331  12.546 -1.4018  1.4087  6.1933
  203MPD1    N1 3095   1.584   3.510  12.775  0.1425  0.3506 -0.2108
  203MPD1    H6 3096   1.565   3.554  12.864  1.2130  3.4356 -1.4901
  203MPD1    H7 3097   1.590   3.409  12.789  1.3537  0.5150  0.4335
  204MPD1     C 3098   2.032   0.497   0.037  0.4925  0.6333  0.0703
  204MPD1    C1 3099   2.135   0.455  17.645 -0.6272  0.0129  0.3990
  204MPD1    C2 3100   2.153   0.315  17.640  0.4737  0.1342 -0.3170
  204MPD1    C3 3101   2.067   0.226   0.016 -0.7882  0.5045 -0.5439
  204MPD1    C4 3102   1.961   0.274   0.088  0.1901 -0.1716 -0.8627
  204MPD1    C5 3103   1.949   0.408   0.100  0.1491  0.2511  0.2845
  204MPD1     H 3104   2.226   0.275  17.570  1.3590  1.3566 -0.0869
  204MPD1    H1 3105   1.881   0.214   0.128  1.8139  0.1667  2.9439
  204MPD1    H2 3106   2.018   0.604   0.045 -0.2428  0.6032 -0.8355
  204MPD1    H3 3107   1.864   0.454   0.149 -0.3436 -0.2395 -0.1113
  204MPD1     N 3108   2.069   0.086  17.685 -0.5641  0.6693  0.0983
  204MPD1    H5 3109   2.128   0.056  17.608  1.1023 -0.3060  1.7607
  204MPD1    N1 3110   2.211   0.545  17.575 -0.2176  0.2258 -0.5698
  204MPD1    H6 3111   2.216   0.637  17.618  1.2341 -1.1774  2.2968
  204MPD1    H7 3112   2.305   0.516  17.550 -0.8973 -0.3478 -2.4492
  205MPD1     C 3113   0.877   3.548  17.393  0.6827  0.0247 -0.1222
  205MPD1    C1 3114   0.913   3.674  17.440  0.8044  0.1091 -0.2546
  205MPD1    C2 3115   0.995   3.678  17.545 -0.3686 -0.3084  0.1606
  205MPD1    C3 3116   1.056   3.563  17.590 -0.5235  0.1231 -0.1791
  205MPD1    C4 3117   1.015   3.439  17.548 -0.4630  0.1230  0.0111
  205MPD1    C5 3118   0.922   3.431  17.447 -0.5745  0.5146 -0.0920
  205MPD1     H 3119   1.021   3.776  17.585 -0.3243  0.2030 -1.1247
  205MPD1    H1 3120   1.045   3.347  17.596  0.2997 -0.5869 -1.8267
  205MPD1    H2 3121   0.801   3.544  17.316 -0.3871 -1.9832  1.0368
  205MPD1    H3 3122   0.881   3.339  17.408  3.9557 -0.3211 -2.8579
  205MPD1     N 3123   1.156   3.561   0.002 -0.1788  0.1703  0.6163
  205MPD1    H5 3124   1.208   3.477   0.026 -0.0373 -0.5590 -2.1977
  205MPD1    N1 3125   0.872   3.785  17.372 -0.7491  0.0252  0.4094
  205MPD1    H6 3126   0.789   3.771  17.316 -0.6431  0.0748  0.2405
  205MPD1    H7 3127   0.847   3.864  17.432  1.5620 -0.8737  2.5849
  206MPD1     C 3128   2.954   1.524  15.400 -0.2978  0.2892 -0.2360
  206MPD1    C1 3129   2.860   1.621  15.365  0.0968 -0.0247  0.4492
  206MPD1    C2 3130   2.729   1.595  15.400  0.7688  0.4803 -0.1968
  206MPD1    C3 3131   2.683   1.483  15.467  0.7220  0.0780 -0.1563
  206MPD1    C4 3132   2.773   1.390  15.502 -0.5751 -0.3174 -0.2269
  206MPD1    C5 3133   2.910   1.414  15.464  0.8862 -0.4551  0.2028
  206MPD1     H 3134   2.651   1.661  15.363 -0.3893 -0.8756 -0.1931
  206MPD1    H1 3135   2.739   1.296  15.544 -0.5613  1.2464  3.2926
  206MPD1    H2 3136   3.055   1.516  15.361 -1.4184 -2.6596 -2.5202
  206MPD1    H3 3137   2.989   1.342  15.486  0.5802 -0.6030  0.8079
  206MPD1     N 3138   2.548   1.458  15.495 -0.2046  0.2724  0.1209
  206MPD1    H5 3139   2.520   1.372  15.543  0.6835  0.1274  0.3705
  206MPD1    N1 3140   2.890   1.710  15.260 -0.1543 -1.1493  0.0576
  206MPD1    H6 3141   2.829   1.791  15.268 -0.5655 -1.3245 -1.3976
  206MPD1    H7 3142   2.983   1.748  15.279 -0.4858  0.4181 -1.4959
  207MPD1     C 3143   1.179   3.920   9.436  0.1146  0.3604  0.3418
  207MPD1    C1 3144   1.071   3.935   9.528  0.0288 -0.5442  1.2678
  207MPD1    C2 3145   1.097   3.935   9.661  0.2505 -0.7007 -0.0403
  207MPD1    C3 3146   1.225   3.912   9.704  0.0442  0.1672 -1.1075
  207MPD1    C4 3147   1.328   3.908   9.612 -0.0806  0.6656 -0.4627
  207MPD1    C5 3148   1.307   3.913   9.480  1.1529 -0.4361  0.2404
  207MPD1     H 3149   1.018   3.946   9.735  0.7907  1.7240  0.1802
  207MPD1    H1 3150   1.429   3.889   9.648  0.2401  0.4280 -1.4928
  207MPD1    H2 3151   1.164   3.925   9.328  1.6990  0.5603  0.1375
  207MPD1    H3 3152   1.385   3.920   9.405  0.3251  1.3315 -0.4461
  207MPD1     N 3153   1.261   3.900   9.843  0.1573  0.1295  0.5515
  207MPD1    H5 3154   1.361   3.900   9.862  0.3643 -0.5582 -0.5065
  207MPD1    N1 3155   0.947   3.980   9.480 -0.2271  0.1953  1.0306
  207MPD1    H6 3156   0.946   3.957   9.381  1.4526  1.4031  0.7319
  207MPD1    H7 3157   0.941   4.081   9.489  2.3908  0.3668  0.9588
  208MPD1     C 3158   2.257   2.869  17.681  0.2202  0.3249 -0.2744
  208MPD1    C1 3159   2.193   2.977   0.044 -0.2030 -0.1020  0.3124
  208MPD1    C2 3160   2.185   2.983   0.182 -0.1758  0.3091  0.2117
  208MPD1    C3 3161   2.226   2.880   0.265  1.0862 -0.1282  0.7931
  208MPD1    C4 3162   2.281   2.772   0.208  0.0491  0.2757 -0.5545
  208MPD1    C5 3163   2.282   2.767   0.077  0.9920 -0.0924  1.3674
  208MPD1     H 3164   2.140   3.069   0.229  1.4997  1.0114  0.5111
  208MPD1    H1 3165   2.298   2.675   0.252  1.5487  0.5119 -0.6199
  208MPD1    H2 3166   2.272   2.856  17.575 -0.0370 -1.2549 -0.1250
  208MPD1    H3 3167   2.327   2.679   0.033 -1.8463 -0.2115 -1.2905
  208MPD1     N 3168   2.204   2.893   0.405 -0.1742  0.3057  0.5401
  208MPD1    H5 3169   2.174   2.983   0.440 -0.1208  0.3485  0.4752
  208MPD1    N1 3170   2.164   3.096  17.665 -0.3922  0.2062 -0.1576
  208MPD1    H6 3171   2.170   3.095  17.564  0.8932 -1.0194 -0.0820
  208MPD1    H7 3172   2.073   3.135  17.687 -0.6273 -0.9384  0.9031
  209MPD1     C 3173   0.228   4.160   9.920 -0.0369  0.8930 -0.1162
  209MPD1    C1 3174   0.323   4.227   9.990  0.6564  0.4751 -0.2866
  209MPD1    C2 3175   0.369   4.182  10.112  0.1711 -0.1853  0.6151
  209MPD1    C3 3176   0.308   4.075  10.176  0.3551  0.7741  0.1515
  209MPD1    C4 3177   0.218   4.004  10.092  0.5176 -0.0339 -0.2996
  209MPD1    C5 3178   0.174   4.055   9.975 -0.0523 -0.8128  0.4462
  209MPD1     H 3179   0.455   4.232  10.155  1.6287 -2.4862  0.4222
  209MPD1    H1 3180   0.165   3.914  10.122 -1.0706  0.5802 -1.3052
  209MPD1    H2 3181   0.196   4.182   9.819  0.2642 -2.4808 -0.9440
  209MPD1    H3 3182   0.103   3.993   9.921 -0.8112  0.0215  0.4806
  209MPD1     N 3183   0.333   4.049  10.310  0.2331  0.0655  0.1635
  209MPD1    H5 3184   0.400   4.113  10.349 -0.8832  0.7092  1.0274
  209MPD1    N1 3185   0.387   4.336   9.926 -0.2173  0.1122  0.8578
  209MPD1    H6 3186   0.458   4.368   9.991  0.7238 -1.0249  0.3918
  209MPD1    H7 3187   0.325   4.403   9.881 -0.6251  0.7389  2.3783
  210MPD1     C 3188   0.345   3.159  10.813 -0.2116 -0.2315  0.7995
  210MPD1    C1 3189   0.308   3.256  10.903 -0.7987  0.1210  0.0691
  210MPD1    C2 3190   0.303   3.391  10.869  0.1149 -0.1127  0.1648
  210MPD1    C3 3191   0.332   3.431  10.738 -0.3316  0.4262 -0.0952
  210MPD1    C4 3192   0.366   3.337  10.644  0.0914  1.0415  0.3676
  210MPD1    C5 3193   0.363   3.200  10.680 -0.7686 -0.2442  0.0508
  210MPD1     H 3194   0.266   3.464  10.941  0.3482  0.8316 -0.6715
  210MPD1    H1 3195   0.392   3.370  10.545 -0.1015 -0.9548 -0.3601
  210MPD1    H2 3196   0.349   3.052  10.828  1.9154 -0.2225  0.3222
  210MPD1    H3 3197   0.386   3.119  10.612 -1.3295  0.0089 -0.4419
  210MPD1     N 3198   0.335   3.563  10.687  0.0626 -0.0194  0.6497
  210MPD1    H5 3199   0.349   3.579  10.588 -1.5086  2.3484  0.8077
  210MPD1    N1 3200   0.255   3.210  11.024 -0.3843  0.3104  0.1607
  210MPD1    H6 3201   0.258   3.283  11.095 -1.1937  0.1577  0.3446
  210MPD1    H7 3202   0.302   3.133  11.072 -0.1813 -0.9505 -2.0789
  211MPD1     C 3203   3.131   3.326  16.753  0.0334  0.1160 -0.2480
  211MPD1    C1 3204   3.065   3.430  16.688 -0.4216  0.0757  0.3018
  211MPD1    C2 3205   2.929   3.449  16.692  0.5775  0.4223  0.2831
  211MPD1    C3 3206   2.855   3.357  16.750  0.1246 -0.8269 -0.1988
  211MPD1    C4 3207   2.915   3.244  16.801 -0.4866  0.0129 -0.6440
  211MPD1    C5 3208   3.048   3.228  16.801  0.1413  0.2264 -0.1579
  211MPD1     H 3209   2.887   3.538  16.645  2.1200  1.0239  0.0654
  211MPD1    H1 3210   2.863   3.163  16.850  2.0586 -0.7942  0.7160
  211MPD1    H2 3211   3.239   3.327  16.760  0.1580  0.9653 -2.0923
  211MPD1    H3 3212   3.107   3.155  16.856 -1.7191 -1.0735  0.0901
  211MPD1     N 3213   2.717   3.378  16.740 -0.4363  0.6645  0.3538
  211MPD1    H5 3214   2.686   3.472  16.718 -1.6539  0.3985  0.9496
  211MPD1    N1 3215   3.143   3.538  16.639 -0.7028 -0.0413  0.3085
  211MPD1    H6 3216   3.103   3.598  16.567  0.5162  0.4620  0.0568
  211MPD1    H7 3217   3.237   3.512  16.609 -0.7212  0.7583 -0.4530
  212MPD1     C 3218   1.588   1.825  16.223 -0.6525  0.3974  0.4591
  212MPD1    C1 3219   1.468   1.877  16.266 -0.0873 -0.0426 -0.2660
  212MPD1    C2 3220   1.394   1.803  16.351  0.1900 -0.0288  0.1988
  212MPD1    C3 3221   1.446   1.689  16.403 -0.2006 -0.5020 -0.0398
  212MPD1    C4 3222   1.571   1.637  16.364  0.1787  0.6681 -0.7697
  212MPD1    C5 3223   1.636   1.711  16.276 -0.4126  0.6583 -0.6331
  212MPD1     H 3224   1.290   1.832  16.360  0.0196 -0.6491  0.1971
  212MPD1    H1 3225   1.620   1.549  16.404 -1.5313  0.4986  0.9607
  212MPD1    H2 3226   1.649   1.875  16.148  1.4149 -3.3230 -0.3904
  212MPD1    H3 3227   1.732   1.668  16.248 -0.4176 -0.6520  1.3299
  212MPD1     N 3228   1.368   1.603  16.490 -0.5704  0.0652 -0.4231
  212MPD1    H5 3229   1.401   1.508  16.493  1.4462  0.7010 -2.7233
  212MPD1    N1 3230   1.413   1.988  16.212 -0.1172 -0.3673 -0.2610
  212MPD1    H6 3231   1.348   2.046  16.265  0.9197  0.6273 -0.0718
  212MPD1    H7 3232   1.481   2.051  16.170 -0.5530  0.7933  0.7544
  213MPD1     C 3233   4.607   2.271  15.610  0.1921  0.5222  0.5380
  213MPD1    C1 3234   4.500   2.181  15.622  0.2956 -0.0981 -0.2558
  213MPD1    C2 3235   4.417   2.168  15.511  0.0250 -0.7424 -0.2348
  213MPD1    C3 3236   4.424   2.259  15.407  0.2074  0.1198 -0.2374
  213MPD1    C4 3237   4.511   2.364  15.417 -0.0710 -0.3973 -0.2705
  213MPD1    C5 3238   4.607   2.366  15.511 -0.0015 -0.7124  0.4191
  213MPD1     H 3239   4.347   2.085  15.504 -1.7213  0.7097 -0.1328
  213MPD1    H1 3240   4.520   2.443  15.343  0.6450  0.5590  0.8479
  213MPD1    H2 3241   4.674   2.281  15.695  0.0039 -1.3335  0.8826
  213MPD1    H3 3242   4.683   2.443  15.504 -1.0690  0.2666 -0.3923
  213MPD1     N 3243   4.340   2.232  15.297 -0.3791 -0.7349  0.1437
  213MPD1    H5 3244   4.276   2.154  15.304 -1.1096 -0.2377 -1.1712
  213MPD1    N1 3245   4.515   2.079  15.715 -0.2515 -0.0410  0.2606
  213MPD1    H6 3246   4.543   2.116  15.805 -0.8283 -1.2451  0.9389
  213MPD1    H7 3247   4.423   2.035  15.720  1.1349 -2.7776  2.0673
  214MPD1     C 3248   4.260   1.512  14.853 -0.0340  0.1716 -0.8663
  214MPD1    C1 3249   4.218   1.603  14.765 -0.4246  0.0779 -0.2352
  214MPD1    C2 3250   4.196   1.730  14.808 -0.0336  0.1791 -0.3421
  214MPD1    C3 3251   4.202   1.761  14.940 -0.2824 -0.2930  0.2202
  214MPD1    C4 3252   4.247   1.668  15.026 -0.4511 -0.1604 -0.7187
  214MPD1    C5 3253   4.285   1.552  14.980 -0.1521 -0.6574  0.2887
  214MPD1     H 3254   4.172   1.804  14.733 -1.5175  0.6805  0.6275
  214MPD1    H1 3255   4.267   1.694  15.129  0.9732 -0.5445 -0.8946
  214MPD1    H2 3256   4.291   1.417  14.812  1.9157  0.4810 -0.1414
  214MPD1    H3 3257   4.337   1.481  15.043 -0.0811 -1.8566 -1.1340
  214MPD1     N 3258   4.180   1.887  14.983  0.9470  0.3360  0.3187
  214MPD1    H5 3259   4.186   1.896  15.084 -1.0879  1.6832  0.3129
  214MPD1    N1 3260   4.225   1.570  14.627  0.3113  0.0411 -0.0086
  214MPD1    H6 3261   4.174   1.642  14.576 -0.4677  0.0568  0.7867
  214MPD1    H7 3262   4.190   1.476  14.612 -1.1522  0.6749 -0.5994
  215MPD1     C 3263   0.212   2.899  10.275 -0.1362 -0.8709 -0.2385
  215MPD1    C1 3264   0.223   3.032  10.246  1.0488 -0.0057 -0.0405
  215MPD1    C2 3265   0.192   3.131  10.337 -0.2938  0.7189 -0.2402
  215MPD1    C3 3266   0.126   3.099  10.452  0.4662  0.0274 -0.3626
  215MPD1    C4 3267   0.111   2.970  10.483 -0.5294 -0.8867  0.1951
  215MPD1    C5 3268   0.153   2.872  10.393 -0.0634  1.0263 -0.2478
  215MPD1     H 3269   0.206   3.236  10.318 -1.4898  0.9887  0.3886
  215MPD1    H1 3270   0.061   2.931  10.572  1.2199 -2.3303  0.5406
  215MPD1    H2 3271   0.222   2.820  10.201  1.8905  1.2419 -2.2116
  215MPD1    H3 3272   0.121   2.772  10.418 -1.0768  0.6692 -3.0129
  215MPD1     N 3273   0.064   3.206  10.530  0.5250 -0.0797  0.7470
  215MPD1    H5 3274   0.072   3.301  10.495  2.3983  0.4875  2.7086
  215MPD1    N1 3275   0.312   3.069  10.144  0.3869  0.2306  0.4539
  215MPD1    H6 3276   0.312   3.167  10.117  0.7160  0.3288  0.8063
  215MPD1    H7 3277   0.293   3.017  10.059 -1.7570  0.8111  0.5903
  216MPD1     C 3278   2.340   1.436  16.840  0.5347 -0.6608  0.4219
  216MPD1    C1 3279   2.309   1.311  16.813  0.1089  0.3194 -0.0505
  216MPD1    C2 3280   2.206   1.254  16.894 -0.0550  0.8240 -0.4204
  216MPD1    C3 3281   2.152   1.319  17.003 -0.2061  0.4377  0.3717
  216MPD1    C4 3282   2.194   1.444  17.032 -0.6524  0.8303  0.6453
  216MPD1    C5 3283   2.282   1.499  16.944  0.1902 -0.4883  0.5743
  216MPD1     H 3284   2.167   1.155  16.874  2.4463 -0.4083  0.7798
  216MPD1    H1 3285   2.156   1.500  17.117  1.2053 -1.8103  3.2012
  216MPD1    H2 3286   2.405   1.492  16.773 -1.5413  2.2379  0.8422
  216MPD1    H3 3287   2.305   1.603  16.966  1.0583 -0.5535 -0.0038
  216MPD1     N 3288   2.050   1.248  17.076  0.0168  0.0594 -0.2308
  216MPD1    H5 3289   2.019   1.162  17.031 -0.8956  2.0056 -3.3708
  216MPD1    N1 3290   2.342   1.245  16.692 -0.3163  0.4132 -0.4802
  216MPD1    H6 3291   2.329   1.144  16.697 -1.0581  0.4019 -2.6743
  216MPD1    H7 3292   2.439   1.261  16.664 -0.4671 -3.0256 -3.0527
  217MPD1     C 3293   2.573   2.412   8.221 -0.8512  0.8183 -0.6921
  217MPD1    C1 3294   2.499   2.517   8.268 -0.6427 -0.9413 -0.1925
  217MPD1    C2 3295   2.462   2.509   8.401  0.1524  0.1898 -0.7128
  217MPD1    C3 3296   2.506   2.409   8.484 -0.1712  0.4883  0.5212
  217MPD1    C4 3297   2.579   2.313   8.430  0.6602  0.5110 -0.2582
  217MPD1    C5 3298   2.618   2.310   8.299  0.2036  0.0504 -0.1813
  217MPD1     H 3299   2.394   2.587   8.435  2.6953  1.3477  1.7520
  217MPD1    H1 3300   2.603   2.223   8.485  0.3513 -0.1763 -1.2494
  217MPD1    H2 3301   2.607   2.405   8.118  1.0047  0.7526 -0.0862
  217MPD1    H3 3302   2.683   2.230   8.266  2.4939  1.6570  0.3626
  217MPD1     N 3303   2.461   2.397   8.614 -0.0184  0.1136 -0.0820
  217MPD1    H5 3304   2.481   2.307   8.656  0.4330  0.1059 -0.3114
  217MPD1    N1 3305   2.449   2.613   8.175  0.3290 -0.2238  0.4565
  217MPD1    H6 3306   2.441   2.708   8.211  0.7545  0.1729 -0.4712
  217MPD1    H7 3307   2.501   2.617   8.087 -1.7109  0.0137 -0.7366
  218MPD1     C 3308   3.812   4.039  12.791  0.1666 -0.1737  0.5942
  218MPD1    C1 3309   3.885   4.089  12.688  0.3425 -0.4352 -0.7861
  218MPD1    C2 3310   3.984   4.003  12.654  0.4515  0.0102  0.1200
  218MPD1    C3 3311   4.001   3.875  12.701  0.4216 -0.0207 -0.3028
  218MPD1    C4 3312   3.907   3.826  12.790  0.2576 -0.0014  0.6966
  218MPD1    C5 3313   3.814   3.918  12.846 -0.2512 -0.1899  0.8987
  218MPD1     H 3314   4.066   4.045  12.597 -1.1438  1.0485 -1.3603
  218MPD1    H1 3315   3.912   3.726  12.831 -0.7890  0.0106  0.8582
  218MPD1    H2 3316   3.752   4.113  12.842 -2.1896 -0.2286 -2.0626
  218MPD1    H3 3317   3.745   3.896  12.927 -2.0765  1.7009 -0.1611
  218MPD1     N 3318   4.117   3.799  12.659  0.0664  0.6146  0.9083
  218MPD1    H5 3319   4.180   3.849  12.597 -2.5819  0.6472 -1.7162
  218MPD1    N1 3320   3.895   4.223  12.657 -0.5560 -0.6578  0.3091
  218MPD1    H6 3321   3.946   4.236  12.569  1.6853 -1.0504  1.5514
  218MPD1    H7 3322   3.801   4.261  12.656 -1.7955 -3.7888 -0.9735
  219MPD1     C 3323   4.377   3.514  11.747 -0.0776 -0.1848  0.1200
  219MPD1    C1 3324   4.438   3.606  11.832 -0.3726 -0.1688 -0.2396
  219MPD1    C2 3325   4.398   3.600  11.968  0.2241  0.0133 -0.6457
  219MPD1    C3 3326   4.328   3.488  12.018  0.1446 -0.0075 -0.0604
  219MPD1    C4 3327   4.296   3.383  11.929  0.8118 -0.2019 -0.4379
  219MPD1    C5 3328   4.320   3.402  11.803 -0.0296  0.4198 -0.1239
  219MPD1     H 3329   4.440   3.676  12.033  1.0170  0.0837 -1.2340
  219MPD1    H1 3330   4.243   3.296  11.966  0.0228  0.7325  0.5777
  219MPD1    H2 3331   4.377   3.513  11.638 -0.6655 -2.2740  0.1262
  219MPD1    H3 3332   4.276   3.334  11.731 -3.3611 -0.2870  2.5920
  219MPD1     N 3333   4.303   3.484  12.155 -0.3254 -0.8829  0.1167
  219MPD1    H5 3334   4.286   3.394  12.200 -1.8382 -1.2490 -1.2175
  219MPD1    N1 3335   4.492   3.719  11.776 -0.2044  0.3117  0.2580
  219MPD1    H6 3336   4.548   3.697  11.694 -1.5931 -0.7805 -0.3824
  219MPD1    H7 3337   4.545   3.776  11.842  1.5593  0.3683 -1.2135
  220MPD1     C 3338   4.450   4.212   9.160  0.6831 -0.1791  0.7174
  220MPD1    C1 3339   4.541   4.116   9.190 -0.1874 -0.2548  0.4048
  220MPD1    C2 3340   4.508   4.030   9.291  0.1245  0.5013 -0.4661
  220MPD1    C3 3341   4.391   4.049   9.364 -0.2072 -0.5151  0.4585
  220MPD1    C4 3342   4.302   4.142   9.313  0.3802 -0.0610  0.1788
  220MPD1    C5 3343   4.324   4.229   9.216  0.7310 -0.2213 -0.0107
  220MPD1     H 3344   4.586   3.966   9.331 -1.8459 -0.6061  1.5372
  220MPD1    H1 3345   4.217   4.175   9.372  0.5637  1.3878 -0.3732
  220MPD1    H2 3346   4.483   4.288   9.089 -1.3137  1.9709  2.0682
  220MPD1    H3 3347   4.257   4.309   9.187 -2.9915 -2.9235  1.1595
  220MPD1     N 3348   4.365   3.967   9.480  0.6677  0.4681  0.6308
  220MPD1    H5 3349   4.433   3.895   9.500  1.6995  1.8227  1.9859
  220MPD1    N1 3350   4.670   4.116   9.132 -0.1093 -0.5484  0.8078
  220MPD1    H6 3351   4.721   4.031   9.156  2.9976  0.5189 -1.8925
  220MPD1    H7 3352   4.679   4.159   9.040 -1.4304 -0.3048  0.8028
  221MPD1     C 3353   1.025   3.077  16.434 -0.1199  0.1892  0.3091
  221MPD1    C1 3354   1.083   3.198  16.406  0.1729 -0.4262 -0.2502
  221MPD1    C2 3355   1.222   3.213  16.405 -0.4657  0.2519  0.3000
  221MPD1    C3 3356   1.296   3.092  16.424  0.2563  0.1862 -0.6410
  221MPD1    C4 3357   1.235   2.967  16.434 -0.3303  0.1407  0.3632
  221MPD1    C5 3358   1.097   2.962  16.450  0.2725  0.1252 -0.1648
  221MPD1     H 3359   1.269   3.311  16.406 -1.5853  0.7784  0.7447
  221MPD1    H1 3360   1.285   2.871  16.442  1.1766  0.6961 -2.4241
  221MPD1    H2 3361   0.916   3.071  16.438 -0.0139 -3.7107 -2.9499
  221MPD1    H3 3362   1.043   2.868  16.458 -0.4794  0.6259  0.6087
  221MPD1     N 3363   1.441   3.086  16.408  0.3889  0.2270  1.0198
  221MPD1    H5 3364   1.481   2.993  16.412 -1.9079 -0.8676 -1.3722
  221MPD1    N1 3365   0.999   3.305  16.396  0.2132 -0.9019  0.1965
  221MPD1    H6 3366   1.035   3.355  16.315 -2.8793 -1.1248 -1.3461
  221MPD1    H7 3367   0.907   3.274  16.363  1.0606 -3.0219 -0.1708
  222MPD1     C 3368   2.054   1.639  16.449  0.2933 -0.7867 -0.1344
  222MPD1    C1 3369   2.088   1.559  16.551 -0.1023  0.2899 -0.3738
  222MPD1    C2 3370   2.020   1.584  16.674 -0.5623 -0.9798 -0.5495
  222MPD1    C3 3371   1.915   1.680  16.689  0.6936  0.3786 -0.9615
  222MPD1    C4 3372   1.885   1.756  16.580 -0.9113  0.4585  0.0702
  222MPD1    C5 3373   1.951   1.729  16.461  0.5772 -0.0268 -0.4897
  222MPD1     H 3374   2.047   1.528  16.762  1.0036 -0.8370 -0.9464
  222MPD1    H1 3375   1.797   1.820  16.581 -0.4609  1.0721  0.4890
  222MPD1    H2 3376   2.100   1.640  16.351 -3.2463 -1.0249 -1.8064
  222MPD1    H3 3377   1.922   1.793  16.378 -3.6008 -2.1910 -0.7211
  222MPD1     N 3378   1.836   1.705  16.804 -0.2085 -0.6690  0.1572
  222MPD1    H5 3379   1.768   1.780  16.806  0.2390 -0.2425 -0.7852
  222MPD1    N1 3380   2.219   1.506  16.550 -0.4180  1.1360  0.3326
  222MPD1    H6 3381   2.239   1.462  16.460 -2.0229  0.3180  0.3756
  222MPD1    H7 3382   2.234   1.445  16.631  0.8106 -1.5467 -1.8941
  223MPD1     C 3383   0.928   1.950  17.135  0.3060 -0.5840  0.3245
  223MPD1    C1 3384   0.992   1.928  17.256 -0.3041 -0.2254 -0.1841
  223MPD1    C2 3385   1.114   1.861  17.245  0.0921 -0.0235 -0.5807
  223MPD1    C3 3386   1.183   1.827  17.134  0.3915  0.3155  1.2324
  223MPD1    C4 3387   1.122   1.853  17.012 -0.3441 -0.4108  0.3920
  223MPD1    C5 3388   0.997   1.920  17.019 -0.1859 -0.1697  0.4011
  223MPD1     H 3389   1.141   1.828  17.344 -1.0509  0.6947 -0.0255
  223MPD1    H1 3390   1.161   1.828  16.914  0.5484  0.4407  0.5321
  223MPD1    H2 3391   0.834   2.005  17.130  0.5732 -0.1404  0.1339
  223MPD1    H3 3392   0.932   1.928  16.932 -1.3072 -1.1198  1.1559
  223MPD1     N 3393   1.303   1.770  17.148 -0.2506 -0.2859  0.2406
  223MPD1    H5 3394   1.343   1.761  17.241  0.3164 -0.1165  0.0144
  223MPD1    N1 3395   0.920   1.938  17.375 -0.4032  0.1369 -0.0148
  223MPD1    H6 3396   0.862   2.022  17.384  0.3934  0.7551 -0.5983
  223MPD1    H7 3397   0.980   1.921  17.455 -0.5195 -1.0814 -0.1876
  224MPD1     C 3398   3.828   3.453   9.153 -0.4148 -0.5482 -0.0890
  224MPD1    C1 3399   3.848   3.328   9.216 -0.1355  0.0833 -0.2949
  224MPD1    C2 3400   3.732   3.263   9.259 -0.9094  0.1544  0.2927
  224MPD1    C3 3401   3.601   3.316   9.257 -0.0457 -0.8094 -0.5351
  224MPD1    C4 3402   3.587   3.446   9.205 -0.1172  0.5109 -0.0245
  224MPD1    C5 3403   3.697   3.511   9.158  0.2186 -0.2752 -0.1809
  224MPD1     H 3404   3.745   3.171   9.314 -0.9435 -0.3049 -0.4694
  224MPD1    H1 3405   3.491   3.495   9.208 -0.5217 -0.2870  0.2662
  224MPD1    H2 3406   3.911   3.512   9.117 -0.4145 -0.1863  0.5153
  224MPD1    H3 3407   3.687   3.612   9.120 -1.0587 -0.0379  0.7769
  224MPD1     N 3408   3.489   3.255   9.321 -0.2384  0.0407 -0.5340
  224MPD1    H5 3409   3.411   3.318   9.329  0.7913  1.5189 -2.0305
  224MPD1    N1 3410   3.971   3.259   9.218 -0.0044  0.4140  0.0488
  224MPD1    H6 3411   3.981   3.187   9.289 -0.4213 -0.1239 -0.4445
  224MPD1    H7 3412   4.057   3.314   9.218  0.7842 -0.8384  0.0911
  225MPD1     C 3413   4.183   4.667  12.713 -0.0636  0.7344  0.4222
  225MPD1    C1 3414   4.177   4.534  12.693 -0.0025  0.3136 -0.1493
  225MPD1    C2 3415   4.098   4.486  12.591 -0.2314  0.0882 -0.3053
  225MPD1    C3 3416   4.004   4.565  12.525 -0.1062 -1.0478 -0.6125
  225MPD1    C4 3417   4.019   4.704  12.535 -0.0867 -0.7063 -0.3198
  225MPD1    C5 3418   4.108   0.027  12.628 -0.3759  0.2562 -0.0483
  225MPD1     H 3419   4.108   4.383  12.562  0.7896  0.0527  0.1927
  225MPD1    H1 3420   3.961   0.055  12.482 -0.3879  0.1978  1.2656
  225MPD1    H2 3421   4.249   4.704  12.791 -0.3120  0.4101  0.7828
  225MPD1    H3 3422   4.122   0.134  12.643  0.7997  0.1171 -0.1197
  225MPD1     N 3423   3.912   4.518  12.432  0.7094 -0.0479  0.0678
  225MPD1    H5 3424   3.852   4.591  12.396 -0.2168  0.3970  2.5627
  225MPD1    N1 3425   4.260   4.448  12.762  0.4995  0.1346 -0.6056
  225MPD1    H6 3426   4.266   4.352  12.727  2.1773  0.0119  0.0384
  225MPD1    H7 3427   4.279   4.471  12.860  1.1476  0.6430 -0.8493
  226MPD1     C 3428   2.875   2.742   9.427 -0.1154 -0.1102 -0.0804
  226MPD1    C1 3429   2.756   2.766   9.361 -0.2238  0.4115 -0.3016
  226MPD1    C2 3430   2.719   2.898   9.334 -0.4990 -0.4533 -0.4840
  226MPD1    C3 3431   2.813   3.001   9.349  0.1400  0.2779  0.2457
  226MPD1    C4 3432   2.933   2.971   9.412  0.1137  0.0062 -0.2695
  226MPD1    C5 3433   2.961   2.844   9.453  0.6285  0.5773 -0.3121
  226MPD1     H 3434   2.619   2.933   9.313 -1.1023 -0.5378  2.2507
  226MPD1    H1 3435   3.002   3.049   9.442  0.3931 -0.4367  0.2404
  226MPD1    H2 3436   2.917   2.644   9.448 -2.2665 -0.3042  3.3422
  226MPD1    H3 3437   3.057   2.830   9.501 -0.1691  2.9988  1.9854
  226MPD1     N 3438   2.777   3.134   9.331 -0.4774  0.3408 -0.1312
  226MPD1    H5 3439   2.678   3.149   9.312 -0.5271  2.6355  1.9973
  226MPD1    N1 3440   2.662   2.663   9.372 -0.6674 -0.1246 -0.3263
  226MPD1    H6 3441   2.706   2.572   9.361  0.1830 -0.0800  2.6623
  226MPD1    H7 3442   2.588   2.675   9.304 -1.0765 -1.3747 -0.1153
  227MPD1     C 3443   2.087   3.838   9.369  0.0953 -0.3074 -0.3910
  227MPD1    C1 3444   2.199   3.911   9.366 -0.4678  0.0313 -0.3453
  227MPD1    C2 3445   2.327   3.859   9.375  0.5789 -0.3083 -0.0123
  227MPD1    C3 3446   2.343   3.721   9.402  0.0818  0.0887  0.7209
  227MPD1    C4 3447   2.230   3.647   9.397 -0.3001 -0.6869  0.1808
  227MPD1    C5 3448   2.101   3.702   9.385  0.4823  0.3474  0.1447
  227MPD1     H 3449   2.413   3.925   9.375  1.2848 -1.2276  0.1998
  227MPD1    H1 3450   2.228   3.538   9.395 -0.0481 -0.6329 -3.2749
  227MPD1    H2 3451   1.984   3.872   9.357  0.8813  2.4984  0.7716
  227MPD1    H3 3452   2.010   3.643   9.393  0.5960  0.0417 -0.8633
  227MPD1     N 3453   2.478   3.670   9.417  0.1099  0.4440  0.6181
  227MPD1    H5 3454   2.548   3.739   9.392  1.4348 -0.4598  1.8226
  227MPD1    N1 3455   2.185   4.044   9.332 -0.2091  0.0258 -0.3159
  227MPD1    H6 3456   2.272   4.091   9.357 -1.0267  0.3780  1.7927
  227MPD1    H7 3457   2.111   4.100   9.372 -1.9772 -1.4030 -1.6241
  228MPD1     C 3458   0.874   2.258  12.686  0.2957 -0.4941 -0.4591
  228MPD1    C1 3459   0.868   2.136  12.754  0.4143 -0.0406  0.3804
  228MPD1    C2 3460   0.746   2.092  12.804  0.2255  0.0224  0.4868
  228MPD1    C3 3461   0.627   2.157  12.764  0.1751 -0.2587  0.1052
  228MPD1    C4 3462   0.632   2.272  12.693  0.2231  0.1813 -0.4118
  228MPD1    C5 3463   0.758   2.321  12.651 -0.3239  0.2350  0.4991
  228MPD1     H 3464   0.763   2.006  12.867  0.1664  0.6648  1.3718
  228MPD1    H1 3465   0.545   2.335  12.677 -0.6679 -0.9967 -0.1671
  228MPD1    H2 3466   0.966   2.288  12.638 -0.3571  3.8112  0.9946
  228MPD1    H3 3467   0.768   2.416  12.600 -0.7104  0.0803  0.1302
  228MPD1     N 3468   0.502   2.106  12.814 -0.2955 -0.4221  0.6484
  228MPD1    H5 3469   0.507   2.030  12.881 -3.1034 -1.6999 -0.5792
  228MPD1    N1 3470   0.981   2.076  12.804  0.5318 -0.3321 -0.0040
  228MPD1    H6 3471   1.065   2.077  12.747 -0.2355  0.5991 -1.0980
  228MPD1    H7 3472   0.969   1.982  12.841  0.5770  0.8498  3.1010
  229MPD1     C 3473   4.622   0.451  15.128  0.0406  0.3999 -0.0390
  229MPD1    C1 3474   4.636   0.396  15.255  0.0815  0.5052 -0.1462
  229MPD1    C2 3475   0.012   0.304  15.267 -0.2733 -0.0232 -0.1290
  229MPD1    C3 3476   0.095   0.258  15.159  0.1659 -0.2723 -0.4292
  229MPD1    C4 3477   0.070   0.310  15.035 -0.3996 -0.2243 -0.1918
  229MPD1    C5 3478   4.697   0.406  15.025 -0.5244  0.0053 -0.0996
  229MPD1     H 3479   0.026   0.253  15.361  3.1375  1.5683  0.2520
  229MPD1    H1 3480   0.128   0.291  14.946 -0.5992  2.2288 -0.8498
  229MPD1    H2 3481   4.547   0.526  15.106 -1.8174 -1.0404  1.3931
  229MPD1    H3 3482   4.670   0.442  14.926 -0.3525 -1.1793 -0.5776
  229MPD1     N 3483   0.189   0.151  15.173  0.1168 -0.3233 -0.0234
  229MPD1    H5 3484   0.233   0.112  15.090 -0.8522 -3.1928  0.8345
  229MPD1    N1 3485   4.554   0.437  15.363  0.0173  0.1479  0.3933
  229MPD1    H6 3486   4.519   0.532  15.353  1.2621  0.5560 -0.0813
  229MPD1    H7 3487   4.596   0.421  15.454 -0.8369  0.9919  0.9358
  230MPD1     C 3488   1.026   0.044  15.628  0.5758  0.0533  1.3754
  230MPD1    C1 3489   0.936   0.149  15.610 -0.3576  0.6503  0.2965
  230MPD1    C2 3490   0.811   0.106  15.562  0.1106  0.3737  0.5662
  230MPD1    C3 3491   0.776   4.694  15.536  0.4252  0.8623 -0.4236
  230MPD1    C4 3492   0.865   4.596  15.557 -1.0708 -0.0731 -0.3351
  230MPD1    C5 3493   0.988   4.634  15.606 -0.3862 -0.7755 -0.8803
  230MPD1     H 3494   0.728   0.173  15.542  2.2096  2.5821 -0.6251
  230MPD1    H1 3495   0.844   4.490  15.552  0.2282 -0.4026  1.2724
  230MPD1    H2 3496   1.130   0.056  15.658  1.1746 -0.4894 -0.4527
  230MPD1    H3 3497   1.064   4.558  15.622  0.7320  0.0932 -2.0874
  230MPD1     N 3498   0.656   4.666  15.466  0.2219 -1.1270 -0.5855
  230MPD1    H5 3499   0.604   0.025  15.440 -0.6828 -0.7689  2.2756
  230MPD1    N1 3500   0.956   0.279  15.655  0.1643  0.1118  0.2124
  230MPD1    H6 3501   1.053   0.310  15.653  0.9105 -2.0698  2.3924
  230MPD1    H7 3502   0.896   0.348  15.610  0.7080  0.0522 -0.6179
  231MPD1     C 3503   3.933   2.127  15.388  0.0396 -0.0988 -0.5591
  231MPD1    C1 3504   3.856   2.132  15.268 -0.5482  0.5088  0.2397
  231MPD1    C2 3505   3.810   2.249  15.223  0.1125  0.6198  0.7247
  231MPD1    C3 3506   3.859   2.366  15.267  0.4845 -0.0165  0.3364
  231MPD1    C4 3507   3.956   2.364  15.369  0.3535  0.2583 -0.6584
  231MPD1    C5 3508   3.984   2.243  15.428  0.1553  0.1288 -0.5801
  231MPD1     H 3509   3.739   2.263  15.142 -1.0237  1.0400  1.7887
  231MPD1    H1 3510   4.009   2.451  15.407  0.0165 -0.0971  0.6031
  231MPD1    H2 3511   3.969   2.036  15.434 -0.6993 -0.7595 -1.2835
  231MPD1    H3 3512   4.052   2.230  15.511 -1.1302 -1.3450  0.2564
  231MPD1     N 3513   3.825   2.483  15.194 -0.7648  0.0290 -0.6514
  231MPD1    H5 3514   3.760   2.471  15.118 -1.3560 -0.6277 -0.0445
  231MPD1    N1 3515   3.807   2.007  15.229  0.3170 -0.8809 -0.0428
  231MPD1    H6 3516   3.771   2.014  15.134 -0.8124 -0.3400  0.4291
  231MPD1    H7 3517   3.883   1.941  15.209  0.5290 -0.0568 -1.9350
  232MPD1     C 3518   0.997   0.200   0.826  1.1779 -0.2362  0.6027
  232MPD1    C1 3519   0.973   0.321   0.767  0.6170  0.1380  0.5875
  232MPD1    C2 3520   0.884   0.322   0.664  0.5188 -0.2027 -0.3897
  232MPD1    C3 3521   0.832   0.210   0.616 -0.5190  0.0973  0.4272
  232MPD1    C4 3522   0.853   0.085   0.673 -0.5263 -0.3475 -0.0150
  232MPD1    C5 3523   0.940   0.083   0.784  0.0323  0.0938 -0.0694
  232MPD1     H 3524   0.857   0.416   0.617 -0.6892 -0.2812  0.1551
  232MPD1    H1 3525   0.821   4.715   0.628  0.6117 -2.0373  2.6259
  232MPD1    H2 3526   1.066   0.198   0.910  3.0620  0.3477 -0.9535
  232MPD1    H3 3527   0.971   4.709   0.821 -0.1838 -1.0360 -2.8578
  232MPD1     N 3528   0.754   0.227   0.502  0.1219  0.2175 -0.6123
  232MPD1    H5 3529   0.747   0.323   0.470  2.1965  0.3720 -0.6135
  232MPD1    N1 3530   1.012   0.442   0.836 -0.2686  0.1641  0.3648
  232MPD1    H6 3531   1.018   0.516   0.767  1.3563  0.5680  0.9404
  232MPD1    H7 3532   1.099   0.434   0.888 -0.6945 -1.7077  0.7958
  233MPD1     C 3533   1.390   4.116   1.966  0.1778  0.2898 -0.0021
  233MPD1    C1 3534   1.475   4.055   2.046  0.1513  0.1371  0.2604
  233MPD1    C2 3535   1.531   3.943   2.008 -0.1270  0.2258 -0.6211
  233MPD1    C3 3536   1.520   3.904   1.874  0.3659  0.0858 -0.4637
  233MPD1    C4 3537   1.443   3.975   1.789  0.5645  0.8174  0.2917
  233MPD1    C5 3538   1.375   4.081   1.838  0.6272  0.3019 -0.6070
  233MPD1     H 3539   1.589   3.878   2.074 -1.4017 -0.0523  0.2150
  233MPD1    H1 3540   1.425   3.954   1.685 -2.8511 -1.7596  1.4028
  233MPD1    H2 3541   1.327   4.198   1.998  1.4595  1.8608 -1.5079
  233MPD1    H3 3542   1.307   4.134   1.773  0.1505 -1.9066 -1.9049
  233MPD1     N 3543   1.585   3.795   1.820  0.2158 -0.1629  0.3274
  233MPD1    H5 3544   1.573   3.783   1.720 -0.9504  0.8228  0.3498
  233MPD1    N1 3545   1.487   4.087   2.181 -0.4118  0.5291  0.1898
  233MPD1    H6 3546   1.473   4.187   2.194 -1.4111  0.5450 -1.0696
  233MPD1    H7 3547   1.582   4.075   2.217 -0.4041 -0.5862 -0.2062
  234MPD1     C 3548   3.396   1.304   9.517 -0.0205 -0.1332  0.5792
  234MPD1    C1 3549   3.267   1.330   9.463  0.8594  0.0611  0.1823
  234MPD1    C2 3550   3.214   1.457   9.475 -0.3114  0.4348  0.1503
  234MPD1    C3 3551   3.265   1.545   9.570  0.0383  0.1466 -0.4433
  234MPD1    C4 3552   3.382   1.518   9.631  0.0248 -0.1287  0.3605
  234MPD1    C5 3553   3.448   1.401   9.602  0.6453 -0.2837  0.0185
  234MPD1     H 3554   3.121   1.488   9.430 -0.9679 -0.9033  0.5662
  234MPD1    H1 3555   3.428   1.580   9.708 -0.3390 -0.4641  0.8507
  234MPD1    H2 3556   3.445   1.208   9.517 -0.2806 -0.2455 -1.8087
  234MPD1    H3 3557   3.540   1.367   9.648  0.6725  1.9774  1.6216
  234MPD1     N 3558   3.190   1.662   9.601 -0.3989  0.3691 -0.2799
  234MPD1    H5 3559   3.096   1.666   9.563 -0.8989  0.4534  0.9594
  234MPD1    N1 3560   3.217   1.238   9.366  0.3157 -0.5332  0.1086
  234MPD1    H6 3561   3.117   1.257   9.363  0.3144 -0.6440 -0.4061
  234MPD1    H7 3562   3.235   1.140   9.387  0.8868 -0.0926  1.7198
  235MPD1     C 3563   4.638   0.531   8.679  0.7031 -0.1969 -0.5072
  235MPD1    C1 3564   0.002   0.641   8.695 -0.5648 -0.3396 -0.2631
  235MPD1    C2 3565   0.106   0.626   8.781  0.0775 -0.5011 -0.6678
  235MPD1    C3 3566   0.121   0.501   8.850  0.9190 -0.5638  0.5724
  235MPD1    C4 3567   0.027   0.403   8.845 -0.2538  0.2238 -0.4765
  235MPD1    C5 3568   4.649   0.419   8.756  0.8126  0.2765  0.0148
  235MPD1     H 3569   0.185   0.700   8.782  1.6548 -2.2295  2.6513
  235MPD1    H1 3570   0.031   0.310   8.900 -3.3172  1.9350  2.5474
  235MPD1    H2 3571   4.546   0.538   8.622 -0.6169 -0.8790  1.5413
  235MPD1    H3 3572   4.563   0.353   8.753  1.6428 -0.8590  1.3640
  235MPD1     N 3573   0.237   0.476   8.927 -0.1319 -0.4889  0.4413
  235MPD1    H5 3574   0.318   0.534   8.909  0.3203 -1.9447 -2.1819
  235MPD1    N1 3575   4.712   0.753   8.612 -0.4889 -0.1891  0.4384
  235MPD1    H6 3576   4.619   0.765   8.573 -0.4921  1.6892  1.0284
  235MPD1    H7 3577   0.008   0.842   8.657 -1.2960 -0.6689  1.6980
  236MPD1     C 3578   4.219   1.032   9.851 -0.0450  0.7658  0.7147
  236MPD1    C1 3579   4.242   0.933   9.759 -0.0419  0.1395 -0.2457
  236MPD1    C2 3580   4.319   0.822   9.788 -0.2614 -0.6738 -0.3082
  236MPD1    C3 3581   4.398   0.830   9.904 -0.5339  0.0410  0.3948
  236MPD1    C4 3582   4.392   0.943   9.988  0.0134 -0.1746 -0.1557
  236MPD1    C5 3583   4.296   1.041   9.959 -0.2978  0.3819 -0.0501
  236MPD1     H 3584   4.324   0.732   9.727 -0.1203 -0.1397 -1.0947
  236MPD1    H1 3585   4.454   0.958  10.076 -1.2988  0.4455  0.6643
  236MPD1    H2 3586   4.142   1.106   9.831 -0.6093  0.3092  1.2196
  236MPD1    H3 3587   4.271   1.113  10.036 -1.7672 -0.0437 -0.1269
  236MPD1     N 3588   4.489   0.733   9.939  0.3661 -0.4282 -0.2467
  236MPD1    H5 3589   4.565   0.760  10.000  0.4178  0.5384 -0.7401
  236MPD1    N1 3590   4.145   0.923   9.654 -0.2079 -0.2129 -0.1991
  236MPD1    H6 3591   4.179   0.860   9.581  2.9660  0.5556  0.6340
  236MPD1    H7 3592   4.123   1.018   9.625 -1.0175 -0.9204 -1.9014
  237MPD1     C 3593   3.932   4.277  15.436 -0.2932 -0.1059  0.3372
  237MPD1    C1 3594   3.860   4.345  15.335 -0.0465 -0.6497  0.2653
  237MPD1    C2 3595   3.755   4.273  15.283 -0.9625 -0.8795 -0.5747
  237MPD1    C3 3596   3.716   4.139  15.325  0.0524 -0.3867  0.0567
  237MPD1    C4 3597   3.788   4.084  15.426  0.0586 -1.2033 -1.4626
  237MPD1    C5 3598   3.899   4.152  15.481 -0.6159 -0.0612  0.2127
  237MPD1     H 3599   3.700   4.318  15.201  0.8688  0.9208 -0.8133
  237MPD1    H1 3600   3.780   3.982  15.461  2.5844 -0.1580  2.0825
  237MPD1    H2 3601   4.018   4.322  15.486 -0.1474  0.3903 -0.3549
  237MPD1    H3 3602   3.963   4.109  15.557 -2.5592 -1.8346  0.8711
  237MPD1     N 3603   3.610   4.065  15.279  0.7003 -0.8933 -0.0569
  237MPD1    H5 3604   3.588   3.972  15.315 -2.7486  0.0167  0.2068
  237MPD1    N1 3605   3.914   4.455  15.266  0.2198  0.0234  0.1330
  237MPD1    H6 3606   3.947   4.523  15.334 -2.3598  0.1757  1.2242
  237MPD1    H7 3607   3.844   4.492  15.202  1.0221  3.4054  1.2433
  238MPD1     C 3608   0.153   3.047  15.667  0.1158  0.2855 -1.1610
  238MPD1    C1 3609   0.052   3.074  15.583  1.1857  0.2952  0.1097
  238MPD1    C2 3610   0.057   3.006  15.461  1.1626 -0.3129  0.8668
  238MPD1    C3 3611   0.162   2.920  15.430 -0.0617 -0.6542 -0.0314
  238MPD1    C4 3612   0.264   2.912  15.513 -0.2817 -0.5602  0.9829
  238MPD1    C5 3613   0.257   2.972  15.634  0.7178 -0.1810 -0.2747
  238MPD1     H 3614   4.698   3.005  15.390  1.0251 -2.5493  1.0628
  238MPD1    H1 3615   0.345   2.845  15.484  0.3594  0.2503  0.8939
  238MPD1    H2 3616   0.156   3.074  15.772 -2.3540 -0.6879 -0.8510
  238MPD1    H3 3617   0.343   2.960  15.698  0.3008  3.4630  0.9660
  238MPD1     N 3618   0.175   2.845  15.318  0.2861 -0.5708  0.7642
  238MPD1    H5 3619   0.259   2.788  15.315  0.4919 -0.2187 -0.4242
  238MPD1    N1 3620   4.648   3.118  15.637 -0.6770 -0.7614  0.3263
  238MPD1    H6 3621   4.658   3.182  15.716  0.1098  0.3111 -0.6430
  238MPD1    H7 3622   4.588   3.164  15.568 -0.6251 -0.2884  0.5936
  239MPD1     C 3623   0.746   3.200  14.824  0.3774  0.7013 -0.0004
  239MPD1    C1 3624   0.838   3.289  14.773 -0.7801  0.5947  0.4712
  239MPD1    C2 3625   0.810   3.342  14.648 -0.1916  0.2022  0.3571
  239MPD1    C3 3626   0.691   3.320  14.587 -0.4126  0.1533  0.0214
  239MPD1    C4 3627   0.601   3.232  14.638  0.1516 -0.5409 -0.2667
  239MPD1    C5 3628   0.628   3.169  14.760  0.5418  0.2466 -0.3582
  239MPD1     H 3629   0.885   3.399  14.595 -0.6748  2.5229  2.1554
  239MPD1    H1 3630   0.503   3.228  14.592  0.0919 -0.5357 -0.1392
  239MPD1    H2 3631   0.756   3.161  14.925 -0.3711 -1.6965 -0.8466
  239MPD1    H3 3632   0.558   3.107  14.815 -0.1510  0.7051 -0.7251
  239MPD1     N 3633   0.653   3.382  14.463  0.0985  0.1158  0.1027
  239MPD1    H5 3634   0.562   3.352  14.428 -0.0922 -0.1106  0.7897
  239MPD1    N1 3635   0.950   3.328  14.847  0.2917  0.7682  0.3353
  239MPD1    H6 3636   0.977   3.264  14.921  2.1709  0.3211 -0.7327
  239MPD1    H7 3637   1.030   3.367  14.798 -0.8066 -0.8759 -2.7678
  240MPD1     C 3638   0.194   2.907  13.644  0.1265  0.6542 -0.2407
  240MPD1    C1 3639   0.075   2.847  13.674 -0.0158 -0.3763 -0.2089
  240MPD1    C2 3640   0.034   2.861  13.804 -0.5397 -0.3415 -0.0548
  240MPD1    C3 3641   0.095   2.943  13.891  0.9408  0.1909 -0.2875
  240MPD1    C4 3642   0.210   3.005  13.863 -0.0700  0.1297 -0.4497
  240MPD1    C5 3643   0.258   2.983  13.742  0.0703  0.0711 -0.0699
  240MPD1     H 3644   4.665   2.811  13.832 -0.4866 -0.3317  0.1405
  240MPD1    H1 3645   0.275   3.061  13.929  0.0531  1.3180 -1.5979
  240MPD1    H2 3646   0.258   2.888  13.559 -0.8610  0.0403 -0.8513
  240MPD1    H3 3647   0.360   3.012  13.718 -0.3716  0.5204 -1.4322
  240MPD1     N 3648   0.043   2.956  14.025  0.2184 -0.1407 -0.0328
  240MPD1    H5 3649   4.685   2.897  14.039  1.8117 -2.0016  1.3432
  240MPD1    N1 3650   0.018   2.747  13.591  0.4619  0.0787  0.5199
  240MPD1    H6 3651   0.020   2.758  13.490 -1.9804  0.0577  0.4781
  240MPD1    H7 3652   4.642   2.738  13.611  0.2065 -1.5843 -1.5136
  241MPD1     C 3653   0.169   3.362  15.048 -0.1702 -0.3637 -0.1712
  241MPD1    C1 3654   0.247   3.366  14.938 -0.3314 -0.3117 -0.1469
  241MPD1    C2 3655   0.212   3.283  14.831 -0.0347  0.0910 -0.0063
  241MPD1    C3 3656   0.116   3.190  14.833  0.3528 -0.3949 -0.4484
  241MPD1    C4 3657   0.058   3.168  14.958  0.1626  0.4640  0.3161
  241MPD1    C5 3658   0.081   3.262  15.061  0.4105 -0.1287  0.0591
  241MPD1     H 3659   0.259   3.312  14.738 -1.1930  0.8706 -0.3476
  241MPD1    H1 3660   4.707   3.089  14.965  1.3622 -0.6134  0.9003
  241MPD1    H2 3661   0.181   3.429  15.132  1.3073 -0.3075 -0.4279
  241MPD1    H3 3662   0.035   3.249  15.158  1.7339  0.9151  0.8219
  241MPD1     N 3663   0.070   3.109  14.727 -0.6124  0.6362  0.3239
  241MPD1    H5 3664   4.721   3.042  14.752  0.5411 -0.9809 -0.6852
  241MPD1    N1 3665   0.320   3.482  14.921  0.1781  0.3393  0.2125
  241MPD1    H6 3666   0.359   3.518  15.007  1.0022 -1.9216  0.7772
  241MPD1    H7 3667   0.399   3.474  14.857 -0.6583 -1.0681 -0.6505
  242MPD1     C 3668   0.036   1.490  15.830 -0.4612 -1.0689  0.7846
  242MPD1    C1 3669   4.633   1.438  15.830 -0.3431 -0.8237 -0.1021
  242MPD1    C2 3670   4.598   1.335  15.749  0.2184 -0.2032  0.0520
  242MPD1    C3 3671   4.689   1.280  15.661  0.6866  0.2496  0.5668
  242MPD1    C4 3672   0.094   1.328  15.654  0.2110 -0.0504  0.4765
  242MPD1    C5 3673   0.133   1.428  15.745 -0.4011  0.2524  0.1596
  242MPD1     H 3674   4.494   1.303  15.749  0.4532 -0.9802 -1.2878
  242MPD1    H1 3675   0.168   1.265  15.604 -0.3893 -0.9283  0.6851
  242MPD1    H2 3676   0.068   1.575  15.890 -2.4250 -0.1475  0.5079
  242MPD1    H3 3677   0.238   1.456  15.743 -0.0688 -0.9307  0.8716
  242MPD1     N 3678   4.661   1.170  15.578 -0.1937 -0.3397 -0.0880
  242MPD1    H5 3679   0.014   1.156  15.512 -0.8775  0.1570 -0.9602
  242MPD1    N1 3680   4.545   1.476  15.936  0.8222 -0.6998  0.1628
  242MPD1    H6 3681   4.450   1.469  15.901  0.1903  3.6452  1.0136
  242MPD1    H7 3682   4.562   1.576  15.941  1.8098 -0.9303  1.4477
  243MPD1     C 3683   2.213   1.173  17.632  0.2544 -0.6217 -0.2798
  243MPD1    C1 3684   2.152   1.076   0.014  0.6846  0.3506 -0.0751
  243MPD1    C2 3685   2.108   0.964  17.639 -0.4538  0.1844 -0.3779
  243MPD1    C3 3686   2.099   0.959  17.503  0.5577  0.7366 -0.1414
  243MPD1    C4 3687   2.151   1.057  17.429 -0.3006 -0.1925 -0.1026
  243MPD1    C5 3688   2.219   1.159  17.495 -0.2317  0.6748 -0.0263
  243MPD1     H 3689   2.093   0.875   0.006  0.1858  0.6007  0.3870
  243MPD1    H1 3690   2.163   1.048  17.321 -2.0464 -0.6405 -0.2483
  243MPD1    H2 3691   2.259   1.263  17.673 -0.6657  0.6908 -2.0973
  243MPD1    H3 3692   2.279   1.226  17.435  0.2926 -0.5987 -0.9443
  243MPD1     N 3693   2.040   0.842  17.442 -0.2032  0.6643  0.1454
  243MPD1    H5 3694   2.011   0.765  17.501  0.0226 -0.0486 -0.6820
  243MPD1    N1 3695   2.179   1.068   0.155 -0.5183  0.0219 -0.0714
  243MPD1    H6 3696   2.110   1.014   0.206  0.5803 -1.5214 -0.2454
  243MPD1    H7 3697   2.191   1.159   0.199  3.3770 -1.2119  1.3673
  244MPD1     C 3698   1.680   4.672  17.617  0.1140  0.1792  0.1590
  244MPD1    C1 3699   1.703   4.660  17.479 -0.5406 -0.4071 -0.1946
  244MPD1    C2 3700   1.749   0.053  17.416 -0.4254 -0.0248 -0.1397
  244MPD1    C3 3701   1.754   0.173  17.478  0.2280 -0.5679  0.0486
  244MPD1    C4 3702   1.705   0.186  17.605  0.5619  0.1715 -0.3044
  244MPD1    C5 3703   1.675   0.071  17.680  0.7933  0.2770  0.1802
  244MPD1     H 3704   1.773   0.044  17.311  1.8392 -1.4082  0.5017
  244MPD1    H1 3705   1.702   0.277  17.664  0.1690  0.0850 -0.1877
  244MPD1    H2 3706   1.639   4.594  17.680 -0.2483  0.3836  0.1793
  244MPD1    H3 3707   1.645   0.072   0.091  0.9067 -0.8547  0.2238
  244MPD1     N 3708   1.807   0.275  17.395 -0.3387 -0.3530 -0.6726
  244MPD1    H5 3709   1.858   0.232  17.318 -0.3597 -0.6822 -0.5055
  244MPD1    N1 3710   1.699   4.534  17.409 -0.4198 -0.0744 -0.4776
  244MPD1    H6 3711   1.654   4.554  17.319 -0.9563  0.2198 -0.1428
  244MPD1    H7 3712   1.670   4.452  17.463 -2.3342  0.4924 -0.6610
  245MPD1     C 3713   3.039   0.507  13.412 -0.7967 -0.1424 -0.2357
  245MPD1    C1 3714   2.998   0.512  13.540  0.3617  0.4364  0.5281
  245MPD1    C2 3715   3.042   0.619  13.620 -0.2381 -0.0106 -0.1250
  245MPD1    C3 3716   3.103   0.729  13.561 -0.5816  0.5091 -0.1085
  245MPD1    C4 3717   3.142   0.723  13.429  0.2424  0.0858  0.2062
  245MPD1    C5 3718   3.099   0.618  13.348  0.5354 -0.1198  0.6645
  245MPD1     H 3719   3.027   0.614  13.727 -0.3226  1.7255 -0.0593
  245MPD1    H1 3720   3.204   0.803  13.388 -1.1310  1.1794  0.2559
  245MPD1    H2 3721   3.009   0.421  13.353 -1.1403 -1.0858  1.3142
  245MPD1    H3 3722   3.126   0.608  13.243 -0.4859 -0.2426  0.4213
  245MPD1     N 3723   3.154   0.829  13.650 -0.3270 -0.1517 -0.1502
  245MPD1    H5 3724   3.137   0.812  13.748  0.6439  1.3327  0.2763
  245MPD1    N1 3725   2.954   0.393  13.595  0.2576  0.3257  0.0084
  245MPD1    H6 3726   2.898   0.340  13.528  0.6404  0.2078 -0.2182
  245MPD1    H7 3727   2.902   0.401  13.681 -2.0878 -0.6574 -1.3117
  246MPD1     C 3728   1.295   1.318   9.181  0.5650  0.8384  0.4887
  246MPD1    C1 3729   1.256   1.443   9.148 -0.4184  0.4483 -0.4967
  246MPD1    C2 3730   1.124   1.476   9.163  0.0653  0.4597  0.0125
  246MPD1    C3 3731   1.028   1.386   9.213 -1.1362  1.3628  0.2905
  246MPD1    C4 3732   1.072   1.264   9.261  0.2533 -0.4544  0.0877
  246MPD1    C5 3733   1.210   1.238   9.247 -0.0023  0.1460  0.0996
  246MPD1     H 3734   1.091   1.575   9.134  2.3973  1.5248  1.0561
  246MPD1    H1 3735   1.013   1.196   9.322  0.3671 -0.8331 -0.2250
  246MPD1    H2 3736   1.399   1.288   9.167  0.7827  1.8960 -0.1598
  246MPD1    H3 3737   1.240   1.137   9.274 -3.3776 -0.2501  2.4729
  246MPD1     N 3738   0.896   1.428   9.215  0.4862 -0.3087  0.5536
  246MPD1    H5 3739   0.868   1.521   9.185  0.6192  0.0536  1.5826
  246MPD1    N1 3740   1.342   1.526   9.079 -0.4823 -0.1626 -0.2452
  246MPD1    H6 3741   1.439   1.506   9.101 -0.2781  2.0566  0.9362
  246MPD1    H7 3742   1.332   1.626   9.099 -0.1574 -0.3779  0.9947
  247MPD1     C 3743   2.071   4.456  15.863  0.0325 -0.0870 -0.8051
  247MPD1    C1 3744   2.059   4.465  16.003 -0.1539 -0.2485  0.2267
  247MPD1    C2 3745   2.147   4.552  16.063 -0.4370  0.2681 -0.0802
  247MPD1    C3 3746   2.252   4.618  15.993 -0.1015 -0.3676  0.0757
  247MPD1    C4 3747   2.262   4.607  15.856 -0.5503 -0.3004 -0.2529
  247MPD1    C5 3748   2.164   4.531  15.795 -0.0319 -0.0548  0.1554
  247MPD1     H 3749   2.141   4.549  16.171  0.5397  0.5658 -0.0163
  247MPD1    H1 3750   2.332   4.660  15.793 -0.9487  1.5405  0.8449
  247MPD1    H2 3751   2.009   4.392  15.801 -0.3485  0.3337 -0.8608
  247MPD1    H3 3752   2.162   4.518  15.687 -2.3986 -0.5422  0.2582
  247MPD1     N 3753   2.349   4.705  16.051 -0.3875 -0.0966 -0.3242
  247MPD1    H5 3754   2.416   0.008  15.980  1.5796 -0.3907  1.4392
  247MPD1    N1 3755   1.947   4.408  16.063  0.0824 -0.6065 -0.1022
  247MPD1    H6 3756   1.934   4.399  16.163  0.8124  2.4381  0.2785
  247MPD1    H7 3757   1.919   4.325  16.012 -1.3945  0.8808 -1.7519
  248MPD1     C 3758   3.818   4.551   0.798  0.6947  0.5405  0.2364
  248MPD1    C1 3759   3.871   4.654   0.879  0.7840  0.2166  0.2070
  248MPD1    C2 3760   3.781   0.004   0.962  0.1444 -0.2705  0.1605
  248MPD1    C3 3761   3.651   4.688   0.976 -0.0450  0.1827  0.2632
  248MPD1    C4 3762   3.603   4.579   0.908 -0.5296  0.0532 -0.1840
  248MPD1    C5 3763   3.686   4.512   0.818  0.0881  0.2305  0.0775
  248MPD1     H 3764   3.820   0.081   1.027 -0.6126 -0.9082  1.3628
  248MPD1    H1 3765   3.496   4.563   0.906 -0.7431  1.7752 -2.8276
  248MPD1    H2 3766   3.883   4.493   0.734  0.5055 -0.0719  0.5932
  248MPD1    H3 3767   3.646   4.426   0.766 -1.2507  1.5003 -0.9806
  248MPD1     N 3768   3.564   0.046   1.057  0.0285  0.2879 -0.3266
  248MPD1    H5 3769   3.609   0.124   1.105  0.9258 -0.3395 -0.1457
  248MPD1    N1 3770   4.001   4.708   0.842 -0.5187 -0.5483 -0.1837
  248MPD1    H6 3771   4.070   4.637   0.820 -0.3581  0.3703 -2.5901
  248MPD1    H7 3772   4.030   0.058   0.907  0.6396  0.4101 -1.7794
  249MPD1     C 3773   0.617   3.005  10.019 -0.0359  0.3018  0.4880
  249MPD1    C1 3774   0.713   3.101  10.053  0.5634  0.1641  0.0441
  249MPD1    C2 3775   0.806   3.137   9.955  0.1059 -0.6491 -0.0389
  249MPD1    C3 3776   0.793   3.099   9.819  0.0242 -0.0799 -0.1234
  249MPD1    C4 3777   0.695   3.007   9.796  0.1512  0.0686 -0.3483
  249MPD1    C5 3778   0.611   2.955   9.889  0.5735  0.3698 -0.0858
  249MPD1     H 3779   0.888   3.206   9.975 -0.0315 -0.5354  0.1257
  249MPD1    H1 3780   0.683   2.970   9.695 -2.5510  2.1042 -0.7604
  249MPD1    H2 3781   0.553   2.967  10.098  0.9251 -1.4676  0.4123
  249MPD1    H3 3782   0.531   2.887   9.863  0.4935  0.0184  1.0831
  249MPD1     N 3783   0.873   3.166   9.722 -0.0664 -0.6737 -0.2160
  249MPD1    H5 3784   0.942   3.225   9.769  0.5297 -0.2177 -1.6707
  249MPD1    N1 3785   0.743   3.132  10.189 -0.5879  0.5129 -0.4292
  249MPD1    H6 3786   0.794   3.218  10.211 -1.6162  1.5075 -1.9178
  249MPD1    H7 3787   0.663   3.133  10.251  0.7275  0.3024  1.2789
  250MPD2     C 3788   1.312   3.941  13.045  0.3309  0.5242  0.0999
  250MPD2    C1 3789   1.386   3.922  12.934  0.0179  0.2351  0.0814
  250MPD2    C2 3790   1.373   3.804  12.859  0.3664 -0.5101  0.0017
  250MPD2    C3 3791   1.291   3.712  12.901 -0.3970  0.4041  0.1104
  250MPD2    C4 3792   1.224   3.720  13.018  0.1689 -0.6887 -0.0681
  250MPD2    C5 3793   1.236   3.834  13.092  0.4021  0.1961 -0.1803
  250MPD2     H 3794   1.434   3.796  12.770 -0.9406 -3.1890 -0.6589
  250MPD2    H1 3795   1.166   3.638  13.058  1.0950 -1.8132 -1.0260
  250MPD2    H2 3796   1.316   4.031  13.106 -0.8712  0.8001 -0.2145
  250MPD2    H3 3797   1.178   3.846  13.182 -1.1732 -3.2513 -0.7549
  250MPD2     N 3798   1.280   3.594  12.821  0.3803  0.0456 -0.2064
  250MPD2    H5 3799   1.367   3.576  12.771 -0.8098 -1.0481 -1.8913
  250MPD2    N1 3800   1.481   4.013  12.890  0.5216  0.2732 -0.2799
  250MPD2    H7 3801   1.529   3.997  12.802  1.2889 -0.1759  0.2168
  251TMC3    C1 3802   1.582   4.231  12.873 -0.2401 -0.4515 -0.3615
  251TMC3    C2 3803   1.564   4.361  12.916 -0.7637  0.8213 -0.2353
  251TMC3    C3 3804   1.653   4.451  12.862  0.5044  0.0757  0.1856
  251TMC3    C4 3805   1.673   4.190  12.779 -0.0097 -0.1473  0.2946
  251TMC3    C5 3806   1.740   4.286  12.720 -0.8232 -0.2001  0.7341
  251TMC3    C6 3807   1.742   4.418  12.762  0.1472  0.7395 -0.3805
  251TMC3     C 3808   1.512   4.134  12.957 -0.2713 -0.2800  0.0527
  251TMC3     O 3809   1.474   4.175  13.065  0.6656  0.4191 -0.0262
  251TMC3     H 3810   1.477   4.383  12.976 -1.0787  1.3524 -0.8774
  251TMC3    H1 3811   1.694   4.087  12.753 -1.7627 -0.5219  0.3814
  251TMC3    H2 3812   1.798   4.497  12.714  0.3118  1.1590  0.5087
  251TMC3    C7 3813   1.867   4.251  12.679 -0.1491  0.3270 -0.9017
  251TMC3    C8 3814   1.636   4.590  12.895  0.7437  0.3060  0.1561
  251TMC3    O1 3815   1.955   4.323  12.730  0.5713  0.2942 -0.3298
  251TMC3    O2 3816   1.652   4.675  12.814  0.4678  0.2414  0.3393
  252TMC3    C1 3817   1.764   0.678   9.624 -0.5203 -0.1448 -0.3114
  252TMC3    C2 3818   1.872   0.674   9.538 -0.3942 -0.9587  0.9417
  252TMC3    C3 3819   1.984   0.606   9.577 -0.1166  0.6888 -0.1009
  252TMC3    C4 3820   1.771   0.604   9.740  0.0672 -0.0148  0.0220
  252TMC3    C5 3821   1.883   0.535   9.768 -0.1345 -0.0156 -0.2926
  252TMC3    C6 3822   1.992   0.535   9.692  0.2416  0.1725  0.4172
  252TMC3     C 3823   1.647   0.754   9.592  0.5637 -0.3759 -0.3404
  252TMC3     O 3824   1.663   0.832   9.502  0.0789 -0.7249  0.0984
  252TMC3     H 3825   1.877   0.749   9.460 -0.8033 -1.0266  0.8521
  252TMC3    H1 3826   1.692   0.593   9.813 -0.1305 -0.1651 -0.2110
  252TMC3    H2 3827   2.084   0.498   9.737  0.7352  0.1288 -0.6164
  252TMC3    C7 3828   1.894   0.466   9.894 -0.3480  0.4405  0.2689
  252TMC3    C8 3829   2.094   0.620   9.479  0.1993  0.2278  0.1910
  252TMC3    O1 3830   1.844   0.522   9.993  0.4187  0.1097  0.1879
  252TMC3    O2 3831   2.067   0.677   9.372 -0.0369 -0.3143  0.5272
  253MPD2     C 3832   2.955   4.239  15.116  0.7395  0.2254 -0.1808
  253MPD2    C1 3833   2.852   4.149  15.118  0.7661 -0.4089 -0.4370
  253MPD2    C2 3834   2.798   4.098  15.236 -0.4428  0.1278 -0.2839
  253MPD2    C3 3835   2.852   4.130  15.355  1.0378 -0.2529 -0.1952
  253MPD2    C4 3836   2.963   4.214  15.354  0.0732 -0.5527  0.3145
  253MPD2    C5 3837   3.010   4.272  15.235 -0.3598  0.1311 -0.1092
  253MPD2     H 3838   2.709   4.036  15.231 -0.4775  0.3418 -2.3457
  253MPD2    H1 3839   3.003   4.241  15.451  1.4572 -2.0727  0.1798
  253MPD2    H2 3840   3.013   4.265  15.028  0.5754  1.3088  0.0309
  253MPD2    H3 3841   3.086   4.348  15.246  2.1190 -2.1161 -1.4983
  253MPD2     N 3842   2.797   4.093  15.478  0.0709 -0.0413 -0.1746
  253MPD2    H5 3843   2.863   4.107  15.554 -0.1031 -0.8552  0.1166
  253MPD2    N1 3844   2.797   4.097  15.001 -0.2738  0.2004 -0.3684
  253MPD2    H7 3845   2.730   4.025  15.024 -0.7756  1.4127  1.9451
  254TMC3    C1 3846   2.658   4.011  15.645  0.4140 -0.3501  0.6589
  254TMC3    C2 3847   2.550   3.926  15.670  0.0157  0.3284 -0.3917
  254TMC3    C3 3848   2.555   3.861  15.794 -0.0387 -0.4154  0.3298
  254TMC3    C4 3849   2.761   4.037  15.739 -0.6664 -0.2269  0.3905
  254TMC3    C5 3850   2.749   3.971  15.859  0.9621  0.6064 -0.2520
  254TMC3    C6 3851   2.654   3.881  15.887  0.4194 -0.0477  0.0610
  254TMC3     C 3852   2.682   4.026  15.501 -0.1886  0.1461  0.7840
  254TMC3     O 3853   2.592   3.993  15.422  0.5488  0.8493  0.4345
  254TMC3     H 3854   2.471   3.915  15.596  1.6890 -0.7771 -2.0411
  254TMC3    H1 3855   2.821   4.127  15.729  0.1520 -0.8678 -0.5424
  254TMC3    H2 3856   2.663   3.826  15.979  2.0925 -0.5588 -0.4078
  254TMC3    C7 3857   2.792   4.040  15.979 -0.4615  0.3375  0.2166
  254TMC3    C8 3858   2.427   3.829  15.854 -0.0012 -0.6399  0.1500
  254TMC3    O1 3859   2.729   4.009  16.078  0.1522 -0.1884  0.1345
  254TMC3    O2 3860   2.330   3.830  15.775  0.3057 -0.7850  0.2048
  255MPD2     C 3861   1.340   1.505  10.529  0.1649 -0.1033  0.0609
  255MPD2    C1 3862   1.356   1.630  10.475  0.7509 -0.0893  0.3000
  255MPD2    C2 3863   1.482   1.673  10.432  0.4265 -0.5892 -0.1980
  255MPD2    C3 3864   1.593   1.603  10.475 -0.4861 -1.5214 -0.3130
  255MPD2    C4 3865   1.577   1.480  10.533 -0.0817  0.2836 -0.3832
  255MPD2    C5 3866   1.449   1.430  10.554 -1.0315 -1.1882 -0.7110
  255MPD2     H 3867   1.492   1.769  10.383 -0.9074 -0.9795 -1.2368
  255MPD2    H1 3868   1.658   1.419  10.572 -2.9931 -1.8866  2.2240
  255MPD2    H2 3869   1.240   1.468  10.547  0.4503 -2.6106 -3.4679
  255MPD2    H3 3870   1.433   1.334  10.600 -3.7079 -0.2793  0.2833
  255MPD2     N 3871   1.715   1.666  10.454 -0.1061  0.2499  0.2515
  255MPD2    H5 3872   1.718   1.759  10.415  1.0004  0.6135  1.2080
  255MPD2    N1 3873   1.254   1.720  10.452  0.3770  0.2631  0.0474
  255MPD2    H7 3874   1.275   1.801  10.395 -0.8629 -0.9654 -2.1739
  256TMC3    C1 3875   1.056   1.836  10.486  0.2028  0.5742  0.0164
  256TMC3    C2 3876   1.145   1.941  10.475  0.1115 -0.4080  0.3080
  256TMC3    C3 3877   1.127   2.024  10.373 -0.4144  0.4707  0.0651
  256TMC3    C4 3878   0.959   1.815  10.395  0.4387  0.6328 -0.2294
  256TMC3    C5 3879   0.947   1.906  10.294  0.0354  0.2066 -0.1675
  256TMC3    C6 3880   1.025   2.015  10.289  0.6410 -0.1406  0.3667
  256TMC3     C 3881   1.123   1.710  10.497  0.2906  0.1862  0.3208
  256TMC3     O 3882   1.063   1.613  10.543 -0.0291  0.0342 -0.5011
  256TMC3     H 3883   1.224   1.950  10.549  2.4200  0.8947 -2.3008
  256TMC3    H1 3884   0.911   1.717  10.389  1.4877 -0.0147  1.7999
  256TMC3    H2 3885   1.023   2.090  10.211  4.1583 -1.5039 -1.0535
  256TMC3    C7 3886   0.878   1.860  10.177 -0.5333 -0.2122 -0.3443
  256TMC3    C8 3887   1.254   2.023  10.292 -0.8019  0.1526  0.5774
  256TMC3    O1 3888   0.863   1.741  10.159 -0.0864  0.2541  0.3439
  256TMC3    O2 3889   1.340   1.940  10.323  0.0420  0.0548  0.4128
  257MPD2     C 3890   0.498   3.952  12.963 -0.0603 -0.2185 -0.3644
  257MPD2    C1 3891   0.496   3.845  12.876  1.0192 -0.0098 -0.0412
  257MPD2    C2 3892   0.505   3.713  12.931  0.5843  0.0382 -0.0281
  257MPD2    C3 3893   0.504   3.698  13.066 -0.2537  0.0334 -0.4228
  257MPD2    C4 3894   0.499   3.806  13.147 -0.2014  0.0373  0.1534
  257MPD2    C5 3895   0.498   3.933  13.096  0.2266  0.0704  0.0243
  257MPD2     H 3896   0.496   3.626  12.867 -2.2148  0.8888 -0.7777
  257MPD2    H1 3897   0.488   3.792  13.254 -0.2920 -2.8711 -0.2319
  257MPD2    H2 3898   0.489   4.057  12.936  0.2673 -0.5360 -1.6753
  257MPD2    H3 3899   0.508   4.017  13.164  0.4343 -0.1946  0.3214
  257MPD2     N 3900   0.511   3.568  13.119 -0.1180 -0.0231  0.0011
  257MPD2    H5 3901   0.557   3.502  13.057 -0.1845  0.3868 -0.4904
  257MPD2    N1 3902   0.486   3.870  12.740  0.7043 -0.0704 -0.3740
  257MPD2    H7 3903   0.487   3.968  12.717  0.7508  0.0337  0.0714
  258TMC3    C1 3904   0.541   3.408  13.294  0.8172  0.2390 -0.3142
  258TMC3    C2 3905   0.637   3.350  13.219  0.0297 -0.2745  0.6000
  258TMC3    C3 3906   0.710   3.250  13.291 -0.0187 -0.4611  0.0848
  258TMC3    C4 3907   0.507   3.378  13.419  0.0440  0.3420 -0.1164
  258TMC3    C5 3908   0.581   3.286  13.485 -0.2674  0.0552  0.6142
  258TMC3    C6 3909   0.680   3.215  13.421 -0.0271 -0.8049 -0.3665
  258TMC3     C 3910   0.471   3.529  13.248  0.5431  0.1041 -0.1107
  258TMC3     O 3911   0.411   3.587  13.338  0.0120 -0.0471 -0.1548
  258TMC3     H 3912   0.661   3.381  13.119  0.3167  0.0697  0.7764
  258TMC3    H1 3913   0.438   3.430  13.485  0.8037  2.2460 -0.8216
  258TMC3    H2 3914   0.741   3.143  13.475 -1.0556 -2.1038 -0.9491
  258TMC3    C7 3915   0.527   3.256  13.614 -0.9661 -0.1444 -0.4273
  258TMC3    C8 3916   0.818   3.181  13.243  0.6690  0.2037 -0.1649
  258TMC3    O1 3917   0.406   3.263  13.627 -0.4647  0.4123 -0.5401
  258TMC3    O2 3918   0.890   3.119  13.319  0.1686  0.2159  0.6296
  259MPD2     C 3919   4.144   0.937   1.344 -0.4514  0.4719 -0.7084
  259MPD2    C1 3920   4.223   0.826   1.356 -0.1327 -0.1746  0.4826
  259MPD2    C2 3921   4.331   0.814   1.264 -1.0117 -0.0176 -0.4930
  259MPD2    C3 3922   4.362   0.914   1.171  0.7977 -0.1151  0.0492
  259MPD2    C4 3923   4.273   1.024   1.156 -0.5109 -0.0707 -0.3849
  259MPD2    C5 3924   4.169   1.036   1.249 -0.4069  0.3749 -0.1097
  259MPD2     H 3925   4.396   0.727   1.270  0.9871  1.4575 -1.0535
  259MPD2    H1 3926   4.282   1.102   1.080 -0.0876 -0.3776 -0.6476
  259MPD2    H2 3927   4.059   0.954   1.409 -0.1493 -0.8389  0.0220
  259MPD2    H3 3928   4.095   1.115   1.245  2.6198  3.0832 -2.7760
  259MPD2     N 3929   4.462   0.885   1.081 -0.5481 -0.3268 -0.2181
  259MPD2    H5 3930   4.534   0.819   1.111  0.3172  1.1523  0.9810
  259MPD2    N1 3931   4.204   0.731   1.461  0.7990 -0.2401 -0.2268
  259MPD2    H7 3932   4.124   0.750   1.520  0.0657 -1.5334 -0.7991
  260TMC3    C1 3933   4.589   0.871   0.895 -0.6980  0.3471  0.3402
  260TMC3    C2 3934   4.647   0.925   0.781 -0.3125 -0.0154  0.2499
  260TMC3    C3 3935   4.694   0.835   0.690 -0.3750  0.4700  0.1162
  260TMC3    C4 3936   4.575   0.736   0.909  0.2943 -0.0021  0.2825
  260TMC3    C5 3937   4.616   0.648   0.814  0.2245  0.1476  0.6619
  260TMC3    C6 3938   4.690   0.696   0.705  0.3113 -0.0406  0.2237
  260TMC3     C 3939   4.491   0.953   0.967  0.2512 -0.1218 -0.1212
  260TMC3     O 3940   4.452   1.053   0.913  0.1098  0.2385 -0.4761
  260TMC3     H 3941   4.666   1.031   0.770  0.1927 -0.3337 -1.7641
  260TMC3    H1 3942   4.527   0.686   0.992 -0.3276 -0.6326 -0.4433
  260TMC3    H2 3943   0.017   0.623   0.642 -0.8364 -0.3914 -0.2725
  260TMC3    C7 3944   4.569   0.509   0.799 -0.2937 -0.0389  0.4786
  260TMC3    C8 3945   0.033   0.897   0.576 -0.3579 -0.0746 -0.4134
  260TMC3    O1 3946   4.545   0.455   0.904  0.0801  0.3618  0.1634
  260TMC3    O2 3947   4.706   1.006   0.542  0.2858  0.1712  0.2541
  261MPD2     C 3948   1.092   3.293  12.149 -0.3362 -0.0110  0.0662
  261MPD2    C1 3949   1.128   3.395  12.235  0.2195 -0.1389 -0.5135
  261MPD2    C2 3950   1.180   3.514  12.189 -0.7322 -0.2456  0.0141
  261MPD2    C3 3951   1.197   3.528  12.050 -0.0206 -0.2348 -0.6311
  261MPD2    C4 3952   1.170   3.421  11.965 -0.2444 -0.5451  0.1813
  261MPD2    C5 3953   1.114   3.303  12.016  0.2191  0.9266 -0.0133
  261MPD2     H 3954   1.224   3.583  12.260  3.2377 -0.6457 -2.0504
  261MPD2    H1 3955   1.175   3.438  11.858 -0.4735  0.2438  0.2995
  261MPD2    H2 3956   1.044   3.200  12.176  0.8524 -0.1434  1.7722
  261MPD2    H3 3957   1.081   3.225  11.948  0.5538 -0.4323  1.3768
  261MPD2     N 3958   1.255   3.643  12.000  0.4341 -0.5183  0.0238
  261MPD2    H5 3959   1.261   3.726  12.059 -0.6398  0.4323 -1.1838
  261MPD2    N1 3960   1.134   3.369  12.372  0.9082  0.1872  0.0541
  261MPD2    H7 3961   1.171   3.441  12.434 -2.1550  0.7482  1.2358
  262TMC3    C1 3962   1.332   3.802  11.847  0.2732  0.2774 -1.2995
  262TMC3    C2 3963   1.267   3.901  11.910 -0.1243  0.3867 -0.1267
  262TMC3    C3 3964   1.304   4.030  11.881 -0.1146  0.8360  0.0675
  262TMC3    C4 3965   1.432   3.820  11.757 -0.4093  0.2380  0.7640
  262TMC3    C5 3966   1.464   3.954  11.726 -0.2979 -0.0170 -0.2041
  262TMC3    C6 3967   1.399   4.060  11.789  0.8674  0.0749 -0.5543
  262TMC3     C 3968   1.304   3.661  11.874  0.5924  0.2020  0.5577
  262TMC3     O 3969   1.345   3.588  11.783 -0.2390  0.9916  0.1944
  262TMC3     H 3970   1.172   3.880  11.958 -1.0552  0.8583 -1.7739
  262TMC3    H1 3971   1.484   3.739  11.706 -0.2667  0.9135 -0.1767
  262TMC3    H2 3972   1.426   4.161  11.761  0.7781  0.6565  1.4507
  262TMC3    C7 3973   1.558   3.985  11.622  0.0514  0.1928 -1.0791
  262TMC3    C8 3974   1.215   4.133  11.937 -0.6325 -0.0793 -0.3811
  262TMC3    O1 3975   1.629   3.896  11.581  0.2147  0.2395  0.1659
  262TMC3    O2 3976   1.151   4.093  12.039  0.4340  0.4658 -0.1186
  263MPD2     C 3977   2.183   3.375  11.361  0.8595  1.0863 -0.5267
  263MPD2    C1 3978   2.276   3.307  11.291  0.0930 -0.5810  0.1598
  263MPD2    C2 3979   2.289   3.320  11.155  0.9687 -0.0759 -0.1990
  263MPD2    C3 3980   2.196   3.406  11.095 -0.3244  0.7760 -0.3197
  263MPD2    C4 3981   2.107   3.472  11.168 -0.2195 -0.6963 -0.7475
  263MPD2    C5 3982   2.099   3.455  11.302 -0.0318 -0.6641  0.4857
  263MPD2     H 3983   2.372   3.275  11.101  2.4692  1.7587  0.5605
  263MPD2    H1 3984   2.039   3.545  11.126  0.9046 -1.5290 -4.0475
  263MPD2    H2 3985   2.185   3.354  11.468 -0.0128  1.2676 -0.4796
  263MPD2    H3 3986   2.022   3.507  11.357 -0.1662  0.0972 -0.4160
  263MPD2     N 3987   2.216   3.467  10.974  0.7557 -0.0492 -0.4237
  263MPD2    H5 3988   2.161   3.549  10.952  0.7411 -0.6004 -2.4876
  263MPD2    N1 3989   2.358   3.223  11.369  0.4319 -0.0909  0.8129
  263MPD2    H7 3990   2.349   3.227  11.471  0.2965  0.7364  0.7694
  264TMC3    C1 3991   2.341   3.549  10.791 -0.3606  0.2467 -1.0691
  264TMC3    C2 3992   2.294   3.674  10.820  0.3975 -0.1044  0.1829
  264TMC3    C3 3993   2.299   3.768  10.717 -0.0002 -0.3312  0.0214
  264TMC3    C4 3994   2.386   3.507  10.673 -0.0315 -1.0444  0.3414
  264TMC3    C5 3995   2.396   3.601  10.574  0.0290 -0.4614 -0.8014
  264TMC3    C6 3996   2.353   3.733  10.596 -0.5411  0.5971 -0.0875
  264TMC3     C 3997   2.308   3.439  10.878 -0.2796  0.6710 -0.7251
  264TMC3     O 3998   2.356   3.332  10.856 -0.3371 -0.1341  0.1145
  264TMC3     H 3999   2.241   3.694  10.912  0.7930  0.7344  0.2370
  264TMC3    H1 4000   2.409   3.401  10.671 -0.2067 -1.0689 -0.1377
  264TMC3    H2 4001   2.357   3.802  10.512 -1.6482 -0.5443 -1.0710
  264TMC3    C7 4002   2.528   3.596  10.505 -0.0796 -0.2793  0.6025
  264TMC3    C8 4003   2.358   3.896  10.765  1.0949  0.6335 -0.4650
  264TMC3    O1 4004   2.554   3.492  10.445 -0.5547  0.2005  0.1297
  264TMC3    O2 4005   2.429   3.953  10.686  0.2131  0.6051  0.0470
  265MPD2     C 4006   4.373   3.306  15.489  0.2733 -0.0761  0.0780
  265MPD2    C1 4007   4.341   3.410  15.399 -0.0528 -0.1932  0.3479
  265MPD2    C2 4008   4.371   3.397  15.264 -0.2678  0.1151  0.5193
  265MPD2    C3 4009   4.421   3.274  15.213  0.3866  0.3460  0.3273
  265MPD2    C4 4010   4.436   3.164  15.294  0.3875 -0.1243 -0.7079
  265MPD2    C5 4011   4.410   3.185  15.430 -0.6017 -0.3423 -0.2482
  265MPD2     H 4012   4.351   3.484  15.202  2.4146  0.5746  0.3003
  265MPD2    H1 4013   4.477   3.070  15.258 -0.0838 -1.1735  1.4745
  265MPD2    H2 4014   4.356   3.306  15.596 -0.7540 -0.8064 -0.0844
  265MPD2    H3 4015   4.429   3.105  15.500  0.4407  0.8840  0.8633
  265MPD2     N 4016   4.462   3.251  15.085 -0.7381  0.3964  0.2858
  265MPD2    H5 4017   4.486   3.156  15.059 -1.0572 -0.0076  1.4860
  265MPD2    N1 4018   4.278   3.532  15.436 -0.6799 -0.7256 -0.4085
  265MPD2    H7 4019   4.273   3.588  15.352 -1.0042 -0.9756 -0.5535
  266TMC3    C1 4020   4.172   3.691  15.580 -0.8309  0.3985  0.1387
  266TMC3    C2 4021   4.103   3.710  15.696  0.4026 -0.0129  0.6077
  266TMC3    C3 4022   4.090   3.836  15.753  0.0797 -0.3873  0.2017
  266TMC3    C4 4023   4.232   3.792  15.512  0.6239 -0.0140  0.3640
  266TMC3    C5 4024   4.208   3.917  15.565 -0.8477  0.1524 -0.6332
  266TMC3    C6 4025   4.149   3.936  15.688  0.8631  0.0172 -0.4658
  266TMC3     C 4026   4.228   3.560  15.560  0.2677  0.0203 -0.1239
  266TMC3     O 4027   4.218   3.480  15.655 -0.6464  0.1931  0.6121
  266TMC3     H 4028   4.049   3.634  15.751 -0.8757  0.6130  0.2292
  266TMC3    H1 4029   4.282   3.786  15.416  2.0394  0.5611  1.0732
  266TMC3    H2 4030   4.138   4.037  15.727  2.4724 -0.2591  0.6880
  266TMC3    C7 4031   4.251   4.022  15.471  0.6221  1.1586 -0.2597
  266TMC3    C8 4032   4.061   3.849  15.900 -0.4662  0.2339 -0.3399
  266TMC3    O1 4033   4.265   3.997  15.354 -0.0657 -0.0399  0.0083
  266TMC3    O2 4034   4.012   3.754  15.960 -0.0289 -0.1684 -0.3210
  267MPD2     C 4035   1.807   1.418   0.319  0.7762  0.0951  0.2915
  267MPD2    C1 4036   1.835   1.284   0.302  0.2034 -0.0363 -0.8356
  267MPD2    C2 4037   1.803   1.228   0.176 -0.4724  0.2310 -0.3799
  267MPD2    C3 4038   1.752   1.304   0.072  0.1242 -0.4549 -0.3446
  267MPD2    C4 4039   1.723   1.436   0.096 -0.8017 -0.8120 -0.3091
  267MPD2    C5 4040   1.740   1.487   0.223 -0.3000 -0.2930 -0.0988
  267MPD2     H 4041   1.830   1.124   0.162  1.1589  0.6545 -0.4975
  267MPD2    H1 4042   1.671   1.497   0.023  0.9516 -0.8110 -1.5494
  267MPD2    H2 4043   1.842   1.477   0.404 -0.1898  2.1974 -0.7888
  267MPD2    H3 4044   1.730   1.594   0.228 -0.8964 -0.2488 -2.3515
  267MPD2     N 4045   1.731   1.261  17.636  0.3118  0.3167  0.3336
  267MPD2    H5 4046   1.683   1.328  17.577  2.0683  1.1199 -0.1807
  267MPD2    N1 4047   1.921   1.215   0.394 -0.4247 -0.0680  0.4064
  267MPD2    H7 4048   1.952   1.277   0.468  2.5562 -0.7848 -0.2517
  268TMC3    C1 4049   2.056   1.047   0.495  0.2898 -0.1843  0.0346
  268TMC3    C2 4050   2.160   1.135   0.506  0.5043  0.2229 -0.4942
  268TMC3    C3 4051   2.276   1.082   0.561 -0.5820  0.8009 -0.4365
  268TMC3    C4 4052   2.065   0.914   0.526 -0.6640  0.0019 -0.1923
  268TMC3    C5 4053   2.177   0.870   0.592  0.3154 -0.2872 -0.5984
  268TMC3    C6 4054   2.288   0.950   0.606 -0.1593 -0.2452 -0.6002
  268TMC3     C 4055   1.948   1.082   0.403  1.1869 -0.2698  0.0578
  268TMC3     O 4056   1.913   0.992   0.325 -0.0578 -0.1619 -0.0699
  268TMC3     H 4057   2.166   1.241   0.484  0.4129  0.4307  0.4719
  268TMC3    H1 4058   1.977   0.853   0.515 -0.9628  0.3119  0.4507
  268TMC3    H2 4059   2.370   0.925   0.672 -0.2357 -0.8568 -0.7337
  268TMC3    C7 4060   2.157   0.778   0.697  0.3325  0.0014 -0.2271
  268TMC3    C8 4061   2.408   1.139   0.535  0.3257 -0.7878 -0.1904
  268TMC3    O1 4062   2.251   0.707   0.734 -0.2943  0.1863 -0.2297
  268TMC3    O2 4063   2.500   1.091   0.602 -0.5306 -0.1633 -0.2583
  269MPD2     C 4064   2.054   4.157  15.600 -0.4013  0.3032 -0.3573
  269MPD2    C1 4065   1.915   4.162  15.590  0.7623 -0.0696 -0.1942
  269MPD2    C2 4066   1.853   4.274  15.533  0.2592  0.5561  0.4779
  269MPD2    C3 4067   1.928   4.367  15.466 -0.0295  0.1822 -0.2670
  269MPD2    C4 4068   2.064   4.357  15.464  0.4725  0.2186  0.0108
  269MPD2    C5 4069   2.121   4.260  15.537  0.2957 -0.4220  0.2201
  269MPD2     H 4070   1.745   4.282  15.540  0.1754 -1.3777  1.3953
  269MPD2    H1 4071   2.132   4.420  15.409  0.3949  0.1098 -0.2082
  269MPD2    H2 4072   2.109   4.076  15.647 -0.0459  0.2488 -0.8617
  269MPD2    H3 4073   2.229   4.257  15.551  0.6211 -0.9327 -2.2384
  269MPD2     N 4074   1.867   4.482  15.408  0.6354 -0.4640 -0.2593
  269MPD2    H5 4075   1.766   4.476  15.409  0.4993  1.8887  0.9538
  269MPD2    N1 4076   1.839   4.052  15.641 -0.1961 -0.2536  0.2907
  269MPD2    H7 4077   1.893   3.970  15.668 -0.0861  0.4399  2.2255
  270TMC3    C1 4078   1.660   3.897  15.673 -0.5470 -0.1513  0.5561
  270TMC3    C2 4079   1.605   3.821  15.578  0.4049 -0.0770 -0.4084
  270TMC3    C3 4080   1.584   3.685  15.604  0.2997 -0.6014  0.5044
  270TMC3    C4 4081   1.705   3.852  15.792 -0.3217 -0.4325  0.2033
  270TMC3    C5 4082   1.677   3.717  15.816  0.1203 -0.0263 -0.0001
  270TMC3    C6 4083   1.630   3.631  15.723  0.4176  0.4356 -0.5254
  270TMC3     C 4084   1.703   4.027  15.622 -0.4297 -0.1620  0.2904
  270TMC3     O 4085   1.620   4.082  15.554 -1.0787  0.4837 -0.4019
  270TMC3     H 4086   1.561   3.869  15.491 -2.0365 -1.1526  0.2214
  270TMC3    H1 4087   1.757   3.917  15.861 -0.2384  0.0027 -0.2667
  270TMC3    H2 4088   1.632   3.524  15.737 -0.4081  0.9065  3.1847
  270TMC3    C7 4089   1.788   3.664  15.895 -0.0351  0.0179  0.0878
  270TMC3    C8 4090   1.555   3.588  15.501  0.8615  0.6859  0.1508
  270TMC3    O1 4091   1.896   3.725  15.892  0.6119  0.6915  0.1434
  270TMC3    O2 4092   1.510   3.481  15.534  0.4138  0.0738  0.7747
  271MPD2     C 4093   1.276   3.910  13.851 -0.0875  0.1137  0.3659
  271MPD2    C1 4094   1.214   3.852  13.953 -0.3106  0.1277 -0.2464
  271MPD2    C2 4095   1.076   3.865  13.962 -0.3500  0.3285 -0.3668
  271MPD2    C3 4096   1.006   3.943  13.868 -0.2175 -0.5608 -1.0052
  271MPD2    C4 4097   1.072   4.001  13.764  0.0531  0.2199 -0.1210
  271MPD2    C5 4098   1.204   3.981  13.760  0.7831  0.8602  0.2801
  271MPD2     H 4099   1.022   3.809  14.036  0.4232 -0.4192 -0.3658
  271MPD2    H1 4100   1.017   4.063  13.694  1.3504  0.1079 -1.2553
  271MPD2    H2 4101   1.382   3.918  13.832  0.1354  1.3578  2.1488
  271MPD2    H3 4102   1.258   4.023  13.676  0.7497  1.2222  0.4356
  271MPD2     N 4103   0.859   3.965  13.868 -1.0197 -0.5124 -0.2006
  271MPD2    H5 4104   0.822   4.027  13.797 -1.9285  0.0009  0.7133
  271MPD2    N1 4105   1.284   3.778  14.048  0.4354 -0.7085  0.1140
  271MPD2    H7 4106   1.233   3.717  14.112 -1.3490  0.2384 -0.4229
  272TMC3    C1 4107   1.477   3.680  14.152  0.7838 -0.4070 -0.3752
  272TMC3    C2 4108   1.613   3.678  14.169 -0.7164  0.4201  0.4080
  272TMC3    C3 4109   1.664   3.619  14.278  0.2029  0.3379 -0.4301
  272TMC3    C4 4110   1.395   3.614  14.241 -0.3339 -0.0995 -0.0685
  272TMC3    C5 4111   1.451   3.559  14.354  0.0753  0.2674 -0.5945
  272TMC3    C6 4112   1.583   3.557  14.378  0.5468 -1.0984 -0.0118
  272TMC3     C 4113   1.425   3.777  14.058 -0.3398  0.1931 -0.2580
  272TMC3     O 4114   1.501   3.865  14.019  0.4287 -0.2248 -0.3637
  272TMC3     H 4115   1.679   3.728  14.100  0.7361 -0.5033  1.1419
  272TMC3    H1 4116   1.288   3.607  14.223 -0.4124  2.0578 -0.4356
  272TMC3    H2 4117   1.618   3.524  14.475 -1.5081 -0.0182  1.0975
  272TMC3    C7 4118   1.379   3.518  14.469 -0.7189  0.7270 -0.3814
  272TMC3    C8 4119   1.807   3.629  14.289 -0.5842 -0.0958  0.1028
  272TMC3    O1 4120   1.278   3.454  14.449  0.6740  0.3239 -0.3912
  272TMC3    O2 4121   1.865   3.728  14.239  0.3656 -0.2948  0.2791
  273MPD2     C 4122   3.079   1.967  11.848 -0.7325 -0.1990  0.5247
  273MPD2    C1 4123   3.129   2.068  11.774 -0.3044 -0.3389 -0.2950
  273MPD2    C2 4124   3.087   2.073  11.644  0.0962 -0.4492 -0.1330
  273MPD2    C3 4125   3.019   1.970  11.588  0.5365  0.1131  0.4761
  273MPD2    C4 4126   2.976   1.866  11.662  0.0357  0.1718 -0.5552
  273MPD2    C5 4127   3.016   1.860  11.794  0.1177 -0.8585  0.0899
  273MPD2     H 4128   3.105   2.167  11.594  2.2551 -0.0978  1.3306
  273MPD2    H1 4129   2.915   1.786  11.623  0.1942 -0.2432  0.0463
  273MPD2    H2 4130   3.115   1.939  11.946 -0.0352 -0.1728  0.2777
  273MPD2    H3 4131   3.002   1.767  11.848 -0.9180 -0.0466  1.2098
  273MPD2     N 4132   2.986   1.994  11.455 -0.2255  0.4629  0.6707
  273MPD2    H5 4133   3.031   2.079  11.424 -1.0042  0.8939  0.7418
  273MPD2    N1 4134   3.189   2.178  11.841  0.3508  0.2207 -0.2595
  273MPD2    H7 4135   3.201   2.180  11.942  1.9108  3.1253 -0.4830
  274TMC3    C1 4136   2.876   1.977  11.245  0.8012  0.4116  0.0613
  274TMC3    C2 4137   2.748   1.964  11.202  0.0347  0.3283 -0.2027
  274TMC3    C3 4138   2.704   2.053  11.110  0.4197 -0.4142  0.7339
  274TMC3    C4 4139   2.958   2.076  11.200  0.3043 -0.6396  0.0471
  274TMC3    C5 4140   2.909   2.168  11.120 -0.4614  0.3439 -0.9285
  274TMC3    C6 4141   2.786   2.149  11.053  0.4258 -0.0459 -0.5012
  274TMC3     C 4142   2.901   1.918  11.376  0.1129 -0.5214  0.1234
  274TMC3     O 4143   2.854   1.807  11.394  0.3759 -0.3603  0.3907
  274TMC3     H 4144   2.682   1.890  11.247 -2.3300  1.9425 -0.9887
  274TMC3    H1 4145   3.047   2.107  11.255 -0.0235  1.1114 -0.4079
  274TMC3    H2 4146   2.729   2.226  11.002 -1.5920  0.8744  3.1472
  274TMC3    C7 4147   2.902   2.306  11.177 -0.9648  0.2544  0.0376
  274TMC3    C8 4148   2.559   2.077  11.095  0.5450 -0.1789 -0.2186
  274TMC3    O1 4149   2.792   2.362  11.203 -0.4901 -0.1963  0.3866
  274TMC3    O2 4150   2.522   2.187  11.051 -0.5034  0.1176  0.0778
  275MPD2     C 4151   2.194   0.395  14.359 -0.0885 -0.5145 -0.1496
  275MPD2    C1 4152   2.146   0.338  14.477 -0.9485  0.8196  0.0852
  275MPD2    C2 4153   2.026   0.270  14.475 -0.0032  0.3035 -0.5483
  275MPD2    C3 4154   1.954   0.259  14.357 -0.3180  0.6291 -0.3728
  275MPD2    C4 4155   1.997   0.313  14.241  0.1946 -0.1757  0.7623
  275MPD2    C5 4156   2.114   0.384  14.249 -0.5740  0.4678 -0.8651
  275MPD2     H 4157   1.985   0.232  14.568  2.3133  1.8725  1.1077
  275MPD2    H1 4158   1.949   0.317  14.144  0.5193  2.0140  0.6740
  275MPD2    H2 4159   2.287   0.451  14.353 -0.7343  0.7988  1.8379
  275MPD2    H3 4160   2.151   0.421  14.154 -1.8729 -0.8929 -1.9002
  275MPD2     N 4161   1.839   0.175  14.363 -0.1958 -0.2992 -0.5508
  275MPD2    H5 4162   1.813   0.158  14.460  1.1432  1.8998  0.2012
  275MPD2    N1 4163   2.209   0.348  14.601  0.6256  0.5339  0.3809
  275MPD2    H7 4164   2.171   0.283  14.670 -0.1608 -1.0270 -1.5389
  276TMC3    C1 4165   2.377   0.389  14.766 -1.1180  0.0562 -0.3336
  276TMC3    C2 4166   2.316   0.289  14.845 -0.6583 -0.4761 -0.1519
  276TMC3    C3 4167   2.376   0.271  14.967  0.9706  0.0086  0.7037
  276TMC3    C4 4168   2.478   0.467  14.811  0.1278  0.2426  0.6437
  276TMC3    C5 4169   2.513   0.457  14.944  0.5027  0.1466 -0.1538
  276TMC3    C6 4170   2.467   0.357  15.022  0.0522 -0.1766  0.2270
  276TMC3     C 4171   2.308   0.433  14.643 -0.2783  0.0945  0.4179
  276TMC3     O 4172   2.337   0.546  14.601 -0.2214 -0.3746  0.1828
  276TMC3     H 4173   2.223   0.239  14.821 -1.3730  0.9069 -0.2140
  276TMC3    H1 4174   2.526   0.532  14.739 -0.6618  1.3521  1.0979
  276TMC3    H2 4175   2.487   0.355  15.128  1.4816 -0.4279 -0.0393
  276TMC3    C7 4176   2.622   0.538  14.993  0.1062  0.4976  0.0573
  276TMC3    C8 4177   2.341   0.146  15.042  0.3779 -0.0109 -0.4501
  276TMC3    O1 4178   2.665   0.488  15.098  0.1731  0.0820  0.6443
  276TMC3    O2 4179   2.334   0.158  15.166  0.1341  0.0977  0.0395
  277MPD2     C 4180   4.477   3.757  13.346  0.4776  0.4948  0.2663
  277MPD2    C1 4181   4.347   3.774  13.337 -0.1780  0.6764 -0.0914
  277MPD2    C2 4182   4.265   3.732  13.441  0.0678  0.2082  0.3173
  277MPD2    C3 4183   4.318   3.653  13.547  0.0125  0.4509 -0.5558
  277MPD2    C4 4184   4.457   3.635  13.547  0.0621  0.2197 -0.5771
  277MPD2    C5 4185   4.529   3.684  13.448 -0.3157 -0.2045  0.3676
  277MPD2     H 4186   4.159   3.752  13.445  0.1775  0.5421  1.7723
  277MPD2    H1 4187   4.513   3.592  13.630  0.2985  3.5712  1.0111
  277MPD2    H2 4188   4.550   3.772  13.268  0.7628 -1.4843  0.1525
  277MPD2    H3 4189   4.632   3.651  13.451 -0.1961  0.0518 -1.0767
  277MPD2     N 4190   4.222   3.596  13.643  0.3407  0.2260  0.5953
  277MPD2    H5 4191   4.128   3.626  13.617  0.5900 -0.7763 -1.4268
  277MPD2    N1 4192   4.298   3.843  13.227  0.1238 -0.4558  0.0318
  277MPD2    H7 4193   4.370   3.873  13.162  0.6798 -1.3016  0.2478
  278TMC3    C1 4194   4.129   3.467  13.810 -0.5636  0.2352 -0.6476
  278TMC3    C2 4195   4.098   3.334  13.803  0.0848  0.2151 -0.2607
  278TMC3    C3 4196   3.961   3.313  13.821 -0.2025 -0.4647 -0.5986
  278TMC3    C4 4197   4.040   3.571  13.827 -0.2179  0.2186  1.1901
  278TMC3    C5 4198   3.903   3.541  13.828  0.2818 -0.6835  0.2638
  278TMC3    C6 4199   3.864   3.405  13.830 -0.0111  0.5747 -0.1358
  278TMC3     C 4200   4.246   3.501  13.741  0.2292 -0.0523 -0.3038
  278TMC3     O 4201   4.352   3.447  13.772  0.5697  0.0648 -0.0361
  278TMC3     H 4202   4.166   3.250  13.794 -0.0786  0.1406 -0.7710
  278TMC3    H1 4203   4.087   3.667  13.844  0.3781  0.3250 -1.1465
  278TMC3    H2 4204   3.764   3.365  13.845 -0.2939  1.1102 -0.6011
  278TMC3    C7 4205   3.812   3.649  13.864  0.3564 -0.5229  0.5279
  278TMC3    C8 4206   3.913   3.175  13.824 -0.4401  0.0137  0.6166
  278TMC3    O1 4207   3.865   3.748  13.915  0.0405 -0.3388 -0.1121
  278TMC3    O2 4208   3.827   3.143  13.904  0.1689 -0.2210  0.4703
  279MPD2     C 4209   3.927   3.681   0.328 -0.3684  0.4303 -0.3160
  279MPD2    C1 4210   3.869   3.793   0.373  0.5701  0.7165 -0.2092
  279MPD2    C2 4211   3.844   3.898   0.285  0.3681 -0.0223  0.2998
  279MPD2    C3 4212   3.887   3.896   0.155  0.7725 -0.2343 -1.0361
  279MPD2    C4 4213   3.955   3.790   0.117 -0.0484  0.3838 -0.4618
  279MPD2    C5 4214   3.971   3.676   0.200  0.4145 -0.1615 -0.2299
  279MPD2     H 4215   3.784   3.982   0.319 -0.7559 -0.2968 -1.0233
  279MPD2    H1 4216   3.991   3.772   0.016 -1.8610  1.3431 -1.2686
  279MPD2    H2 4217   3.937   3.598   0.397  0.5085  1.7010  1.0748
  279MPD2    H3 4218   4.005   3.582   0.157  1.1833  0.0759 -0.1458
  279MPD2     N 4219   3.855   3.996   0.059 -0.4257  0.9020  0.1481
  279MPD2    H5 4220   3.795   4.071   0.093 -0.2251  1.0512  0.1741
  279MPD2    N1 4221   3.808   3.786   0.506 -0.5651  1.0085 -0.1314
  279MPD2    H7 4222   3.811   3.695   0.552  1.3848  1.0678 -0.1558
  280TMC3    C1 4223   3.639   3.844   0.671  0.1308  0.0224 -0.5734
  280TMC3    C2 4224   3.557   3.747   0.630  0.7238 -0.3989 -0.0871
  280TMC3    C3 4225   3.429   3.757   0.660  0.3891 -0.1021 -0.0266
  280TMC3    C4 4226   3.592   3.957   0.740  0.0240 -0.1167 -0.5395
  280TMC3    C5 4227   3.453   3.959   0.762 -0.3092 -0.4266 -0.4056
  280TMC3    C6 4228   3.368   3.857   0.725  0.0818  0.2416 -0.6220
  280TMC3     C 4229   3.740   3.887   0.566  0.3845 -0.4287 -0.1526
  280TMC3     O 4230   3.743   4.005   0.545  0.5075 -0.6103  0.2183
  280TMC3     H 4231   3.597   3.673   0.562  1.8232 -0.4942  0.6701
  280TMC3    H1 4232   3.656   4.040   0.767  0.1254 -0.6145  0.7692
  280TMC3    H2 4233   3.264   3.873   0.752  0.3094  1.6044 -0.5478
  280TMC3    C7 4234   3.396   4.086   0.806  0.6472 -0.1924  0.6465
  280TMC3    C8 4235   3.342   3.651   0.607 -0.3141  0.7363 -0.0711
  280TMC3    O1 4236   3.468   4.156   0.872 -0.0915  0.2652  0.9936
  280TMC3    O2 4237   3.222   3.674   0.611  0.3788 -0.1363  0.0349
  281TMC3    C1 4238   2.253   3.958  13.168  0.6507 -0.1896 -0.5251
  281TMC3    C2 4239   2.307   4.021  13.063  0.4171  0.0087  0.9115
  281TMC3    C3 4240   2.325   3.948  12.947  0.3472 -0.2430  0.4744
  281TMC3    C4 4241   2.213   3.833  13.167  0.0457  0.6345 -0.0441
  281TMC3    C5 4242   2.237   3.754  13.051 -0.7196  0.2131  0.6168
  281TMC3    C6 4243   2.294   3.815  12.944 -0.0405 -0.3180  0.3084
  281TMC3     C 4244   2.211   4.043  13.281 -0.4988  0.5893 -0.1224
  281TMC3     O 4245   2.218   3.987  13.389 -0.1576  0.0125  0.1267
  281TMC3     H 4246   2.363   4.113  13.071 -1.0973  1.0091  0.1144
  281TMC3    H1 4247   2.148   3.799  13.247 -2.2220  1.0041 -1.7318
  281TMC3    H2 4248   2.311   3.756  12.854  2.8751  0.5404  0.3024
  281TMC3    C7 4249   2.143   3.650  13.021  0.3559 -0.5636  0.2804
  281TMC3    C8 4250   2.302   4.030  12.827 -0.2410 -0.0854 -0.0172
  281TMC3    O1 4251   2.085   3.657  12.912  0.8510 -0.6568 -0.3294
  281TMC3    O2 4252   2.307   4.151  12.833  0.4061 -0.2025  0.3608
  282MPD2     C 4253   4.220   0.544  15.343 -0.1950  0.3865 -0.4472
  282MPD2    C1 4254   4.084   0.547  15.372 -0.8755  0.2968  0.1487
  282MPD2    C2 4255   3.998   0.499  15.281  0.3754  0.5398  0.6432
  282MPD2    C3 4256   4.041   0.469  15.151  0.6653  0.3625 -0.1011
  282MPD2    C4 4257   4.171   0.489  15.118 -0.5280 -0.3838 -0.4094
  282MPD2    C5 4258   4.261   0.518  15.214  0.4483  0.0985  0.5286
  282MPD2     H 4259   3.890   0.494  15.293  0.3424  2.5787  1.1713
  282MPD2    H1 4260   4.199   0.476  15.014 -1.1215  3.2974 -1.0468
  282MPD2    H2 4261   4.296   0.564  15.419  0.4662 -1.9193 -0.5165
  282MPD2    H3 4262   4.366   0.518  15.191  0.3251 -0.2213 -0.0163
  282MPD2     N 4263   3.939   0.429  15.057 -0.0726  0.4058 -0.8648
  282MPD2    H5 4264   3.845   0.417  15.092  0.8054  2.4395  2.2086
  282MPD2    N1 4265   4.035   0.581  15.501 -0.0123 -0.4221  0.1495
  282MPD2    H7 4266   3.935   0.577  15.518 -0.0797 -2.2356 -0.6912
  283TMC3    C1 4267   4.009   0.720  15.683  0.1485 -0.6362 -0.5701
  283TMC3    C2 4268   4.028   0.849  15.724 -0.1386  0.8684  0.4402
  283TMC3    C3 4269   3.962   0.889  15.839  0.0880 -0.0473  0.4665
  283TMC3    C4 4270   3.942   0.625  15.757  0.5906  0.2918 -0.8903
  283TMC3    C5 4271   3.878   0.664  15.874 -0.2097 -0.4645  0.1652
  283TMC3    C6 4272   3.891   0.794  15.916  0.2827 -0.0218 -0.6668
  283TMC3     C 4273   4.102   0.671  15.583 -0.1314 -0.0815  0.4120
  283TMC3     O 4274   4.196   0.740  15.545  0.8362  0.1505  0.1459
  283TMC3     H 4275   4.098   0.910  15.670 -0.5935  0.3052 -0.7831
  283TMC3    H1 4276   3.918   0.532  15.708 -0.1003  1.1090 -2.1135
  283TMC3    H2 4277   3.861   0.813  16.018  0.9229 -1.1869 -0.2634
  283TMC3    C7 4278   3.799   0.567  15.960  0.0709  0.2703  0.4977
  283TMC3    C8 4279   3.991   1.018  15.900  0.2094  0.7959 -0.0023
  283TMC3    O1 4280   3.731   0.619  16.049  0.3536 -0.1365 -0.0946
  283TMC3    O2 4281   3.964   1.035  16.016 -0.4668 -0.2143  0.1992
  284MPD2     C 4282   2.868   0.318  11.915  0.3034  0.1154  0.3237
  284MPD2    C1 4283   2.797   0.301  11.799 -0.3050  0.4435 -0.7986
  284MPD2    C2 4284   2.710   0.192  11.787 -0.1106 -0.1054 -0.0989
  284MPD2    C3 4285   2.690   0.110  11.897  0.0073 -0.4736  0.8514
  284MPD2    C4 4286   2.761   0.129  12.012  0.8373 -0.1631 -0.3746
  284MPD2    C5 4287   2.854   0.228  12.012 -0.1024  0.1143 -0.4294
  284MPD2     H 4288   2.643   0.181  11.703 -0.6760  1.2230  0.1833
  284MPD2    H1 4289   2.745   0.065  12.097  1.2297 -0.1085 -0.2625
  284MPD2    H2 4290   2.931   0.404  11.936  1.4462 -0.7389  0.3904
  284MPD2    H3 4291   2.908   0.245  12.105  0.7700  2.0854 -1.2952
  284MPD2     N 4292   2.586   0.016  11.877 -0.4957  0.1296  1.0132
  284MPD2    H5 4293   2.528   0.035  11.795  1.3697  0.2760 -0.2854
  284MPD2    N1 4294   2.831   0.380  11.682  0.2920 -0.2256  1.1629
  284MPD2    H7 4295   2.779   0.348  11.601  1.1123  0.4230  0.3862
  285TMC3    C1 4296   2.929   0.544  11.542  0.3193 -0.6321 -0.0723
  285TMC3    C2 4297   2.934   0.459  11.440  0.6347  0.1518  0.1978
  285TMC3    C3 4298   3.015   0.485  11.331 -0.2598 -0.3836  0.0303
  285TMC3    C4 4299   2.995   0.664  11.521 -0.3160  0.1839  0.3333
  285TMC3    C5 4300   3.065   0.697  11.404 -0.1084 -0.1517 -0.4000
  285TMC3    C6 4301   3.074   0.608  11.306 -0.1155 -0.7402 -0.3793
  285TMC3     C 4302   2.919   0.484  11.671  0.4147 -0.0659 -0.8793
  285TMC3     O 4303   2.995   0.541  11.753  0.3810 -0.3150 -0.2184
  285TMC3     H 4304   2.883   0.364  11.446 -0.7164  0.8569 -0.0903
  285TMC3    H1 4305   3.006   0.737  11.600  1.7875  1.6237 -1.2880
  285TMC3    H2 4306   3.119   0.617  11.207  3.1414  0.0499  1.1977
  285TMC3    C7 4307   3.153   0.809  11.401  0.4378  0.0643  0.0801
  285TMC3    C8 4308   3.027   0.365  11.249 -0.0784 -0.2280 -0.9749
  285TMC3    O1 4309   3.200   0.851  11.507  0.8266 -0.4067  0.7644
  285TMC3    O2 4310   2.934   0.283  11.235  0.2432  0.0845 -0.6592
  286MPD2     C 4311   2.896   3.290   1.644 -0.1162 -0.0455 -0.0770
  286MPD2    C1 4312   2.794   3.277   1.556  0.0840 -0.7519  0.5708
  286MPD2    C2 4313   2.798   3.175   1.465 -0.2594  0.3180 -0.3192
  286MPD2    C3 4314   2.912   3.099   1.457  0.4488  0.8123 -0.0308
  286MPD2    C4 4315   3.019   3.118   1.537  0.2561 -0.1293 -0.2548
  286MPD2    C5 4316   3.003   3.211   1.636 -0.8692  0.8560 -0.3976
  286MPD2     H 4317   2.704   3.150   1.418 -0.1285  2.4371 -1.7002
  286MPD2    H1 4318   3.112   3.064   1.530  0.2626 -0.2417  0.7814
  286MPD2    H2 4319   2.900   3.365   1.723  0.3164  0.0889 -0.2269
  286MPD2    H3 4320   3.088   3.227   1.702  0.1542  1.9838 -2.0051
  286MPD2     N 4321   2.936   2.985   1.372  0.8116 -0.1594  0.3928
  286MPD2    H5 4322   3.024   2.937   1.389  1.5443  1.8248  2.1853
  286MPD2    N1 4323   2.674   3.363   1.559  0.2548  0.0923 -0.2115
  286MPD2    H7 4324   2.613   3.356   1.478 -0.3101 -1.3824  0.3356
  287TMC3    C1 4325   2.930   2.865   1.169  0.3582 -0.3904 -0.3984
  287TMC3    C2 4326   2.851   2.816   1.063 -1.1159 -0.2596  0.0278
  287TMC3    C3 4327   2.916   2.734   0.977  0.2243 -0.1606  0.0134
  287TMC3    C4 4328   3.067   2.844   1.180 -0.0380  0.9687  0.0704
  287TMC3    C5 4329   3.122   2.761   1.084  0.5512 -0.2543  0.2349
  287TMC3    C6 4330   3.047   2.698   0.981  0.2172 -0.9456  0.7419
  287TMC3     C 4331   2.865   2.967   1.259 -0.8009  1.0155  0.2392
  287TMC3     O 4332   2.775   3.030   1.212 -0.2227 -0.0604 -0.1029
  287TMC3     H 4333   2.744   2.826   1.056 -1.1684 -1.1363 -0.4536
  287TMC3    H1 4334   3.135   2.908   1.236 -0.7994  2.0711 -0.2889
  287TMC3    H2 4335   3.091   2.631   0.909  1.2253  0.1008  0.3881
  287TMC3    C7 4336   3.247   2.702   1.117  0.1559  1.0259 -0.5632
  287TMC3    C8 4337   2.837   2.684   0.866  0.1061  0.1712 -0.1051
  287TMC3    O1 4338   3.269   2.691   1.237 -0.0671 -0.3429  0.0938
  287TMC3    O2 4339   2.869   2.570   0.838  0.4485  0.2406  0.5658
  288TMC3    C1 4340   3.909   3.552  14.281  0.4700  0.3842 -0.2574
  288TMC3    C2 4341   3.996   3.507  14.374 -0.3407 -0.0805 -0.0596
  288TMC3    C3 4342   4.055   3.606  14.445  0.1465 -0.2611  0.0405
  288TMC3    C4 4343   3.885   3.682  14.248 -0.0452 -0.5783 -0.6522
  288TMC3    C5 4344   3.964   3.777  14.306 -0.2050  0.4844 -0.1662
  288TMC3    C6 4345   4.043   3.741  14.413  0.1191 -0.9320 -0.3172
  288TMC3     C 4346   3.829   3.450  14.211  0.3305 -0.2056  0.0461
  288TMC3     O 4347   3.864   3.334  14.198 -0.0997 -0.5511 -0.4644
  288TMC3     H 4348   4.010   3.400  14.385 -0.7427 -0.0721  0.5209
  288TMC3    H1 4349   3.813   3.707  14.171 -0.9708 -2.0772 -0.2861
  288TMC3    H2 4350   4.105   3.813  14.464  0.3463 -1.6335  0.3916
  288TMC3    C7 4351   3.968   3.913  14.257  0.2537  0.3942  0.0659
  288TMC3    C8 4352   4.101   3.572  14.579 -0.2118  0.0463  0.2537
  288TMC3    O1 4353   4.042   3.980  14.326 -0.4129 -0.2517  0.5997
  288TMC3    O2 4354   4.149   3.661  14.643  0.0391 -0.1305  0.1344
  289MPD2     C 4355   4.503   2.539  14.701 -0.2758 -0.6310 -0.1580
  289MPD2    C1 4356   4.458   2.614  14.596  0.2405  0.3522 -0.4331
  289MPD2    C2 4357   4.334   2.588  14.535 -0.4254 -1.0239  0.0311
  289MPD2    C3 4358   4.258   2.481  14.582 -0.2432  0.1331  0.2660
  289MPD2    C4 4359   4.302   2.406  14.688  0.0737  0.1206 -0.1105
  289MPD2    C5 4360   4.425   2.435  14.749 -0.9889  0.0943 -0.0647
  289MPD2     H 4361   4.289   2.660  14.468 -2.0934 -2.0192  0.0902
  289MPD2    H1 4362   4.238   2.327  14.725  0.9033  0.1845  1.4295
  289MPD2    H2 4363   4.599   2.545  14.751 -0.2127  1.0688 -0.4923
  289MPD2    H3 4364   4.456   2.375  14.834  1.3784 -1.3493 -1.9556
  289MPD2     N 4365   4.129   2.450  14.539 -0.0941  0.0304 -0.1638
  289MPD2    H5 4366   4.083   2.380  14.596 -1.0651 -0.1237 -1.1359
  289MPD2    N1 4367   4.543   2.707  14.548  0.3037  0.1742  0.5216
  289MPD2    H7 4368   4.631   2.721  14.595  1.5005 -2.3350 -0.9361
  290TMC3    C1 4369   3.921   2.467  14.439 -0.2168  0.2968 -0.3908
  290TMC3    C2 4370   3.839   2.560  14.386  0.3561  0.5526 -0.4862
  290TMC3    C3 4371   3.707   2.541  14.411 -0.3092  0.6559 -1.2455
  290TMC3    C4 4372   3.879   2.358  14.511  0.5094  0.3084  0.7019
  290TMC3    C5 4373   3.740   2.335  14.518  0.9293 -0.1329 -0.0996
  290TMC3    C6 4374   3.656   2.424  14.465 -0.1965  0.1464  1.4848
  290TMC3     C 4375   4.062   2.510  14.434  0.4295  0.1674  0.1041
  290TMC3     O 4376   4.099   2.603  14.360  0.1295 -0.1265 -0.3218
  290TMC3     H 4377   3.873   2.653  14.342 -2.2409  2.3329  1.3168
  290TMC3    H1 4378   3.946   2.287  14.558  0.9008 -0.6668 -1.3449
  290TMC3    H2 4379   3.551   2.424  14.492 -0.7451 -2.9128 -0.6504
  290TMC3    C7 4380   3.684   2.247  14.620  0.2273  0.5167 -0.1705
  290TMC3    C8 4381   3.617   2.645  14.362 -0.3416  0.4433  0.3746
  290TMC3    O1 4382   3.588   2.279  14.693  0.1666 -0.8174  0.2881
  290TMC3    O2 4383   3.536   2.622  14.272 -0.3531  1.0729  0.7715
  291MPD2     C 4384   3.299   2.755  17.506  0.7057  0.3567 -0.2764
  291MPD2    C1 4385   3.343   2.691  17.624 -0.2626 -0.9555  0.0283
  291MPD2    C2 4386   3.427   2.753   0.015 -0.2106 -0.7481  0.3164
  291MPD2    C3 4387   3.490   2.866  17.668 -0.8650 -0.3063  0.1488
  291MPD2    C4 4388   3.462   2.917  17.541  0.3604  0.6390  0.1779
  291MPD2    C5 4389   3.365   2.865  17.461  0.6635 -0.0930 -0.3932
  291MPD2     H 4390   3.447   2.702   0.108  2.0167 -1.3444 -0.4699
  291MPD2    H1 4391   3.511   3.009  17.511 -2.3511  2.4705  1.3969
  291MPD2    H2 4392   3.230   2.701  17.443  0.6052 -0.6923  0.7228
  291MPD2    H3 4393   3.346   2.891  17.358  2.6835  0.5774 -0.6000
  291MPD2     N 4394   3.588   2.939   0.058  0.3667  0.5101 -0.7318
  291MPD2    H5 4395   3.617   3.029   0.022  4.0646 -1.1412 -1.9073
  291MPD2    N1 4396   3.306   2.562  17.665  0.2975  0.7438 -0.1149
  291MPD2    H7 4397   3.348   2.530   0.058  0.8626  1.4166 -0.1415
  292TMC3    C1 4398   3.202   2.346  17.666  0.2475 -0.6806  0.2456
  292TMC3    C2 4399   3.223   2.332   0.111  0.6073 -0.5218  0.5656
  292TMC3    C3 4400   3.209   2.208   0.169  1.0813  0.4073 -0.3638
  292TMC3    C4 4401   3.170   2.240  17.591 -0.9271 -0.1000  0.3112
  292TMC3    C5 4402   3.160   2.121  17.651 -0.5402 -0.0326 -0.1176
  292TMC3    C6 4403   3.173   2.104   0.091 -0.6409  0.3098  0.4564
  292TMC3     C 4404   3.224   2.474  17.594 -0.2565  1.4954  0.1250
  292TMC3     O 4405   3.169   2.489  17.487 -0.2366  0.1102  0.1315
  292TMC3     H 4406   3.235   2.415   0.180  0.0703 -0.4325  0.5466
  292TMC3    H1 4407   3.178   2.257  17.484  0.8735 -2.3551  0.0792
  292TMC3    H2 4408   3.170   2.004   0.131 -2.7884 -0.2439 -1.0619
  292TMC3    C7 4409   3.153   2.001  17.576 -0.6463 -0.2240 -0.0850
  292TMC3    C8 4410   3.205   2.206   0.313  0.0878  0.7345  1.0682
  292TMC3    O1 4411   3.192   1.899  17.634 -0.0308  0.8082 -0.0031
  292TMC3    O2 4412   3.255   2.302   0.374 -0.4056 -0.4054 -0.3378
  293MPD2     C 4413   0.892   3.710  12.272 -0.0282 -0.3470 -0.6839
  293MPD2    C1 4414   0.801   3.637  12.348 -0.5448  0.4754  0.7220
  293MPD2    C2 4415   0.793   3.651  12.487 -0.2975 -0.0759  0.2700
  293MPD2    C3 4416   0.876   3.736  12.554 -0.0113 -0.2020  0.8144
  293MPD2    C4 4417   0.963   3.813  12.473 -0.6206  0.0671 -0.6227
  293MPD2    C5 4418   0.976   3.806  12.334  0.0860  0.1750  0.6201
  293MPD2     H 4419   0.717   3.608  12.551 -0.6764  1.1877  0.6760
  293MPD2    H1 4420   1.011   3.906  12.500 -2.1928  1.7085 -3.4211
  293MPD2    H2 4421   0.888   3.704  12.163 -0.2975 -1.0663 -0.6336
  293MPD2    H3 4422   1.039   3.870  12.273  0.9966 -2.0304 -0.7497
  293MPD2     N 4423   0.866   3.759  12.694  0.2542 -0.0675  0.0455
  293MPD2    H5 4424   0.795   3.705  12.741  1.4113 -1.4928  0.1649
  293MPD2    N1 4425   0.704   3.567  12.268  0.6126 -0.3188  0.0982
  293MPD2    H7 4426   0.725   3.566  12.168  0.8358  1.5631  0.1272
  294TMC3    C1 4427   0.510   3.436  12.211 -0.2598 -0.7518  0.3178
  294TMC3    C2 4428   0.422   3.346  12.251 -0.1589  0.3044  0.5812
  294TMC3    C3 4429   0.327   3.314  12.157 -0.1524  0.5283  0.1171
  294TMC3    C4 4430   0.511   3.492  12.087  0.1961 -0.3388  0.6009
  294TMC3    C5 4431   0.415   3.458  11.999  0.7423 -0.8125  0.0762
  294TMC3    C6 4432   0.322   3.371  12.036  0.0024  0.2184 -0.2800
  294TMC3     C 4433   0.600   3.487  12.312  0.0312 -0.3901 -0.0411
  294TMC3     O 4434   0.578   3.448  12.426  0.1527 -0.3642  0.8585
  294TMC3     H 4435   0.417   3.297  12.348 -3.5246 -0.2143  0.1461
  294TMC3    H1 4436   0.587   3.562  12.054  0.3785 -1.5387 -1.4904
  294TMC3    H2 4437   0.234   3.363  11.974 -0.0338  0.9054 -0.3190
  294TMC3    C7 4438   0.413   3.502  11.863 -0.1916  0.9746  0.0340
  294TMC3    C8 4439   0.229   3.211  12.185  0.0292  0.2383  0.3914
  294TMC3    O1 4440   0.317   3.477  11.795 -0.2192  0.2688 -0.2723
  294TMC3    O2 4441   0.209   3.197  12.306  0.0975 -0.2406  0.3113
  295MPD2     C 4442   2.367   1.896   0.579  1.2326  0.6098 -0.1057
  295MPD2    C1 4443   2.253   1.941   0.631  0.2362  0.2030  0.8090
  295MPD2    C2 4444   2.214   1.911   0.758 -0.8161  0.5268 -0.2645
  295MPD2    C3 4445   2.296   1.823   0.828  0.4306  0.9592 -0.3913
  295MPD2    C4 4446   2.426   1.793   0.787  0.8122 -0.3252 -0.2349
  295MPD2    C5 4447   2.461   1.830   0.657  0.0098 -0.0789 -0.2944
  295MPD2     H 4448   2.126   1.954   0.804 -0.9290 -1.4617  1.4110
  295MPD2    H1 4449   2.505   1.742   0.842  0.3270  0.4345  1.1554
  295MPD2    H2 4450   2.385   1.919   0.474  0.2047  1.2646 -0.1373
  295MPD2    H3 4451   2.558   1.816   0.612  0.5258  2.7964 -0.0632
  295MPD2     N 4452   2.262   1.784   0.958  0.1715  0.7694  0.0184
  295MPD2    H5 4453   2.341   1.748   1.011 -1.2712 -3.5278 -0.6782
  295MPD2    N1 4454   2.168   2.010   0.547  0.0298 -0.3582  0.5227
  295MPD2    H7 4455   2.179   2.006   0.446 -1.5624 -1.1004  0.3719
  296TMC3    C1 4456   2.147   1.760   1.153 -0.7998  0.4675  0.2096
  296TMC3    C2 4457   2.252   1.817   1.223 -0.2021  0.1719  0.9234
  296TMC3    C3 4458   2.255   1.818   1.358 -0.5677  0.9019  0.3737
  296TMC3    C4 4459   2.035   1.722   1.217 -0.6603  0.9035 -0.8263
  296TMC3    C5 4460   2.042   1.731   1.349  0.2727  0.5851  0.1169
  296TMC3    C6 4461   2.143   1.780   1.426  0.3193 -0.2665 -0.2552
  296TMC3     C 4462   2.141   1.799   1.017  0.1624  0.0333  0.2153
  296TMC3     O 4463   2.032   1.819   0.966 -0.3027 -0.3366  0.3081
  296TMC3     H 4464   2.338   1.855   1.169  0.6766 -1.7203  0.9718
  296TMC3    H1 4465   1.939   1.699   1.173 -0.6673 -0.5900 -0.0569
  296TMC3    H2 4466   2.137   1.802   1.532  0.6039 -0.1322 -0.2671
  296TMC3    C7 4467   1.925   1.720   1.425 -0.4346 -0.2878 -0.6977
  296TMC3    C8 4468   2.379   1.853   1.423  0.1381 -0.2332 -0.7386
  296TMC3    O1 4469   1.912   1.808   1.510 -0.3751 -0.1608 -0.0045
  296TMC3    O2 4470   2.483   1.866   1.362  0.0557  0.5304  0.0880
  297MPD2     C 4471   3.368   4.391  16.583  0.9752  0.4170 -0.3644
  297MPD2    C1 4472   3.307   4.499  16.526  0.1739 -0.0243  0.3911
  297MPD2    C2 4473   3.381   4.606  16.478  0.5298 -0.1752  0.1239
  297MPD2    C3 4474   3.522   4.602  16.485  0.2298  0.2810 -0.8485
  297MPD2    C4 4475   3.580   4.488  16.533 -0.0524  0.6396 -0.6660
  297MPD2    C5 4476   3.505   4.386  16.581 -0.2892 -0.4644  0.2702
  297MPD2     H 4477   3.335   4.694  16.433  1.1923 -0.2372 -0.6783
  297MPD2    H1 4478   3.688   4.482  16.542 -0.1288 -2.1504 -1.5029
  297MPD2    H2 4479   3.309   4.306  16.616  2.8451 -0.0295  1.8815
  297MPD2    H3 4480   3.556   4.303  16.629  0.2283  1.1359  2.4461
  297MPD2     N 4481   3.604   4.709  16.441 -0.4335 -0.8846  0.6247
  297MPD2    H5 4482   3.705   4.697  16.443 -0.4500 -1.2386 -0.5484
  297MPD2    N1 4483   3.165   4.518  16.512 -0.0106  0.7633  0.8161
  297MPD2    H7 4484   3.140   4.601  16.459  0.8769 -0.1190 -0.9796
  298TMC3    C1 4485   2.933   4.477  16.504  0.6056 -0.0501  0.5921
  298TMC3    C2 4486   2.924   4.511  16.373 -0.7342 -0.6153  0.2559
  298TMC3    C3 4487   2.800   4.546  16.329 -0.0408  0.9837  0.4483
  298TMC3    C4 4488   2.828   4.477  16.590 -0.6448 -0.3318 -0.4496
  298TMC3    C5 4489   2.704   4.516  16.540 -0.2691  0.7850  0.2159
  298TMC3    C6 4490   2.689   4.550  16.407 -0.5364 -0.2765  0.4444
  298TMC3     C 4491   3.062   4.432  16.547 -0.0784  0.5037  0.8788
  298TMC3     O 4492   3.070   4.339  16.628  0.2020 -0.0159  0.1537
  298TMC3     H 4493   3.011   4.514  16.309 -1.2262  0.4584 -0.3584
  298TMC3    H1 4494   2.837   4.446  16.693 -3.4800 -0.3831 -0.2155
  298TMC3    H2 4495   2.597   4.597  16.373 -0.1846  1.3124  1.7075
  298TMC3    C7 4496   2.603   4.541  16.635 -0.2136 -0.0525 -0.3493
  298TMC3    C8 4497   2.773   4.517  16.187  0.5875  0.5102  0.1822
  298TMC3    O1 4498   2.626   4.531  16.754  0.3093  1.2963 -0.0580
  298TMC3    O2 4499   2.852   4.542  16.099  0.2937  0.7712 -0.0882
  299MPD2     C 4500   4.151   3.534  10.431  0.3563 -0.3062  0.3956
  299MPD2    C1 4501   4.147   3.666  10.399  0.2004  0.1595  0.0233
  299MPD2    C2 4502   4.067   3.709  10.302 -0.0741 -0.0025  0.2143
  299MPD2    C3 4503   3.970   3.624  10.260 -0.2813 -0.0873  1.6448
  299MPD2    C4 4504   3.968   3.488  10.294 -0.3483  0.1708  0.1045
  299MPD2    C5 4505   4.071   3.443  10.374 -0.1267  0.3276 -0.4747
  299MPD2     H 4506   4.057   3.812  10.270  0.3852 -0.1650 -0.4440
  299MPD2    H1 4507   3.892   3.416  10.266  0.7219 -0.2440 -1.6960
  299MPD2    H2 4508   4.220   3.488  10.501  1.2202 -1.6542 -1.3272
  299MPD2    H3 4509   4.095   3.340  10.401 -2.5448 -0.4010 -1.1100
  299MPD2     N 4510   3.861   3.668  10.191  0.0460  0.3447 -0.4454
  299MPD2    H5 4511   3.779   3.608  10.192  0.8512 -0.6386  3.9983
  299MPD2    N1 4512   4.224   3.749  10.473 -0.0968  0.2023  0.0484
  299MPD2    H7 4513   4.276   3.706  10.548  0.4536  0.1426 -0.3636
  300TMC3    C1 4514   3.702   3.802  10.092 -0.0899  0.0325  0.2932
  300TMC3    C2 4515   3.684   3.924  10.045  0.1170 -0.7488  0.0971
  300TMC3    C3 4516   3.576   3.993  10.078  0.7194  0.3770  0.2791
  300TMC3    C4 4517   3.613   3.744  10.169 -0.1629 -0.3444 -0.3733
  300TMC3    C5 4518   3.502   3.815  10.203 -0.1665  0.5342  0.0995
  300TMC3    C6 4519   3.481   3.947  10.163  0.5054  1.2397 -0.4377
  300TMC3     C 4520   3.840   3.784  10.131 -0.3249 -0.0312  0.0059
  300TMC3     O 4521   3.916   3.878  10.108 -0.2840 -0.4227 -0.2425
  300TMC3     H 4522   3.761   3.974   9.988  0.7614 -1.2641  0.5249
  300TMC3    H1 4523   3.622   3.638  10.191  1.0327 -0.3125 -0.7101
  300TMC3    H2 4524   3.393   4.002  10.194  0.3104  1.5004 -1.4594
  300TMC3    C7 4525   3.431   3.765  10.324 -0.6420 -0.1592 -0.7357
  300TMC3    C8 4526   3.578   4.134  10.049  0.5205 -0.7501  0.1224
  300TMC3    O1 4527   3.450   3.649  10.355 -0.2135 -0.7633  0.0309
  300TMC3    O2 4528   3.680   4.189  10.084  0.0957 -0.1713  0.1925
  301MPD2     C 4529   1.099   0.586   1.451 -0.5574  0.0051  0.5809
  301MPD2    C1 4530   1.213   0.583   1.374 -0.1380  0.1276  0.5360
  301MPD2    C2 4531   1.294   0.470   1.364 -0.7732  0.7451  0.4414
  301MPD2    C3 4532   1.248   0.357   1.433  0.3338  0.0042 -1.1282
  301MPD2    C4 4533   1.123   0.354   1.495  0.1524  1.0252  0.7147
  301MPD2    C5 4534   1.050   0.464   1.500 -0.5061  0.4950  0.1452
  301MPD2     H 4535   1.397   0.475   1.333 -0.9211 -1.0639 -0.3742
  301MPD2    H1 4536   1.092   0.260   1.540 -1.1671  0.8856 -0.4600
  301MPD2    H2 4537   1.032   0.669   1.468 -0.1962  0.3230  0.4464
  301MPD2    H3 4538   0.950   0.469   1.539 -0.1925 -1.4772  1.1628
  301MPD2     N 4539   1.320   0.231   1.420  0.0817  0.3404 -0.0013
  301MPD2    H5 4540   1.276   0.150   1.463  2.6205 -0.2775  1.3728
  301MPD2    N1 4541   1.260   0.696   1.299  0.7849  0.2047 -0.4719
  301MPD2    H7 4542   1.352   0.691   1.256 -0.4017  1.8584 -3.2217
  302TMC3    C1 4543   1.471   0.070   1.329  0.6515  0.2842  0.0205
  302TMC3    C2 4544   1.437   4.715   1.438  0.5427 -0.4607 -0.3139
  302TMC3    C3 4545   1.424   4.580   1.416  0.7846 -0.0444 -0.0523
  302TMC3    C4 4546   1.485   0.022   1.204  0.3373 -0.4707 -0.2184
  302TMC3    C5 4547   1.477   4.607   1.185 -0.5875  0.9508  0.2819
  302TMC3    C6 4548   1.447   4.529   1.291 -0.4176  0.0838 -0.6123
  302TMC3     C 4549   1.412   0.203   1.319  0.8325  0.5374  0.1351
  302TMC3     O 4550   1.424   0.260   1.215 -0.6453  0.5875  0.0113
  302TMC3     H 4551   1.420   0.041   1.533 -1.6294 -0.8070 -0.5249
  302TMC3    H1 4552   1.493   0.088   1.118  0.3747 -0.7495 -0.4286
  302TMC3    H2 4553   1.470   4.423   1.284 -2.1980 -0.4102  0.8292
  302TMC3    C7 4554   1.472   4.550   1.059 -0.9349  0.4036 -0.3677
  302TMC3    C8 4555   1.436   4.480   1.521 -0.3601 -0.3122  0.5358
  302TMC3    O1 4556   1.513   4.438   1.045 -0.0463 -0.2605  0.3382
  302TMC3    O2 4557   1.487   4.371   1.499 -0.2790 -0.1909  0.7334
  303MPD2     C 4558   1.720   3.513  10.453  0.3450 -0.3405 -0.9869
  303MPD2    C1 4559   1.685   3.391  10.415  0.2788  0.0510 -0.4822
  303MPD2    C2 4560   1.686   3.357  10.285  0.7253  0.0383 -0.4434
  303MPD2    C3 4561   1.724   3.446  10.183 -0.7998  0.2846  0.3900
  303MPD2    C4 4562   1.765   3.572  10.226  0.2144 -0.1737 -0.0880
  303MPD2    C5 4563   1.752   3.614  10.360  0.1307 -0.2768 -0.8321
  303MPD2     H 4564   1.669   3.254  10.256  1.4679 -0.6685  1.6263
  303MPD2    H1 4565   1.796   3.644  10.151 -1.0182  1.4278  0.9307
  303MPD2    H2 4566   1.734   3.547  10.555 -1.5769  1.3534 -1.2921
  303MPD2    H3 4567   1.783   3.714  10.386 -2.0375 -0.5146  2.6037
  303MPD2     N 4568   1.731   3.426  10.041  0.0608 -0.0636 -0.3338
  303MPD2    H5 4569   1.783   3.492   9.984  0.8449  0.1658  0.6485
  303MPD2    N1 4570   1.649   3.307  10.521  0.0796 -0.3139 -0.0123
  303MPD2    H7 4571   1.658   3.349  10.613 -0.4712  1.2542 -0.6803
  304TMC3    C1 4572   1.567   3.115  10.631  0.0933 -0.4136 -0.0439
  304TMC3    C2 4573   1.477   3.189  10.711  0.7002 -0.1969 -0.9050
  304TMC3    C3 4574   1.399   3.121  10.792 -0.1134 -0.1740  0.2363
  304TMC3    C4 4575   1.572   2.976  10.633 -0.9783  0.0618  0.2709
  304TMC3    C5 4576   1.490   2.914  10.718  0.5742 -0.2553  0.3134
  304TMC3    C6 4577   1.407   2.983  10.793  0.5853  0.7699 -0.4180
  304TMC3     C 4578   1.627   3.170  10.511  0.1147  0.0813 -0.0729
  304TMC3     O 4579   1.662   3.088  10.428 -0.4967 -0.2342 -0.2408
  304TMC3     H 4580   1.452   3.290  10.680 -1.8258  0.2084  2.5556
  304TMC3    H1 4581   1.636   2.915  10.571 -1.5739 -1.4217  1.1420
  304TMC3    H2 4582   1.345   2.926  10.862  0.1619  2.2902  0.4521
  304TMC3    C7 4583   1.418   2.798  10.665 -0.1385  0.3827 -0.3039
  304TMC3    C8 4584   1.264   3.165  10.784  0.3087 -0.7502 -0.0021
  304TMC3    O1 4585   1.297   2.800  10.679 -0.1642  0.4170 -0.2827
  304TMC3    O2 4586   1.244   3.285  10.788  0.1792 -0.7969 -0.0303
  305MPD2     C 4587   3.795   0.431  14.174 -0.2373  0.2492 -0.3517
  305MPD2    C1 4588   3.818   0.560  14.147 -0.3892 -0.6526 -0.1572
  305MPD2    C2 4589   3.824   0.597  14.015  0.0056 -0.7741  0.1811
  305MPD2    C3 4590   3.818   0.504  13.912  1.0321 -0.3961  0.4336
  305MPD2    C4 4591   3.799   0.371  13.945  0.8658  0.5800 -0.4793
  305MPD2    C5 4592   3.788   0.334  14.077  0.1174  0.1947  0.4363
  305MPD2     H 4593   3.825   0.703  13.997  1.2635 -1.2523 -2.5265
  305MPD2    H1 4594   3.787   0.291  13.873 -2.3209  1.6425 -1.1127
  305MPD2    H2 4595   3.790   0.409  14.280  1.3829 -0.8924 -0.5232
  305MPD2    H3 4596   3.771   0.230  14.102 -0.3623 -0.0899 -1.1221
  305MPD2     N 4597   3.840   0.538  13.775 -0.3464  0.0438 -0.3415
  305MPD2    H5 4598   3.842   0.458  13.711 -0.5043  0.0187 -0.3159
  305MPD2    N1 4599   3.820   0.650  14.254 -0.3192  0.1684 -0.0663
  305MPD2    H7 4600   3.823   0.602  14.344 -0.4821 -0.6670 -0.5044
  306TMC3    C1 4601   3.897   0.834  14.372  0.6605 -0.3730 -0.1084
  306TMC3    C2 4602   4.029   0.859  14.351  0.2528  0.3253 -0.3539
  306TMC3    C3 4603   4.119   0.852  14.456  0.1082 -0.6181  0.5142
  306TMC3    C4 4604   3.853   0.795  14.495  0.5628  0.4895 -0.3197
  306TMC3    C5 4605   3.943   0.792  14.600  0.1736  0.1931  0.5457
  306TMC3    C6 4606   4.077   0.827  14.584 -0.8283  0.0648 -0.0977
  306TMC3     C 4607   3.830   0.786  14.248 -0.2637  0.3640 -0.1645
  306TMC3     O 4608   3.854   0.856  14.146  0.3564  0.2542 -0.0109
  306TMC3     H 4609   4.060   0.887  14.251  1.2374 -1.0667 -0.4244
  306TMC3    H1 4610   3.750   0.767  14.510  1.1522 -1.6025 -0.1973
  306TMC3    H2 4611   4.153   0.818  14.661  0.4809 -3.0864 -1.7505
  306TMC3    C7 4612   3.897   0.778  14.734  0.8870 -0.0488 -0.2347
  306TMC3    C8 4613   4.257   0.879  14.434 -0.0161  0.5321 -0.3124
  306TMC3    O1 4614   3.778   0.764  14.758  0.0924 -0.2372  0.3819
  306TMC3    O2 4615   4.336   0.890  14.530 -0.0177 -0.0621  0.1834
  307MPD2     C 4616   2.378   4.128   0.618  0.1328  0.2360 -0.1491
  307MPD2    C1 4617   2.299   4.246   0.615 -0.2007 -0.1759 -0.2582
  307MPD2    C2 4618   2.210   4.269   0.714  0.6153  0.4277 -0.1697
  307MPD2    C3 4619   2.187   4.166   0.811  0.1867 -0.1857  0.7203
  307MPD2    C4 4620   2.270   4.052   0.809 -0.0724 -0.9152 -0.2256
  307MPD2    C5 4621   2.363   4.030   0.709  0.0470  0.3629 -0.3277
  307MPD2     H 4622   2.155   4.362   0.722 -0.2812 -0.2851  1.8039
  307MPD2    H1 4623   2.262   3.973   0.884 -1.7622  0.3690  0.9475
  307MPD2    H2 4624   2.463   4.112   0.552 -0.5131  0.3711 -1.0148
  307MPD2    H3 4625   2.433   3.948   0.724  0.3681  0.7568  0.3398
  307MPD2     N 4626   2.087   4.189   0.911 -0.3268 -0.0424 -0.4020
  307MPD2    H5 4627   2.029   4.272   0.899  2.7041  1.7012 -3.1505
  307MPD2    N1 4628   2.325   4.348   0.528  0.3275  0.4417 -0.3038
  307MPD2    H7 4629   2.283   4.439   0.545  0.1592  0.4085 -0.5383
  308TMC3    C1 4630   1.732   4.130   1.221  0.1575 -0.0514  0.6168
  308TMC3    C2 4631   1.730   4.261   1.236 -0.7501  0.6135 -0.7366
  308TMC3    C3 4632   1.833   4.332   1.178 -0.9353 -0.6716  0.3089
  308TMC3    C4 4633   1.831   4.076   1.140 -0.3264 -0.3575  0.5901
  308TMC3    C5 4634   1.932   4.148   1.080  0.0370 -0.6707  0.1625
  308TMC3    C6 4635   1.925   4.287   1.094 -0.3746  0.5181  0.1646
  308TMC3     C 4636   1.598   4.070   1.192 -0.6865  0.1172 -0.6823
  308TMC3     O 4637   1.585   3.949   1.213 -0.6291 -0.1926  0.1817
  308TMC3     H 4638   1.655   4.304   1.301 -0.8259 -0.2245 -0.2664
  308TMC3    H1 4639   1.824   3.970   1.121  0.6484 -0.2819 -0.2059
  308TMC3    H2 4640   2.009   4.352   1.072  1.7166 -2.0159  0.5516
  308TMC3    C7 4641   2.034   4.092   0.995 -0.8396  0.0845 -0.3538
  308TMC3    C8 4642   1.836   4.475   1.211 -0.2205 -0.1614  0.0883
  308TMC3    O1 4643   2.041   3.970   0.978 -0.1817  0.0424 -0.8178
  308TMC3    O2 4644   1.791   4.502   1.323  0.0540  0.2067  0.0109
  309MPD2     C 4645   1.318   4.289  17.346  0.5597  0.8047  0.2526
  309MPD2    C1 4646   1.252   4.232  17.240  0.0545 -0.0000 -1.0681
  309MPD2    C2 4647   1.116   4.227  17.253 -0.2696  0.1122  0.0444
  309MPD2    C3 4648   1.048   4.264  17.375 -1.1405 -0.3551 -0.3224
  309MPD2    C4 4649   1.127   4.308  17.485  0.3101  0.5500 -0.5442
  309MPD2    C5 4650   1.261   4.325  17.467 -0.3166  0.0996  0.5123
  309MPD2     H 4651   1.062   4.206  17.161 -2.9531  0.5595  1.5143
  309MPD2    H1 4652   1.078   4.338  17.577 -0.5405 -0.9157 -0.5205
  309MPD2    H2 4653   1.426   4.298  17.344  0.7356 -1.1761  0.1376
  309MPD2    H3 4654   1.328   4.359  17.546 -0.2412 -2.2859  1.4924
  309MPD2     N 4655   0.907   4.262  17.381  0.4218  0.2735 -0.2720
  309MPD2    H5 4656   0.871   4.298  17.469  1.3212  1.9298 -0.5903
  309MPD2    N1 4657   1.315   4.196  17.120 -0.2281  0.3311  0.1609
  309MPD2    H7 4658   1.260   4.175  17.037 -3.1775  1.9198  1.7012
  310TMC3    C1 4659   1.487   4.164  16.959 -0.0696  0.6634 -0.4379
  310TMC3    C2 4660   1.408   4.200  16.853 -0.1781  0.5351 -0.3251
  310TMC3    C3 4661   1.446   4.160  16.730  0.2054 -0.4118  0.5778
  310TMC3    C4 4662   1.600   4.089  16.944  0.0903  0.1552  0.1710
  310TMC3    C5 4663   1.630   4.054  16.816 -0.7558 -0.0921  0.0246
  310TMC3    C6 4664   1.560   4.089  16.704  0.5658  0.0912  0.2575
  310TMC3     C 4665   1.452   4.188  17.096 -0.1275  0.2786  0.8111
  310TMC3     O 4666   1.545   4.181  17.171 -0.3679 -0.0577 -0.3368
  310TMC3     H 4667   1.331   4.276  16.860 -2.4374 -1.7700 -0.2615
  310TMC3    H1 4668   1.655   4.046  17.026 -0.4689 -0.7303  0.0866
  310TMC3    H2 4669   1.576   4.050  16.604 -4.6976 -2.4640  0.4509
  310TMC3    C7 4670   1.755   3.981  16.790  0.9643 -0.1907 -0.0272
  310TMC3    C8 4671   1.387   4.229  16.619  0.2284 -0.1286  0.0912
  310TMC3    O1 4672   1.757   3.898  16.699 -0.0707  0.2541 -0.0882
  310TMC3    O2 4673   1.268   4.251  16.619  0.3338  0.0934  0.1844
  311MPD2     C 4674   3.288   0.278  12.829  0.4614  0.4494 -0.5959
  311MPD2    C1 4675   3.274   0.409  12.876 -0.8143 -0.3530 -0.3907
  311MPD2    C2 4676   3.153   0.445  12.943 -0.8420  0.3532  0.1603
  311MPD2    C3 4677   3.046   0.367  12.955 -0.3834  0.2362 -0.0219
  311MPD2    C4 4678   3.067   0.241  12.902  0.4215  0.7973  0.4669
  311MPD2    C5 4679   3.183   0.195  12.847  0.0936 -0.6274 -0.0113
  311MPD2     H 4680   3.139   0.549  12.973  2.3500  1.1498 -1.0850
  311MPD2    H1 4681   2.981   0.177  12.882  0.5144  1.0790 -0.8600
  311MPD2    H2 4682   3.371   0.245  12.767  1.9191  3.5398 -0.2583
  311MPD2    H3 4683   3.177   0.100  12.795  1.6465  0.8885 -2.9464
  311MPD2     N 4684   2.930   0.421  13.008  0.3901  0.2802  0.2781
  311MPD2    H5 4685   2.937   0.518  13.034  0.2799 -0.0220  1.4429
  311MPD2    N1 4686   3.378   0.502  12.863 -0.0249  0.0249 -0.1065
  311MPD2    H7 4687   3.359   0.590  12.911 -1.8940 -0.6284  0.3695
  312TMC3    C1 4688   2.700   0.463  13.017  0.0026 -0.0336 -0.0672
  312TMC3    C2 4689   2.619   0.484  12.911 -0.2559  0.1771 -0.4158
  312TMC3    C3 4690   2.529   0.587  12.922  0.5873  0.6085  0.6861
  312TMC3    C4 4691   2.698   0.541  13.125  0.0096 -0.4182 -0.0719
  312TMC3    C5 4692   2.606   0.642  13.132 -0.2417 -0.0617 -0.7876
  312TMC3    C6 4693   2.509   0.664  13.036 -0.0736 -0.0178 -0.0549
  312TMC3     C 4694   2.804   0.363  13.006  0.1746 -0.0570 -0.4309
  312TMC3     O 4695   2.766   0.253  12.982 -0.3616  0.8362 -0.6021
  312TMC3     H 4696   2.613   0.415  12.828  0.6301  1.9578 -1.9640
  312TMC3    H1 4697   2.768   0.524  13.206  1.3631 -1.7271 -1.5358
  312TMC3    H2 4698   2.437   0.743  13.051  1.6730  1.3554  1.0796
  312TMC3    C7 4699   2.608   0.730  13.250 -0.3865 -0.0066  0.7676
  312TMC3    C8 4700   2.414   0.582  12.826  0.0580  0.0483  0.1452
  312TMC3    O1 4701   2.574   0.847  13.251  0.2925 -0.6873 -0.4635
  312TMC3    O2 4702   2.395   0.475  12.768  0.5960  0.2014  0.3277
  313MPD2     C 4703   2.738   4.604  10.711 -0.0884 -0.6042 -0.9558
  313MPD2    C1 4704   2.843   4.684  10.666  0.0120 -0.3030  0.4703
  313MPD2    C2 4705   2.922   4.643  10.558 -0.6099  0.7222 -0.2181
  313MPD2    C3 4706   2.898   4.513  10.499 -0.1164  0.1362 -0.5669
  313MPD2    C4 4707   2.793   4.438  10.542 -0.3115 -0.0690  0.1228
  313MPD2    C5 4708   2.709   4.488  10.643  0.6677  0.0012 -0.2837
  313MPD2     H 4709   3.002   4.706  10.521 -2.0689  2.6100 -0.1683
  313MPD2    H1 4710   2.770   4.342  10.498 -3.2282  1.1136 -0.9628
  313MPD2    H2 4711   2.661   4.639  10.778  0.4265 -1.7395  0.2399
  313MPD2    H3 4712   2.618   4.434  10.665  1.6352 -1.0401  1.1645
  313MPD2     N 4713   2.955   4.464  10.379 -0.3390  0.2911 -0.2139
  313MPD2    H5 4714   2.917   4.376  10.343  3.7018 -1.8221  0.6971
  313MPD2    N1 4715   2.866   0.098  10.718  0.3699  0.1205 -0.3263
  313MPD2    H7 4716   2.954   0.142  10.695  0.3359  1.5841  2.3494
  314TMC3    C1 4717   2.829   0.288  10.840 -0.5440  0.3882 -0.4135
  314TMC3    C2 4718   2.961   0.311  10.826  0.4966 -0.5013  1.0557
  314TMC3    C3 4719   2.999   0.440  10.820 -0.3210  0.1939 -0.0770
  314TMC3    C4 4720   2.742   0.391  10.817 -0.4097  0.3536  0.1784
  314TMC3    C5 4721   2.783   0.514  10.786  0.2313  0.0666 -0.1370
  314TMC3    C6 4722   2.916   0.544  10.797 -0.5025 -1.0117  0.3933
  314TMC3     C 4723   2.785   0.157  10.808 -0.0562  0.3688  1.0593
  314TMC3     O 4724   2.673   0.130  10.845 -0.7144 -0.4846 -0.5034
  314TMC3     H 4725   3.028   0.229  10.849  1.0837 -0.3661 -0.1792
  314TMC3    H1 4726   2.636   0.369  10.804 -0.6307  1.4964  0.0479
  314TMC3    H2 4727   2.965   0.640  10.783  1.4398 -1.8349  1.6239
  314TMC3    C7 4728   2.707   0.599  10.699  0.2276 -0.3405 -0.1689
  314TMC3    C8 4729   3.140   0.473  10.848  0.4760  0.4865  1.0879
  314TMC3    O1 4730   2.588   0.573  10.697  0.5140  0.3207  0.4235
  314TMC3    O2 4731   3.145   0.582  10.903 -0.5683 -0.1780  0.4519
  315MPD2     C 4732   2.494   3.949   0.036  0.3384  0.2855 -0.0720
  315MPD2    C1 4733   2.539   3.958   0.165 -0.0434 -0.0639 -0.0344
  315MPD2    C2 4734   2.618   4.073   0.189  0.1089  0.5523  0.3058
  315MPD2    C3 4735   2.643   4.173   0.102 -0.1970  0.2414  0.0033
  315MPD2    C4 4736   2.601   4.152  17.663  0.3280  0.5618 -0.0318
  315MPD2    C5 4737   2.523   4.040  17.634 -0.0329 -0.6214  0.3057
  315MPD2     H 4738   2.672   4.091   0.282  1.1761  0.0438 -0.2169
  315MPD2    H1 4739   2.642   4.219  17.589 -0.2637 -1.4529 -2.1775
  315MPD2    H2 4740   2.444   3.859   0.003 -1.9718  0.8813  1.7476
  315MPD2    H3 4741   2.494   4.023  17.530 -1.3714 -1.3171  0.7827
  315MPD2     N 4742   2.725   4.283   0.143 -0.3835  0.3274  0.1510
  315MPD2    H5 4743   2.766   4.277   0.236 -3.4201  0.8247  1.5211
  315MPD2    N1 4744   2.513   3.871   0.276 -0.2976  1.1654  0.3505
  315MPD2    H7 4745   2.563   3.900   0.359 -0.0067  0.3922  0.4521
  316TMC3    C1 4746   2.797   4.498   0.151 -0.2942  0.4465  0.0866
  316TMC3    C2 4747   2.849   4.461   0.269 -0.3368  0.7583  0.0023
  316TMC3    C3 4748   2.841   4.556   0.369 -0.9348 -0.2016 -0.1168
  316TMC3    C4 4749   2.749   4.619   0.121  0.1480  0.4409  0.4549
  316TMC3    C5 4750   2.747   4.709   0.224 -1.1304  0.1630 -0.6508
  316TMC3    C6 4751   2.781   4.684   0.352 -0.9197 -0.1350  0.2688
  316TMC3     C 4752   2.746   4.394   0.068 -0.1645  0.0885 -0.2895
  316TMC3     O 4753   2.707   4.423  17.650 -1.2006 -0.2412  0.4283
  316TMC3     H 4754   2.914   4.374   0.279 -1.4256  0.2713  2.9885
  316TMC3    H1 4755   2.683   4.625   0.036 -0.7076  1.8116  1.2228
  316TMC3    H2 4756   2.776   0.027   0.438 -0.0900 -0.6843  0.7422
  316TMC3    C7 4757   2.708   0.127   0.199 -0.4726  0.0679  0.8957
  316TMC3    C8 4758   2.944   4.552   0.477  0.1577  0.7901  0.0940
  316TMC3    O1 4759   2.730   0.203   0.290 -0.5667 -0.6834  0.4867
  316TMC3    O2 4760   2.947   4.644   0.557  0.3182  0.7391 -0.6064
  317MPD2     C 4761   4.306   2.798  13.281 -0.4825  0.1415 -0.6279
  317MPD2    C1 4762   4.337   2.717  13.179 -0.2934 -0.1332  0.7045
  317MPD2    C2 4763   4.412   2.605  13.209  0.2965  0.5687 -0.5894
  317MPD2    C3 4764   4.459   2.575  13.341  0.6033  0.6895 -0.1398
  317MPD2    C4 4765   4.409   2.650  13.444  0.0824 -0.2495 -0.3716
  317MPD2    C5 4766   4.327   2.753  13.411  0.6153  0.2008 -0.5792
  317MPD2     H 4767   4.434   2.534  13.130  0.7719  0.6038 -0.4886
  317MPD2    H1 4768   4.426   2.640  13.550  0.2630 -1.3763 -0.5005
  317MPD2    H2 4769   4.234   2.876  13.260  2.0288  2.4803 -0.4166
  317MPD2    H3 4770   4.282   2.809  13.493 -0.5361  0.2554 -1.2495
  317MPD2     N 4771   4.544   2.463  13.361  0.3610 -0.5663 -0.6941
  317MPD2    H5 4772   4.609   2.442  13.286  0.8469  1.2270 -0.7712
  317MPD2    N1 4773   4.306   2.735  13.041 -0.5111 -0.3764  0.3905
  317MPD2    H7 4774   4.334   2.651  12.990  1.2572  0.7948 -0.5514
  318TMC3    C1 4775   4.640   2.288  13.462 -0.7523  0.1858  0.2896
  318TMC3    C2 4776   4.612   2.168  13.526  0.1767  0.5349 -0.4891
  318TMC3    C3 4777   4.711   2.084  13.541 -0.5015 -0.4408 -0.2063
  318TMC3    C4 4778   0.044   2.318  13.420 -0.3009 -0.0747  0.4511
  318TMC3    C5 4779   0.147   2.234  13.456  0.1199  0.0166  0.2108
  318TMC3    C6 4780   0.118   2.114  13.518 -0.4929  0.4047 -0.3378
  318TMC3     C 4781   4.555   2.399  13.479 -0.7422 -0.2558  0.5297
  318TMC3     O 4782   4.494   2.418  13.586  0.4608 -0.4037  0.1938
  318TMC3     H 4783   4.509   2.159  13.559  1.8099 -1.3772  4.0720
  318TMC3    H1 4784   0.066   2.413  13.373 -2.0097  0.1100  0.0398
  318TMC3    H2 4785   0.195   2.041  13.539  1.0793  2.0104 -0.4567
  318TMC3    C7 4786   0.254   2.234  13.366  0.2104 -0.0621  0.0329
  318TMC3    C8 4787   4.679   1.950  13.580 -0.0630 -0.0452 -0.3618
  318TMC3    O1 4788   0.234   2.284  13.259 -0.0534  0.4799 -0.1632
  318TMC3    O2 4789   0.046   1.867  13.601 -0.0971  0.5887 -0.3421
  319MPD2     C 4790   0.492   3.527  16.875  0.3078  0.3739  0.4519
  319MPD2    C1 4791   0.398   3.448  16.944 -0.4725 -0.0742  0.3186
  319MPD2    C2 4792   0.293   3.391  16.867  0.3684 -0.0482 -0.3009
  319MPD2    C3 4793   0.269   3.433  16.743 -0.0696  0.0814 -0.1977
  319MPD2    C4 4794   0.366   3.504  16.677 -1.0282 -0.2896  0.0464
  319MPD2    C5 4795   0.482   3.538  16.740  0.1775 -0.1957 -0.6867
  319MPD2     H 4796   0.220   3.328  16.918  1.5942 -3.5152 -2.8510
  319MPD2    H1 4797   0.359   3.521  16.570  1.6205  0.4617  0.0140
  319MPD2    H2 4798   0.580   3.571  16.921  0.9767  0.1742 -0.6407
  319MPD2    H3 4799   0.571   3.574  16.689  0.3821 -1.2304 -1.0503
  319MPD2     N 4800   0.151   3.405  16.672  0.1818  0.4394 -0.1446
  319MPD2    H5 4801   0.144   3.440  16.577 -0.5614  1.9851  0.4798
  319MPD2    N1 4802   0.425   3.414  17.077  0.7154 -0.5904 -0.4621
  319MPD2    H7 4803   0.368   3.343  17.122 -0.6968 -0.2188 -1.6752
  320TMC3    C1 4804   4.673   3.304  16.598 -1.1836  0.2283 -0.0916
  320TMC3    C2 4805   4.641   3.415  16.528 -0.9183 -0.2784 -0.5912
  320TMC3    C3 4806   4.548   3.402  16.430  0.9642  0.3515  0.3546
  320TMC3    C4 4807   4.619   3.186  16.570  0.1672 -0.3515  0.1049
  320TMC3    C5 4808   4.534   3.168  16.463  0.1159 -0.0662  0.1481
  320TMC3    C6 4809   4.496   3.280  16.391  0.4574 -0.0159 -0.5779
  320TMC3     C 4810   0.053   3.311  16.703 -0.2918  0.2190  0.6733
  320TMC3     O 4811   0.067   3.215  16.783  0.1080  0.2137 -0.1678
  320TMC3     H 4812   4.674   3.508  16.573 -1.9285 -1.6277  2.9100
  320TMC3    H1 4813   4.648   3.101  16.631 -0.0409 -0.2627  0.3256
  320TMC3    H2 4814   4.424   3.267  16.311  0.3270 -3.9233  0.1523
  320TMC3    C7 4815   4.561   3.055  16.374 -0.1833 -0.3118  0.4687
  320TMC3    C8 4816   4.537   3.515  16.343 -0.0354 -0.0867 -0.2383
  320TMC3    O1 4817   4.528   3.065  16.257  0.0371 -0.2944 -0.0414
  320TMC3    O2 4818   4.625   3.600  16.350 -0.0463  0.8300 -0.0413
  321TMC3    C1 4819   0.512   3.431  17.295 -0.6855  0.4920 -0.1583
  321TMC3    C2 4820   0.547   3.304  17.303 -0.0562 -0.3385  0.4360
  321TMC3    C3 4821   0.547   3.250  17.430 -0.0697 -0.6020 -0.5455
  321TMC3    C4 4822   0.495   3.521  17.399  0.6334 -0.5225 -0.0723
  321TMC3    C5 4823   0.504   3.469  17.522 -0.4042  0.0973  0.3683
  321TMC3    C6 4824   0.518   3.331  17.537  0.3955 -0.2135 -0.9449
  321TMC3     C 4825   0.504   3.492  17.164 -0.0962 -0.0363  0.6088
  321TMC3     O 4826   0.538   3.608  17.155 -0.2169  0.2350  0.2145
  321TMC3     H 4827   0.563   3.245  17.214 -1.6439 -0.5577  0.3050
  321TMC3    H1 4828   0.453   3.619  17.378  1.4536 -0.1129  0.2201
  321TMC3    H2 4829   0.495   3.276  17.628 -0.5301  1.5524 -0.1188
  321TMC3    C7 4830   0.568   3.546  17.629 -0.5391 -0.2843  0.1458
  321TMC3    C8 4831   0.622   3.129  17.457 -0.2029  0.6930  0.1054
  321TMC3    O1 4832   0.586   3.666  17.632  0.7564  0.3041 -0.6740
  321TMC3    O2 4833   0.602   3.084  17.571 -0.2989 -0.0485 -0.0193
  322MPD2     C 4834   4.408   0.288  13.199  0.4156 -0.1315  0.3047
  322MPD2    C1 4835   4.334   0.253  13.310  0.5199  0.6341  0.4681
  322MPD2    C2 4836   4.281   0.130  13.322  0.5245 -0.5643  0.4706
  322MPD2    C3 4837   4.301   0.039  13.216  0.1359 -0.6727 -0.6688
  322MPD2    C4 4838   4.377   0.072  13.106 -0.8174  0.0904  0.2847
  322MPD2    C5 4839   4.431   0.197  13.100 -0.0438  0.1352  0.8032
  322MPD2     H 4840   4.229   0.099  13.411 -0.6868  0.2902  0.0684
  322MPD2    H1 4841   4.381   0.011  13.017 -2.0766 -0.5604  0.6682
  322MPD2    H2 4842   4.457   0.384  13.188 -0.0645  0.2129  1.1206
  322MPD2    H3 4843   4.482   0.223  13.008 -0.8569  1.7004  0.7980
  322MPD2     N 4844   4.240   4.634  13.233  0.5683  0.2950  0.1875
  322MPD2    H5 4845   4.190   4.618  13.320  0.6812  0.4441  0.2784
  322MPD2    N1 4846   4.319   0.342  13.418  0.1277 -0.4272  0.4779
  322MPD2    H7 4847   4.387   0.418  13.424 -0.2268 -0.3599  3.8271
  323TMC3    C1 4848   4.258   0.433  13.625 -0.0687 -0.0789  0.0956
  323TMC3    C2 4849   4.374   0.503  13.626  0.0077  0.4605  0.2185
  323TMC3    C3 4850   4.408   0.562  13.749  0.5182  0.0541  0.4324
  323TMC3    C4 4851   4.171   0.425  13.736  1.5867 -0.2630 -0.1283
  323TMC3    C5 4852   4.202   0.487  13.853 -0.2271 -0.0820  1.0429
  323TMC3    C6 4853   4.324   0.545  13.860 -0.2673  0.2100 -0.2491
  323TMC3     C 4854   4.229   0.341  13.520  0.9752 -0.4702  0.7753
  323TMC3     O 4855   4.130   0.266  13.536 -0.3727 -0.5698 -0.0507
  323TMC3     H 4856   4.452   0.487  13.553 -2.2171  2.7907 -2.6526
  323TMC3    H1 4857   4.080   0.367  13.728  1.2444  0.0865  1.2566
  323TMC3    H2 4858   4.364   0.587  13.952 -0.4455 -0.7063  0.2453
  323TMC3    C7 4859   4.156   0.410  13.963 -0.4075  0.7072  0.3900
  323TMC3    C8 4860   4.549   0.576  13.774 -0.4758 -0.7993  0.2692
  323TMC3    O1 4861   4.123   0.290  13.937  0.2485  0.4232 -0.2334
  323TMC3    O2 4862   4.583   0.566  13.894  0.0015  0.0051 -0.1793
  324MPD2     C 4863   1.211   1.566  14.642 -0.3118 -0.1804  0.0315
  324MPD2    C1 4864   1.279   1.641  14.550  0.0071  0.3563  0.2075
  324MPD2    C2 4865   1.212   1.671  14.427  0.3224 -1.0506  0.0974
  324MPD2    C3 4866   1.078   1.640  14.403 -0.0557 -0.5124  0.1567
  324MPD2    C4 4867   1.012   1.563  14.498 -0.5617  0.0677 -0.5899
  324MPD2    C5 4868   1.080   1.526  14.613 -0.5582 -0.0173 -0.4377
  324MPD2     H 4869   1.265   1.720  14.347  1.2104  0.1443  1.4229
  324MPD2    H1 4870   0.906   1.543  14.494 -0.6787  0.3971  0.9093
  324MPD2    H2 4871   1.263   1.537  14.733 -0.1860 -0.4731 -0.1314
  324MPD2    H3 4872   1.026   1.460  14.681 -0.7225 -0.1163 -0.6673
  324MPD2     N 4873   1.001   1.682  14.291 -0.7391  0.0186 -0.2132
  324MPD2    H5 4874   0.905   1.648  14.293 -0.4871 -0.7530 -0.8218
  324MPD2    N1 4875   1.418   1.674  14.553  0.3276 -0.3290 -0.2096
  324MPD2    H7 4876   1.457   1.725  14.475 -0.5534  2.4339  1.1641
  325TMC3    C1 4877   0.965   1.736  14.060 -0.3677 -0.2913 -0.4315
  325TMC3    C2 4878   0.896   1.621  14.037  0.0683  0.4514  0.1428
  325TMC3    C3 4879   0.814   1.620  13.926  0.4192  0.2255  0.8888
  325TMC3    C4 4880   0.962   1.843  13.977  0.1364  0.4484 -0.4909
  325TMC3    C5 4881   0.872   1.837  13.877 -0.2076  0.2075  0.2723
  325TMC3    C6 4882   0.797   1.731  13.846  0.9638 -0.3613  0.0665
  325TMC3     C 4883   1.048   1.742  14.180  0.3620  0.1813 -0.8398
  325TMC3     O 4884   1.153   1.802  14.156 -0.0567 -0.1494 -0.0809
  325TMC3     H 4885   0.917   1.533  14.096  0.2336 -0.9532 -2.0258
  325TMC3    H1 4886   1.018   1.935  13.990 -0.7723  1.0494 -0.8049
  325TMC3    H2 4887   0.739   1.733  13.755  0.7554 -0.1083  0.2073
  325TMC3    C7 4888   0.855   1.961  13.797 -1.1668  0.8675  0.1749
  325TMC3    C8 4889   0.749   1.496  13.893  0.3252  0.6706 -0.0837
  325TMC3    O1 4890   0.814   1.936  13.681  0.4705  0.4091  0.0179
  325TMC3    O2 4891   0.777   1.389  13.952 -0.4346  0.1245  0.4543
  326MPD2     C 4892   1.972   2.791  11.242 -1.1756 -0.9229 -0.8567
  326MPD2    C1 4893   1.999   2.759  11.109  0.5140 -0.5076 -0.8371
  326MPD2    C2 4894   2.102   2.802  11.037  0.2633  0.1838 -0.4383
  326MPD2    C3 4895   2.190   2.892  11.098  0.5464  0.3103 -0.1284
  326MPD2    C4 4896   2.167   2.927  11.227  0.7503  0.2287 -0.8975
  326MPD2    C5 4897   2.058   2.883  11.297 -0.4212 -0.5626  0.2102
  326MPD2     H 4898   2.112   2.773  10.933 -1.0750  0.2170 -0.5827
  326MPD2    H1 4899   2.229   2.995  11.285 -1.9749  1.3780  0.7015
  326MPD2    H2 4900   1.894   2.744  11.302 -1.9339  0.7719 -0.5146
  326MPD2    H3 4901   2.041   2.907  11.401 -0.3541  0.1078  0.0668
  326MPD2     N 4902   2.310   2.936  11.031 -0.0200 -0.2211 -0.5094
  326MPD2    H5 4903   2.379   2.998  11.071 -0.6991 -1.9217  3.2607
  326MPD2    N1 4904   1.927   2.652  11.043 -0.2199 -0.4572  0.3493
  326MPD2    H7 4905   1.951   2.644  10.945  1.4758  0.0985  0.7081
  327TMC3    C1 4906   1.815   2.465  10.997  0.3228 -0.4893  0.1384
  327TMC3    C2 4907   1.788   2.521  10.879 -0.5965  0.6713  0.3983
  327TMC3    C3 4908   1.848   2.468  10.770  0.4001 -0.0389 -0.0680
  327TMC3    C4 4909   1.889   2.348  11.015  0.4630 -0.1361 -0.4034
  327TMC3    C5 4910   1.947   2.295  10.908 -0.2282  0.1183 -0.2139
  327TMC3    C6 4911   1.932   2.361  10.786 -0.7038 -0.2873 -0.0724
  327TMC3     C 4912   1.856   2.554  11.097  0.0821  0.2772 -0.4104
  327TMC3     O 4913   1.850   2.517  11.216  0.2392 -0.0307 -0.3524
  327TMC3     H 4914   1.736   2.616  10.869  1.1135  1.7719  1.8709
  327TMC3    H1 4915   1.915   2.315  11.114 -0.8470 -0.8595 -0.3000
  327TMC3    H2 4916   1.982   2.322  10.698  0.0684 -2.9015  1.5299
  327TMC3    C7 4917   2.057   2.202  10.922  0.5298  0.0927  0.1739
  327TMC3    C8 4918   1.854   2.547  10.648  0.0352 -0.3351  0.6400
  327TMC3    O1 4919   2.152   2.201  10.849 -0.2839  0.1640  0.0358
  327TMC3    O2 4920   1.791   2.652  10.654 -0.1724 -0.0653  0.0370
  328MPD2     C 4921   4.718   2.840  17.399  0.0803 -0.2709  0.3878
  328MPD2    C1 4922   4.625   2.744  17.432  0.2915  0.0980  0.6436
  328MPD2    C2 4923   4.522   2.714  17.342 -0.1534  0.0321  0.3605
  328MPD2    C3 4924   4.511   2.791  17.222  0.1485  0.0193  0.5767
  328MPD2    C4 4925   4.594   2.898  17.199 -0.2327  0.7800 -0.0999
  328MPD2    C5 4926   4.703   2.918  17.285 -0.4678 -0.2763 -0.4264
  328MPD2     H 4927   4.453   2.634  17.368 -0.1909 -0.2540 -0.6239
  328MPD2    H1 4928   4.588   2.947  17.103  2.2762  0.3080 -0.4962
  328MPD2    H2 4929   0.083   2.852  17.462 -0.4469 -2.4379  1.5256
  328MPD2    H3 4930   0.049   2.996  17.254 -2.6126  1.8005  0.0356
  328MPD2     N 4931   4.431   2.760  17.105 -1.0923  0.4660  0.4506
  328MPD2    H5 4932   4.424   2.830  17.031 -0.8393 -1.2010 -1.1326
  328MPD2    N1 4933   4.640   2.673  17.559 -0.3238 -0.1918 -0.0074
  328MPD2    H7 4934   0.007   2.675  17.605  0.0828 -1.4378 -0.7612
  329TMC3    C1 4935   4.575   2.543   0.046 -0.0342 -0.0339  0.3931
  329TMC3    C2 4936   4.477   2.528   0.138  0.2404 -0.0492  0.3179
  329TMC3    C3 4937   4.509   2.476   0.264  0.1758 -0.3993 -0.0815
  329TMC3    C4 4938   4.703   2.515   0.085 -0.3747  0.4966 -0.2317
  329TMC3    C5 4939   0.016   2.464   0.207  0.6020 -0.3986 -0.1003
  329TMC3    C6 4940   4.643   2.448   0.300 -0.0752  0.7284 -0.2103
  329TMC3     C 4941   4.536   2.612  17.621  0.5461 -0.7476  0.1477
  329TMC3     O 4942   4.416   2.619  17.594 -0.1673 -0.0071  0.4768
  329TMC3     H 4943   4.372   2.538   0.112  0.6410  3.1243 -0.0526
  329TMC3    H1 4944   0.055   2.534   0.010  0.3125  0.5486  0.4680
  329TMC3    H2 4945   4.678   2.424   0.400  3.0280  1.3149 -1.1466
  329TMC3    C7 4946   0.155   2.481   0.248 -0.1614  0.1092 -0.5217
  329TMC3    C8 4947   4.412   2.478   0.368 -0.0049 -0.5898 -0.0708
  329TMC3    O1 4948   0.222   2.556   0.182 -0.1107  0.7258 -0.0725
  329TMC3    O2 4949   4.431   2.400   0.462 -0.0106 -0.0297  0.3863
  330TMC3    C1 4950   3.198   1.340   9.943 -0.0225 -0.2140 -0.1472
  330TMC3    C2 4951   3.174   1.264   9.831 -0.0361  0.2781  0.4579
  330TMC3    C3 4952   3.218   1.130   9.835  0.0644 -0.1640  0.1170
  330TMC3    C4 4953   3.261   1.292  10.054  0.2341 -0.6549  0.1907
  330TMC3    C5 4954   3.316   1.169  10.046 -0.2777  0.1768 -1.2008
  330TMC3    C6 4955   3.299   1.090   9.939  0.4201 -0.2098  0.5207
  330TMC3     C 4956   3.140   1.471   9.965  0.0402 -0.1670  0.5132
  330TMC3     O 4957   3.167   1.532  10.063  0.1295  0.0355  0.6757
  330TMC3     H 4958   3.128   1.305   9.741 -1.7445 -1.6289  0.4731
  330TMC3    H1 4959   3.288   1.349  10.142 -0.9300 -0.6599  0.5481
  330TMC3    H2 4960   3.354   0.997   9.931 -0.1416 -0.2827 -2.4853
  330TMC3    C7 4961   3.377   1.122  10.166  0.3003 -0.5182  0.3047
  330TMC3    C8 4962   3.212   1.040   9.718  0.1994 -0.0432 -0.0354
  330TMC3    O1 4963   3.419   1.205  10.248 -0.1182 -0.0589  0.4083
  330TMC3    O2 4964   3.285   0.944   9.711  0.0982  0.0582 -0.4247
  331MPD2     C 4965   0.292   0.754  13.050 -0.5740 -0.0826 -0.2052
  331MPD2    C1 4966   0.395   0.790  12.965  0.0804 -1.0146 -0.7030
  331MPD2    C2 4967   0.461   0.702  12.879 -0.0030 -0.6125  0.3942
  331MPD2    C3 4968   0.428   0.567  12.881 -0.6556  0.0137  0.4849
  331MPD2    C4 4969   0.319   0.527  12.962  0.3087 -0.4026 -0.0656
  331MPD2    C5 4970   0.258   0.621  13.047  0.0243 -0.7539 -0.3553
  331MPD2     H 4971   0.529   0.739  12.803  0.9132 -2.4626  0.3033
  331MPD2    H1 4972   0.280   0.426  12.970 -0.9024  0.0578 -0.2591
  331MPD2    H2 4973   0.252   0.818  13.129  0.5058 -0.1240  0.3719
  331MPD2    H3 4974   0.186   0.584  13.119  0.3848  2.5888  1.7328
  331MPD2     N 4975   0.497   0.481  12.801  0.0546 -0.0969 -0.0372
  331MPD2    H5 4976   0.567   0.530  12.746 -0.0467 -0.7622 -0.7537
  331MPD2    N1 4977   0.433   0.931  12.973 -0.4979  0.7799 -0.3768
  331MPD2    H7 4978   0.359   0.980  13.023  1.0895  0.2350  2.5627
  332TMC3    C1 4979   0.572   0.285  12.715  0.0319 -0.0418 -0.2216
  332TMC3    C2 4980   0.570   0.343  12.590 -0.3012 -0.2119  1.0511
  332TMC3    C3 4981   0.682   0.318  12.513  0.0570  0.1202 -0.2166
  332TMC3    C4 4982   0.681   0.208  12.758 -0.0917 -0.6495  0.0583
  332TMC3    C5 4983   0.781   0.179  12.675 -0.1308 -0.1499 -1.0379
  332TMC3    C6 4984   0.784   0.230  12.544 -0.1974  0.4790 -0.0937
  332TMC3     C 4985   0.493   0.350  12.812 -0.6386 -0.5091  0.3895
  332TMC3     O 4986   0.442   0.283  12.900 -0.3912  0.2841  0.0358
  332TMC3     H 4987   0.482   0.396  12.554 -0.6902  0.0982  2.4795
  332TMC3    H1 4988   0.685   0.170  12.860  1.7139 -0.8765 -0.1056
  332TMC3    H2 4989   0.866   0.209  12.476 -0.4939  0.6549 -0.5046
  332TMC3    C7 4990   0.869   0.076  12.728 -0.1128 -0.4470 -0.2453
  332TMC3    C8 4991   0.710   0.423  12.420  0.5844  0.0828  0.1033
  332TMC3    O1 4992   0.824   4.722  12.817  0.1647 -0.1141 -0.5308
  332TMC3    O2 4993   0.821   0.427  12.381 -0.6948 -0.3037 -0.3543
  333MPD2     C 4994   1.395   0.752  11.872  0.2676 -0.2638 -1.1149
  333MPD2    C1 4995   1.354   0.714  11.751 -0.2876  1.3076 -0.8381
  333MPD2    C2 4996   1.230   0.646  11.740  0.3815  0.1369  0.2447
  333MPD2    C3 4997   1.165   0.608  11.851  0.6919  0.4763  0.1759
  333MPD2    C4 4998   1.208   0.649  11.982  0.3131  0.1567 -0.4840
  333MPD2    C5 4999   1.326   0.727  11.982  0.3333  0.1801  0.8414
  333MPD2     H 5000   1.208   0.597  11.646  0.1826 -0.0682  0.3990
  333MPD2    H1 5001   1.170   0.610  12.075 -1.5433 -1.0716 -1.7606
  333MPD2    H2 5002   1.489   0.805  11.881 -0.4564  0.7368  0.6106
  333MPD2    H3 5003   1.362   0.759  12.079 -0.0859  1.0294  0.7213
  333MPD2     N 5004   1.055   0.521  11.841  0.2318  0.9374 -0.8954
  333MPD2    H5 5005   1.016   0.506  11.748 -0.9488 -0.1049 -0.2227
  333MPD2    N1 5006   1.433   0.738  11.636  0.4599 -0.0732  0.0603
  333MPD2    H7 5007   1.524   0.782  11.648  1.4485 -1.7113 -1.3994
  334TMC3    C1 5008   1.486   0.755  11.406 -0.5293  0.8380 -0.2128
  334TMC3    C2 5009   1.618   0.724  11.443 -0.6074  0.7049  0.0970
  334TMC3    C3 5010   1.703   0.742  11.340  0.3767 -0.6225  0.4715
  334TMC3    C4 5011   1.451   0.817  11.295 -1.0419  0.2087  0.0237
  334TMC3    C5 5012   1.547   0.837  11.195  0.3137  0.1884  0.3276
  334TMC3    C6 5013   1.678   0.792  11.216 -0.1113  0.2980 -0.1646
  334TMC3     C 5014   1.385   0.729  11.507  0.0566  0.4185 -0.2653
  334TMC3     O 5015   1.268   0.720  11.471 -0.8157 -0.5422 -0.5347
  334TMC3     H 5016   1.648   0.675  11.535  1.2759 -0.2239 -1.0208
  334TMC3    H1 5017   1.346   0.844  11.288 -1.0947 -0.3192 -1.1350
  334TMC3    H2 5018   1.747   0.781  11.134 -1.6158  0.3029 -1.4209
  334TMC3    C7 5019   1.526   0.923  11.086 -1.1038 -0.1478  0.3713
  334TMC3    C8 5020   1.829   0.673  11.368 -0.0895  0.1200  0.2426
  334TMC3    O1 5021   1.625   0.955  11.025 -0.0694 -0.0362 -0.0127
  334TMC3    O2 5022   1.837   0.575  11.440 -1.2890 -0.0061  0.2116
  335TMC3    C1 5023   0.249   2.358  17.159  0.3121 -0.3926  0.6747
  335TMC3    C2 5024   0.234   2.313  17.029 -0.6778  0.5675  0.6450
  335TMC3    C3 5025   0.337   2.330  16.942  0.9365  0.0123  0.3185
  335TMC3    C4 5026   0.367   2.420  17.190 -0.2227  0.3724 -0.0516
  335TMC3    C5 5027   0.472   2.437  17.097  0.2475 -0.3595  0.9058
  335TMC3    C6 5028   0.459   2.386  16.971 -0.0291 -0.1178 -0.0919
  335TMC3     C 5029   0.140   2.320  17.250  0.1001 -0.3353 -0.2843
  335TMC3     O 5030   0.043   2.270  17.203 -0.0369 -0.2651 -0.4153
  335TMC3     H 5031   0.142   2.257  17.013  1.5289 -2.8212 -0.0429
  335TMC3    H1 5032   0.374   2.459  17.291 -1.7222 -0.3663  0.3350
  335TMC3    H2 5033   0.535   2.375  16.895 -0.2740 -1.1752 -0.1753
  335TMC3    C7 5034   0.612   2.419  17.143 -0.6674 -0.2761  0.4069
  335TMC3    C8 5035   0.332   2.246  16.827  0.1187  0.5345 -0.4975
  335TMC3    O1 5036   0.691   2.434  17.051  0.2485 -0.8023 -0.4044
  335TMC3    O2 5037   0.415   2.267  16.740  0.2490 -0.2617 -0.0957
  336MPD2     C 5038   0.459   0.086  16.359  0.3152  1.0227 -0.1105
  336MPD2    C1 5039   0.432   0.051  16.229  0.5575  0.2587 -0.1569
  336MPD2    C2 5040   0.440   4.639  16.189 -1.3633  0.4235  0.1536
  336MPD2    C3 5041   0.474   4.545  16.282 -0.6184 -0.1875 -0.1379
  336MPD2    C4 5042   0.505   4.583  16.413  0.3999  0.2831  0.0368
  336MPD2    C5 5043   0.491   4.720  16.455  0.2940  0.0076 -0.2931
  336MPD2     H 5044   0.426   4.619  16.083 -1.8125  0.0285  0.2848
  336MPD2    H1 5045   0.517   4.506  16.489 -2.0643  0.8801  1.0259
  336MPD2    H2 5046   0.463   0.190  16.391 -1.4289  0.9986  0.1648
  336MPD2    H3 5047   0.507   0.040  16.554 -0.0187 -0.0357 -0.2244
  336MPD2     N 5048   0.465   4.408  16.251  0.4630  0.5280  0.2573
  336MPD2    H5 5049   0.464   4.351  16.335 -0.3853 -0.1022 -0.1823
  336MPD2    N1 5050   0.379   0.141  16.136 -0.2497  0.0097 -0.0586
  336MPD2    H7 5051   0.384   0.109  16.039  0.2696 -0.8040  0.2306
  337TMC3    C1 5052   0.243   0.312  16.053 -0.0709  0.1072  0.7422
  337TMC3    C2 5053   0.171   0.214  15.986  0.3179  0.0954  0.0527
  337TMC3    C3 5054   0.074   0.268  15.904  0.3300  0.0791  0.0164
  337TMC3    C4 5055   0.220   0.446  16.036  0.2395  0.0254 -0.2608
  337TMC3    C5 5056   0.122   0.484  15.957  0.1570 -1.0057  1.0513
  337TMC3    C6 5057   0.042   0.400  15.891 -0.1102  0.0983  0.7654
  337TMC3     C 5058   0.335   0.268  16.158 -0.4595 -0.6005 -0.3522
  337TMC3     O 5059   0.322   0.334  16.258 -0.7895  0.2783 -0.3755
  337TMC3     H 5060   0.185   0.106  15.988 -1.3604 -0.1090  0.7569
  337TMC3    H1 5061   0.267   0.513  16.106  1.0633  0.3660 -1.1356
  337TMC3    H2 5062   4.683   0.444  15.837  1.1523 -0.1091 -1.3105
  337TMC3    C7 5063   0.102   0.628  15.950 -0.7849  0.1716 -0.2446
  337TMC3    C8 5064   4.703   0.173  15.872 -0.2818  0.6665  0.5717
  337TMC3    O1 5065   4.719   0.669  15.909  0.0999 -0.1374 -0.0689
  337TMC3    O2 5066   4.693   0.069  15.938 -0.3134 -0.0050 -0.1125
  338MPD2     C 5067   0.465   4.401   1.122 -0.0447 -0.1676  0.3883
  338MPD2    C1 5068   0.439   4.431   0.988 -0.6592  0.2892 -0.6497
  338MPD2    C2 5069   0.308   4.420   0.938  0.6907  0.6900 -0.2446
  338MPD2    C3 5070   0.203   4.395   1.025 -0.0684  0.4790  0.6965
  338MPD2    C4 5071   0.231   4.382   1.160  0.1657  0.4388 -0.4476
  338MPD2    C5 5072   0.360   4.388   1.208  0.4100 -0.0329 -0.3054
  338MPD2     H 5073   0.288   4.430   0.831 -0.2271 -2.3797 -0.3432
  338MPD2    H1 5074   0.160   4.362   1.239  0.8080  1.0466  0.2903
  338MPD2    H2 5075   0.565   4.387   1.162  0.4201  0.8999 -0.3997
  338MPD2    H3 5076   0.374   4.371   1.314  1.7474  3.9987  0.1825
  338MPD2     N 5077   0.068   4.398   0.983 -0.1023 -0.3191  0.3712
  338MPD2    H5 5078   0.050   4.437   0.891  0.8577 -1.1372 -0.1726
  338MPD2    N1 5079   0.549   4.464   0.898 -0.3514  0.5311  0.3511
  338MPD2    H7 5080   0.531   4.472   0.799  0.6299 -2.5882 -0.0790
  339TMC3    C1 5081   4.577   4.341   0.981  0.5293 -0.0278  0.2297
  339TMC3    C2 5082   4.518   4.220   0.945 -0.2864 -0.2272 -0.1684
  339TMC3    C3 5083   4.468   4.194   0.821 -0.2122  0.2362 -0.2684
  339TMC3    C4 5084   4.572   4.443   0.897  0.2829 -0.4884 -0.2647
  339TMC3    C5 5085   4.514   4.419   0.779 -0.3592  0.4345 -0.4955
  339TMC3    C6 5086   4.457   4.303   0.740 -0.3978 -0.5086 -0.0723
  339TMC3     C 5087   4.696   4.331   1.055  0.1556 -0.5897  0.0728
  339TMC3     O 5088   4.701   4.252   1.149  0.0027 -0.4771  0.5392
  339TMC3     H 5089   4.540   4.137   1.010  1.1537  1.9330  2.0980
  339TMC3    H1 5090   4.601   4.546   0.914 -1.3846  0.1184 -1.0882
  339TMC3    H2 5091   4.406   4.291   0.645 -0.3399 -1.3055 -0.0066
  339TMC3    C7 5092   4.596   4.490   0.679 -0.6415 -0.8583 -0.3545
  339TMC3    C8 5093   4.454   4.063   0.761 -0.3418  0.4590 -0.3580
  339TMC3    O1 5094   4.695   4.552   0.726 -0.2976 -0.1225 -0.6094
  339TMC3    O2 5095   4.457   4.061   0.641  0.4550  0.2568  0.5331
  340MPD2     C 5096   0.736   1.989   9.687  0.6589 -0.6239 -0.0831
  340MPD2    C1 5097   0.771   1.863   9.740  0.3794 -0.2385 -0.1990
  340MPD2    C2 5098   0.793   1.856   9.877 -0.9375 -0.1147 -0.1195
  340MPD2    C3 5099   0.804   1.968   9.963  0.7500  0.7071  0.1619
  340MPD2    C4 5100   0.774   2.086   9.904 -0.2769 -0.2095 -0.3766
  340MPD2    C5 5101   0.740   2.097   9.773 -0.1264 -0.4558  0.1730
  340MPD2     H 5102   0.809   1.761   9.927 -1.0574  0.1725  0.4627
  340MPD2    H1 5103   0.772   2.176   9.965  0.2677 -2.0464  2.3267
  340MPD2    H2 5104   0.715   2.004   9.582 -1.0546 -3.9486 -0.2271
  340MPD2    H3 5105   0.708   2.194   9.737 -1.9488 -1.2795 -0.4512
  340MPD2     N 5106   0.850   1.965  10.099  0.2633  0.3071  0.4933
  340MPD2    H5 5107   0.856   2.057  10.141  2.4318 -0.0459  0.9240
  340MPD2    N1 5108   0.779   1.752   9.649 -0.1385 -0.1850  0.0234
  340MPD2    H7 5109   0.788   1.785   9.554 -1.0185 -1.3035 -0.4467
  341TMC3    C1 5110   0.866   1.543   9.578 -0.1704  0.4969 -0.3851
  341TMC3    C2 5111   0.883   1.406   9.616 -0.1455 -0.7087 -0.2030
  341TMC3    C3 5112   1.012   1.353   9.610 -0.2969 -0.1829  0.6231
  341TMC3    C4 5113   0.972   1.602   9.513 -0.5126 -0.1343 -0.0554
  341TMC3    C5 5114   1.092   1.540   9.506  0.7185  0.0125 -0.3217
  341TMC3    C6 5115   1.122   1.409   9.553  0.5219 -0.6412  0.6805
  341TMC3     C 5116   0.813   1.625   9.680  0.6731  1.5706 -0.9004
  341TMC3     O 5117   0.819   1.579   9.795 -0.2145  0.0882  0.1541
  341TMC3     H 5118   0.801   1.361   9.671  0.1644 -1.1099 -0.0692
  341TMC3    H1 5119   0.973   1.710   9.504  0.9304 -0.3441 -2.4343
  341TMC3    H2 5120   1.218   1.359   9.546  1.7219  2.2459 -3.6033
  341TMC3    C7 5121   1.208   1.611   9.454 -0.5408  0.0716  0.3946
  341TMC3    C8 5122   1.032   1.221   9.679  0.2101  0.3984  0.3287
  341TMC3    O1 5123   1.314   1.558   9.468  0.4550 -0.2752  0.3772
  341TMC3    O2 5124   0.937   1.158   9.700  0.2921  0.0321  0.1943
  342MPD2     C 5125   3.276   0.617  17.685 -0.0481  0.0031 -0.1720
  342MPD2    C1 5126   3.326   0.616  17.557  0.1278 -0.1315  0.1486
  342MPD2    C2 5127   3.300   0.721  17.474  0.8326 -0.4942  0.1413
  342MPD2    C3 5128   3.245   0.838  17.522  0.1086 -0.3479  0.1107
  342MPD2    C4 5129   3.202   0.843  17.655 -0.6214  0.4689  0.2394
  342MPD2    C5 5130   3.215   0.726   0.044 -0.1919  0.4068 -0.5169
  342MPD2     H 5131   3.329   0.722  17.369  0.1737  1.6565 -0.0259
  342MPD2    H1 5132   3.150   0.932  17.690 -2.0731 -0.4009  0.3158
  342MPD2    H2 5133   3.291   0.538   0.065  1.2560  1.1686  0.8158
  342MPD2    H3 5134   3.185   0.735   0.147  0.0071  0.4338 -0.4611
  342MPD2     N 5135   3.243   0.956  17.446 -0.3838  0.0843 -0.0992
  342MPD2    H5 5136   3.208   1.046  17.477 -1.0289 -0.4607  0.7547
  342MPD2    N1 5137   3.407   0.511  17.499  0.1177 -0.1211 -0.1092
  342MPD2    H7 5138   3.424   0.515  17.399  1.8071 -0.0320  0.1847
  343TMC3    C1 5139   3.492   0.287  17.504 -0.3046 -0.0466  0.1164
  343TMC3    C2 5140   3.602   0.315  17.433  0.5194 -0.0724 -0.1360
  343TMC3    C3 5141   3.667   0.209  17.381  0.3477 -1.1173  0.1455
  343TMC3    C4 5142   3.450   0.157  17.534  0.2898  0.8814  0.2144
  343TMC3    C5 5143   3.517   0.054  17.478 -0.2738 -0.3786  0.3495
  343TMC3    C6 5144   3.627   0.076  17.404 -0.0793 -0.6315  0.1931
  343TMC3     C 5145   3.442   0.403  17.577  0.3584 -0.4104  0.0504
  343TMC3     O 5146   3.436   0.388   0.003  0.5395  0.3393  0.6600
  343TMC3     H 5147   3.647   0.413  17.424  2.0672 -0.8506 -0.8880
  343TMC3    H1 5148   3.351   0.143  17.577 -0.5258 -0.2490 -2.0308
  343TMC3    H2 5149   3.695   4.716  17.391 -0.2096 -0.8656  0.9814
  343TMC3    C7 5150   3.492   4.642  17.498 -0.1961  0.7219 -0.1742
  343TMC3    C8 5151   3.800   0.234  17.332  1.0436  0.0232 -0.0727
  343TMC3    O1 5152   3.521   4.565  17.407  0.4959 -0.6282 -0.0498
  343TMC3    O2 5153   3.858   0.328  17.382  0.1798  0.6098  0.0197
  344MPD2     C 5154   0.160   4.220  10.612  0.5326 -0.1840 -0.3317
  344MPD2    C1 5155   0.058   4.254  10.527  0.8967  0.2185 -0.0006
  344MPD2    C2 5156   0.092   4.326  10.415 -0.0880  0.0323  0.1717
  344MPD2    C3 5157   0.215   4.377  10.402  0.0560 -0.8619  0.1785
  344MPD2    C4 5158   0.317   4.338  10.488  0.7370  0.6134 -0.7251
  344MPD2    C5 5159   0.287   4.257  10.589  0.7476  0.4073  0.5270
  344MPD2     H 5160   0.015   4.353  10.343 -0.1196 -0.5562 -0.0182
  344MPD2    H1 5161   0.418   4.377  10.478  0.9174 -0.1570 -1.8825
  344MPD2    H2 5162   0.143   4.150  10.693  1.3436  0.7757  0.6637
  344MPD2    H3 5163   0.358   4.226  10.665 -0.7129 -0.3073  1.6002
  344MPD2     N 5164   0.258   4.461  10.291  0.6681  0.8812 -0.2374
  344MPD2    H5 5165   0.357   4.464  10.270  0.7235 -2.7343 -0.5195
  344MPD2    N1 5166   4.648   4.200  10.544 -0.1735  0.4419  0.0955
  344MPD2    H7 5167   4.579   4.215  10.471  0.0454  2.5313  0.3293
  345TMC3    C1 5168   0.249   4.627  10.123 -0.1253  1.2727  0.5437
  345TMC3    C2 5169   0.353   4.692  10.176  0.2957 -1.2925 -0.4542
  345TMC3    C3 5170   0.404   0.076  10.104  0.5782  0.3150  0.3103
  345TMC3    C4 5171   0.185   4.673  10.016 -0.4141 -0.1491 -0.0030
  345TMC3    C5 5172   0.244   0.058   9.945 -0.1713  0.3539 -0.4410
  345TMC3    C6 5173   0.357   0.127   9.985  0.2412 -0.2026  0.2737
  345TMC3     C 5174   0.181   4.523  10.200  0.5074  0.3514 -0.4860
  345TMC3     O 5175   0.060   4.531  10.191 -0.0976  0.4280 -0.2225
  345TMC3     H 5176   0.396   4.666  10.272  2.3933  1.0815 -0.7641
  345TMC3    H1 5177   0.095   4.626   9.980 -1.5886  1.9427  0.2265
  345TMC3    H2 5178   0.392   0.217   9.935  0.5054  0.3698  1.4988
  345TMC3    C7 5179   0.174   0.110   9.834  0.8242  0.4679 -0.3550
  345TMC3    C8 5180   0.508   0.154  10.169 -0.7461 -0.9020  0.4469
  345TMC3    O1 5181   0.238   0.181   9.762  0.4206 -0.2159  0.1225
  345TMC3    O2 5182   0.516   0.152  10.292 -0.0915 -0.2381 -0.2782
  346MPD2     C 5183   0.421   1.923  14.449  0.1511  0.2491 -0.1302
  346MPD2    C1 5184   0.411   1.983  14.319 -0.2243 -0.3808 -0.2300
  346MPD2    C2 5185   0.446   2.116  14.306 -0.1224  0.4683  0.5027
  346MPD2    C3 5186   0.475   2.190  14.419  0.2167  0.3154  0.5307
  346MPD2    C4 5187   0.471   2.132  14.546 -0.8694  0.2543  0.5652
  346MPD2    C5 5188   0.448   1.998  14.558  0.2577  0.1173  0.1137
  346MPD2     H 5189   0.462   2.154  14.206  0.9466  0.0465  0.5101
  346MPD2    H1 5190   0.473   2.186  14.640 -1.4477  1.9264 -0.3930
  346MPD2    H2 5191   0.400   1.820  14.474  1.0392  0.0822 -0.0704
  346MPD2    H3 5192   0.437   1.958  14.658  1.1148 -0.2139  0.0759
  346MPD2     N 5193   0.510   2.319  14.402 -0.6987  0.6860  0.3761
  346MPD2    H5 5194   0.528   2.345  14.306  1.6139 -0.7317  0.4135
  346MPD2    N1 5195   0.379   1.901  14.208  0.0240  0.3982 -0.2544
  346MPD2    H7 5196   0.395   1.948  14.120  1.5630 -1.2685 -0.8702
  347TMC3    C1 5197   0.600   2.529  14.436 -0.3009  0.3510 -0.0474
  347TMC3    C2 5198   0.565   2.551  14.309 -0.7787 -0.2495  0.0247
  347TMC3    C3 5199   0.658   2.573  14.211  0.0752 -0.4850 -0.3818
  347TMC3    C4 5200   0.731   2.542  14.472 -0.2565  0.6255 -0.0223
  347TMC3    C5 5201   0.823   2.577  14.379 -0.4182 -0.1103  0.2083
  347TMC3    C6 5202   0.786   2.589  14.245 -0.4153  0.0407  0.3713
  347TMC3     C 5203   0.542   2.413  14.498  0.2272  0.1790 -0.3533
  347TMC3     O 5204   0.547   2.401  14.621 -0.0469 -0.1484  1.0007
  347TMC3     H 5205   0.461   2.544  14.280 -1.3078 -1.0142  2.1776
  347TMC3    H1 5206   0.766   2.524  14.573 -2.5380 -1.9135  0.3295
  347TMC3    H2 5207   0.857   2.625  14.172 -0.1173 -1.0792  0.1036
  347TMC3    C7 5208   0.961   2.554  14.405 -0.1895  0.8086  0.2004
  347TMC3    C8 5209   0.631   2.489  14.102  0.0900  0.1366  0.1445
  347TMC3    O1 5210   1.024   2.504  14.315 -0.3373  0.8267  0.0159
  347TMC3    O2 5211   0.550   2.397  14.113 -0.5527  0.3303 -0.0454
  348MPD2     C 5212   3.335   1.364  12.345 -0.2440 -0.9576 -0.6731
  348MPD2    C1 5213   3.412   1.318  12.243 -0.3408 -0.5282 -0.7436
  348MPD2    C2 5214   3.411   1.388  12.128 -0.0231 -0.0380  0.3147
  348MPD2    C3 5215   3.335   1.506  12.114  0.5362  0.1853 -0.2259
  348MPD2    C4 5216   3.263   1.548  12.224  0.2314 -0.2161  0.3122
  348MPD2    C5 5217   3.259   1.479  12.339 -1.0903 -0.2081 -0.4551
  348MPD2     H 5218   3.470   1.351  12.045 -0.4764 -3.1928  1.3685
  348MPD2    H1 5219   3.201   1.637  12.220 -0.3398 -0.6054  0.5420
  348MPD2    H2 5220   3.319   1.305  12.435  1.5164 -0.2973  0.0622
  348MPD2    H3 5221   3.207   1.525  12.423  2.0775  0.4985  1.1018
  348MPD2     N 5222   3.329   1.566  11.990  0.1514  0.2011  0.2555
  348MPD2    H5 5223   3.369   1.514  11.913  1.0724  1.6790 -0.2824
  348MPD2    N1 5224   3.489   1.197  12.249  0.3059 -0.4984  0.0445
  348MPD2    H7 5225   3.551   1.181  12.170  2.6516  0.8758  1.6301
  349TMC3    C1 5226   3.599   1.030  12.356  0.6677  0.5251  0.6400
  349TMC3    C2 5227   3.617   0.898  12.322  0.0953 -0.1744 -0.8375
  349TMC3    C3 5228   3.738   0.867  12.269  0.2686 -0.8954 -0.1526
  349TMC3    C4 5229   3.708   1.112  12.351 -0.3837  0.2011 -0.5054
  349TMC3    C5 5230   3.822   1.077  12.286 -0.5492 -0.0261 -0.2558
  349TMC3    C6 5231   3.840   0.952  12.236  0.0240  0.3990 -0.5978
  349TMC3     C 5232   3.470   1.097  12.343  0.4590 -0.2555  0.1348
  349TMC3     O 5233   3.381   1.097  12.425  0.0941 -0.0647  0.3006
  349TMC3     H 5234   3.535   0.827  12.315 -0.9517  0.7936  1.5634
  349TMC3    H1 5235   3.685   1.214  12.379 -1.8177  0.3782 -2.3348
  349TMC3    H2 5236   3.929   0.921  12.184 -1.2591  0.7405 -3.0056
  349TMC3    C7 5237   3.847   1.170  12.173 -0.0654  0.5265  0.0407
  349TMC3    C8 5238   3.778   0.730  12.241  1.1759 -0.0482 -0.3893
  349TMC3    O1 5239   3.890   1.123  12.073 -0.3616 -0.5626 -0.1272
  349TMC3    O2 5240   3.841   0.725  12.134 -0.3651 -0.5272  0.1648
  350MPD2     C 5241   2.326   4.153   9.964  0.1543  0.7741 -0.3357
  350MPD2    C1 5242   2.427   4.073   9.913 -0.1828 -0.4118 -1.0376
  350MPD2    C2 5243   2.554   4.125   9.902 -0.7279 -0.1197  0.4498
  350MPD2    C3 5244   2.578   4.253   9.946  0.1100 -0.3217  0.2902
  350MPD2    C4 5245   2.473   4.332   9.988  0.5498 -0.6061 -0.3954
  350MPD2    C5 5246   2.344   4.285   9.988  0.3488  0.5674 -0.0116
  350MPD2     H 5247   2.630   4.060   9.862  0.6539  1.4710  0.4582
  350MPD2    H1 5248   2.484   4.435  10.018  4.1764 -1.5263  1.4162
  350MPD2    H2 5249   2.222   4.122   9.963  0.5612 -0.6486  1.8012
  350MPD2    H3 5250   2.265   4.356  10.013 -0.0893 -0.7153  2.2411
  350MPD2     N 5251   2.713   4.296   9.925  0.0535 -0.0170  0.4825
  350MPD2    H5 5252   2.766   4.228   9.872 -1.2174  0.0696 -0.9179
  350MPD2    N1 5253   2.411   3.944   9.853 -0.0912 -0.3442 -0.1082
  350MPD2    H7 5254   2.498   3.897   9.828 -0.3378 -0.6289 -0.4201
  351TMC3    C1 5255   2.342   3.739   9.810 -0.0437  0.6480  0.3770
  351TMC3    C2 5256   2.471   3.700   9.837 -0.0911 -0.1730  0.7752
  351TMC3    C3 5257   2.511   3.571   9.811 -0.4038  0.4803 -0.2598
  351TMC3    C4 5258   2.243   3.642   9.798  0.5733 -1.0162  0.4256
  351TMC3    C5 5259   2.284   3.520   9.764  0.3959 -0.1425 -0.1048
  351TMC3    C6 5260   2.414   3.482   9.779  0.3659  0.7479  0.1774
  351TMC3     C 5261   2.295   3.878   9.828  0.2691  0.1430 -0.3618
  351TMC3     O 5262   2.180   3.912   9.824 -0.3416 -0.2977  0.4997
  351TMC3     H 5263   2.552   3.760   9.876  1.1431 -0.0039 -2.0159
  351TMC3    H1 5264   2.142   3.676   9.775  0.3118 -1.4019  1.0288
  351TMC3    H2 5265   2.454   3.386   9.749  2.1101  1.2760  0.8427
  351TMC3    C7 5266   2.181   3.430   9.711 -0.1636  0.0618 -0.2707
  351TMC3    C8 5267   2.646   3.528   9.800 -0.2031  0.3440 -0.1445
  351TMC3    O1 5268   2.065   3.452   9.740  0.2473 -0.2815 -0.3203
  351TMC3    O2 5269   2.671   3.411   9.822  0.4649  0.3261  0.7514
  352MPD2     C 5270   0.994   1.559   0.677 -0.3843  0.1478  0.3354
  352MPD2    C1 5271   0.936   1.522   0.795  0.8729 -0.4888  0.5728
  352MPD2    C2 5272   0.986   1.422   0.875 -0.6868  0.3516  0.4659
  352MPD2    C3 5273   1.115   1.369   0.834  0.1321 -0.2796 -0.5884
  352MPD2    C4 5274   1.172   1.409   0.722  0.3750 -0.4431  0.4162
  352MPD2    C5 5275   1.116   1.508   0.639 -0.3685  0.0515  0.5082
  352MPD2     H 5276   0.942   1.380   0.965 -1.0870 -0.0356  0.0882
  352MPD2    H1 5277   1.263   1.361   0.688  0.9256  0.5776  0.4404
  352MPD2    H2 5278   0.959   1.641   0.614  0.6839 -0.2025 -0.6988
  352MPD2    H3 5279   1.165   1.527   0.545  0.8129 -2.5603  0.5882
  352MPD2     N 5280   1.183   1.264   0.896  0.3225  0.0990  0.1471
  352MPD2    H5 5281   1.276   1.247   0.861  0.3323  2.4013 -0.9140
  352MPD2    N1 5282   0.804   1.577   0.812 -0.2956  0.1501  0.7873
  352MPD2    H7 5283   0.772   1.634   0.734  3.0211  0.6853 -0.1769
  353TMC3    C1 5284   1.233   1.098   1.059 -0.4235  0.4608 -0.6954
  353TMC3    C2 5285   1.195   1.032   1.171  0.0994  0.6131  0.0267
  353TMC3    C3 5286   1.264   0.917   1.199 -0.2190  0.2759 -0.8063
  353TMC3    C4 5287   1.329   1.050   0.975  0.1174 -0.3112  0.8427
  353TMC3    C5 5288   1.397   0.939   1.015  0.5391  0.7571 -0.0710
  353TMC3    C6 5289   1.382   0.878   1.132  0.3787 -0.5971  0.2413
  353TMC3     C 5290   1.140   1.197   1.009  0.2340  0.2185 -1.1366
  353TMC3     O 5291   1.030   1.187   1.066  0.5198 -0.0880 -0.7563
  353TMC3     H 5292   1.109   1.061   1.231 -0.0189 -1.0047  0.6442
  353TMC3    H1 5293   1.345   1.090   0.876 -0.3381 -3.7750 -0.6416
  353TMC3    H2 5294   1.452   0.800   1.161  2.2188  0.9272 -0.1754
  353TMC3    C7 5295   1.429   0.845   0.906 -0.3171 -0.4203 -0.3798
  353TMC3    C8 5296   1.196   0.824   1.290  0.2054 -0.8537  0.4647
  353TMC3    O1 5297   1.401   0.728   0.929  0.0567 -0.4428  0.2965
  353TMC3    O2 5298   1.094   0.857   1.349  0.0023 -0.1362  0.2552
  354TMC3    C1 5299   2.473   2.418  13.175 -0.1444  0.1509 -0.4946
  354TMC3    C2 5300   2.468   2.547  13.150  0.3740  0.9656 -0.6029
  354TMC3    C3 5301   2.461   2.580  13.021  0.0746  0.3381 -0.0387
  354TMC3    C4 5302   2.481   2.314  13.089  0.0301 -0.0378 -0.9064
  354TMC3    C5 5303   2.466   2.350  12.965  0.2087  0.2891  0.2837
  354TMC3    C6 5304   2.460   2.480  12.923  0.3684 -0.4774 -0.8292
  354TMC3     C 5305   2.449   2.383  13.315 -0.8375  0.4105 -0.2983
  354TMC3     O 5306   2.391   2.461  13.396 -0.1730  0.0052  0.0816
  354TMC3     H 5307   2.476   2.631  13.218  1.6027 -1.0883  1.8266
  354TMC3    H1 5308   2.453   2.214  13.120  1.2524 -0.5860 -1.5949
  354TMC3    H2 5309   2.438   2.516  12.823 -0.6338  0.8369 -0.1400
  354TMC3    C7 5310   2.517   2.260  12.867 -0.3393  0.7947  0.3572
  354TMC3    C8 5311   2.459   2.720  12.984 -0.6774  0.4465 -0.3339
  354TMC3    O1 5312   2.501   2.141  12.884 -0.1491  0.2628  0.0641
  354TMC3    O2 5313   2.496   2.744  12.872  0.1341 -0.4786  0.0420
  355MPD2     C 5314   2.362   3.562  11.615 -0.0891 -0.1308 -0.1527
  355MPD2    C1 5315   2.405   3.632  11.504  0.0606 -1.0094 -0.1464
  355MPD2    C2 5316   2.543   3.643  11.484 -0.8017  0.1403 -0.0706
  355MPD2    C3 5317   2.629   3.586  11.574 -0.6979 -0.0695  0.1764
  355MPD2    C4 5318   2.578   3.507  11.673  0.2830  0.1663 -0.3090
  355MPD2    C5 5319   2.446   3.488  11.695  0.2862 -0.0924 -0.2397
  355MPD2     H 5320   2.582   3.695  11.397  0.6245 -1.2279 -0.2492
  355MPD2    H1 5321   2.646   3.464  11.745  1.7559 -0.2508 -1.9607
  355MPD2    H2 5322   2.255   3.560  11.637  0.1468  1.0023  1.0873
  355MPD2    H3 5323   2.399   3.430  11.774  0.1858  0.7134  0.2890
  355MPD2     N 5324   2.765   3.621  11.577  0.5006  0.0231 -0.0114
  355MPD2    H5 5325   2.817   3.581  11.654 -0.4583  1.6110  1.4599
  355MPD2    N1 5326   2.303   3.679  11.418 -0.8392  0.1653  0.2117
  355MPD2    H7 5327   2.207   3.652  11.437 -0.7114 -0.0228  0.5807
  356TMC3    C1 5328   2.966   3.748  11.530  0.4197 -0.1033  0.0618
  356TMC3    C2 5329   3.026   3.831  11.438 -0.2552 -0.3773  0.8315
  356TMC3    C3 5330   3.150   3.889  11.464  0.4805 -0.0081  0.2768
  356TMC3    C4 5331   3.017   3.717  11.655  0.7532 -0.1576 -0.0567
  356TMC3    C5 5332   3.143   3.770  11.674 -0.3563 -0.1107 -0.0663
  356TMC3    C6 5333   3.207   3.853  11.581 -0.0726  0.5421  0.0312
  356TMC3     C 5334   2.838   3.695  11.484 -0.9314 -0.0553 -0.5723
  356TMC3     O 5335   2.807   3.715  11.369  0.4009 -0.3450  0.1623
  356TMC3     H 5336   2.978   3.865  11.347 -0.0464  0.2923  0.9690
  356TMC3    H1 5337   2.966   3.655  11.729 -0.6240  1.6697  0.5282
  356TMC3    H2 5338   3.312   3.876  11.596  0.3696 -1.7969  0.4099
  356TMC3    C7 5339   3.200   3.737  11.802 -1.0003 -0.2103 -0.0450
  356TMC3    C8 5340   3.241   3.902  11.348 -0.6276  0.5837  0.6028
  356TMC3    O1 5341   3.135   3.655  11.870 -0.3521  0.1173 -0.0050
  356TMC3    O2 5342   3.180   3.867  11.248  0.1985  0.5773  0.1790
  357MPD2     C 5343   2.457   3.308   2.066 -0.1064  0.1028  0.4477
  357MPD2    C1 5344   2.415   3.255   1.951  0.0539 -0.1859  0.0045
  357MPD2    C2 5345   2.298   3.303   1.889 -0.1603 -0.8483  0.4502
  357MPD2    C3 5346   2.211   3.389   1.951  0.7372 -0.5796  0.7385
  357MPD2    C4 5347   2.260   3.441   2.070  0.2366 -0.6006 -0.1535
  357MPD2    C5 5348   2.385   3.411   2.117  0.2261  0.1514 -0.4983
  357MPD2     H 5349   2.268   3.268   1.791  2.7097  0.6600 -0.9725
  357MPD2    H1 5350   2.197   3.522   2.107  0.8552  0.7948 -2.1344
  357MPD2    H2 5351   2.546   3.278   2.119 -0.3710 -0.3264  0.6465
  357MPD2    H3 5352   2.420   3.465   2.205 -2.4141  0.8344  0.1325
  357MPD2     N 5353   2.088   3.440   1.902  0.4431 -0.2964 -0.5157
  357MPD2    H5 5354   2.043   3.514   1.955  0.4516 -0.4090 -0.3521
  357MPD2    N1 5355   2.493   3.157   1.896  0.2993 -0.1712  0.1794
  357MPD2    H7 5356   2.574   3.121   1.947  1.1967  0.2485 -0.9374
  358TMC3    C1 5357   2.570   2.999   1.737 -0.3627  0.1719  0.7454
  358TMC3    C2 5358   2.563   2.970   1.599  0.2940 -1.0007 -0.1252
  358TMC3    C3 5359   2.616   2.858   1.557 -0.4795  0.1216 -0.0683
  358TMC3    C4 5360   2.622   2.910   1.823  0.4289 -0.1445 -0.3331
  358TMC3    C5 5361   2.685   2.802   1.773 -1.0190  0.6929 -0.5092
  358TMC3    C6 5362   2.680   2.771   1.643 -0.1379 -0.2012 -1.0217
  358TMC3     C 5363   2.479   3.107   1.770  0.1621 -0.4051  0.2201
  358TMC3     O 5364   2.403   3.139   1.679  0.8050  0.8712 -0.4024
  358TMC3     H 5365   2.550   3.051   1.528  1.2740  0.3058  1.1755
  358TMC3    H1 5366   2.608   2.938   1.926 -0.5759 -2.4787  0.1662
  358TMC3    H2 5367   2.695   2.666   1.617  2.1811 -0.1608  0.2047
  358TMC3    C7 5368   2.771   2.734   1.866  0.6355  0.3470  0.4306
  358TMC3    C8 5369   2.563   2.820   1.432 -0.0866  0.5720  0.3616
  358TMC3    O1 5370   2.776   2.779   1.980 -0.0304  0.3578  0.2625
  358TMC3    O2 5371   2.473   2.898   1.389 -0.1867  0.1985  0.1466
  359MPD2     C 5372   2.733   2.728  11.873 -0.4200  0.7042 -0.0075
  359MPD2    C1 5373   2.788   2.621  11.815  0.0507  0.1978 -0.1304
  359MPD2    C2 5374   2.699   2.551  11.743  0.9237  0.0073 -0.0545
  359MPD2    C3 5375   2.572   2.582  11.706  0.1807 -0.5607 -0.4098
  359MPD2    C4 5376   2.516   2.700  11.756  0.6253  0.1587  0.0588
  359MPD2    C5 5377   2.600   2.765  11.840  0.2788  0.1415  0.1690
  359MPD2     H 5378   2.739   2.458  11.704  0.4914 -0.0196 -0.4430
  359MPD2    H1 5379   2.412   2.732  11.750  1.0279  1.8363  2.3100
  359MPD2    H2 5380   2.795   2.796  11.931 -0.8440  2.0672 -1.1576
  359MPD2    H3 5381   2.558   2.852  11.888  2.7447  0.4788  1.7483
  359MPD2     N 5382   2.490   2.503  11.624  0.5107  0.6510  0.2945
  359MPD2    H5 5383   2.390   2.523  11.627  0.2425 -0.7388  0.5871
  359MPD2    N1 5384   2.923   2.581  11.835  0.1089  0.5582  0.4060
  359MPD2    H7 5385   2.952   2.493  11.793  1.6114  1.0658  0.3519
  360TMC3    C1 5386   3.155   2.587  11.897  0.1584 -0.0512 -0.4514
  360TMC3    C2 5387   3.252   2.668  11.864  0.0221 -0.1255  0.1677
  360TMC3    C3 5388   3.363   2.603  11.810 -0.1690 -0.1681 -0.2506
  360TMC3    C4 5389   3.166   2.451  11.898 -0.7035 -0.0314  0.3434
  360TMC3    C5 5390   3.280   2.389  11.855 -0.0813  0.3487  0.2223
  360TMC3    C6 5391   3.381   2.466  11.803  1.1232 -0.0467  0.1665
  360TMC3     C 5392   3.021   2.653  11.896  0.6018 -0.5505 -0.0523
  360TMC3     O 5393   3.010   2.771  11.933  0.1229  0.3268 -0.6791
  360TMC3     H 5394   3.225   2.766  11.827  2.7488  0.6296  0.2273
  360TMC3    H1 5395   3.088   2.393  11.946 -0.2537  1.6571  3.1280
  360TMC3    H2 5396   3.465   2.419  11.753  2.6804  3.4524 -0.5369
  360TMC3    C7 5397   3.250   2.279  11.770  0.0914  0.0832  0.1429
  360TMC3    C8 5398   3.454   2.691  11.743 -0.2384  0.4852 -0.3656
  360TMC3    O1 5399   3.292   2.276  11.655  0.2909  0.1046  0.2379
  360TMC3    O2 5400   3.402   2.794  11.701 -0.0742 -0.3140 -0.1767
  361MPD2     C 5401   4.109   0.739  16.797  0.1610  0.8170 -0.4673
  361MPD2    C1 5402   4.185   0.832  16.868 -0.0776 -0.2931  0.3796
  361MPD2    C2 5403   4.323   0.806  16.886  0.6194 -0.0535 -0.2113
  361MPD2    C3 5404   4.374   0.687  16.837 -0.0795 -0.1372  0.3954
  361MPD2    C4 5405   4.298   0.595  16.768 -0.1319  0.1615  0.5295
  361MPD2    C5 5406   4.161   0.623  16.753 -0.1162  0.4482  0.3729
  361MPD2     H 5407   4.383   0.879  16.938  1.4400 -1.1834  0.4387
  361MPD2    H1 5408   4.331   0.500  16.728  0.9061  0.8405 -0.2499
  361MPD2    H2 5409   4.005   0.743  16.767 -0.0299  0.4712  0.1454
  361MPD2    H3 5410   4.095   0.555  16.701  3.8494 -1.5405 -2.0334
  361MPD2     N 5411   4.506   0.640  16.861 -0.1461 -0.1149  0.1566
  361MPD2    H5 5412   4.522   0.549  16.819  2.4324  0.6810 -0.5449
  361MPD2    N1 5413   4.139   0.957  16.920  0.8523  0.1205  0.0329
  361MPD2    H7 5414   4.208   1.029  16.937 -2.0318  2.6633  0.9414
  362TMC3    C1 5415   4.001   1.141  16.938  0.4495  0.2006  0.2146
  362TMC3    C2 5416   3.882   1.182  16.986  0.6696 -0.1199 -0.5590
  362TMC3    C3 5417   3.837   1.309  16.968  0.2897  0.1306  0.3478
  362TMC3    C4 5418   4.084   1.228  16.877 -0.0551 -0.3118 -0.2653
  362TMC3    C5 5419   4.044   1.354  16.861 -0.4630  0.5260 -0.3241
  362TMC3    C6 5420   3.912   1.395  16.898 -0.1240 -0.2329  0.3270
  362TMC3     C 5421   4.006   0.998  16.912 -0.8402 -0.5479  0.3803
  362TMC3     O 5422   3.902   0.933  16.921 -0.7516  0.1421 -0.0536
  362TMC3     H 5423   3.817   1.110  17.036 -0.4701  0.5323 -1.0976
  362TMC3    H1 5424   4.185   1.210  16.843  0.2346  0.2116  0.3317
  362TMC3    H2 5425   3.875   1.494  16.875 -0.5081 -0.7913 -1.4863
  362TMC3    C7 5426   4.097   1.434  16.750  0.2407 -0.2197  0.3074
  362TMC3    C8 5427   3.696   1.312  16.959 -0.0208 -0.0305  0.2406
  362TMC3    O1 5428   4.021   1.520  16.707  0.0965 -0.1352  0.5227
  362TMC3    O2 5429   3.637   1.206  16.948 -0.4496  0.0855  0.0763
  363TMC3    C1 5430   3.882   3.455   9.537 -0.5247 -0.6057  0.5473
  363TMC3    C2 5431   3.893   3.326   9.578  0.1995  0.0828  0.3213
  363TMC3    C3 5432   3.780   3.267   9.626  0.0987 -0.0652  0.1309
  363TMC3    C4 5433   3.769   3.525   9.539 -0.6495 -0.1371  0.2876
  363TMC3    C5 5434   3.657   3.466   9.592 -0.0772  0.9775  0.4083
  363TMC3    C6 5435   3.659   3.331   9.624  0.2482 -0.9963 -0.1255
  363TMC3     C 5436   4.001   3.518   9.474 -1.0917  0.7740 -0.4211
  363TMC3     O 5437   3.982   3.617   9.405  0.4377  0.6573  0.1177
  363TMC3     H 5438   3.972   3.260   9.545 -3.1887 -3.7961  0.0716
  363TMC3    H1 5439   3.762   3.624   9.496 -2.2063  0.2973  1.5774
  363TMC3    H2 5440   3.571   3.289   9.673 -0.7376  0.9209 -0.2743
  363TMC3    C7 5441   3.522   3.525   9.567 -0.4323 -0.7732  0.1670
  363TMC3    C8 5442   3.776   3.126   9.654 -0.1134  0.1237 -0.5964
  363TMC3    O1 5443   3.427   3.453   9.579  0.8510 -0.0913 -0.1189
  363TMC3    O2 5444   3.662   3.077   9.653  0.2918 -0.5650  0.6496
  364MPD2     C 5445   2.001   2.599  10.179  0.0271  0.4071 -0.0323
  364MPD2    C1 5446   1.980   2.699  10.270  0.1536 -0.1882 -0.2390
  364MPD2    C2 5447   1.943   2.655  10.392 -0.0016  0.2549 -0.3784
  364MPD2    C3 5448   1.930   2.520  10.412  0.4412  0.0286 -0.2183
  364MPD2    C4 5449   1.962   2.422  10.322  0.3425 -0.4498 -0.0709
  364MPD2    C5 5450   1.995   2.464  10.197 -0.5102 -0.5288 -0.3199
  364MPD2     H 5451   1.913   2.721  10.473 -1.8238 -1.7686  0.5864
  364MPD2    H1 5452   1.959   2.319  10.354 -0.0871 -1.1024 -2.2344
  364MPD2    H2 5453   2.040   2.619  10.080  1.0209  1.5311  0.5929
  364MPD2    H3 5454   2.027   2.395  10.120  0.0222 -0.3455 -0.2691
  364MPD2     N 5455   1.898   2.476  10.539  0.4918  0.4730  0.7923
  364MPD2    H5 5456   1.902   2.376  10.556  1.6218  0.6335  1.4518
  364MPD2    N1 5457   1.998   2.835  10.234  1.1107 -0.8438 -0.3888
  364MPD2    H7 5458   1.998   2.843  10.133 -1.5013 -0.2397 -0.3384
  365TMC3    C1 5459   2.043   3.066  10.253  0.0375 -0.4025  0.3372
  365TMC3    C2 5460   2.136   3.068  10.147 -0.2468  0.2386  0.3323
  365TMC3    C3 5461   2.185   3.190  10.108  1.1687  0.6142  0.5517
  365TMC3    C4 5462   2.011   3.185  10.319  0.1577  0.1193  0.7243
  365TMC3    C5 5463   2.077   3.297  10.288  0.1935 -0.2070 -0.1823
  365TMC3    C6 5464   2.150   3.305  10.174  0.5715 -0.0347  0.5685
  365TMC3     C 5465   2.007   2.945  10.319 -0.0354  0.2677  0.7127
  365TMC3     O 5466   2.016   2.950  10.438 -0.1981 -0.5892 -0.0940
  365TMC3     H 5467   2.176   2.977  10.104  0.1521  0.1199  0.9636
  365TMC3    H1 5468   1.929   3.183  10.390 -1.0515 -2.0833 -0.7368
  365TMC3    H2 5469   2.173   3.394  10.116  1.3294 -0.3450  0.3841
  365TMC3    C7 5470   2.081   3.405  10.385  0.4086  0.0910 -0.2069
  365TMC3    C8 5471   2.279   3.210   9.999 -0.0666 -0.6599  0.1188
  365TMC3    O1 5472   2.111   3.516  10.344  0.0563 -0.0591 -0.0958
  365TMC3    O2 5473   2.357   3.304   9.991 -0.1897 -0.5553  0.1781
  366MPD2     C 5474   4.627   3.933  15.661  0.2231 -0.4150  0.4403
  366MPD2    C1 5475   4.615   4.005  15.539  0.6890 -0.3637  0.3879
  366MPD2    C2 5476   4.581   3.935  15.427 -0.0487  0.0234  0.5328
  366MPD2    C3 5477   4.576   3.800  15.415 -0.1134 -0.4520 -0.1850
  366MPD2    C4 5478   4.585   3.726  15.534 -0.0378 -0.3595 -0.2341
  366MPD2    C5 5479   4.601   3.801  15.653 -0.1132 -1.2445 -0.3584
  366MPD2     H 5480   4.574   3.988  15.333 -0.9218  1.2327  1.2739
  366MPD2    H1 5481   4.584   3.618  15.540 -1.2119 -0.2991  0.7060
  366MPD2    H2 5482   4.651   3.978  15.756  1.4555  0.6569 -0.3800
  366MPD2    H3 5483   4.604   3.746  15.747  0.3788 -0.4400  0.0969
  366MPD2     N 5484   4.568   3.747  15.293  0.5499  0.6773 -0.6764
  366MPD2    H5 5485   4.554   3.814  15.218  2.6291  2.8952  0.9301
  366MPD2    N1 5486   4.643   4.145  15.521  0.6477  0.1266  0.0437
  366MPD2    H7 5487   4.643   4.185  15.428 -1.2210  0.6892  0.2730
  367TMC3    C1 5488   4.704   4.366  15.591 -0.0249  0.1546 -0.1353
  367TMC3    C2 5489   0.052   4.437  15.681 -0.3765 -0.7094  0.5161
  367TMC3    C3 5490   0.073   4.568  15.652 -0.5148  0.7373  0.3053
  367TMC3    C4 5491   4.647   4.421  15.473  0.6251  0.1151 -0.6144
  367TMC3    C5 5492   4.666   4.553  15.455  0.0784 -0.3120  0.4295
  367TMC3    C6 5493   0.021   4.633  15.543  0.3487 -0.5583  0.6754
  367TMC3     C 5494   4.692   4.226  15.624 -0.1567 -0.5971  0.3409
  367TMC3     O 5495   0.003   4.199  15.742 -0.0189 -0.1500  0.1508
  367TMC3     H 5496   0.104   4.390  15.764 -1.8423 -0.9633  1.2833
  367TMC3    H1 5497   4.558   4.380  15.426  0.9383  0.0145 -1.1179
  367TMC3    H2 5498   0.034   0.016  15.524 -0.8792 -0.4684  0.3022
  367TMC3    C7 5499   4.634   4.614  15.328 -0.2519 -0.1770  0.2226
  367TMC3    C8 5500   0.174   4.623  15.740 -0.5395 -0.9043 -0.0174
  367TMC3    O1 5501   4.603   0.010  15.342 -0.1126 -0.1030 -0.6445
  367TMC3    O2 5502   0.176   4.570  15.854 -0.0729  0.4187 -0.4366
  368MPD2     C 5503   2.187   1.260  12.914  0.1407  0.7281 -0.5318
  368MPD2    C1 5504   2.095   1.361  12.909  0.0723 -0.0054  0.0841
  368MPD2    C2 5505   2.102   1.451  12.803 -0.4004 -0.3025 -0.0957
  368MPD2    C3 5506   2.196   1.434  12.701  0.4011 -0.0248 -0.3294
  368MPD2    C4 5507   2.290   1.332  12.705  0.7042  0.3254  0.4696
  368MPD2    C5 5508   2.281   1.251  12.815  0.4348  0.2468 -0.8561
  368MPD2     H 5509   2.025   1.525  12.792  1.0021  1.3940  1.5403
  368MPD2    H1 5510   2.357   1.310  12.622  1.5274 -0.2908  1.3013
  368MPD2    H2 5511   2.186   1.186  12.993 -2.6398  2.1040  0.7315
  368MPD2    H3 5512   2.349   1.167  12.824 -1.1756 -0.9459  0.3791
  368MPD2     N 5513   2.199   1.517  12.585  0.3584 -0.0741 -0.5464
  368MPD2    H5 5514   2.259   1.502  12.505  0.1390 -1.3953 -0.4552
  368MPD2    N1 5515   1.984   1.381  13.003  0.9144  0.2773  0.4149
  368MPD2    H7 5516   1.921   1.454  12.972  1.7947 -0.3139 -2.7528
  369TMC3    C1 5517   1.860   1.371  13.198 -0.2821  0.0448  0.3745
  369TMC3    C2 5518   1.808   1.488  13.157  0.5211 -1.3568 -0.4633
  369TMC3    C3 5519   1.675   1.507  13.172 -0.3080  0.4201 -0.3623
  369TMC3    C4 5520   1.783   1.283  13.263 -0.0850 -0.0423  0.1523
  369TMC3    C5 5521   1.647   1.307  13.283  0.0824  0.5127 -0.3739
  369TMC3    C6 5522   1.591   1.418  13.222  0.3588  0.3078 -0.4263
  369TMC3     C 5523   1.973   1.320  13.127  0.0332 -0.2427 -0.4161
  369TMC3     O 5524   2.049   1.245  13.180  0.6417  0.3890  0.2170
  369TMC3     H 5525   1.874   1.570  13.130 -0.5163  0.0336  1.1611
  369TMC3    H1 5526   1.824   1.183  13.278  0.6304  0.7503  3.4002
  369TMC3    H2 5527   1.484   1.435  13.216  0.0714 -1.8514 -1.4463
  369TMC3    C7 5528   1.568   1.187  13.305  0.2556 -0.0785 -0.4056
  369TMC3    C8 5529   1.629   1.604  13.082 -0.1242 -0.3727 -0.0246
  369TMC3    O1 5530   1.603   1.111  13.392 -0.5340 -0.2890 -0.2298
  369TMC3    O2 5531   1.697   1.621  12.983  0.5631  0.1206 -0.1183
  370TMC3    C1 5532   0.655   1.855  16.245 -0.6134  0.0008  0.3256
  370TMC3    C2 5533   0.594   1.744  16.299 -0.4399  0.0201 -0.5075
  370TMC3    C3 5534   0.625   1.621  16.259 -0.3982  0.5061  0.3696
  370TMC3    C4 5535   0.728   1.842  16.132  0.4316 -0.2903 -0.1100
  370TMC3    C5 5536   0.760   1.716  16.095  0.2197  0.0174 -0.5963
  370TMC3    C6 5537   0.707   1.603  16.149 -0.0489  0.2390  0.2394
  370TMC3     C 5538   0.611   1.981  16.296  0.6343  1.2462  0.2019
  370TMC3     O 5539   0.508   1.977  16.364 -0.2521 -0.3339 -0.0796
  370TMC3     H 5540   0.516   1.744  16.375  0.1171 -0.0711  0.0677
  370TMC3    H1 5541   0.761   1.927  16.073  0.9197 -2.4915 -2.9762
  370TMC3    H2 5542   0.719   1.503  16.110 -1.1050  0.0273  0.4463
  370TMC3    C7 5543   0.807   1.707  15.959  0.6497 -0.0798  0.0632
  370TMC3    C8 5544   0.620   1.508  16.350 -0.3710 -0.7520  0.3379
  370TMC3    O1 5545   0.810   1.804  15.888 -0.2078  0.5132 -0.2060
  370TMC3    O2 5546   0.642   1.396  16.308  0.1299 -0.1295 -0.3553
  371TMC3    C1 5547   1.840   4.704  15.319 -0.7762  0.6538 -0.2044
  371TMC3    C2 5548   1.710   4.707  15.358  0.2336 -0.2436  0.2025
  371TMC3    C3 5549   1.651   0.111  15.353  0.6272 -1.0688 -0.3333
  371TMC3    C4 5550   1.905   0.093  15.267  0.4109  0.4025  0.1730
  371TMC3    C5 5551   1.841   0.210  15.263  0.0776 -0.0106  0.0032
  371TMC3    C6 5552   1.713   0.220  15.308  0.7357  0.8591  0.3513
  371TMC3     C 5553   1.927   4.600  15.379  0.1038  0.0171 -0.0744
  371TMC3     O 5554   2.045   4.629  15.378 -0.5128 -0.1931 -0.1475
  371TMC3     H 5555   1.664   4.620  15.403  1.9908 -1.8835 -1.1564
  371TMC3    H1 5556   2.003   0.089  15.221  0.4732 -1.1305  0.4234
  371TMC3    H2 5557   1.668   0.318  15.297 -3.3253 -1.1972 -1.1856
  371TMC3    C7 5558   1.857   0.290  15.149  0.3284  0.4582  0.1286
  371TMC3    C8 5559   1.539   0.131  15.441 -0.7322 -0.1116  0.4509
  371TMC3    O1 5560   1.757   0.302  15.081 -0.5943  0.6224 -0.4995
  371TMC3    O2 5561   1.475   0.035  15.479  0.0389 -0.2140 -0.3123
  372MPD2     C 5562   1.355   1.487  13.489 -0.7892  0.4813  0.3030
  372MPD2    C1 5563   1.460   1.475  13.574 -0.1795 -0.6646  0.7253
  372MPD2    C2 5564   1.465   1.364  13.661 -0.2589  0.7373 -0.0000
  372MPD2    C3 5565   1.388   1.255  13.641 -0.2670  1.1578 -0.0620
  372MPD2    C4 5566   1.288   1.261  13.547 -0.1373  0.0147  0.2833
  372MPD2    C5 5567   1.270   1.377  13.476 -0.2387 -0.6151  0.9493
  372MPD2     H 5568   1.550   1.357  13.728  1.8163  0.6776 -2.6386
  372MPD2    H1 5569   1.217   1.180  13.533  1.1925 -0.7469 -2.1062
  372MPD2    H2 5570   1.325   1.573  13.431 -0.3927 -0.0836 -0.7403
  372MPD2    H3 5571   1.175   1.391  13.425 -0.2162 -1.2242  0.7396
  372MPD2     N 5572   1.417   1.144  13.721  0.6556  0.4448  0.2236
  372MPD2    H5 5573   1.486   1.158  13.794  0.1145  2.1342  0.4009
  372MPD2    N1 5574   1.562   1.574  13.583  0.1417  0.2810  0.1560
  372MPD2    H7 5575   1.625   1.572  13.662 -0.5848 -0.0555  0.7297
  373TMC3    C1 5576   1.414   0.917  13.805 -0.4456 -0.4853 -0.1617
  373TMC3    C2 5577   1.414   0.942  13.937 -0.1968  0.1290  0.0336
  373TMC3    C3 5578   1.476   0.847  14.025 -0.5053  0.3562  0.1926
  373TMC3    C4 5579   1.460   0.796  13.758  0.3483  0.6052 -0.3455
  373TMC3    C5 5580   1.522   0.711  13.845  0.0261 -0.8018  0.6663
  373TMC3    C6 5581   1.537   0.737  13.978 -0.3888 -0.0843 -0.1871
  373TMC3     C 5582   1.372   1.016  13.707  0.6192 -0.6508  0.0517
  373TMC3     O 5583   1.325   0.972  13.607  0.1886  0.1660  0.0629
  373TMC3     H 5584   1.387   1.043  13.967  0.9905 -0.4295  3.0289
  373TMC3    H1 5585   1.458   0.786  13.650  0.0313 -0.1830 -0.2682
  373TMC3    H2 5586   1.586   0.674  14.051 -1.5607 -1.5338 -0.6452
  373TMC3    C7 5587   1.611   0.618  13.784 -0.2036  0.1952  0.0891
  373TMC3    C8 5588   1.538   0.914  14.139  0.5927 -0.3287 -0.1899
  373TMC3    O1 5589   1.577   0.585  13.668 -0.0632 -0.0170  0.3911
  373TMC3    O2 5590   1.648   0.879  14.167 -0.0930 -0.6114 -0.2216
  374TMC3    C1 5591   2.124   1.079  10.196 -0.2109  0.6385 -0.5435
  374TMC3    C2 5592   2.252   1.093  10.158  0.9842 -0.0770  0.2344
  374TMC3    C3 5593   2.274   1.162  10.043  0.5588  0.5039  0.1944
  374TMC3    C4 5594   2.017   1.146  10.132 -0.0147 -0.1801 -0.5104
  374TMC3    C5 5595   2.048   1.220  10.016 -0.2826 -0.3867 -0.4123
  374TMC3    C6 5596   2.176   1.227   9.971 -0.4990 -0.4459 -0.2551
  374TMC3     C 5597   2.104   0.999  10.320  0.2276  0.3870  0.1909
  374TMC3     O 5598   2.014   1.033  10.395  0.2471 -0.1138  0.5258
  374TMC3     H 5599   2.340   1.058  10.212 -0.0376  0.2417  2.1063
  374TMC3    H1 5600   1.913   1.138  10.164 -0.2149 -0.4225 -1.2180
  374TMC3    H2 5601   2.204   1.292   9.889  1.3486 -0.3367  0.4701
  374TMC3    C7 5602   1.950   1.308   9.943 -0.3941  0.3199  0.3349
  374TMC3    C8 5603   2.408   1.202  10.004  0.2951 -0.2017  0.0427
  374TMC3    O1 5604   1.977   1.340   9.828 -0.5631 -0.2341  0.4208
  374TMC3    O2 5605   2.446   1.179   9.889 -0.0972  0.3515 -0.2044
  375MPD2     C 5606   1.915   1.952  17.213 -0.4147 -0.8026  0.3492
  375MPD2    C1 5607   1.876   1.997  17.093  0.2785 -0.4945 -0.3743
  375MPD2    C2 5608   1.960   2.007  16.986  0.0328  0.5765  0.3025
  375MPD2    C3 5609   2.072   1.922  16.994 -0.4898  0.9632 -0.3176
  375MPD2    C4 5610   2.103   1.855  17.113  0.0260  0.2317  0.4968
  375MPD2    C5 5611   2.033   1.888  17.226  0.0701 -0.3785  0.2315
  375MPD2     H 5612   1.915   2.030  16.890  0.0089  0.7949  0.3669
  375MPD2    H1 5613   2.198   1.803  17.122  1.0667  1.9910 -0.3888
  375MPD2    H2 5614   1.852   1.963  17.301 -0.4131 -0.1556  0.2714
  375MPD2    H3 5615   2.047   1.838  17.321  0.3508 -1.0404 -0.1590
  375MPD2     N 5616   2.166   1.898  16.888  0.5151  0.1573 -0.0094
  375MPD2    H5 5617   2.246   1.843  16.917  1.7385  2.1406  0.3290
  375MPD2    N1 5618   1.745   2.056  17.073 -0.2955  0.2134 -0.2263
  375MPD2    H7 5619   1.727   2.086  16.978 -0.5373  0.7733 -0.0036
  376TMC3    C1 5620   2.259   1.901  16.683 -0.7019 -0.5827 -0.0758
  376TMC3    C2 5621   2.351   1.806  16.734 -0.9087  0.0268  0.3699
  376TMC3    C3 5622   2.434   1.748  16.643 -0.0152  0.2639 -0.3498
  376TMC3    C4 5623   2.245   1.928  16.556 -0.0607  0.1244  0.5122
  376TMC3    C5 5624   2.318   1.852  16.467  0.0597  0.6766 -0.2903
  376TMC3    C6 5625   2.407   1.756  16.509 -0.5024  0.6120  0.2863
  376TMC3     C 5626   2.157   1.952  16.763 -0.1083 -0.2156 -0.2138
  376TMC3     O 5627   2.076   2.034  16.721 -0.1717  0.1587 -0.3707
  376TMC3     H 5628   2.383   1.794  16.837 -1.4855 -2.3738  0.2597
  376TMC3    H1 5629   2.174   2.002  16.519 -1.1414  0.2257  2.7822
  376TMC3    H2 5630   2.481   1.720  16.438 -1.5207  1.7799 -1.3606
  376TMC3    C7 5631   2.290   1.867  16.325 -0.6778 -0.4177 -0.0910
  376TMC3    C8 5632   2.570   1.713  16.678  0.3926  0.0979  0.6821
  376TMC3    O1 5633   2.239   1.972  16.291  0.0103 -0.9376  0.0244
  376TMC3    O2 5634   2.590   1.650  16.781  0.0500  0.1901  0.3675
  377MPD2     C 5635   4.512   1.834  12.496 -0.2906 -0.1881 -0.5376
  377MPD2    C1 5636   4.589   1.767  12.589  0.0148 -0.2646  0.0752
  377MPD2    C2 5637   4.534   1.732  12.713 -0.3342 -0.5438  0.1307
  377MPD2    C3 5638   4.409   1.780  12.741 -0.1372  0.4689  0.0816
  377MPD2    C4 5639   4.334   1.846  12.639 -0.3377  0.3783 -0.3115
  377MPD2    C5 5640   4.380   1.863  12.511  0.1376 -0.0720  0.5477
  377MPD2     H 5641   4.600   1.683  12.784 -2.4325 -1.3305  1.5299
  377MPD2    H1 5642   4.237   1.888  12.661 -1.2868 -0.3540 -3.0442
  377MPD2    H2 5643   4.564   1.876  12.411  0.7972 -0.6569 -0.1172
  377MPD2    H3 5644   4.325   1.923  12.440 -0.0788  0.0616  0.8291
  377MPD2     N 5645   4.341   1.765  12.865  0.2575  0.5142  0.6698
  377MPD2    H5 5646   4.248   1.804  12.873 -0.3047 -0.8249  0.7045
  377MPD2    N1 5647   0.006   1.751  12.559 -0.1400  0.5032 -0.0457
  377MPD2    H7 5648   0.036   1.785  12.469 -0.2193  2.4264  0.6444
  378TMC3    C1 5649   0.410   1.753  12.436  0.1403 -0.4225 -0.3360
  378TMC3    C2 5650   0.273   1.730  12.467 -0.5546  0.7022  0.2917
  378TMC3    C3 5651   0.240   1.705  12.599  0.0951  0.6836 -0.8496
  378TMC3    C4 5652   0.507   1.753  12.534 -0.3189 -0.2291  0.2086
  378TMC3    C5 5653   0.467   1.727  12.662  0.7687 -0.2532 -0.2324
  378TMC3    C6 5654   0.336   1.700  12.698 -0.9439 -0.1262  0.4566
  378TMC3     C 5655   0.446   1.753  12.296 -0.8589  0.0405  0.5598
  378TMC3     O 5656   0.368   1.784  12.204 -0.2402 -0.3248 -0.0001
  378TMC3     H 5657   0.211   1.731  12.378 -1.3901 -1.1729  0.8688
  378TMC3    H1 5658   0.605   1.789  12.508 -0.1570  1.1181  2.7438
  378TMC3    H2 5659   0.306   1.679  12.800  0.0752  0.5640  0.9086
  378TMC3    C7 5660   0.555   1.763  12.770 -0.3967 -0.3059 -0.4226
  378TMC3    C8 5661   0.099   1.700  12.646 -0.3536  0.3572  0.2856
  378TMC3    O1 5662   0.505   1.819  12.868  0.0070 -0.0234  0.2432
  378TMC3    O2 5663   0.090   1.680  12.768 -0.0511  0.6564  0.0199
  379MPD2     C 5664   1.414   4.516  16.208 -0.0399  0.4656 -0.4109
  379MPD2    C1 5665   1.316   4.429  16.251  0.2006  0.2438  0.2919
  379MPD2    C2 5666   1.338   4.345  16.357  0.1445 -0.1398  0.1805
  379MPD2    C3 5667   1.459   4.350  16.419  0.6798  0.2168  0.2747
  379MPD2    C4 5668   1.563   4.411  16.363  0.1260 -0.1819 -0.4350
  379MPD2    C5 5669   1.542   4.483  16.247  0.5426 -0.3300  0.5913
  379MPD2     H 5670   1.252   4.288  16.390  1.1595 -1.7814 -0.0076
  379MPD2    H1 5671   1.663   4.403  16.403  1.2609 -1.2637 -3.4888
  379MPD2    H2 5672   1.411   4.571  16.115 -1.1827  0.1106 -0.5810
  379MPD2    H3 5673   1.625   4.535  16.203 -0.3230 -0.5709 -1.3224
  379MPD2     N 5674   1.482   4.278  16.534  0.1347  0.3915  0.2613
  379MPD2    H5 5675   1.577   4.288  16.569 -0.1401  3.0739  0.2386
  379MPD2    N1 5676   1.197   4.425  16.179  0.0978  0.4299 -0.1351
  379MPD2    H7 5677   1.194   4.497  16.108 -0.2676  2.4742  1.9363
  380TMC3    C1 5678   0.990   4.349  16.095  0.3311 -0.1655  0.0967
  380TMC3    C2 5679   0.933   4.240  16.027 -1.0005 -0.4431  0.0479
  380TMC3    C3 5680   0.823   4.247  15.947  0.5320 -0.5164  0.6662
  380TMC3    C4 5681   0.925   4.467  16.088 -0.4976 -0.3070 -0.2947
  380TMC3    C5 5682   0.812   4.480  16.014  0.1984 -0.1841 -0.7819
  380TMC3    C6 5683   0.772   4.375  15.931  0.4277 -0.1756 -0.1939
  380TMC3     C 5684   1.100   4.326  16.182 -0.6291 -0.1772 -0.3061
  380TMC3     O 5685   1.112   4.211  16.226 -0.0497 -0.9023  0.1741
  380TMC3     H 5686   0.983   4.145  16.036 -0.0861  0.0392 -0.0148
  380TMC3    H1 5687   0.942   4.544  16.163 -0.7888  0.1861 -0.7309
  380TMC3    H2 5688   0.687   4.376  15.864  1.6353 -0.0234 -1.7348
  380TMC3    C7 5689   0.771   4.613  15.982 -0.1513 -0.1835  0.1795
  380TMC3    C8 5690   0.822   4.173  15.827 -0.4999 -0.4390 -0.1431
  380TMC3    O1 5691   0.848   4.704  16.006 -0.0250  0.2479 -0.5233
  380TMC3    O2 5692   0.785   4.237  15.729  0.3682  0.1309  0.1894
  381TMC3    C1 5693   0.949   0.773  15.962  0.1128  0.3386  0.2790
  381TMC3    C2 5694   1.011   0.891  15.993  0.2949  0.4117  0.1579
  381TMC3    C3 5695   0.980   0.953  16.116  0.1417  0.2324  1.2865
  381TMC3    C4 5696   0.854   0.727  16.052  0.3773 -0.8339  0.0830
  381TMC3    C5 5697   0.817   0.802  16.158 -0.3282 -0.1337  0.2653
  381TMC3    C6 5698   0.885   0.909  16.202 -0.1229  0.4414  0.8435
  381TMC3     C 5699   0.960   0.721  15.831 -0.3199 -0.1469  0.1132
  381TMC3     O 5700   0.949   0.602  15.817 -0.6052 -0.1108 -0.1356
  381TMC3     H 5701   1.081   0.930  15.921  0.2566  0.3961  0.1129
  381TMC3    H1 5702   0.809   0.634  16.020  1.4953 -1.8123  1.3187
  381TMC3    H2 5703   0.860   0.957  16.296  0.8993 -2.6719  2.6939
  381TMC3    C7 5704   0.689   0.761  16.228  0.9192  0.2155  0.7056
  381TMC3    C8 5705   1.022   1.092  16.111  0.6134  0.0300 -0.2915
  381TMC3    O1 5706   0.647   0.651  16.197  0.7827  0.0204  0.3579
  381TMC3    O2 5707   1.088   1.132  16.019  0.2426 -0.2999  0.5637
  382MPD2     C 5708   0.038   3.506  17.139 -0.0987  0.3726 -0.2490
  382MPD2    C1 5709   0.019   3.538  17.274  0.4462  0.0115 -0.1940
  382MPD2    C2 5710   4.682   3.446  17.352  0.1337  0.0722 -0.5501
  382MPD2    C3 5711   4.645   3.326  17.302 -0.9429 -0.3060  0.2555
  382MPD2    C4 5712   4.663   3.289  17.172  0.6213 -0.5599  0.8010
  382MPD2    C5 5713   4.720   3.382  17.088 -0.2774 -0.2179  0.1415
  382MPD2     H 5714   4.644   3.477  17.449 -1.2001 -0.3485 -0.9358
  382MPD2    H1 5715   4.621   3.196  17.134  1.6981 -1.2022  1.1760
  382MPD2    H2 5716   0.058   3.575  17.058 -1.1312  0.1334 -0.7048
  382MPD2    H3 5717   0.007   3.356  16.983  0.0992 -1.9721  0.6202
  382MPD2     N 5718   4.579   3.234  17.386  0.2911  0.4434  0.0657
  382MPD2    H5 5719   4.539   3.147  17.352  1.3960 -0.6720  1.6478
  382MPD2    N1 5720   0.044   3.666  17.320  0.5364 -0.3899 -0.2732
  382MPD2    H7 5721   0.029   3.685  17.419 -0.9124 -1.0869 -0.3642
  383TMC3    C1 5722   4.471   3.138  17.573  0.6075  0.0590 -0.7407
  383TMC3    C2 5723   4.387   3.076  17.481  0.0791  1.0299  0.9285
  383TMC3    C3 5724   4.320   2.967  17.528  0.4392 -0.8406 -0.8432
  383TMC3    C4 5725   4.492   3.093   0.006  0.4212  0.3253 -0.3335
  383TMC3    C5 5726   4.434   2.972   0.035  0.3126 -0.0806  1.0530
  383TMC3    C6 5727   4.344   2.912  17.647  0.2096 -0.3166  0.2914
  383TMC3     C 5728   4.558   3.249  17.520  0.1134 -0.4900  0.2550
  383TMC3     O 5729   4.618   3.308  17.601  0.1597 -0.2124  0.0833
  383TMC3     H 5730   4.359   3.130  17.390 -2.7461 -0.5567  0.8634
  383TMC3    H1 5731   4.564   3.137   0.074 -0.7612 -0.3674  1.3569
  383TMC3    H2 5732   4.304   2.817  17.683  0.8775 -0.6056  0.2742
  383TMC3    C7 5733   4.470   2.901   0.159 -0.1284 -0.6569  0.4130
  383TMC3    C8 5734   4.231   2.904  17.428  0.0792 -0.2588  0.0724
  383TMC3    O1 5735   4.393   2.821   0.211 -0.6454  0.2123  0.0357
  383TMC3    O2 5736   4.163   2.987  17.369 -0.3935  0.4978 -0.1476
  384MPD2     C 5737   1.690   4.306  11.934 -0.5050 -0.0036  0.5289
  384MPD2    C1 5738   1.682   4.256  12.063  0.3354  0.2639  0.5019
  384MPD2    C2 5739   1.732   4.136  12.086  0.1543  0.3034 -0.3550
  384MPD2    C3 5740   1.785   4.059  11.983 -0.4420  0.2371  0.1494
  384MPD2    C4 5741   1.797   4.105  11.854 -0.0225  0.5455 -0.8207
  384MPD2    C5 5742   1.745   4.231  11.834  0.2087  0.0494 -0.2993
  384MPD2     H 5743   1.715   4.088  12.182  0.1125  2.1367  0.5561
  384MPD2    H1 5744   1.839   4.048  11.772  1.8443  1.1288 -0.2668
  384MPD2    H2 5745   1.660   4.407  11.910 -0.7283 -0.0102  0.7756
  384MPD2    H3 5746   1.768   4.281  11.740 -1.3873  2.1141  0.4058
  384MPD2     N 5747   1.819   3.925  12.014 -0.9477 -0.6249  0.1473
  384MPD2    H5 5748   1.793   3.890  12.106 -2.1566 -0.3690 -0.1019
  384MPD2    N1 5749   1.608   4.323  12.168 -0.2796  0.4150  0.3725
  384MPD2    H7 5750   1.607   4.276  12.258  2.2404  1.4867  0.9637
  385TMC3    C1 5751   1.872   3.700  12.009  0.0636  0.6481 -0.0688
  385TMC3    C2 5752   1.798   3.604  11.948 -0.4138 -0.1089 -0.1967
  385TMC3    C3 5753   1.704   3.536  12.021 -0.3223 -0.6701  0.1471
  385TMC3    C4 5754   1.871   3.713  12.142  0.3151 -0.1793 -1.1602
  385TMC3    C5 5755   1.777   3.647  12.215  0.1429  0.3113  0.5586
  385TMC3    C6 5756   1.695   3.558  12.154 -0.7857 -0.1125 -0.4326
  385TMC3     C 5757   1.870   3.829  11.935  0.0174  0.5547 -0.7118
  385TMC3     O 5758   1.918   3.832  11.824  0.2283  0.1858  0.1522
  385TMC3     H 5759   1.779   3.604  11.841 -1.2023 -1.6957 -0.0592
  385TMC3    H1 5760   1.940   3.781  12.190  1.5549 -1.3347 -1.3088
  385TMC3    H2 5761   1.616   3.508  12.210  0.8451 -0.4355  1.5584
  385TMC3    C7 5762   1.719   3.738  12.310 -0.8367 -0.0082  0.0153
  385TMC3    C8 5763   1.614   3.448  11.955 -0.2136  0.0219 -0.4374
  385TMC3    O1 5764   1.736   3.856  12.274  0.2599  0.2572  0.4499
  385TMC3    O2 5765   1.529   3.402  12.029  0.5172 -0.1554  0.5900
  386TMC3    C1 5766   2.289   1.312  11.755  0.0129  0.2921  0.1632
  386TMC3    C2 5767   2.271   1.297  11.620  0.1193  0.2919  0.3977
  386TMC3    C3 5768   2.166   1.371  11.564  0.2137 -0.2821 -0.2709
  386TMC3    C4 5769   2.213   1.394  11.837  0.5442  0.4356  0.0765
  386TMC3    C5 5770   2.127   1.479  11.772  0.0065 -0.3382  0.8103
  386TMC3    C6 5771   2.103   1.469  11.634 -0.4058 -0.1826 -0.1067
  386TMC3     C 5772   2.387   1.230  11.816  0.2366 -0.4799 -0.3675
  386TMC3     O 5773   2.434   1.135  11.754 -0.7302  0.0869  0.1392
  386TMC3     H 5774   2.325   1.229  11.556  1.5199  1.1874  0.6260
  386TMC3    H1 5775   2.226   1.394  11.945 -0.3403 -2.3540  0.1903
  386TMC3    H2 5776   2.022   1.515  11.578 -1.1513 -1.6496 -0.2461
  386TMC3    C7 5777   2.044   1.570  11.851 -0.3740  0.0541 -0.2146
  386TMC3    C8 5778   2.131   1.359  11.427 -0.3309  0.1423 -0.5285
  386TMC3    O1 5779   2.025   1.539  11.971 -0.6573 -0.5933 -0.1970
  386TMC3    O2 5780   2.015   1.328  11.397 -0.1253 -0.2255  0.5400
  387MPD2     C 5781   4.597   1.573   9.429  0.0187 -0.5287  0.2160
  387MPD2    C1 5782   4.627   1.519   9.551  0.2347 -0.3361  0.0092
  387MPD2    C2 5783   4.644   1.393   9.561  0.3758  0.1120 -0.2868
  387MPD2    C3 5784   4.630   1.309   9.456  0.6919  0.2459 -0.2126
  387MPD2    C4 5785   4.584   1.358   9.332  0.0867 -0.4620 -0.3210
  387MPD2    C5 5786   4.568   1.492   9.323 -0.6728  0.0961 -0.7153
  387MPD2     H 5787   4.662   1.346   9.657  1.7399 -0.4836 -0.8422
  387MPD2    H1 5788   4.560   1.298   9.245 -2.2941  0.4674 -0.2818
  387MPD2    H2 5789   4.584   1.680   9.414 -1.8979 -0.5754  1.5923
  387MPD2    H3 5790   4.546   1.523   9.222  0.1890  0.4005 -0.8077
  387MPD2     N 5791   4.653   1.169   9.481  0.5424 -0.4490 -0.2815
  387MPD2    H5 5792   4.679   1.147   9.576 -0.7127 -0.4916  0.0503
  387MPD2    N1 5793   4.641   1.601   9.669 -0.1262 -0.1912  0.1809
  387MPD2    H7 5794   4.651   1.548   9.755  1.3294  0.0356  0.1547
  388TMC3    C1 5795   4.718   1.769   9.803  0.4241 -0.1954  0.3908
  388TMC3    C2 5796   4.699   1.891   9.866  0.4369  0.6658  0.7385
  388TMC3    C3 5797   0.025   1.904   9.989 -0.4212  0.1746 -0.1738
  388TMC3    C4 5798   0.060   1.666   9.869  0.1468  0.9271  0.0787
  388TMC3    C5 5799   0.105   1.688   9.997  0.0708  0.5285  0.4703
  388TMC3    C6 5800   0.088   1.806  10.065 -0.5954 -0.3350 -0.2745
  388TMC3     C 5801   4.654   1.739   9.674 -0.0275 -0.5543  1.1164
  388TMC3     O 5802   4.648   1.825   9.590 -0.4090 -0.0549 -0.1614
  388TMC3     H 5803   4.646   1.969   9.813 -2.2575 -0.3709  1.9119
  388TMC3    H1 5804   0.094   1.581   9.811 -1.0053  0.7714 -0.3686
  388TMC3    H2 5805   0.124   1.826  10.165  0.6407 -1.3790 -0.5153
  388TMC3    C7 5806   0.161   1.581  10.067 -0.3383  0.0592 -0.2816
  388TMC3    C8 5807   0.048   2.038  10.034  0.4805 -0.7341  0.0913
  388TMC3    O1 5808   0.220   1.604  10.170  0.2310  0.2153  0.3666
  388TMC3    O2 5809   0.085   2.046  10.152 -0.5493  0.1881  0.4842
  389MPD2     C 5810   3.941   0.113  10.996 -0.3431 -0.4422  0.1636
  389MPD2    C1 5811   3.834   0.042  10.947  0.6419 -0.1642 -0.2452
  389MPD2    C2 5812   3.740   0.007  11.042  0.2319 -0.2666  0.2154
  389MPD2    C3 5813   3.752   0.033  11.177 -0.9803 -0.7066  0.6184
  389MPD2    C4 5814   3.864   0.093  11.225  0.1862  0.3409 -0.0772
  389MPD2    C5 5815   3.955   0.140  11.130  0.5949 -0.6681  0.6367
  389MPD2     H 5816   3.655   4.676  11.003  0.3317  0.6658 -1.2797
  389MPD2    H1 5817   3.880   0.105  11.331 -2.2538 -0.3391  0.3637
  389MPD2    H2 5818   4.021   0.139  10.928  0.8355  1.3277  2.2096
  389MPD2    H3 5819   4.042   0.196  11.161 -1.3014  1.7530  1.5462
  389MPD2     N 5820   3.664   4.702  11.270  0.0764  0.4408  0.2764
  389MPD2    H5 5821   3.673   0.017  11.364  0.3863 -1.9332  1.2131
  389MPD2    N1 5822   3.836   0.006  10.807 -0.4461 -0.4278  0.0001
  389MPD2    H7 5823   3.921   0.016  10.753 -0.8722 -0.9841 -0.7760
  390TMC3    C1 5824   3.484   4.585  11.356 -0.4956 -0.2432 -0.0607
  390TMC3    C2 5825   3.422   4.464  11.383  0.3325 -0.0661  0.2718
  390TMC3    C3 5826   3.368   4.446  11.505  0.1237  0.2378  0.2153
  390TMC3    C4 5827   3.454   4.693  11.433  0.4378  0.7915 -0.1549
  390TMC3    C5 5828   3.400   4.672  11.558 -0.0862 -0.3352 -0.1686
  390TMC3    C6 5829   3.361   4.542  11.599 -0.1927  0.1335  0.7245
  390TMC3     C 5830   3.572   4.605  11.248  0.3690  0.0647 -1.0809
  390TMC3     O 5831   3.575   4.529  11.157  0.3782  0.2073 -0.1657
  390TMC3     H 5832   3.426   4.382  11.313  1.8785 -1.1364  1.6048
  390TMC3    H1 5833   3.473   0.069  11.391 -0.8565  2.2541  2.6900
  390TMC3    H2 5834   3.327   4.518  11.699 -0.9626  0.6882  0.5940
  390TMC3    C7 5835   3.290   0.041  11.579  0.0819 -0.0870 -0.0187
  390TMC3    C8 5836   3.254   4.353  11.500 -0.2024  0.0300 -0.4962
  390TMC3    O1 5837   3.297   0.151  11.528 -0.6465  0.3937 -0.0363
  390TMC3    O2 5838   3.234   4.312  11.388 -0.2927  0.3335 -0.0655
  391MPD2     C 5839   3.011   1.357  11.479 -0.2942  0.2590  0.3472
  391MPD2    C1 5840   3.075   1.468  11.429  0.1413 -0.3371 -0.4469
  391MPD2    C2 5841   3.048   1.500  11.294  0.5115  0.0726 -0.2430
  391MPD2    C3 5842   2.961   1.427  11.218  0.2252 -0.6319 -0.4970
  391MPD2    C4 5843   2.907   1.309  11.269 -0.1681  0.0152  0.8447
  391MPD2    C5 5844   2.936   1.272  11.396 -0.0696  0.0147  0.3235
  391MPD2     H 5845   3.089   1.590  11.250 -0.8201 -0.9626 -3.6055
  391MPD2    H1 5846   2.851   1.241  11.206  0.6782 -1.6299  1.8595
  391MPD2    H2 5847   3.021   1.325  11.582 -1.3521 -1.0469  0.0560
  391MPD2    H3 5848   2.893   1.179  11.431 -1.7729  0.9095  0.5989
  391MPD2     N 5849   2.950   1.467  11.080  0.4991  0.3298 -0.2287
  391MPD2    H5 5850   3.007   1.542  11.043  0.1264 -0.7813 -3.0551
  391MPD2    N1 5851   3.158   1.532  11.522 -0.4082  0.3314 -0.0605
  391MPD2    H7 5852   3.157   1.496  11.616 -3.2672 -0.6558 -0.4561
  392TMC3    C1 5853   2.903   1.449  10.845  0.0827  0.0600 -0.5674
  392TMC3    C2 5854   2.833   1.389  10.750 -0.1568 -0.7100  0.5643
  392TMC3    C3 5855   2.869   1.432  10.620 -0.5896 -0.0406  0.7812
  392TMC3    C4 5856   3.004   1.541  10.822  0.1681 -0.3928 -0.7747
  392TMC3    C5 5857   3.038   1.576  10.693 -0.4827  0.1310 -0.4074
  392TMC3    C6 5858   2.964   1.522  10.591 -0.0787 -0.3924 -0.5676
  392TMC3     C 5859   2.887   1.394  10.981 -0.0765  0.5089  0.6059
  392TMC3     O 5860   2.801   1.307  10.996 -0.6417 -0.4061 -0.0371
  392TMC3     H 5861   2.739   1.337  10.769  1.0931 -2.9662  0.4602
  392TMC3    H1 5862   3.071   1.576  10.899 -1.1600 -0.8917  0.6098
  392TMC3    H2 5863   2.990   1.555  10.491  0.0776 -0.9042 -0.6999
  392TMC3    C7 5864   3.139   1.674  10.664  0.0076  0.1406  0.3848
  392TMC3    C8 5865   2.798   1.360  10.513  0.0849  0.1662  0.0587
  392TMC3    O1 5866   3.187   1.729  10.761  0.0784  0.5921 -0.4432
  392TMC3    O2 5867   2.695   1.299  10.548 -0.2360  0.3708 -0.7815
  393TMC3    C1 5868   2.215   4.200  10.350 -0.1832 -0.4996 -0.1978
  393TMC3    C2 5869   2.095   4.153  10.394 -0.2053 -0.1680  0.3229
  393TMC3    C3 5870   2.080   4.016  10.405 -0.7098 -0.0376  0.2048
  393TMC3    C4 5871   2.307   4.112  10.297  0.8513 -0.4984 -0.2179
  393TMC3    C5 5872   2.288   3.976  10.304  0.0440  0.3835  0.1227
  393TMC3    C6 5873   2.170   3.922  10.356 -0.0328  0.2782  0.1899
  393TMC3     C 5874   2.230   4.352  10.341  0.3378  0.4194 -0.1829
  393TMC3     O 5875   2.120   4.412  10.331 -0.2217 -0.3333 -0.0149
  393TMC3     H 5876   2.015   4.221  10.423  0.0301 -0.6243  2.0193
  393TMC3    H1 5877   2.390   4.161  10.248  0.4857 -2.8787 -3.2169
  393TMC3    H2 5878   2.150   3.818  10.380  1.4011 -0.0212  0.0950
  393TMC3    C7 5879   2.384   3.884  10.248 -0.0647  0.5523  0.3651
  393TMC3    C8 5880   1.978   3.980  10.499 -0.2777  0.3429 -0.5546
  393TMC3    O1 5881   2.335   3.782  10.202  0.0171 -0.3394 -0.0453
  393TMC3    O2 5882   1.914   3.877  10.486  0.6623 -0.0553 -0.1547
  394TMC3    C1 5883   3.736   4.705  10.600 -0.6782 -0.4654  0.3941
  394TMC3    C2 5884   3.648   4.631  10.528 -0.3352  0.0271 -0.0231
  394TMC3    C3 5885   3.617   4.662  10.402  1.1825  0.3904  0.0148
  394TMC3    C4 5886   3.799   0.094  10.548 -0.1463  0.0172 -0.4528
  394TMC3    C5 5887   3.789   0.109  10.415  0.3075  0.1463  0.6472
  394TMC3    C6 5888   3.703   0.030  10.342 -1.0415 -0.4092 -0.0595
  394TMC3     C 5889   3.722   4.695  10.745 -0.1876  0.6375 -0.1418
  394TMC3     O 5890   3.604   4.685  10.781 -0.3942  0.2642  0.3283
  394TMC3     H 5891   3.593   4.551  10.575  1.3397 -1.3527 -0.4201
  394TMC3    H1 5892   3.858   0.163  10.608  1.6955 -3.7349  2.0893
  394TMC3    H2 5893   3.718   0.040  10.235  0.2575  1.1077  0.2565
  394TMC3    C7 5894   3.915   0.131  10.348 -0.1664  0.0779 -0.1154
  394TMC3    C8 5895   3.557   4.558  10.318 -0.2875  0.3130  1.1339
  394TMC3    O1 5896   3.977   0.234  10.364  0.6633 -0.1170 -0.4538
  394TMC3    O2 5897   3.549   4.447  10.365 -0.0373  0.3467 -0.1471
  395TMC3    C1 5898   2.864   2.268  15.302 -0.2073  0.5500 -0.7643
  395TMC3    C2 5899   2.762   2.232  15.222  0.2160  0.5314  0.6061
  395TMC3    C3 5900   2.777   2.256  15.091  0.2270  0.5361  0.7376
  395TMC3    C4 5901   2.966   2.340  15.260 -0.0859 -0.3291  0.2717
  395TMC3    C5 5902   2.986   2.362  15.128 -0.2725 -0.0692 -0.0850
  395TMC3    C6 5903   2.894   2.311  15.045  0.0253  0.8011  0.1031
  395TMC3     C 5904   2.852   2.241  15.447  0.2653  0.1718  0.0736
  395TMC3     O 5905   2.929   2.302  15.524 -0.4223  0.6924 -0.1392
  395TMC3     H 5906   2.663   2.223  15.265 -0.2577 -1.8101 -0.9576
  395TMC3    H1 5907   3.030   2.391  15.332  3.4530 -0.6361 -2.6364
  395TMC3    H2 5908   2.907   2.317  14.938  1.5170 -0.9336  0.1992
  395TMC3    C7 5909   3.106   2.421  15.074  0.5887 -0.0441 -0.0122
  395TMC3    C8 5910   2.666   2.227  15.006  0.0662 -0.0038 -0.3038
  395TMC3    O1 5911   3.187   2.471  15.152  0.2825 -0.1353 -0.1134
  395TMC3    O2 5912   2.553   2.237  15.052 -0.7030  0.1380  0.1478
  396MPD2     C 5913   2.487   3.529  17.061  0.3727 -0.0254  0.9928
  396MPD2    C1 5914   2.613   3.474  17.056  1.1249 -0.3201 -0.1461
  396MPD2    C2 5915   2.712   3.556  17.005 -0.9989 -0.2496  0.3265
  396MPD2    C3 5916   2.686   3.684  16.963  0.5459 -1.0176 -0.0585
  396MPD2    C4 5917   2.555   3.731  16.966  0.2378  0.0485  0.2839
  396MPD2    C5 5918   2.462   3.651  17.016  0.0251 -0.5635 -0.3182
  396MPD2     H 5919   2.809   3.511  16.986 -0.6410  1.6648 -2.5415
  396MPD2    H1 5920   2.531   3.831  16.932 -1.1661 -0.6347 -0.7729
  396MPD2    H2 5921   2.401   3.470  17.091  0.1159 -0.8303 -1.3450
  396MPD2    H3 5922   2.360   3.688  17.014  0.3742  0.4006 -0.8208
  396MPD2     N 5923   2.782   3.757  16.895 -0.1098  0.3505 -0.6247
  396MPD2    H5 5924   2.755   3.845  16.852  4.4651  2.8176  1.5990
  396MPD2    N1 5925   2.635   3.345  17.109  0.3253  0.0131  0.2517
  396MPD2    H7 5926   2.555   3.312  17.162 -0.7645 -0.2175 -1.5556
  397TMC3    C1 5927   2.737   3.160  17.207  0.6909  0.4086 -0.2081
  397TMC3    C2 5928   2.854   3.086  17.204  0.5428 -0.3414 -0.4762
  397TMC3    C3 5929   2.848   2.951  17.197  0.2644  0.2331 -0.0526
  397TMC3    C4 5930   2.615   3.095  17.188 -0.0661  0.1761 -0.0640
  397TMC3    C5 5931   2.613   2.961  17.205 -0.2177  0.0857  0.0488
  397TMC3    C6 5932   2.728   2.887  17.202  0.5871 -0.2817  0.4258
  397TMC3     C 5933   2.753   3.288  17.129  0.7822 -0.3408 -0.3871
  397TMC3     O 5934   2.864   3.333  17.111  0.3666  0.2414  0.3819
  397TMC3     H 5935   2.949   3.134  17.184  0.3173  0.8457  1.3386
  397TMC3    H1 5936   2.520   3.147  17.182 -0.9302 -1.3770  0.1991
  397TMC3    H2 5937   2.735   2.779  17.213 -1.1758 -0.2806  1.5416
  397TMC3    C7 5938   2.492   2.899  17.245 -0.6139 -0.5964  0.7093
  397TMC3    C8 5939   2.933   2.871  17.111 -0.4158  0.5121 -0.2403
  397TMC3    O1 5940   2.386   2.962  17.214  0.0801 -0.2807 -0.5538
  397TMC3    O2 5941   2.875   2.789  17.036  0.1918 -0.3141  0.1145
  398MPD2     C 5942   1.227   4.622   0.099  0.8403 -0.5082 -0.3981
  398MPD2    C1 5943   1.300   4.567   0.202 -1.3879  0.4257 -0.1109
  398MPD2    C2 5944   1.386   4.647   0.278 -0.3446 -0.5559 -0.1314
  398MPD2    C3 5945   1.399   0.054   0.247  0.1383 -0.0945 -0.2797
  398MPD2    C4 5946   1.330   0.107   0.150  0.1886 -0.2044 -0.8982
  398MPD2    C5 5947   1.242   0.033   0.078  0.2461 -0.8529 -0.1538
  398MPD2     H 5948   1.423   4.604   0.370  0.7054  0.7472  0.0594
  398MPD2    H1 5949   1.344   0.212   0.126 -0.7608  0.2100  0.3198
  398MPD2    H2 5950   1.160   4.577   0.027 -0.0803  2.2857 -1.2953
  398MPD2    H3 5951   1.183   0.084   0.003  2.2895  2.1449  0.2785
  398MPD2     N 5952   1.491   0.131   0.327  0.6324  0.5301 -0.5622
  398MPD2    H5 5953   1.542   0.078   0.396 -0.4215  0.5418  0.2285
  398MPD2    N1 5954   1.285   4.438   0.242 -0.2768  0.6708  0.3277
  398MPD2    H7 5955   1.350   4.404   0.312 -1.0523  1.1487  1.2771
  399TMC3    C1 5956   1.165   4.241   0.293  0.1541 -0.5262 -0.1223
  399TMC3    C2 5957   1.276   4.200   0.369  0.4183 -0.1351  0.4336
  399TMC3    C3 5958   1.251   4.086   0.440  0.7499 -0.3232  0.4198
  399TMC3    C4 5959   1.035   4.187   0.299 -0.3137  0.5249  0.0748
  399TMC3    C5 5960   1.031   4.069   0.374  0.0698  0.1924  0.0092
  399TMC3    C6 5961   1.131   4.017   0.452  0.2067  0.1334 -0.9605
  399TMC3     C 5962   1.172   4.366   0.224  0.1520 -0.2286  1.0693
  399TMC3     O 5963   1.077   4.412   0.159  0.1825  0.0399 -0.3037
  399TMC3     H 5964   1.378   4.234   0.354  0.1070  0.8105  0.4442
  399TMC3    H1 5965   0.949   4.220   0.243 -0.5710 -0.8720 -0.3400
  399TMC3    H2 5966   1.122   3.953   0.539 -1.5483  1.1835 -0.3663
  399TMC3    C7 5967   0.912   3.990   0.382  0.7382 -0.1478  0.1677
  399TMC3    C8 5968   1.349   4.060   0.541  0.1399 -0.3980  0.1503
  399TMC3    O1 5969   0.917   3.890   0.455  0.1918 -0.0630 -0.5509
  399TMC3    O2 5970   1.436   4.143   0.559  0.5240 -0.2293 -0.3500
  400TMC3    C1 5971   4.294   2.644  16.961  0.0144  0.0144 -0.2926
  400TMC3    C2 5972   4.191   2.549  16.938  0.3189 -0.5827 -0.3054
  400TMC3    C3 5973   4.128   2.553  16.809 -1.1540  0.7278  0.1921
  400TMC3    C4 5974   4.334   2.730  16.864  0.0548 -0.7138 -0.3861
  400TMC3    C5 5975   4.272   2.716  16.738  0.3604 -0.1235 -0.2964
  400TMC3    C6 5976   4.169   2.631  16.703  0.2287  0.5565 -0.1764
  400TMC3     C 5977   4.351   2.653  17.091  0.0026  0.0582 -0.9968
  400TMC3     O 5978   4.337   2.557  17.167 -0.1009  0.3670 -0.6309
  400TMC3     H 5979   4.144   2.496  17.020 -1.6475 -1.0303 -1.7377
  400TMC3    H1 5980   4.435   2.769  16.862 -0.1509 -0.1137  0.6549
  400TMC3    H2 5981   4.131   2.636  16.602  1.0243 -0.7637 -0.5453
  400TMC3    C7 5982   4.266   2.833  16.655  0.2613 -0.2592 -0.0674
  400TMC3    C8 5983   4.024   2.463  16.788 -1.1776  0.1474  0.7322
  400TMC3    O1 5984   4.224   2.838  16.542  0.3381  0.0496  0.2973
  400TMC3    O2 5985   3.944   2.443  16.879 -0.4267  0.6857 -0.4521
  401MPD2     C 5986   2.258   1.298   0.857 -0.9115  0.1928 -0.1914
  401MPD2    C1 5987   2.380   1.258   0.906  0.5061  1.1668  0.1272
  401MPD2    C2 5988   2.388   1.147   0.984  0.2053 -0.0003  0.2302
  401MPD2    C3 5989   2.271   1.080   1.021  0.7615  0.3549 -0.1202
  401MPD2    C4 5990   2.149   1.120   0.963  0.0457  0.2303 -0.2016
  401MPD2    C5 5991   2.144   1.228   0.881 -0.2187  0.1942 -0.3289
  401MPD2     H 5992   2.486   1.107   1.008  0.3770 -1.1882 -2.4663
  401MPD2    H1 5993   2.059   1.062   0.978 -0.6391  2.3588  4.0337
  401MPD2    H2 5994   2.242   1.382   0.791  0.9637  0.5594 -0.1728
  401MPD2    H3 5995   2.049   1.252   0.836 -0.6190  1.7993  1.3844
  401MPD2     N 5996   2.282   0.960   1.097  0.1724  0.1956 -0.3289
  401MPD2    H5 5997   2.378   0.939   1.122 -0.9649 -1.8218  2.2771
  401MPD2    N1 5998   2.500   1.328   0.888 -0.6010 -0.0165  0.4899
  401MPD2    H7 5999   2.580   1.296   0.941 -0.0734  0.2753 -0.1267
  402TMC3    C1 6000   2.228   0.766   1.205  0.1829 -0.5397 -0.2567
  402TMC3    C2 6001   2.222   0.745   1.344  0.3004 -0.1723 -0.9187
  402TMC3    C3 6002   2.315   0.659   1.395 -0.0170 -0.0098  0.5250
  402TMC3    C4 6003   2.312   0.696   1.127  0.1178  0.6885 -0.4916
  402TMC3    C5 6004   2.383   0.592   1.183  0.0674 -0.0466 -0.2218
  402TMC3    C6 6005   2.381   0.566   1.317 -0.1977 -0.2298  0.5977
  402TMC3     C 6006   2.178   0.893   1.157 -0.0118 -0.3630  0.1261
  402TMC3     O 6007   2.068   0.942   1.185  0.5921  0.6336  0.5943
  402TMC3     H 6008   2.158   0.808   1.405  1.1802 -0.2480  0.0706
  402TMC3    H1 6009   2.307   0.715   1.021  0.1823  0.2841 -0.5656
  402TMC3    H2 6010   2.452   0.499   1.364 -0.3769  0.0530  1.2677
  402TMC3    C7 6011   2.449   0.501   1.085 -0.1636 -0.2768  0.5642
  402TMC3    C8 6012   2.342   0.667   1.539 -0.1677  0.7709  0.8307
  402TMC3    O1 6013   2.394   0.506   0.976 -0.1620  0.0553 -0.3144
  402TMC3    O2 6014   2.265   0.741   1.601 -0.0460  0.0687 -0.0997
  403MPD2     C 6015   1.096   4.432  13.097 -0.3170 -0.2295 -0.4641
  403MPD2    C1 6016   1.122   4.305  13.148 -1.1172  0.3631 -0.0427
  403MPD2    C2 6017   1.223   4.286  13.237  0.4360 -0.3516  0.8928
  403MPD2    C3 6018   1.285   4.401  13.283  0.8202 -0.1183  0.4703
  403MPD2    C4 6019   1.250   4.526  13.242 -0.0002 -0.0321  0.3255
  403MPD2    C5 6020   1.147   4.546  13.152 -0.0327 -0.9600 -0.6607
  403MPD2     H 6021   1.256   4.187  13.264 -1.7844 -1.3203  0.0413
  403MPD2    H1 6022   1.309   4.613  13.270 -0.5341  0.6802 -0.7599
  403MPD2    H2 6023   1.013   4.439  13.027  1.0568  0.6507 -2.0146
  403MPD2    H3 6024   1.117   4.646  13.122  0.8750 -0.9465 -1.5347
  403MPD2     N 6025   1.393   4.377  13.374 -0.3753  0.0298 -0.0736
  403MPD2    H5 6026   1.425   4.283  13.395  0.1778 -0.1605 -1.8359
  403MPD2    N1 6027   1.031   4.199  13.120  0.2260  0.5878  0.3120
  403MPD2    H7 6028   0.957   4.207  13.051 -0.0993 -1.4671  0.4337
  404TMC3    C1 6029   0.928   3.991  13.112 -0.1408 -0.3903  0.1153
  404TMC3    C2 6030   0.891   3.884  13.183 -0.7996 -0.5131  0.1101
  404TMC3    C3 6031   0.860   3.769  13.115  0.2445 -0.2088  0.5555
  404TMC3    C4 6032   0.928   3.985  12.971  0.2390 -0.0392  0.2431
  404TMC3    C5 6033   0.899   3.870  12.904 -0.6467 -0.2593 -0.0300
  404TMC3    C6 6034   0.856   3.758  12.978  0.3703 -0.0620  0.3037
  404TMC3     C 6035   1.022   4.078  13.176 -0.6964  0.0430 -0.4179
  404TMC3     O 6036   1.055   4.044  13.286  0.2213  0.5474  0.2549
  404TMC3     H 6037   0.895   3.893  13.291  0.5632  0.0407  0.0102
  404TMC3    H1 6038   0.983   4.064  12.921 -0.2344  0.1820  0.0736
  404TMC3    H2 6039   0.847   3.663  12.929 -1.9763 -0.8133  2.1861
  404TMC3    C7 6040   0.945   3.847  12.767 -0.1583 -0.8878 -0.0220
  404TMC3    C8 6041   0.852   3.649  13.196  0.4466 -0.0754 -0.6469
  404TMC3    O1 6042   1.035   3.921  12.729 -0.1030 -0.2890  0.2601
  404TMC3    O2 6043   0.885   3.548  13.136 -0.2507  0.1939  0.4517
  405MPD2     C 6044   1.190   4.115  15.130  0.1772 -0.7402  0.1987
  405MPD2    C1 6045   1.171   4.109  14.993 -0.2417 -0.7277 -0.2733
  405MPD2    C2 6046   1.173   4.220  14.917 -1.1117 -0.3396  0.2062
  405MPD2    C3 6047   1.193   4.341  14.973  0.5356 -0.5332  0.1979
  405MPD2    C4 6048   1.205   4.352  15.113  0.2173 -0.5600  0.3317
  405MPD2    C5 6049   1.209   4.235  15.189  0.3331  0.0049  0.2949
  405MPD2     H 6050   1.150   4.211  14.811 -2.4272 -0.1680  0.4842
  405MPD2    H1 6051   1.235   4.444  15.161  0.7922  0.5649 -2.1939
  405MPD2    H2 6052   1.190   4.024  15.189 -1.2888 -0.0293  1.2879
  405MPD2    H3 6053   1.240   4.231  15.293  0.0739  0.1431  0.3787
  405MPD2     N 6054   1.182   4.450  14.884 -0.3952 -0.1989  0.4528
  405MPD2    H5 6055   1.173   4.416  14.789  2.4771  1.0746 -0.2584
  405MPD2    N1 6056   1.159   3.990  14.919 -0.5755 -0.1091 -0.0351
  405MPD2    H7 6057   1.186   3.999  14.822  1.3207 -0.6146  0.4473
  406TMC3    C1 6058   1.116   0.135  14.684 -0.7602 -0.7716  0.3119
  406TMC3    C2 6059   1.094   0.065  14.566  0.3388 -0.4627  0.1066
  406TMC3    C3 6060   1.072   4.651  14.565  0.3740  0.1999  0.2323
  406TMC3    C4 6061   1.151   0.066  14.795  0.5758 -0.2347 -0.9334
  406TMC3    C5 6062   1.143   4.649  14.785 -0.4745  0.0371  0.1253
  406TMC3    C6 6063   1.101   4.579  14.676 -0.1297  0.4550  0.0065
  406TMC3     C 6064   1.140   0.278  14.672  0.0895 -0.3072  0.2922
  406TMC3     O 6065   1.255   0.319  14.687  1.2581  1.2045  0.6089
  406TMC3     H 6066   1.076   0.126  14.478 -1.9690 -0.1606  0.7877
  406TMC3    H1 6067   1.196   0.120  14.878 -0.5746  1.8632 -1.7018
  406TMC3    H2 6068   1.077   4.473  14.685 -2.1104  0.9749  1.0223
  406TMC3    C7 6069   1.170   4.583  14.907 -0.8608  0.0427 -0.1853
  406TMC3    C8 6070   1.054   4.574  14.445  0.7283  0.4175 -0.4896
  406TMC3    O1 6071   1.159   4.654  15.009 -0.6233 -0.1557  0.3500
  406TMC3    O2 6072   1.001   4.630  14.353  0.6218  0.3439 -0.1847
  407MPD2     C 6073   4.044   1.106   9.249 -0.2392 -0.0545 -0.3917
  407MPD2    C1 6074   4.180   1.109   9.285  0.3302  0.3643 -0.0212
  407MPD2    C2 6075   4.215   1.189   9.397  0.2312 -0.4500  0.1081
  407MPD2    C3 6076   4.115   1.267   9.464  0.2363  0.7266  0.4002
  407MPD2    C4 6077   3.990   1.268   9.414 -0.1184  0.0879  0.3321
  407MPD2    C5 6078   3.962   1.204   9.295  0.4154 -0.2780  0.7285
  407MPD2     H 6079   4.317   1.183   9.430 -0.6839  0.0501  3.0178
  407MPD2    H1 6080   3.908   1.322   9.460  1.6507  1.7821  1.4532
  407MPD2    H2 6081   4.005   1.050   9.165 -0.7928 -0.3799  0.0755
  407MPD2    H3 6082   3.860   1.197   9.258  0.9451  0.0863 -0.8115
  407MPD2     N 6083   4.143   1.354   9.573  0.0617 -0.0628  1.0511
  407MPD2    H5 6084   4.067   1.415   9.603 -1.1640 -0.8359 -0.4693
  407MPD2    N1 6085   4.278   1.033   9.217  0.1563  0.0142 -0.2628
  407MPD2    H7 6086   4.372   1.051   9.250  0.7455 -0.8210 -1.4625
  408TMC3    C1 6087   4.388   0.915   9.052 -0.3364  0.6441 -0.2633
  408TMC3    C2 6088   4.464   0.801   9.071  0.3522  0.4447  0.3222
  408TMC3    C3 6089   4.594   0.794   9.033 -0.1753 -0.4053  0.3179
  408TMC3    C4 6090   4.453   1.033   9.010  0.3576  0.5017  0.5273
  408TMC3    C5 6091   4.585   1.022   8.983  0.3556  0.1607 -0.5119
  408TMC3    C6 6092   4.662   0.906   8.993 -0.1529  0.2006 -0.3251
  408TMC3     C 6093   4.260   0.941   9.117  0.8554  0.2149  0.0344
  408TMC3     O 6094   4.166   0.874   9.087  0.7525 -0.0706  0.1672
  408TMC3     H 6095   4.418   0.715   9.119 -0.5963  0.6379 -0.2383
  408TMC3    H1 6096   4.398   1.126   9.007 -0.2268  0.0794 -1.4965
  408TMC3    H2 6097   0.042   0.908   8.961  0.1766  0.7129  0.7777
  408TMC3    C7 6098   4.659   1.138   8.999 -0.2904  0.3934  0.4233
  408TMC3    C8 6099   4.672   0.702   9.115  0.0765 -0.2364 -0.2785
  408TMC3    O1 6100   0.052   1.115   9.040  0.3370 -0.3748 -0.3142
  408TMC3    O2 6101   4.625   0.588   9.126  0.6660  0.3966  0.0363
  409MPD2     C 6102   3.095   2.433  16.725 -0.0065 -0.2018 -0.0330
  409MPD2    C1 6103   3.211   2.379  16.787  0.4267  0.2375 -0.1939
  409MPD2    C2 6104   3.330   2.441  16.763 -0.4348  0.2615 -0.1135
  409MPD2    C3 6105   3.337   2.562  16.700 -0.2946  0.0529  0.3769
  409MPD2    C4 6106   3.226   2.616  16.639  0.4621  0.4048  0.1587
  409MPD2    C5 6107   3.101   2.553  16.654  0.0102  0.1177  0.1407
  409MPD2     H 6108   3.412   2.384  16.805 -0.6382 -0.1425 -0.2694
  409MPD2    H1 6109   3.233   2.713  16.590 -1.4076  0.6741  0.4167
  409MPD2    H2 6110   2.997   2.390  16.738  0.2201 -0.4170  0.9606
  409MPD2    H3 6111   3.006   2.597  16.624 -1.1548 -1.3854  1.6031
  409MPD2     N 6112   3.459   2.632  16.685  0.1825  0.3663  0.2036
  409MPD2    H5 6113   3.458   2.715  16.627 -0.6540  0.8918  0.9675
  409MPD2    N1 6114   3.211   2.277  16.885  0.2931 -0.4802 -0.6878
  409MPD2    H7 6115   3.296   2.239  16.926 -0.1713 -0.9253 -0.1292
  410TMC3    C1 6116   3.683   2.691  16.756  0.1066 -0.2138 -0.7482
  410TMC3    C2 6117   3.746   2.704  16.875  0.1344 -0.0489 -0.0832
  410TMC3    C3 6118   3.834   2.808  16.881  0.4452  0.5704  0.7395
  410TMC3    C4 6119   3.713   2.768  16.647 -0.5189 -0.3809 -0.2870
  410TMC3    C5 6120   3.814   2.862  16.648  0.1129 -0.6036  0.5160
  410TMC3    C6 6121   3.880   2.875  16.767 -0.1016 -0.3613 -0.2345
  410TMC3     C 6122   3.575   2.594  16.758 -0.6651 -0.1222 -0.0670
  410TMC3     O 6123   3.598   2.502  16.844 -0.5491 -0.4433  0.2134
  410TMC3     H 6124   3.708   2.658  16.966  0.4152 -0.9324 -0.4050
  410TMC3    H1 6125   3.661   2.746  16.554 -0.0640 -3.6965  0.2430
  410TMC3    H2 6126   3.968   2.938  16.770 -0.5025  0.1100  1.5478
  410TMC3    C7 6127   3.851   2.940  16.528  0.0141  0.2318  0.3579
  410TMC3    C8 6128   3.915   2.815  17.003 -0.1370  0.0987  0.3110
  410TMC3    O1 6129   3.825   2.902  16.416 -0.8648  0.4921  0.6664
  410TMC3    O2 6130   3.975   2.915  17.029 -0.0697 -0.5366  0.2103
  411MPD2     C 6131   2.815   2.749  15.010  0.2914 -0.3535  0.1715
  411MPD2    C1 6132   2.901   2.736  14.908  0.6767  0.3610 -0.4345
  411MPD2    C2 6133   2.866   2.650  14.806 -0.4417 -0.2094  0.4104
  411MPD2    C3 6134   2.742   2.586  14.802 -0.3042 -0.0931  0.5567
  411MPD2    C4 6135   2.653   2.609  14.907 -0.0595  0.1296 -0.5909
  411MPD2    C5 6136   2.699   2.672  15.022 -1.2425  0.0539  0.4080
  411MPD2     H 6137   2.925   2.641  14.715  2.2375 -0.3486  2.1628
  411MPD2    H1 6138   2.562   2.551  14.911 -1.2877  2.0922  0.1560
  411MPD2    H2 6139   2.836   2.809  15.098 -1.4880 -0.4530  0.6689
  411MPD2    H3 6140   2.639   2.680  15.112 -2.4569  1.9024 -0.5565
  411MPD2     N 6141   2.711   2.510  14.690  0.5763  0.0487 -0.2520
  411MPD2    H5 6142   2.782   2.494  14.620 -0.3488 -1.0695 -0.9459
  411MPD2    N1 6143   3.020   2.813  14.911 -0.0140 -0.2464 -0.4525
  411MPD2    H7 6144   3.017   2.888  14.980 -3.4574 -1.3510  0.6301
  412TMC3    C1 6145   2.584   2.372  14.551 -0.2595  0.0459 -0.2250
  412TMC3    C2 6146   2.482   2.376  14.464  0.4454 -0.3238 -0.1565
  412TMC3    C3 6147   2.488   2.302  14.347 -0.3033  0.0178  0.3503
  412TMC3    C4 6148   2.671   2.269  14.546 -0.3338 -0.1222  0.5261
  412TMC3    C5 6149   2.670   2.188  14.437 -0.2824  0.1469  0.2724
  412TMC3    C6 6150   2.583   2.204  14.339  0.0350 -0.4088 -0.4515
  412TMC3     C 6151   2.588   2.462  14.665  0.4715 -0.0036 -0.7580
  412TMC3     O 6152   2.479   2.481  14.713 -0.0895 -0.2370 -0.0957
  412TMC3     H 6153   2.403   2.450  14.472 -1.4657 -2.3060 -0.7390
  412TMC3    H1 6154   2.740   2.262  14.630  1.2629 -2.9080 -1.0534
  412TMC3    H2 6155   2.587   2.138  14.253  1.9729  0.4477 -1.0182
  412TMC3    C7 6156   2.801   2.136  14.408 -0.8439  0.0169 -0.5160
  412TMC3    C8 6157   2.438   2.377  14.231 -0.4009 -0.9381  0.0761
  412TMC3    O1 6158   2.879   2.135  14.502 -0.0258 -0.6994  0.2218
  412TMC3    O2 6159   2.357   2.471  14.252 -0.2498  0.4795 -0.1461
  413MPD2     C 6160   0.258   0.581  15.573  0.2038 -0.4252 -0.0275
  413MPD2    C1 6161   0.208   0.607  15.444 -0.1899 -0.2441 -0.3832
  413MPD2    C2 6162   0.273   0.553  15.335  0.3797 -0.5880 -0.7424
  413MPD2    C3 6163   0.370   0.454  15.357  0.2194 -0.0035 -0.2306
  413MPD2    C4 6164   0.413   0.430  15.486  0.0838 -0.3304  0.4022
  413MPD2    C5 6165   0.370   0.505  15.596 -0.0416  0.2287 -0.1984
  413MPD2     H 6166   0.244   0.570  15.232  0.5687 -3.1278 -1.2052
  413MPD2    H1 6167   0.488   0.355  15.511  0.2021 -0.6273 -0.8430
  413MPD2    H2 6168   0.212   0.638  15.653 -0.4363 -0.3353 -0.4547
  413MPD2    H3 6169   0.415   0.510  15.694 -2.8287 -0.1558  1.1033
  413MPD2     N 6170   0.434   0.395  15.249 -0.7172  0.0059  0.5028
  413MPD2    H5 6171   0.414   0.432  15.157  1.8238  1.0171  0.3746
  413MPD2    N1 6172   0.100   0.699  15.430  0.1547 -0.2590  0.0560
  413MPD2    H7 6173   0.058   0.729  15.518 -1.8583  0.8340 -1.2812
  414TMC3    C1 6174   0.584   0.266  15.129 -0.6757  0.1038  1.0817
  414TMC3    C2 6175   0.631   0.141  15.113 -0.4883 -0.4374  0.9166
  414TMC3    C3 6176   0.729   0.125  15.030  0.6092 -0.1247 -0.4646
  414TMC3    C4 6177   0.639   0.383  15.066  0.6985  0.4710 -0.2349
  414TMC3    C5 6178   0.739   0.350  14.983  0.4417 -0.4818  0.5721
  414TMC3    C6 6179   0.790   0.226  14.965 -0.0430 -0.7003  0.4198
  414TMC3     C 6180   0.524   0.289  15.262  0.4950  0.5883 -0.3598
  414TMC3     O 6181   0.548   0.210  15.354  0.4825 -0.1120 -0.1613
  414TMC3     H 6182   0.603   0.067  15.186 -1.7587 -0.5186  0.3604
  414TMC3    H1 6183   0.595   0.481  15.078 -1.6497 -0.3761 -1.9578
  414TMC3    H2 6184   0.879   0.208  14.906 -0.8345 -1.0444 -0.6583
  414TMC3    C7 6185   0.834   0.460  14.950  0.5110 -0.2952 -0.5063
  414TMC3    C8 6186   0.757   4.711  15.002  1.0869  0.2251 -0.4229
  414TMC3    O1 6187   0.952   0.426  14.955 -0.1494 -0.0531  0.7979
  414TMC3    O2 6188   0.745   4.632  15.094 -0.0099 -0.1936 -0.5612
  415TMC3    C1 6189   1.643   3.323   9.842 -0.0034  0.0136  0.3791
  415TMC3    C2 6190   1.739   3.372   9.760 -0.3006  0.1707  0.4603
  415TMC3    C3 6191   1.721   3.355   9.626 -0.9398 -0.1150 -0.4534
  415TMC3    C4 6192   1.538   3.255   9.790  0.8380 -0.4921  0.6203
  415TMC3    C5 6193   1.537   3.225   9.657 -0.6575 -0.2563 -0.8505
  415TMC3    C6 6194   1.620   3.276   9.571 -0.2277 -0.3727  0.2365
  415TMC3     C 6195   1.660   3.318   9.987  0.9387  0.3459 -0.1719
  415TMC3     O 6196   1.597   3.230  10.047 -0.0720 -0.4751  0.4973
  415TMC3     H 6197   1.826   3.421   9.802  0.0172  1.2280 -1.4047
  415TMC3    H1 6198   1.451   3.229   9.849 -1.1400  0.9335 -1.6602
  415TMC3    H2 6199   1.604   3.252   9.466  3.0766 -0.4750 -0.2369
  415TMC3    C7 6200   1.420   3.148   9.609  0.3740 -0.1715  0.9709
  415TMC3    C8 6201   1.759   3.463   9.534 -0.1466  0.2056 -0.1415
  415TMC3    O1 6202   1.386   3.172   9.493  0.8480 -0.1537  0.2368
  415TMC3    O2 6203   1.701   3.455   9.425  0.4471 -0.4805  0.2296
  416MPD2     C 6204   3.118   2.685  11.445  0.3252 -0.1336  0.4086
  416MPD2    C1 6205   2.987   2.672  11.402  0.3949  0.1959  0.4511
  416MPD2    C2 6206   2.955   2.563  11.332  0.6093 -0.4823 -0.5053
  416MPD2    C3 6207   3.056   2.474  11.286  0.8321  0.2208 -0.6877
  416MPD2    C4 6208   3.182   2.505  11.306 -0.3837 -0.1984 -0.6496
  416MPD2    C5 6209   3.217   2.605  11.395 -0.1747 -0.3924  0.8471
  416MPD2     H 6210   2.849   2.545  11.316  0.2388  0.9865  0.2710
  416MPD2    H1 6211   3.269   2.453  11.269  0.9200 -1.4241  4.0301
  416MPD2    H2 6212   3.137   2.770  11.510 -3.8697  0.5581  0.7024
  416MPD2    H3 6213   3.320   2.628  11.420 -0.4058  2.0836 -0.4778
  416MPD2     N 6214   3.030   2.358  11.214 -0.4860 -0.1523 -0.5435
  416MPD2    H5 6215   3.111   2.302  11.192 -1.7273 -1.5468 -1.6113
  416MPD2    N1 6216   2.898   2.778  11.436 -0.0175  0.1779 -0.2801
  416MPD2    H7 6217   2.928   2.857  11.493  0.7223 -0.4726  0.2198
  417TMC3    C1 6218   2.694   2.895  11.446 -0.1685 -0.5008 -0.2164
  417TMC3    C2 6219   2.731   2.953  11.569 -0.0502 -0.3589  0.2325
  417TMC3    C3 6220   2.666   3.071  11.608 -0.3887  0.1027 -0.3229
  417TMC3    C4 6221   2.587   2.938  11.375 -1.1170 -0.8141  0.1289
  417TMC3    C5 6222   2.523   3.047  11.424  0.0465  1.1558 -0.0393
  417TMC3    C6 6223   2.565   3.120  11.530  0.4318  0.0869 -0.4529
  417TMC3     C 6224   2.774   2.790  11.381  0.1063  0.3905  0.0583
  417TMC3     O 6225   2.729   2.732  11.281 -0.1898  0.2454  0.9670
  417TMC3     H 6226   2.815   2.907  11.619 -1.8924 -3.5294  0.4071
  417TMC3    H1 6227   2.558   2.878  11.290  0.7736 -1.3382 -0.1583
  417TMC3    H2 6228   2.531   3.222  11.545 -2.4917 -0.9604 -0.0342
  417TMC3    C7 6229   2.448   3.124  11.324 -0.2622  0.5310 -0.5151
  417TMC3    C8 6230   2.665   3.112  11.745  0.1848  0.3330  0.3541
  417TMC3    O1 6231   2.464   3.079  11.212 -0.2825  0.6808  0.3498
  417TMC3    O2 6232   2.566   3.178  11.779  0.7941 -0.4367  0.1592
  418TMC3    C1 6233   1.744   0.466   0.520 -0.3175 -0.0801  0.2463
  418TMC3    C2 6234   1.658   0.431   0.415 -0.1238 -0.4045  0.5027
  418TMC3    C3 6235   1.577   0.324   0.432  0.2003 -0.2831 -0.1592
  418TMC3    C4 6236   1.745   0.396   0.641 -0.4564  0.5358 -0.9105
  418TMC3    C5 6237   1.652   0.291   0.658  0.0246 -0.5140 -0.1328
  418TMC3    C6 6238   1.574   0.252   0.552 -0.4189  0.2170  0.0131
  418TMC3     C 6239   1.869   0.518   0.479 -1.3002 -0.2489  0.0001
  418TMC3     O 6240   1.872   0.633   0.444  0.4020 -0.1698 -0.2247
  418TMC3     H 6241   1.674   0.465   0.313 -0.6817  0.9564  0.8724
  418TMC3    H1 6242   1.823   0.426   0.710 -1.3282 -1.0604  0.7545
  418TMC3    H2 6243   1.499   0.175   0.566 -1.2050  0.9820 -0.0363
  418TMC3    C7 6244   1.677   0.193   0.759 -0.0011  0.1914 -0.3052
  418TMC3    C8 6245   1.516   0.267   0.314  0.3064  0.7678 -0.5123
  418TMC3    O1 6246   1.628   0.082   0.739 -0.7217  0.1479  0.6655
  418TMC3    O2 6247   1.496   0.347   0.219 -0.4709  0.4418 -0.4406
  419MPD2     C 6248   0.507   2.419  12.215 -0.3783  0.4406 -0.1622
  419MPD2    C1 6249   0.387   2.490  12.191 -0.0759 -0.0817 -0.4637
  419MPD2    C2 6250   0.316   2.540  12.300  0.0113  0.0373 -0.6464
  419MPD2    C3 6251   0.377   2.534  12.425  0.4048  0.2839  0.7183
  419MPD2    C4 6252   0.502   2.478  12.448 -0.2988 -0.6838 -0.0600
  419MPD2    C5 6253   0.562   2.416  12.342  0.0079  0.4822  0.3806
  419MPD2     H 6254   0.223   2.593  12.282 -0.4215 -0.4173  0.2326
  419MPD2    H1 6255   0.559   2.475  12.540  0.0212 -2.0180 -0.2982
  419MPD2    H2 6256   0.564   2.372  12.135 -0.1930  1.3300 -0.5488
  419MPD2    H3 6257   0.658   2.371  12.365 -0.4274  0.4829  2.2127
  419MPD2     N 6258   0.312   2.607  12.528  0.2958 -0.1562  0.0969
  419MPD2    H5 6259   0.227   2.655  12.500 -0.3138 -0.7664  0.9000
  419MPD2    N1 6260   0.318   2.490  12.066 -0.2576  0.0385  0.8581
  419MPD2    H7 6261   0.225   2.530  12.061 -0.6740 -0.9902  0.4764
  420TMC3    C1 6262   0.243   2.679  12.751 -0.4267  0.6142  0.2654
  420TMC3    C2 6263   0.116   2.713  12.708 -0.3918  1.2078  1.2010
  420TMC3    C3 6264   0.028   2.749  12.807 -0.4677  0.7111 -0.1128
  420TMC3    C4 6265   0.279   2.680  12.887  0.7199  0.5816 -0.3441
  420TMC3    C5 6266   0.176   2.707  12.980 -1.1118  0.2324 -0.8229
  420TMC3    C6 6267   0.054   2.757  12.939 -0.0039  1.5432 -0.0239
  420TMC3     C 6268   0.344   2.620  12.662 -0.0765 -0.2654  0.3737
  420TMC3     O 6269   0.440   2.579  12.721 -0.6206 -0.4038 -0.0724
  420TMC3     H 6270   0.090   2.718  12.603  0.0009 -0.8419  0.9944
  420TMC3    H1 6271   0.386   2.684  12.905  0.5070  0.9317  0.7920
  420TMC3    H2 6272   4.696   2.784  13.007 -1.9970 -3.0030 -0.5315
  420TMC3    C7 6273   0.200   2.705  13.124  0.3592  0.0522  0.6115
  420TMC3    C8 6274   4.632   2.817  12.765 -0.1767 -0.5031 -0.6210
  420TMC3    O1 6275   0.121   2.770  13.200  0.0705  0.0779  0.1324
  420TMC3    O2 6276   4.597   2.909  12.837 -0.1786  0.0458 -0.3183
  421TMC3    C1 6277   1.581   4.419  13.506  0.1447  0.5346 -0.4584
  421TMC3    C2 6278   1.681   4.512  13.501  0.3333 -0.1825 -0.7019
  421TMC3    C3 6279   1.804   4.465  13.539  0.2002 -0.1278 -0.1817
  421TMC3    C4 6280   1.599   4.283  13.524 -0.0350  1.2078  0.0056
  421TMC3    C5 6281   1.730   4.241  13.551  0.3613 -0.4930 -0.1899
  421TMC3    C6 6282   1.835   4.333  13.552 -0.4441 -0.0478  0.1022
  421TMC3     C 6283   1.457   4.466  13.449 -0.2778  0.2441  0.2266
  421TMC3     O 6284   1.428   4.588  13.470  0.1200 -0.2121 -0.1197
  421TMC3     H 6285   1.664   4.619  13.507 -0.2564 -0.2533 -1.1248
  421TMC3    H1 6286   1.516   4.215  13.533 -1.8187  3.5808  1.4454
  421TMC3    H2 6287   1.940   4.308  13.563 -0.3672  0.3765  0.3537
  421TMC3    C7 6288   1.763   4.112  13.615 -0.0079 -0.3092 -0.7569
  421TMC3    C8 6289   1.884   4.558  13.606 -0.3061 -0.4385  0.1820
  421TMC3    O1 6290   1.877   4.089  13.653 -0.1067 -1.0232 -0.5198
  421TMC3    O2 6291   1.874   4.671  13.561  0.2670  0.0258  0.0782
  422TMC3    C1 6292   3.823   0.661  12.823  0.1299 -0.5346  0.1410
  422TMC3    C2 6293   3.793   0.765  12.907  0.0801  0.0096 -0.5151
  422TMC3    C3 6294   3.675   0.761  12.974  0.0460  0.2514  0.2646
  422TMC3    C4 6295   3.731   0.557  12.796  0.7265  0.0905 -0.4517
  422TMC3    C5 6296   3.612   0.561  12.858 -0.0876 -0.0612 -0.0377
  422TMC3    C6 6297   3.590   0.660  12.955 -0.1045  0.1220 -0.0469
  422TMC3     C 6298   3.918   0.691  12.719  0.1160  0.4617 -0.1001
  422TMC3     O 6299   3.912   0.797  12.667 -0.1520 -0.5663  0.2353
  422TMC3     H 6300   3.867   0.843  12.915 -2.5812  2.5226 -0.3001
  422TMC3    H1 6301   3.736   0.498  12.705 -0.1463  0.6329 -0.8569
  422TMC3    H2 6302   3.509   0.643  13.025 -0.5069  0.0462 -0.5311
  422TMC3    C7 6303   3.506   0.466  12.815 -0.7030 -0.1027  0.2659
  422TMC3    C8 6304   3.669   0.857  13.090 -0.5469 -0.4091 -0.7716
  422TMC3    O1 6305   3.546   0.370  12.751  0.2684  0.2440  0.4510
  422TMC3    O2 6306   3.743   0.953  13.079  0.0675 -0.7783  0.2188
  423MPD2     C 6307   0.286   1.908   0.424 -0.5891  0.0685 -0.7278
  423MPD2    C1 6308   0.352   1.787   0.444 -0.2519 -0.2934 -0.5891
  423MPD2    C2 6309   0.384   1.707   0.333 -0.0627 -0.0387 -0.0530
  423MPD2    C3 6310   0.346   1.745   0.209 -0.4488 -0.1887  0.1693
  423MPD2    C4 6311   0.262   1.855   0.203 -0.0410 -0.1620  0.6211
  423MPD2    C5 6312   0.233   1.938   0.308  0.1107  0.4121  0.4644
  423MPD2     H 6313   0.436   1.616   0.359  0.5461  0.3440  0.0804
  423MPD2    H1 6314   0.215   1.885   0.109  0.1069 -0.3438  0.4885
  423MPD2    H2 6315   0.277   1.981   0.503  0.6726 -0.3014 -0.2316
  423MPD2    H3 6316   0.184   2.034   0.297 -2.2062 -1.0001 -1.3494
  423MPD2     N 6317   0.365   1.671   0.086  0.1944 -0.1906 -0.4937
  423MPD2    H5 6318   0.331   1.701  17.689  2.0911  1.4672 -0.6559
  423MPD2    N1 6319   0.397   1.738   0.569  0.4572 -0.8424  0.1297
  423MPD2    H7 6320   0.448   1.650   0.572  0.7893 -0.6479  0.3532
  424TMC3    C1 6321   0.418   1.721   0.805 -0.6431  0.3020  0.0318
  424TMC3    C2 6322   0.548   1.674   0.803 -0.0962 -0.6369  1.0694
  424TMC3    C3 6323   0.591   1.602   0.911  0.6003  0.2496 -0.0142
  424TMC3    C4 6324   0.339   1.711   0.917 -0.4736  1.0003  0.0006
  424TMC3    C5 6325   0.386   1.631   1.016  0.1117 -0.5778  0.0321
  424TMC3    C6 6326   0.512   1.588   1.024 -0.9224 -0.1319 -0.3162
  424TMC3     C 6327   0.370   1.800   0.692 -0.0881 -0.2691  0.0989
  424TMC3     O 6328   0.290   1.892   0.716  0.4956 -0.3808 -0.1601
  424TMC3     H 6329   0.606   1.687   0.712 -0.6645  0.4168  0.8513
  424TMC3    H1 6330   0.237   1.747   0.912 -1.1894 -1.1734 -1.3533
  424TMC3    H2 6331   0.556   1.540   1.111  0.0366 -0.7456 -1.1354
  424TMC3    C7 6332   0.285   1.606   1.119  0.5335  0.7171 -0.0146
  424TMC3    C8 6333   0.725   1.556   0.923 -0.3495  0.2038 -0.1215
  424TMC3    O1 6334   0.187   1.673   1.126  0.2752  0.0974  0.1989
  424TMC3    O2 6335   0.765   1.514   1.032 -0.0860  0.3711 -0.6617
  425MPD2     C 6336   4.093   1.267  17.273 -0.5724  0.6579 -0.4254
  425MPD2    C1 6337   4.032   1.141  17.285  0.1904  0.1621  0.2454
  425MPD2    C2 6338   3.898   1.144  17.305  0.5419  0.1055 -0.5317
  425MPD2    C3 6339   3.826   1.260  17.301  0.2266  0.2998 -0.2921
  425MPD2    C4 6340   3.884   1.383  17.301 -0.1895 -0.5110 -0.1659
  425MPD2    C5 6341   4.019   1.382  17.276 -0.1436 -0.2309 -0.0235
  425MPD2     H 6342   3.839   1.054  17.317  0.5225  0.4236  1.6679
  425MPD2    H1 6343   3.829   1.477  17.310 -0.9010 -0.9308 -0.1538
  425MPD2    H2 6344   4.200   1.281  17.257 -0.1282  1.0036  2.9250
  425MPD2    H3 6345   4.082   1.470  17.264 -0.2817 -0.1299 -0.0062
  425MPD2     N 6346   3.689   1.246  17.314  0.1948  0.2792 -0.8027
  425MPD2    H5 6347   3.653   1.151  17.304  0.0063  0.1426  1.3018
  425MPD2    N1 6348   4.101   1.020  17.247  0.3841  0.4603  0.7503
  425MPD2    H7 6349   4.197   1.033  17.217 -0.7383  0.4726 -2.8110
  426TMC3    C1 6350   4.134   0.783  17.208  0.1054  0.1345  0.4845
  426TMC3    C2 6351   4.082   0.668  17.150 -0.1403  0.3532 -0.0939
  426TMC3    C3 6352   4.181   0.573  17.110 -0.2361 -0.2302 -0.4402
  426TMC3    C4 6353   4.257   0.788  17.253 -0.1075  0.8304  0.5649
  426TMC3    C5 6354   4.344   0.685  17.242  1.0984 -0.1840  0.4678
  426TMC3    C6 6355   4.302   0.576  17.166  0.2470 -0.8088 -0.4701
  426TMC3     C 6356   4.045   0.890  17.235  0.3034  0.5863  0.2047
  426TMC3     O 6357   3.933   0.854  17.263  0.1496 -0.3046 -0.0680
  426TMC3     H 6358   3.988   0.671  17.097 -0.4753  1.1098  0.5444
  426TMC3    H1 6359   4.294   0.880  17.297 -1.2933  1.5034  0.1710
  426TMC3    H2 6360   4.376   0.502  17.138  1.0591  0.3821 -1.4506
  426TMC3    C7 6361   4.445   0.647  17.335 -0.1711 -0.3898 -0.2771
  426TMC3    C8 6362   4.147   0.460  17.028 -0.3939  0.8663 -0.5989
  426TMC3    O1 6363   4.523   0.558  17.302  0.7248 -0.0747  0.2461
  426TMC3    O2 6364   4.239   0.387  17.000  0.0083 -0.0519 -0.0225
  427MPD2     C 6365   2.851   3.123  15.016  1.4171  0.6986 -0.5647
  427MPD2    C1 6366   2.786   3.095  15.131 -0.7460  0.3673  0.0784
  427MPD2    C2 6367   2.650   3.086  15.138 -0.0964 -0.5987  0.2104
  427MPD2    C3 6368   2.580   3.118  15.019  0.3888  0.3387 -0.0156
  427MPD2    C4 6369   2.642   3.154  14.905 -0.0173  0.2018 -0.0624
  427MPD2    C5 6370   2.781   3.155  14.904  0.4320  0.3395  0.9777
  427MPD2     H 6371   2.604   3.077  15.235 -1.1116  0.5600 -0.1575
  427MPD2    H1 6372   2.584   3.195  14.822 -1.1009 -1.2279 -0.0123
  427MPD2    H2 6373   2.957   3.143  15.010  1.2631  1.0402 -2.0851
  427MPD2    H3 6374   2.825   3.178  14.808 -1.3225 -1.0524 -0.1731
  427MPD2     N 6375   2.439   3.132  15.009  0.1162  0.0895 -0.6328
  427MPD2    H5 6376   2.405   3.164  14.919  0.2852 -1.0565 -1.1115
  427MPD2    N1 6377   2.861   3.080  15.254 -0.1445  0.2838  0.5289
  427MPD2    H7 6378   2.814   3.105  15.341 -0.9259  3.1206 -0.7073
  428TMC3    C1 6379   3.050   3.042  15.380 -0.8955 -0.0400 -0.1618
  428TMC3    C2 6380   2.978   3.106  15.482  0.1399 -0.0344 -0.6601
  428TMC3    C3 6381   3.017   3.068  15.606 -0.0747 -0.3870 -0.1081
  428TMC3    C4 6382   3.162   2.964  15.398  0.2322 -0.1226  0.0669
  428TMC3    C5 6383   3.199   2.943  15.526 -0.4935 -0.3189  0.0675
  428TMC3    C6 6384   3.127   3.001  15.631  0.1174  0.4474 -0.1543
  428TMC3     C 6385   2.987   3.029  15.252 -0.0689 -0.0264 -0.0066
  428TMC3     O 6386   3.044   2.966  15.163  0.2378 -0.5564  0.2176
  428TMC3     H 6387   2.896   3.176  15.471 -0.2373 -0.1685  1.2710
  428TMC3    H1 6388   3.204   2.913  15.313  0.2159 -2.9865  1.7596
  428TMC3    H2 6389   3.167   3.001  15.731 -0.9159  0.4932  0.2620
  428TMC3    C7 6390   3.344   2.938  15.546 -0.1133  0.0840  0.3614
  428TMC3    C8 6391   2.944   3.112  15.722 -0.2963 -0.0373 -0.8911
  428TMC3    O1 6392   3.376   2.921  15.663 -0.1551 -0.1992 -0.7879
  428TMC3    O2 6393   2.904   3.227  15.733  0.2742  0.5345 -0.5001
  429MPD2     C 6394   4.094   3.214   0.138  0.7507  0.4325  0.3809
  429MPD2    C1 6395   4.072   3.149   0.018 -0.3701 -0.2486 -0.1300
  429MPD2    C2 6396   4.099   3.219  17.591  0.8633  1.1904 -0.1351
  429MPD2    C3 6397   4.177   3.333  17.601  0.6826  0.0669  0.3539
  429MPD2    C4 6398   4.189   3.396   0.030 -0.3112  0.5352 -1.0105
  429MPD2    C5 6399   4.154   3.334   0.148 -0.0211  0.1075 -0.2891
  429MPD2     H 6400   4.056   3.180  17.499  0.8632 -0.9569  0.7837
  429MPD2    H1 6401   4.217   3.500   0.040 -0.8651  0.6260 -0.3646
  429MPD2    H2 6402   4.067   3.169   0.233 -0.3336 -0.3286 -0.2839
  429MPD2    H3 6403   4.168   3.390   0.240  1.9061 -1.6888  0.4985
  429MPD2     N 6404   4.218   3.388  17.476  0.3386  0.0112  0.6679
  429MPD2    H5 6405   4.181   3.336  17.397  0.3767 -0.9570  1.2915
  429MPD2    N1 6406   3.993   3.031   0.008  0.7506 -0.2732  0.5801
  429MPD2    H7 6407   3.966   3.013  17.605 -0.7485  1.4841  0.6778
  430TMC3    C1 6408   4.313   3.536  17.319  0.2655  0.4641 -0.5670
  430TMC3    C2 6409   4.313   3.666  17.276 -0.1148  1.0094  0.1807
  430TMC3    C3 6410   4.360   3.691  17.147 -0.2828 -0.6733 -0.0369
  430TMC3    C4 6411   4.343   3.431  17.238 -0.1228  0.0237  0.3775
  430TMC3    C5 6412   4.360   3.467  17.107 -0.5056 -0.4288  0.6368
  430TMC3    C6 6413   4.374   3.595  17.053  0.1395 -0.3302  0.3580
  430TMC3     C 6414   4.265   3.510  17.454  0.1595  0.2729 -0.3224
  430TMC3     O 6415   4.280   3.601  17.533 -0.1939 -0.2601  0.3448
  430TMC3     H 6416   4.285   3.748  17.341  0.6089  1.0246  0.4703
  430TMC3    H1 6417   4.349   3.329  17.275  2.7928 -0.6127 -1.8547
  430TMC3    H2 6418   4.438   3.606  16.966 -0.7972 -2.1259 -0.5738
  430TMC3    C7 6419   4.362   3.358  17.016  0.1138  0.6121 -0.1795
  430TMC3    C8 6420   4.282   3.790  17.077 -0.1959  0.7850  0.5748
  430TMC3    O1 6421   4.365   3.250  17.075  0.3195 -0.3338  0.2124
  430TMC3    O2 6422   4.276   3.778  16.959 -0.0441  0.2011 -0.3404
  431MPD2     C 6423   0.013   3.020  12.194  0.0280 -0.0352 -0.6559
  431MPD2    C1 6424   0.094   3.031  12.082 -0.4331 -0.0785  0.0079
  431MPD2    C2 6425   0.085   2.936  11.985  0.3233 -0.0334 -0.2352
  431MPD2    C3 6426   4.720   2.832  11.999  0.1626 -0.1565  0.1190
  431MPD2    C4 6427   4.647   2.818  12.111  0.1620 -1.0557  1.1188
  431MPD2    C5 6428   4.654   2.914  12.205 -0.0591 -0.2010 -0.1392
  431MPD2     H 6429   0.155   2.933  11.903  0.5830  1.9551 -0.0857
  431MPD2    H1 6430   4.579   2.736  12.132 -3.3482  0.7265 -3.3244
  431MPD2    H2 6431   0.010   3.084  12.281 -2.8722 -0.2181 -0.6529
  431MPD2    H3 6432   4.602   2.903  12.299  0.5363 -0.2054  0.1846
  431MPD2     N 6433   4.714   2.725  11.911 -0.2826  0.6491 -0.6511
  431MPD2    H5 6434   4.664   2.647  11.952  0.9407 -0.8946 -2.0507
  431MPD2    N1 6435   0.194   3.128  12.079 -0.2219 -0.2859 -0.8570
  431MPD2    H7 6436   0.247   3.137  11.993  0.4441 -0.8702 -0.5126
  432TMC3    C1 6437   0.101   2.577  11.767  0.5819 -0.3259  0.3844
  432TMC3    C2 6438   0.152   2.560  11.638 -0.0426  0.4122 -0.0093
  432TMC3    C3 6439   0.259   2.478  11.621  0.0952 -0.0478  0.0005
  432TMC3    C4 6440   0.154   2.507  11.876 -0.6680  0.4683  0.0847
  432TMC3    C5 6441   0.261   2.429  11.854 -0.4375  0.8680 -0.4908
  432TMC3    C6 6442   0.315   2.412  11.724  0.2186  0.0704  0.1503
  432TMC3     C 6443   0.066   2.714  11.796  0.0138  0.1298  0.8284
  432TMC3     O 6444   0.111   2.805  11.725  0.0696  0.1924 -0.1948
  432TMC3     H 6445   0.104   2.610  11.555 -1.6688  1.1665  1.3849
  432TMC3    H1 6446   0.105   2.512  11.973  1.0444  1.5444  0.9016
  432TMC3    H2 6447   0.403   2.350  11.709  0.8856  1.2002 -0.5839
  432TMC3    C7 6448   0.364   2.420  11.955  0.8094  0.7693 -0.1859
  432TMC3    C8 6449   0.342   2.498  11.500 -0.4089  0.4863  0.1460
  432TMC3    O1 6450   0.464   2.348  11.945  0.4478  0.3498 -0.2297
  432TMC3    O2 6451   0.294   2.533  11.393  0.2160 -0.1261 -0.0858
  433MPD2     C 6452   3.934   2.033  10.625  0.7600  0.1341  0.3557
  433MPD2    C1 6453   3.907   1.929  10.717 -0.9506  0.1397 -0.4078
  433MPD2    C2 6454   3.946   1.953  10.848 -0.3259 -0.2980  0.3347
  433MPD2    C3 6455   4.004   2.079  10.886 -0.3733  0.6731  0.4982
  433MPD2    C4 6456   4.037   2.167  10.785  0.1893  0.9145  0.0154
  433MPD2    C5 6457   4.007   2.142  10.657 -0.3788  0.0648 -0.3191
  433MPD2     H 6458   3.938   1.870  10.918 -2.4753 -0.2147  0.1799
  433MPD2    H1 6459   4.073   2.268  10.800 -0.7738  1.2217  0.3211
  433MPD2    H2 6460   3.915   2.022  10.518 -2.5182 -1.5957  1.1041
  433MPD2    H3 6461   4.036   2.226  10.594 -2.2709  0.2262 -0.9683
  433MPD2     N 6462   4.031   2.109  11.018  0.1217  0.1569  0.0602
  433MPD2    H5 6463   4.015   2.035  11.086  1.9268  1.6807  2.1644
  433MPD2    N1 6464   3.856   1.806  10.669  0.0863 -0.3289  0.1540
  433MPD2    H7 6465   3.859   1.788  10.569  1.6276  0.4869  0.0499
  434TMC3    C1 6466   3.793   1.584  10.685 -0.6011  0.1764  0.9995
  434TMC3    C2 6467   3.823   1.470  10.753 -0.2940  0.3235 -0.2421
  434TMC3    C3 6468   3.836   1.347  10.685  0.2196  0.3855  1.0721
  434TMC3    C4 6469   3.761   1.586  10.555 -0.3489  0.3280 -0.9140
  434TMC3    C5 6470   3.762   1.463  10.484 -0.6591  0.7451  0.0620
  434TMC3    C6 6471   3.810   1.346  10.547 -0.1368 -0.0613 -0.1219
  434TMC3     C 6472   3.813   1.709  10.752 -0.3598  0.5352  0.0067
  434TMC3     O 6473   3.797   1.707  10.874  0.1098 -0.0629 -0.0419
  434TMC3     H 6474   3.854   1.480  10.856 -1.2750  0.0908  0.0741
  434TMC3    H1 6475   3.730   1.673  10.498  0.0913  0.7349 -0.5363
  434TMC3    H2 6476   3.802   1.248  10.501  0.0688 -0.6369  1.0702
  434TMC3    C7 6477   3.724   1.460  10.341 -0.1794  0.3984 -0.1021
  434TMC3    C8 6478   3.884   1.220  10.740 -0.2374 -0.1030  0.0339
  434TMC3    O1 6479   3.690   1.561  10.282  0.3636 -0.6169 -0.2273
  434TMC3    O2 6480   3.887   1.126  10.662 -0.7071  0.0063  0.0099
  435MPD2     C 6481   0.974   2.043  15.492 -0.5875 -0.5173 -0.8170
  435MPD2    C1 6482   0.944   1.997  15.617  0.4779  0.2591  0.4800
  435MPD2    C2 6483   1.048   1.941  15.692 -0.4466 -0.1156  0.9448
  435MPD2    C3 6484   1.173   1.914  15.634  0.0806 -0.1219 -0.2220
  435MPD2    C4 6485   1.203   1.952  15.511  0.8341 -0.4684  0.2998
  435MPD2    C5 6486   1.102   2.029  15.445  0.1645 -0.0192 -0.0332
  435MPD2     H 6487   1.033   1.899  15.790  1.8104  0.1402  1.3927
  435MPD2    H1 6488   1.297   1.928  15.464  0.1692 -0.2537 -1.1303
  435MPD2    H2 6489   0.907   2.089  15.421 -2.4173 -2.8427 -0.5919
  435MPD2    H3 6490   1.108   2.046  15.338 -1.9184  0.2426 -0.1186
  435MPD2     N 6491   1.264   1.828  15.706  0.5423 -0.1700  0.4539
  435MPD2    H5 6492   1.243   1.806  15.803 -1.0187 -1.9969 -0.2983
  435MPD2    N1 6493   0.816   2.008  15.672 -0.3102  0.4935  0.3919
  435MPD2    H7 6494   0.799   1.947  15.751 -0.1353  0.4779  0.4174
  436TMC3    C1 6495   0.399   2.090  15.803 -0.4964 -0.2543 -0.2359
  436TMC3    C2 6496   0.502   2.125  15.722  0.2880  0.0007 -0.0154
  436TMC3    C3 6497   0.589   2.034  15.677  0.0985 -0.9944  0.6544
  436TMC3    C4 6498   0.381   1.962  15.841  0.0605 -0.6038  0.1182
  436TMC3    C5 6499   0.470   1.867  15.784 -0.2613 -0.0997  0.2464
  436TMC3    C6 6500   0.574   1.899  15.705  0.8239  0.5529 -0.3571
  436TMC3     C 6501   0.341   2.195  15.885 -0.0909  0.0918  0.6271
  436TMC3     O 6502   0.365   2.310  15.845 -0.0270 -0.3232  0.6105
  436TMC3     H 6503   0.523   2.229  15.699  1.0002 -0.1614 -0.0935
  436TMC3    H1 6504   0.299   1.935  15.906 -1.8347 -0.6205 -2.2721
  436TMC3    H2 6505   0.653   1.832  15.672 -1.0857 -2.6999  1.6856
  436TMC3    C7 6506   0.464   1.733  15.824  0.1641  0.0013  0.3952
  436TMC3    C8 6507   0.717   2.074  15.619 -0.5594  0.4930 -0.1409
  436TMC3    O1 6508   0.512   1.648  15.751  0.9399  0.2032  1.0244
  436TMC3    O2 6509   0.718   2.164  15.536 -0.6447  0.3189  0.0389
  437TMC3    C1 6510   4.410   4.010  12.312  0.2912 -0.2531  0.2665
  437TMC3    C2 6511   4.317   4.109  12.306  0.1885 -0.8740 -0.3369
  437TMC3    C3 6512   4.300   4.160  12.181 -0.4308 -0.0237  0.1124
  437TMC3    C4 6513   4.490   3.970  12.209 -0.5034  0.1901  1.7206
  437TMC3    C5 6514   4.463   4.022  12.087 -0.3382  0.3675 -0.2576
  437TMC3    C6 6515   4.372   4.122  12.071 -0.0923  0.2246  0.7673
  437TMC3     C 6516   4.411   3.939  12.433 -0.2782 -0.1668  0.4677
  437TMC3     O 6517   4.310   3.933  12.503  0.4738  0.1329 -0.0458
  437TMC3     H 6518   4.245   4.133  12.384  0.5970 -2.5872  0.5601
  437TMC3    H1 6519   4.543   3.876  12.216  2.0982  1.6817  2.1168
  437TMC3    H2 6520   4.363   4.173  11.976 -0.0949  0.7906  1.0740
  437TMC3    C7 6521   4.549   3.992  11.974 -0.1104 -0.6307 -0.0933
  437TMC3    C8 6522   4.209   4.278  12.164 -0.2757 -0.2704  0.1808
  437TMC3    O1 6523   4.515   4.006  11.856  0.6177 -0.5088  0.3435
  437TMC3    O2 6524   4.158   4.275  12.053  0.1771 -0.1506 -0.6940
  438MPD2     C 6525   2.041   4.535  16.901 -0.4393  0.3392 -0.2800
  438MPD2    C1 6526   2.122   4.452  16.970 -1.1539  0.0643  0.7814
  438MPD2    C2 6527   2.124   4.455  17.106 -0.0737  0.0186 -0.9834
  438MPD2    C3 6528   2.021   4.525  17.170 -0.5500  0.2206  0.1323
  438MPD2    C4 6529   1.936   4.617  17.095 -0.4584  0.0541  0.0852
  438MPD2    C5 6530   1.948   4.619  16.959 -0.1003  0.2990  0.1782
  438MPD2     H 6531   2.176   4.377  17.160 -2.4204 -0.9364 -0.0873
  438MPD2    H1 6532   1.858   4.678  17.140 -0.2840  1.0013 -0.8883
  438MPD2    H2 6533   2.057   4.544  16.794 -0.0907 -0.0721 -0.2597
  438MPD2    H3 6534   1.893   4.692  16.901  0.1900  0.9168  0.6911
  438MPD2     N 6535   2.002   4.508  17.310  0.0964 -0.3248 -0.4542
  438MPD2    H5 6536   1.935   4.571  17.353 -0.4742 -1.0269 -0.3116
  438MPD2    N1 6537   2.217   4.367  16.903  0.9174  0.9217  0.0287
  438MPD2    H7 6538   2.287   4.315  16.956  0.6372 -0.8322 -1.3313
  439TMC3    C1 6539   2.322   4.239  16.732  0.7475  0.4240 -0.2530
  439TMC3    C2 6540   2.291   4.152  16.635  0.2141  0.1229  0.0198
  439TMC3    C3 6541   2.387   4.062  16.597 -0.6717 -0.2077 -0.9400
  439TMC3    C4 6542   2.444   4.256  16.783 -0.2791  0.1308 -0.1822
  439TMC3    C5 6543   2.548   4.169  16.739 -0.6603 -1.1632 -0.0782
  439TMC3    C6 6544   2.521   4.077  16.645  0.1322 -0.2613  0.4444
  439TMC3     C 6545   2.211   4.330  16.773 -0.0817 -0.2423 -0.2452
  439TMC3     O 6546   2.118   4.334  16.693  0.0081 -0.1734 -0.4320
  439TMC3     H 6547   2.187   4.141  16.604  0.4025 -1.8838  0.0519
  439TMC3    H1 6548   2.462   4.352  16.830  0.5190 -1.2801  2.3537
  439TMC3    H2 6549   2.595   4.005  16.613 -0.5728 -0.1066 -1.5450
  439TMC3    C7 6550   2.669   4.149  16.812  0.1975 -0.1110 -0.3182
  439TMC3    C8 6551   2.378   3.979  16.484 -0.3840 -0.3775 -0.6882
  439TMC3    O1 6552   2.738   4.045  16.797 -0.2349 -1.0424 -0.0071
  439TMC3    O2 6553   2.484   3.933  16.445 -0.0803 -0.1302 -0.3578
  440MPD2     C 6554   0.284   4.217  14.823  0.5929  0.3524 -0.1660
  440MPD2    C1 6555   0.332   4.190  14.947  0.9753 -0.1173 -0.6068
  440MPD2    C2 6556   0.372   4.059  14.982 -0.5200  0.3643 -0.1068
  440MPD2    C3 6557   0.346   3.954  14.891  0.0243 -0.5556 -1.1946
  440MPD2    C4 6558   0.289   3.986  14.769  0.1359 -0.4565  0.3265
  440MPD2    C5 6559   0.271   4.116  14.738 -0.1762  0.5002  0.0848
  440MPD2     H 6560   0.416   4.041  15.079  1.3974  0.8165 -0.9089
  440MPD2    H1 6561   0.256   3.911  14.698 -0.5621 -0.5924  0.7929
  440MPD2    H2 6562   0.270   4.317  14.786 -0.5205  0.3544  0.2562
  440MPD2    H3 6563   0.242   4.145  14.638  0.6277  0.8801 -0.0389
  440MPD2     N 6564   0.379   3.813  14.914 -0.2935  0.2561  0.0293
  440MPD2    H5 6565   0.328   3.743  14.861 -0.1601 -0.0365  0.2898
  440MPD2    N1 6566   0.352   4.290  15.046 -0.5395  0.5655  0.1338
  440MPD2    H7 6567   0.387   4.262  15.137 -0.6126 -0.7143 -0.2290
  441TMC3    C1 6568   0.591   3.820  15.034  0.0208  0.1403 -0.2395
  441TMC3    C2 6569   0.653   3.891  14.930 -1.0774  0.3006  0.2897
  441TMC3    C3 6570   0.752   3.971  14.965 -0.8650  0.7571 -0.3995
  441TMC3    C4 6571   0.656   3.795  15.152  0.1439  0.2523  0.0153
  441TMC3    C5 6572   0.756   3.883  15.179  0.3576 -0.2231 -0.1618
  441TMC3    C6 6573   0.798   3.978  15.095  0.1572  0.5418 -0.3510
  441TMC3     C 6574   0.455   3.768  15.021 -0.7042  0.2174  0.8920
  441TMC3     O 6575   0.419   3.674  15.090 -0.1071  0.3794  0.2863
  441TMC3     H 6576   0.609   3.904  14.832 -0.3099 -0.2191 -0.1226
  441TMC3    H1 6577   0.616   3.720  15.219 -3.6877  1.5996 -0.7510
  441TMC3    H2 6578   0.870   4.053  15.125  0.0416  0.2332  0.6819
  441TMC3    C7 6579   0.840   3.823  15.280  0.3853 -0.4700 -0.3809
  441TMC3    C8 6580   0.799   4.065  14.865  0.0294 -0.0531 -0.5273
  441TMC3    O1 6581   0.857   3.706  15.285  0.1986  0.4044 -0.1166
  441TMC3    O2 6582   0.788   4.030  14.750  0.3534 -0.9005 -0.1247
  442MPD2     C 6583   3.932   0.962  16.572  0.3844  0.0447  0.0460
  442MPD2    C1 6584   3.807   0.900  16.581 -0.0284 -0.1116  0.3605
  442MPD2    C2 6585   3.778   0.776  16.536  0.4892 -0.1274  0.6865
  442MPD2    C3 6586   3.886   0.709  16.476 -0.4038 -0.2660 -0.5172
  442MPD2    C4 6587   4.007   0.764  16.461 -0.5580 -0.1742  0.0373
  442MPD2    C5 6588   4.035   0.887  16.509 -0.0529  0.1127 -0.4550
  442MPD2     H 6589   3.675   0.740  16.539  0.1594  0.6636 -0.6643
  442MPD2    H1 6590   4.090   0.714  16.413  0.0088  0.5111  0.3167
  442MPD2    H2 6591   3.953   1.061  16.611  1.7836  0.3786 -1.5535
  442MPD2    H3 6592   4.128   0.940  16.493 -0.6234  0.5721 -2.2075
  442MPD2     N 6593   3.871   0.586  16.417  0.8161 -0.3097 -0.4810
  442MPD2    H5 6594   3.949   0.522  16.404 -1.6708 -3.6814  1.3053
  442MPD2    N1 6595   3.706   0.973  16.643 -0.4184  0.0307 -0.5114
  442MPD2    H7 6596   3.623   0.924  16.674  1.1338 -2.3064 -0.0148
  443TMC3    C1 6597   3.554   1.137  16.686 -0.7309  0.3024  0.2258
  443TMC3    C2 6598   3.487   1.233  16.605 -0.5605  0.9321  0.1539
  443TMC3    C3 6599   3.353   1.213  16.583  0.0153 -0.1488  0.4076
  443TMC3    C4 6600   3.482   1.042  16.756 -0.0125  0.0736  0.2444
  443TMC3    C5 6601   3.346   1.057  16.749  0.2312  0.6397  0.5500
  443TMC3    C6 6602   3.272   1.136  16.661 -0.3509 -0.7233 -1.1542
  443TMC3     C 6603   3.690   1.111  16.644  0.1874 -0.8792  0.0240
  443TMC3     O 6604   3.765   1.193  16.598 -0.0487 -0.0859  0.6457
  443TMC3     H 6605   3.556   1.282  16.538 -0.1154  2.2107  1.5408
  443TMC3    H1 6606   3.528   0.984  16.835  2.0223 -0.7359 -1.5223
  443TMC3    H2 6607   3.169   1.117  16.633 -1.1283 -0.0873  1.3325
  443TMC3    C7 6608   3.285   0.990  16.862  0.4670  0.6889  0.2207
  443TMC3    C8 6609   3.329   1.203  16.440 -0.2551  0.2579  0.6983
  443TMC3    O1 6610   3.338   0.881  16.888 -0.7155  0.0935 -0.4713
  443TMC3    O2 6611   3.349   1.303  16.369  0.0039  0.5976  0.2243
  444MPD2     C 6612   4.069   0.191  17.240 -0.3330 -0.0750  0.1459
  444MPD2    C1 6613   3.963   0.126  17.185  0.4582 -0.1531 -0.0401
  444MPD2    C2 6614   3.979   0.036  17.086 -1.0048  0.0921 -0.2516
  444MPD2    C3 6615   4.101   4.716  17.050  0.5217  0.0196  0.1340
  444MPD2    C4 6616   4.211   0.054  17.109  0.6427 -0.0017 -0.5011
  444MPD2    C5 6617   4.194   0.154  17.199 -0.1050  0.1250  0.2683
  444MPD2     H 6618   3.898   4.693  17.059 -1.4169  0.2652  0.5591
  444MPD2    H1 6619   4.315   0.026  17.094 -0.0782 -2.4009 -1.1742
  444MPD2    H2 6620   4.057   0.264  17.320  0.5392 -0.9258  1.0462
  444MPD2    H3 6621   4.278   0.202  17.248 -0.3908  0.8429  0.0471
  444MPD2     N 6622   4.111   4.593  16.978 -0.4333  0.1881 -0.3810
  444MPD2    H5 6623   4.024   4.547  16.952  0.1243 -1.5858  0.8819
  444MPD2    N1 6624   3.835   0.136  17.243  0.2349  0.1004  0.1184
  444MPD2    H7 6625   3.764   0.070  17.213  0.2853  1.5920 -3.2698
  445TMC3    C1 6626   4.214   4.404  16.865  0.5277 -0.1012 -0.9023
  445TMC3    C2 6627   4.094   4.352  16.819  0.6110  0.0270  0.2207
  445TMC3    C3 6628   4.087   4.268  16.704 -0.2976  0.0886 -0.2190
  445TMC3    C4 6629   4.329   4.351  16.819  0.3116  0.1820  0.6610
  445TMC3    C5 6630   4.324   4.256  16.719  0.6934  0.2258  0.2886
  445TMC3    C6 6631   4.206   4.221  16.654 -0.6323 -0.6012 -0.2074
  445TMC3     C 6632   4.228   4.527  16.947 -0.3939  0.2062 -0.2537
  445TMC3     O 6633   4.339   4.557  16.983  0.5144  0.8939 -0.0055
  445TMC3     H 6634   4.000   4.382  16.863 -0.3283 -2.3295 -0.1786
  445TMC3    H1 6635   4.422   4.388  16.861  0.6313  0.8879 -0.6526
  445TMC3    H2 6636   4.212   4.157  16.567 -0.7701 -1.6982  0.6000
  445TMC3    C7 6637   4.447   4.233  16.651 -0.1195 -0.3472  0.3824
  445TMC3    C8 6638   3.970   4.261  16.619  0.0347  0.1874  0.6134
  445TMC3    O1 6639   4.450   4.239  16.531  0.1017 -0.0718  0.7504
  445TMC3    O2 6640   3.881   4.340  16.648 -0.2371 -0.3136  0.2794
  446MPD2     C 6641   3.825   1.303  11.380  0.5215 -0.3385  0.9332
  446MPD2    C1 6642   3.812   1.316  11.244 -0.4419 -0.6854 -0.1139
  446MPD2    C2 6643   3.884   1.416  11.183 -0.0873 -0.0282  0.3174
  446MPD2    C3 6644   3.983   1.490  11.238  0.2203 -0.2921 -0.0082
  446MPD2    C4 6645   4.002   1.466  11.371 -0.1118 -0.1005 -0.1587
  446MPD2    C5 6646   3.914   1.390  11.441  0.3718  0.6783  0.8127
  446MPD2     H 6647   3.867   1.420  11.076 -2.2229 -0.9657  0.6029
  446MPD2    H1 6648   4.067   1.521  11.438  0.5314 -1.0665  0.0089
  446MPD2    H2 6649   3.767   1.237  11.444  0.0389  0.8651  1.7539
  446MPD2    H3 6650   3.916   1.395  11.549  0.2611  1.0475  0.7995
  446MPD2     N 6651   4.067   1.581  11.168 -0.1048 -0.1041 -0.3382
  446MPD2    H5 6652   4.093   1.664  11.221  1.0113 -0.7069  0.0518
  446MPD2    N1 6653   3.718   1.241  11.174  0.3885  0.3694  0.1844
  446MPD2    H7 6654   3.698   1.257  11.075  2.1773  3.4591  0.3268
  447TMC3    C1 6655   4.158   1.690  10.976 -0.0320  0.2072 -0.3792
  447TMC3    C2 6656   4.153   1.699  10.841  0.1012 -0.3468 -0.2510
  447TMC3    C3 6657   4.248   1.774  10.779  1.1381 -0.0485 -0.7290
  447TMC3    C4 6658   4.249   1.751  11.057 -0.1262 -0.1207  0.4542
  447TMC3    C5 6659   4.353   1.814  10.990  0.7645  0.2328 -0.8207
  447TMC3    C6 6660   4.358   1.822  10.853  0.1495 -0.5587  0.6300
  447TMC3     C 6661   4.081   1.581  11.031  0.1071 -0.1948 -0.4495
  447TMC3     O 6662   4.059   1.490  10.953 -0.4834  0.2864 -0.5597
  447TMC3     H 6663   4.072   1.656  10.784  2.6959 -1.1675 -3.3252
  447TMC3    H1 6664   4.246   1.738  11.164  3.0090  2.4205  0.8566
  447TMC3    H2 6665   4.425   1.894  10.808  1.3650 -1.5150  0.8729
  447TMC3    C7 6666   4.480   1.810  11.056  0.0607 -0.0640 -0.6319
  447TMC3    C8 6667   4.267   1.743  10.641 -0.3836 -1.0009 -0.0561
  447TMC3    O1 6668   4.574   1.819  10.978  0.4770 -0.0204  0.4745
  447TMC3    O2 6669   4.174   1.740  10.558 -0.7318  0.9766 -0.1117
  448TMC3    C1 6670   2.379   1.551  17.346 -0.1161  0.3283  0.0447
  448TMC3    C2 6671   2.426   1.449  17.264  0.2454 -0.2161 -0.0565
  448TMC3    C3 6672   2.517   1.364  17.322 -0.4849 -0.4812  0.3250
  448TMC3    C4 6673   2.398   1.553  17.479 -0.8100  0.0177  0.0716
  448TMC3    C5 6674   2.491   1.468  17.528 -0.4998 -0.6083 -0.4029
  448TMC3    C6 6675   2.549   1.372  17.453 -0.5219  0.1141  0.7453
  448TMC3     C 6676   2.366   1.689  17.289  0.0472  0.1406  0.1947
  448TMC3     O 6677   2.293   1.759  17.353 -0.1042  0.4378 -0.2862
  448TMC3     H 6678   2.406   1.458  17.158  1.1499  1.2756 -0.1058
  448TMC3    H1 6679   2.343   1.623  17.541  0.9904  0.7319  0.8665
  448TMC3    H2 6680   2.623   1.303  17.492 -1.4822 -1.6442 -0.5459
  448TMC3    C7 6681   2.491   1.457  17.670  0.6312  1.1042 -0.3394
  448TMC3    C8 6682   2.527   1.233  17.253  0.6581  0.3319  0.1932
  448TMC3    O1 6683   2.396   1.504   0.045 -0.1393  0.3546 -0.7673
  448TMC3    O2 6684   2.528   1.131  17.320 -0.1265  0.4037  0.0860
  449MPD2     C 6685   3.552   4.527  13.990  0.1199  0.2822  0.2222
  449MPD2    C1 6686   3.467   4.508  13.884  0.1211  0.0931  0.7302
  449MPD2    C2 6687   3.385   4.401  13.886 -0.0253 -0.2590 -0.2081
  449MPD2    C3 6688   3.383   4.301  13.977 -0.0768 -1.0710 -0.6809
  449MPD2    C4 6689   3.471   4.316  14.077 -0.7034 -0.3532  0.0401
  449MPD2    C5 6690   3.557   4.429  14.084  0.2633  0.1567 -0.2606
  449MPD2     H 6691   3.317   4.393  13.802  1.7686 -2.8814 -1.4280
  449MPD2    H1 6692   3.500   4.235  14.143  1.8011  1.9884  1.8453
  449MPD2    H2 6693   3.609   4.619  14.002  0.1154  0.0463  2.1102
  449MPD2    H3 6694   3.628   4.435  14.166 -0.2958  0.3533  0.2108
  449MPD2     N 6695   3.287   4.196  13.965 -0.4262 -0.4434  0.2149
  449MPD2    H5 6696   3.230   4.196  13.881 -1.5078  0.6369  0.9371
  449MPD2    N1 6697   3.455   4.609  13.784  0.1157 -0.1209  0.8188
  449MPD2    H7 6698   3.397   4.587  13.703  1.7703 -2.4540  0.2734
  450TMC3    C1 6699   3.446   0.067  13.655 -0.1073  0.1141  0.2419
  450TMC3    C2 6700   3.550   0.080  13.567  0.0382  0.4296 -0.2305
  450TMC3    C3 6701   3.536   0.026  13.435  0.4205  0.4578 -0.3328
  450TMC3    C4 6702   3.338   0.002  13.608 -0.6334 -0.5111  0.6019
  450TMC3    C5 6703   3.318   4.682  13.478 -0.1589 -0.0580 -1.2275
  450TMC3    C6 6704   3.426   4.685  13.387  0.7765  0.1072  0.4658
  450TMC3     C 6705   3.490   0.022  13.788  0.6774 -0.6161 -0.7948
  450TMC3     O 6706   3.556   0.091  13.861  0.4380  0.3664 -0.2027
  450TMC3     H 6707   3.631   0.146  13.595  0.0855  0.1717  0.2241
  450TMC3    H1 6708   3.256   4.714  13.678 -1.0416 -1.8011 -0.0879
  450TMC3    H2 6709   3.425   4.649  13.285  4.2906  0.7125  0.2028
  450TMC3    C7 6710   3.260   4.552  13.477  0.0971  0.2500 -0.2555
  450TMC3    C8 6711   3.660   0.037  13.350 -0.3369  0.1783  0.5421
  450TMC3    O1 6712   3.320   4.464  13.536  0.7017 -0.0014 -0.4115
  450TMC3    O2 6713   3.747   0.112  13.395 -0.0515 -0.1944 -0.2798
  451MPD2     C 6714   4.408   2.295   1.127 -0.2980 -0.2485  0.3261
  451MPD2    C1 6715   4.443   2.392   1.036 -0.0319  0.3953 -0.1980
  451MPD2    C2 6716   4.554   2.377   0.952 -0.5526 -0.0678 -0.0234
  451MPD2    C3 6717   4.623   2.257   0.964  0.2910 -0.0226 -0.1518
  451MPD2    C4 6718   4.586   2.161   1.058 -0.0835  0.2737 -0.0649
  451MPD2    C5 6719   4.484   2.179   1.143 -0.3838 -0.1403 -1.0873
  451MPD2     H 6720   4.589   2.460   0.891 -0.0194  0.7421  1.3944
  451MPD2    H1 6721   4.652   2.077   1.077  0.2949  0.2603 -1.4210
  451MPD2    H2 6722   4.316   2.303   1.184  1.3698 -1.4538  3.1930
  451MPD2    H3 6723   4.469   2.098   1.213 -0.9754 -1.3835 -2.6466
  451MPD2     N 6724   0.025   2.248   0.910  0.2211 -0.2527  0.7346
  451MPD2    H5 6725   0.094   2.190   0.956  0.4245 -2.4090 -2.2884
  451MPD2    N1 6726   4.351   2.503   1.037 -0.2650  0.3727  0.1879
  451MPD2    H7 6727   4.275   2.491   1.103 -1.8452 -0.3594 -1.7634
  452TMC3    C1 6728   0.211   2.328   0.812  0.2989  0.1357  0.2523
  452TMC3    C2 6729   0.285   2.223   0.866 -0.4920  0.4713 -0.0164
  452TMC3    C3 6730   0.419   2.233   0.852 -1.1938 -0.1382  0.1515
  452TMC3    C4 6731   0.272   2.434   0.754 -0.5812  0.4904  0.9531
  452TMC3    C5 6732   0.406   2.448   0.757  0.2255  0.4069  0.5845
  452TMC3    C6 6733   0.478   2.342   0.795  0.1169 -0.0509  1.1456
  452TMC3     C 6734   0.067   2.330   0.812 -0.0871  0.2626 -0.0494
  452TMC3     O 6735   0.013   2.400   0.723  0.6886 -0.0732  0.1394
  452TMC3     H 6736   0.241   2.135   0.913 -1.8017  1.2851  0.2861
  452TMC3    H1 6737   0.208   2.514   0.719  0.2124  0.0289 -1.5493
  452TMC3    H2 6738   0.586   2.342   0.787  0.2252 -0.3362  2.7415
  452TMC3    C7 6739   0.464   2.571   0.697  0.1588  0.4044  0.4313
  452TMC3    C8 6740   0.514   2.137   0.911 -0.4172 -0.7208 -0.1057
  452TMC3    O1 6741   0.387   2.649   0.643 -0.1578 -0.1673 -0.5824
  452TMC3    O2 6742   0.627   2.129   0.871  0.1066  0.1407  0.6916
  453TMC3    C1 6743   1.464   0.389  11.905 -0.2142 -0.2293 -0.3127
  453TMC3    C2 6744   1.370   0.310  11.964  0.2103 -0.1460 -0.1174
  453TMC3    C3 6745   1.286   0.232  11.887 -0.1908 -0.1340  0.3239
  453TMC3    C4 6746   1.479   0.393  11.765  0.0702  0.3092 -0.3323
  453TMC3    C5 6747   1.390   0.313  11.695  0.0843 -0.0165 -0.2095
  453TMC3    C6 6748   1.296   0.236  11.754 -0.3732 -0.0121  0.4008
  453TMC3     C 6749   1.584   0.424  11.977  0.1726  0.4502  0.0569
  453TMC3     O 6750   1.661   0.496  11.916 -0.2348  0.9624 -0.6610
  453TMC3     H 6751   1.345   0.312  12.069 -1.2275  0.0126 -0.4543
  453TMC3    H1 6752   1.561   0.446  11.718 -0.8608  1.3712 -0.7555
  453TMC3    H2 6753   1.226   0.178  11.695 -0.5218 -1.0247  1.5820
  453TMC3    C7 6754   1.347   0.345  11.560 -0.5691  0.4718 -0.2726
  453TMC3    C8 6755   1.205   0.131  11.953 -1.0744  0.0244  0.4436
  453TMC3    O1 6756   1.224   0.345  11.538  0.7135 -0.0032 -0.5531
  453TMC3    O2 6757   1.164   0.147  12.066 -0.3187 -0.1875 -0.2763
  454MPD2     C 6758   0.118   4.662  16.257 -0.1348 -1.0230  0.0937
  454MPD2    C1 6759   0.080   4.533  16.259  0.6749 -0.0493 -0.3012
  454MPD2    C2 6760   4.718   4.491  16.366  0.0666 -0.3953  1.1136
  454MPD2    C3 6761   4.663   4.589  16.443 -0.3964 -0.2414 -0.0694
  454MPD2    C4 6762   4.696   4.722  16.438 -0.2630 -0.2707 -0.0585
  454MPD2    C5 6763   0.074   0.025  16.350 -0.3456  0.1423 -0.1419
  454MPD2     H 6764   4.662   4.399  16.370 -2.0589  0.8441  0.0432
  454MPD2    H1 6765   4.656   0.078  16.501 -2.4206  0.1722 -1.9899
  454MPD2    H2 6766   0.185   4.694  16.177 -4.9954  0.0358 -3.5534
  454MPD2    H3 6767   0.116   0.125  16.346 -1.0554  0.5745  3.1844
  454MPD2     N 6768   4.539   4.548  16.492  0.3568 -0.0766  0.2246
  454MPD2    H5 6769   4.504   4.454  16.476 -1.0325  0.4513  0.1562
  454MPD2    N1 6770   0.108   4.451  16.150  0.0380 -0.6200 -0.6269
  454MPD2    H7 6771   0.125   4.506  16.067  0.9071 -2.8831 -1.9483
  455TMC3    C1 6772   4.320   4.560  16.537  0.0207  0.2008  0.1175
  455TMC3    C2 6773   4.219   4.624  16.595  0.5217 -0.2857  0.0204
  455TMC3    C3 6774   4.090   4.621  16.545 -0.3176  0.4068 -0.9316
  455TMC3    C4 6775   4.295   4.493  16.423 -0.0265 -0.6252 -0.3163
  455TMC3    C5 6776   4.165   4.488  16.378 -0.2377 -0.0918  0.2961
  455TMC3    C6 6777   4.063   4.551  16.433 -0.2278 -0.6728 -0.8269
  455TMC3     C 6778   4.449   4.627  16.549 -0.5782 -0.6191 -0.5603
  455TMC3     O 6779   4.447   0.013  16.602  0.6756 -0.5406  0.4733
  455TMC3     H 6780   4.231   4.640  16.702 -0.5873 -0.8333  0.2268
  455TMC3    H1 6781   4.373   4.483  16.349 -0.6781 -0.2095 -1.0725
  455TMC3    H2 6782   3.970   4.561  16.378  0.5823 -2.7436 -2.5903
  455TMC3    C7 6783   4.133   4.380  16.286  0.5771 -0.2749  0.4160
  455TMC3    C8 6784   3.988   4.698  16.606 -0.4435  0.2563  0.4222
  455TMC3    O1 6785   4.045   4.385  16.200  0.1332 -0.2134  0.0860
  455TMC3    O2 6786   3.873   4.676  16.564 -0.4813  0.1184 -0.5050
  456MPD2     C 6787   2.247   4.639  16.579  0.8328  0.3985 -0.4163
  456MPD2    C1 6788   2.367   4.633  16.643  0.1692  0.0813 -0.0581
  456MPD2    C2 6789   2.393   4.711  16.748  0.3354  0.9568 -0.5256
  456MPD2    C3 6790   2.306   0.089  16.783  0.2171 -0.4162 -0.2943
  456MPD2    C4 6791   2.182   0.088  16.717 -0.4360  0.7996 -0.5302
  456MPD2    C5 6792   2.151   0.001  16.617  0.6516  0.5139  0.2410
  456MPD2     H 6793   2.492   4.711  16.793  0.5754 -0.7982 -1.0593
  456MPD2    H1 6794   2.100   0.157  16.735 -0.2150  1.2138 -1.1181
  456MPD2    H2 6795   2.228   4.588  16.485  0.1471  2.5645 -1.4457
  456MPD2    H3 6796   2.055   0.003  16.566  0.5195 -0.6945  0.4309
  456MPD2     N 6797   2.339   0.189  16.884 -0.1959  0.2810  0.0723
  456MPD2    H5 6798   2.422   0.166  16.938  0.1007  1.6047  0.1660
  456MPD2    N1 6799   2.476   4.564  16.577  0.0316  0.1826 -0.0326
  456MPD2    H7 6800   2.461   4.523  16.485 -1.1812 -0.1539  0.3104
  457TMC3    C1 6801   2.347   0.403  16.986 -0.8938 -0.7760  0.6482
  457TMC3    C2 6802   2.329   0.540  16.978 -0.8043  0.2553  0.0370
  457TMC3    C3 6803   2.333   0.616  17.093  0.6393 -0.1350 -0.6512
  457TMC3    C4 6804   2.353   0.350  17.108  0.3673  0.1018 -0.2698
  457TMC3    C5 6805   2.354   0.421  17.221 -0.1506  0.2321  0.1520
  457TMC3    C6 6806   2.343   0.557  17.219  0.4903 -0.8985 -0.9252
  457TMC3     C 6807   2.295   0.319  16.880 -0.5363 -0.5548 -0.3579
  457TMC3     O 6808   2.225   0.367  16.796 -0.5918  0.8455 -0.4217
  457TMC3     H 6809   2.301   0.589  16.885  1.2870  2.0734  0.3636
  457TMC3    H1 6810   2.358   0.243  17.126 -1.2648  0.2601  1.1445
  457TMC3    H2 6811   2.335   0.618  17.308 -3.2930 -0.0659 -1.8143
  457TMC3    C7 6812   2.411   0.358  17.339  0.0547  0.2900 -0.5771
  457TMC3    C8 6813   2.358   0.753  17.086  0.3587 -0.1761 -0.2473
  457TMC3    O1 6814   2.413   0.236  17.342  0.2631  0.6704  0.8482
  457TMC3    O2 6815   2.340   0.809  17.192 -0.4796 -0.1758 -0.2350
  458MPD2     C 6816   0.316   3.852  11.836 -0.3766  0.7950  0.0058
  458MPD2    C1 6817   0.297   3.835  11.968 -0.1653 -0.2438  0.1036
  458MPD2    C2 6818   0.168   3.853  12.016 -0.0192 -0.3061  0.0950
  458MPD2    C3 6819   0.058   3.901  11.947 -0.1443 -0.0610  0.0748
  458MPD2    C4 6820   0.082   3.929  11.819 -0.4672 -0.3561 -0.5558
  458MPD2    C5 6821   0.209   3.905  11.769 -0.2707 -0.9809  0.0518
  458MPD2     H 6822   0.146   3.831  12.120  0.0878  3.1034  0.8358
  458MPD2    H1 6823   0.002   3.968  11.755  0.3203  0.2746 -1.1612
  458MPD2    H2 6824   0.415   3.842  11.792 -0.3010  0.4358  0.2613
  458MPD2    H3 6825   0.224   3.932  11.665 -0.0015 -1.2261  0.0245
  458MPD2     N 6826   4.667   3.935  12.020 -0.2230 -0.6665 -0.0432
  458MPD2    H5 6827   4.675   3.931  12.121 -0.1226 -0.4852 -0.0445
  458MPD2    N1 6828   0.406   3.815  12.050  0.3220 -0.0266  0.1531
  458MPD2    H7 6829   0.503   3.831  12.025  0.2608  1.0184  0.5905
  459TMC3    C1 6830   0.486   3.808  12.277  0.2387 -0.3414  0.0906
  459TMC3    C2 6831   0.562   3.918  12.255  0.2672 -0.4276 -0.0783
  459TMC3    C3 6832   0.613   3.977  12.373 -0.1654  0.0017 -0.0202
  459TMC3    C4 6833   0.466   3.751  12.402 -0.2794 -0.5971  0.4339
  459TMC3    C5 6834   0.506   3.831  12.506 -0.0951 -0.5690 -0.1548
  459TMC3    C6 6835   0.585   3.944  12.496 -0.1692 -0.3654  0.5451
  459TMC3     C 6836   0.384   3.782  12.186 -0.4053 -0.7221  0.3442
  459TMC3     O 6837   0.293   3.713  12.226 -0.8426  0.6549 -0.3610
  459TMC3     H 6838   0.580   3.960  12.157 -0.3613 -3.1274 -1.3507
  459TMC3    H1 6839   0.414   3.656  12.399  1.3364 -1.3502 -2.9348
  459TMC3    H2 6840   0.631   4.002  12.575  0.6336  0.4801 -0.5546
  459TMC3    C7 6841   0.477   3.774  12.640  0.6057 -0.3534  0.3153
  459TMC3    C8 6842   0.702   4.084  12.352  0.1001 -0.8007  0.0655
  459TMC3    O1 6843   0.428   3.663  12.642 -0.0637  1.1843  0.1403
  459TMC3    O2 6844   0.789   4.067  12.268  0.2283  0.1449  0.5931
  460MPD2     C 6845   4.603   1.672  10.505  0.0340  0.2467  0.0881
  460MPD2    C1 6846   4.466   1.692  10.500  0.7197  1.2154  0.4987
  460MPD2    C2 6847   4.390   1.669  10.382  0.4304  0.1080 -0.2665
  460MPD2    C3 6848   4.459   1.623  10.267  0.1059  0.9940 -0.8853
  460MPD2    C4 6849   4.590   1.611  10.272  0.2316 -0.3146 -0.2504
  460MPD2    C5 6850   4.652   1.625  10.387 -0.1215 -0.4486 -0.1315
  460MPD2     H 6851   4.283   1.686  10.371  0.6139  1.4606  0.0366
  460MPD2    H1 6852   4.652   1.590  10.186  2.3291  3.6127  0.2962
  460MPD2    H2 6853   4.664   1.693  10.592  0.9715 -1.6141 -0.1223
  460MPD2    H3 6854   0.037   1.621  10.390 -0.1674  0.4841  2.7821
  460MPD2     N 6855   4.386   1.620  10.142 -0.4391 -0.5916  0.6212
  460MPD2    H5 6856   4.289   1.647  10.154  0.4732  2.3096  1.4821
  460MPD2    N1 6857   4.402   1.724  10.626 -0.2587 -0.2726  0.3649
  460MPD2    H7 6858   4.462   1.738  10.707 -0.2614 -0.2522  0.3633
  461TMC3    C1 6859   4.337   1.562   9.920 -0.6819  0.5327 -0.1344
  461TMC3    C2 6860   4.326   1.447   9.845  0.3748  0.7328  0.2701
  461TMC3    C3 6861   4.265   1.466   9.730 -0.6707 -0.3136  0.0165
  461TMC3    C4 6862   4.301   1.683   9.873  0.5804 -0.3074  0.5350
  461TMC3    C5 6863   4.255   1.701   9.744  0.5887  0.0508  0.6873
  461TMC3    C6 6864   4.228   1.585   9.672  0.4355  0.0317 -0.4694
  461TMC3     C 6865   4.435   1.560  10.027  0.3909 -0.3513  0.9264
  461TMC3     O 6866   4.544   1.507  10.000 -0.1972  0.3716 -0.3437
  461TMC3     H 6867   4.358   1.346   9.870 -2.4398 -0.7538 -2.1617
  461TMC3    H1 6868   4.308   1.765   9.944 -1.5487  0.8199 -0.5620
  461TMC3    H2 6869   4.185   1.602   9.573  0.6147 -0.9145 -0.7060
  461TMC3    C7 6870   4.307   1.811   9.659 -0.0668 -0.2051  0.8663
  461TMC3    C8 6871   4.259   1.354   9.641 -0.0834  0.6202  0.1860
  461TMC3    O1 6872   4.311   1.789   9.540 -0.3375  0.5482 -0.0181
  461TMC3    O2 6873   4.349   1.270   9.649  0.1772 -0.4085  0.1827
  462TMC3    C1 6874   3.708   3.222   0.340 -0.0156 -0.1802  0.4317
  462TMC3    C2 6875   3.787   3.181   0.445 -0.1001  0.2193  0.2472
  462TMC3    C3 6876   3.839   3.056   0.441  0.8247  0.3330 -0.4278
  462TMC3    C4 6877   3.679   3.134   0.237 -0.9702  0.6768  0.5151
  462TMC3    C5 6878   3.724   3.005   0.239 -0.2050 -0.4741 -0.5214
  462TMC3    C6 6879   3.803   2.969   0.337 -0.8515 -0.3392  1.0793
  462TMC3     C 6880   3.659   3.356   0.339 -0.4153 -0.4452  0.0062
  462TMC3     O 6881   3.719   3.425   0.420  0.1233 -0.5128  0.2264
  462TMC3     H 6882   3.812   3.244   0.529  2.2342 -1.2326  0.6469
  462TMC3    H1 6883   3.615   3.178   0.161  1.6854  0.5020 -1.8269
  462TMC3    H2 6884   3.804   2.863   0.357 -1.5009 -1.2814 -3.7781
  462TMC3    C7 6885   3.639   2.903   0.179  0.5780  0.5134 -0.4534
  462TMC3    C8 6886   3.918   2.992   0.545  0.1491  0.5173  0.3263
  462TMC3    O1 6887   3.622   2.803   0.249 -0.1784  0.0138  0.0362
  462TMC3    O2 6888   3.908   3.033   0.659  0.1201 -0.4869 -0.3734
  463MPD2     C 6889   1.094   0.316   1.919  0.7348  0.2184  0.1895
  463MPD2    C1 6890   1.037   0.434   1.899 -0.1642  0.0531 -0.7574
  463MPD2    C2 6891   1.111   0.545   1.849  0.5437 -0.0569 -0.4192
  463MPD2    C3 6892   1.243   0.522   1.815 -0.7352 -0.4979 -0.2018
  463MPD2    C4 6893   1.300   0.393   1.835  0.5706  0.2570 -1.2087
  463MPD2    C5 6894   1.224   0.291   1.884  0.2772  0.7615  0.9529
  463MPD2     H 6895   1.072   0.644   1.825 -0.7757 -0.9151 -1.7944
  463MPD2    H1 6896   1.404   0.372   1.813  0.6783  0.3222 -0.7603
  463MPD2    H2 6897   1.034   0.232   1.953 -2.0171  1.2014 -2.2447
  463MPD2    H3 6898   1.265   0.192   1.901  3.2850  1.8707  0.1559
  463MPD2     N 6899   1.329   0.619   1.752  0.6713 -0.2772 -0.2836
  463MPD2    H5 6900   1.406   0.585   1.695  0.1997 -2.9226  0.6735
  463MPD2    N1 6901   0.900   0.457   1.937 -0.1207 -0.0301  0.1064
  463MPD2    H7 6902   0.864   0.552   1.927 -1.3658 -0.5120  0.0543
  464TMC3    C1 6903   0.668   0.415   1.971  0.5011 -0.1127 -0.0670
  464TMC3    C2 6904   0.631   0.512   1.879 -0.1620 -0.7494 -0.1776
  464TMC3    C3 6905   0.512   0.573   1.899  0.0107 -0.5951 -0.8987
  464TMC3    C4 6906   0.577   0.368   2.062 -0.0359  0.1427 -0.6246
  464TMC3    C5 6907   0.446   0.419   2.072 -0.1727  0.0049  0.6988
  464TMC3    C6 6908   0.412   0.530   1.997 -0.5567 -0.0618  0.0772
  464TMC3     C 6909   0.805   0.363   1.971  0.1014  0.6592  0.0244
  464TMC3     O 6910   0.804   0.251   2.021 -0.4683  0.3041 -0.5095
  464TMC3     H 6911   0.699   0.539   1.799  0.7164 -2.7287 -0.1063
  464TMC3    H1 6912   0.605   0.282   2.121 -0.9821  0.8877  0.9120
  464TMC3    H2 6913   0.331   0.594   2.031  0.3296  1.1996 -0.1968
  464TMC3    C7 6914   0.330   0.354   2.136 -0.1717 -0.5944  0.5665
  464TMC3    C8 6915   0.475   0.680   1.822 -0.3316  0.3212  0.6346
  464TMC3    O1 6916   0.347   0.293   2.237 -0.1560  0.1980  0.3176
  464TMC3    O2 6917   0.355   0.695   1.809 -0.6402  0.0418  0.5918
  465MPD2     C 6918   1.924   0.374  16.688 -0.1921 -0.6270  0.2753
  465MPD2    C1 6919   1.846   0.335  16.801  0.8775 -0.1427  0.4195
  465MPD2    C2 6920   1.758   0.236  16.786 -0.0110 -0.3092 -0.4051
  465MPD2    C3 6921   1.739   0.175  16.663 -0.2904  0.0153  0.4400
  465MPD2    C4 6922   1.827   0.200  16.561 -0.7272  0.5341  0.5939
  465MPD2    C5 6923   1.922   0.299  16.569  0.0099  0.0864 -0.2111
  465MPD2     H 6924   1.693   0.205  16.867 -0.2862  1.8533  0.2062
  465MPD2    H1 6925   1.818   0.148  16.466  0.1216 -0.0221  0.8153
  465MPD2    H2 6926   1.996   0.454  16.700  0.0670 -1.1339  2.0835
  465MPD2    H3 6927   1.993   0.308  16.488  0.2791 -1.2101 -0.1270
  465MPD2     N 6928   1.624   0.090  16.648 -0.1139  0.3501 -0.1913
  465MPD2    H5 6929   1.567   0.084  16.731 -1.1181 -2.3935 -1.0824
  465MPD2    N1 6930   1.849   0.391  16.931  0.4074 -0.0866  0.1873
  465MPD2    H7 6931   1.787   0.350  17.000  0.2242 -1.8084 -0.9848
  466TMC3    C1 6932   1.278   4.580  16.663  0.4668  1.0335  0.1310
  466TMC3    C2 6933   1.185   4.593  16.559  0.2952  0.5118 -0.2036
  466TMC3    C3 6934   1.223   4.674  16.450 -0.1281  0.3998 -0.0398
  466TMC3    C4 6935   1.404   4.634  16.659 -0.1631  0.4851 -0.1872
  466TMC3    C5 6936   1.436   4.711  16.547  0.0702  0.0473 -0.4585
  466TMC3    C6 6937   1.344   0.021  16.453  0.0576 -0.6342  0.1077
  466TMC3     C 6938   1.232   4.542  16.796 -0.5345  0.0582  0.7151
  466TMC3     O 6939   1.320   4.510  16.873 -0.3928 -0.3565 -0.2794
  466TMC3     H 6940   1.084   4.554  16.562  0.2139  0.7922  0.7244
  466TMC3    H1 6941   1.471   4.618  16.743  0.7291 -0.9111 -1.1600
  466TMC3    H2 6942   1.364   0.092  16.374  1.2698  0.0063  0.9848
  466TMC3    C7 6943   1.567   0.053  16.529  0.7618  0.2950 -0.7844
  466TMC3    C8 6944   1.110   0.012  16.382 -0.6211 -0.1891 -0.2348
  466TMC3    O1 6945   1.591   0.105  16.423 -0.2651 -0.1787  0.2282
  466TMC3    O2 6946   1.013   4.659  16.360  0.6127 -0.8542  0.0021
  467TMC3    C1 6947   2.027   2.983  13.586  0.6118 -0.9326 -0.2968
  467TMC3    C2 6948   1.942   3.007  13.489 -0.1964 -0.8873 -0.4490
  467TMC3    C3 6949   1.827   3.068  13.518  0.8110  0.6499  0.3183
  467TMC3    C4 6950   2.001   3.034  13.712  0.5939 -0.1909 -0.5775
  467TMC3    C5 6951   1.885   3.086  13.743 -0.2489 -0.1411  0.0609
  467TMC3    C6 6952   1.788   3.104  13.646 -0.5024 -0.0460  0.4811
  467TMC3     C 6953   2.156   2.941  13.550 -0.5388  0.2567 -0.0055
  467TMC3     O 6954   2.167   2.877  13.447  0.2732  0.5807  0.5524
  467TMC3     H 6955   1.973   2.984  13.388 -1.1643  0.6216 -1.1074
  467TMC3    H1 6956   2.055   2.986  13.793 -0.0550  0.9496  0.5446
  467TMC3    H2 6957   1.690   3.147  13.659 -0.6497 -0.0869 -0.4917
  467TMC3    C7 6958   1.875   3.136  13.880  0.2399 -0.0445 -0.1243
  467TMC3    C8 6959   1.779   3.149  13.409 -0.4334 -0.3300  0.7458
  467TMC3    O1 6960   1.979   3.125  13.942 -0.2791  0.5476 -0.3775
  467TMC3    O2 6961   1.673   3.114  13.353 -0.5580  0.6268 -0.3771
  468MPD2     C 6962   1.273   1.352  10.919 -0.3591 -0.6205  0.8811
  468MPD2    C1 6963   1.407   1.322  10.921 -0.4229 -0.3767 -0.2319
  468MPD2    C2 6964   1.460   1.194  10.968 -0.5712 -0.2028 -1.1638
  468MPD2    C3 6965   1.365   1.103  11.021 -0.2918 -0.3617 -0.5536
  468MPD2    C4 6966   1.229   1.137  11.026 -0.5215  0.3179 -0.9019
  468MPD2    C5 6967   1.187   1.254  10.970  0.0280 -0.0407  0.7569
  468MPD2     H 6968   1.564   1.167  10.954 -0.1916  1.2531 -1.2288
  468MPD2    H1 6969   1.159   1.074  11.079  2.6325 -0.6953  2.0414
  468MPD2    H2 6970   1.232   1.447  10.889  2.6408  0.3956  0.0656
  468MPD2    H3 6971   1.080   1.266  10.983 -0.5420 -2.3930 -1.7223
  468MPD2     N 6972   1.398   0.973  11.077  0.1475 -0.0553 -1.1463
  468MPD2    H5 6973   1.317   0.925  11.114  1.2430 -0.9807  0.0627
  468MPD2    N1 6974   1.504   1.424  10.887  1.2810 -0.3695 -0.0722
  468MPD2    H7 6975   1.598   1.386  10.882  1.5665  0.1429  1.1823
  469TMC3    C1 6976   1.604   1.635  10.851 -0.4506 -0.8522 -0.2028
  469TMC3    C2 6977   1.722   1.581  10.882 -0.1970  0.0453 -0.3078
  469TMC3    C3 6978   1.824   1.672  10.862  0.0709 -0.6693 -0.2637
  469TMC3    C4 6979   1.583   1.763  10.802  0.4813  0.1979 -0.4343
  469TMC3    C5 6980   1.689   1.845  10.778  0.6077  0.1355 -0.2311
  469TMC3    C6 6981   1.808   1.797  10.814 -0.4295 -0.3252 -0.1143
  469TMC3     C 6982   1.484   1.558  10.864 -0.0174 -0.4902 -0.2880
  469TMC3     O 6983   1.378   1.618  10.858  0.0635  0.1578 -0.2607
  469TMC3     H 6984   1.741   1.478  10.908 -2.1425 -0.1786  0.2140
  469TMC3    H1 6985   1.485   1.786  10.760 -0.7972 -0.9060  1.9402
  469TMC3    H2 6986   1.890   1.863  10.788 -0.6463  0.3475  0.9056
  469TMC3    C7 6987   1.672   1.985  10.763 -0.0311  0.0852 -0.5033
  469TMC3    C8 6988   1.961   1.627  10.873 -0.4801  0.1961  0.2195
  469TMC3    O1 6989   1.770   2.054  10.783  0.1843 -0.4345 -0.4248
  469TMC3    O2 6990   2.042   1.684  10.799  0.4475 -0.3976 -0.2519
  470TMC3    C1 6991   2.893   2.370   0.234 -0.4386 -0.4365 -0.0856
  470TMC3    C2 6992   2.936   2.495   0.275  0.3113  0.0226 -0.1274
  470TMC3    C3 6993   2.956   2.516   0.410  0.2946 -0.4620 -0.4804
  470TMC3    C4 6994   2.881   2.265   0.322 -0.6459 -0.4411  0.5237
  470TMC3    C5 6995   2.902   2.287   0.454  0.5102  0.5900 -0.2119
  470TMC3    C6 6996   2.941   2.415   0.499  0.4289 -0.0210  0.4203
  470TMC3     C 6997   2.841   2.363   0.095 -1.3576  0.1411 -0.2361
  470TMC3     O 6998   2.835   2.464   0.029 -0.2525 -0.0094  0.7623
  470TMC3     H 6999   2.951   2.575   0.203  0.0747 -0.2026 -0.4260
  470TMC3    H1 7000   2.851   2.164   0.296 -0.2084 -1.4522  3.9031
  470TMC3    H2 7001   2.950   2.443   0.604  0.9140 -0.9662  0.6251
  470TMC3    C7 7002   2.786   2.258   0.530  0.2154 -0.1408 -0.2199
  470TMC3    C8 7003   2.986   2.649   0.451  0.4960  0.3718 -0.5877
  470TMC3    O1 7004   2.680   2.240   0.470 -0.1460 -0.6028  0.3349
  470TMC3    O2 7005   3.079   2.649   0.531  0.0597  0.0381 -0.1819
  471MPD2     C 7006   3.897   4.127  17.044 -0.4749 -0.8759 -0.2676
  471MPD2    C1 7007   3.942   4.030  16.961 -0.4937 -0.1308  0.2178
  471MPD2    C2 7008   4.058   3.961  16.988 -0.1608 -0.1062 -0.1034
  471MPD2    C3 7009   4.133   3.977  17.106  0.0061  0.6393 -0.1965
  471MPD2    C4 7010   4.088   4.079  17.188  0.9051 -0.3188  0.2381
  471MPD2    C5 7011   3.973   4.144  17.155  0.0381 -0.0507 -0.5275
  471MPD2     H 7012   4.072   3.881  16.917 -1.0264  1.0289 -1.5451
  471MPD2    H1 7013   4.135   4.102  17.283  2.0647 -2.4897  0.1901
  471MPD2    H2 7014   3.811   4.192  17.027 -0.0961 -0.7201 -1.5775
  471MPD2    H3 7015   3.923   4.212  17.224 -1.5453  0.2576 -1.9666
  471MPD2     N 7016   4.237   3.895  17.155 -0.3115  0.3138 -0.2067
  471MPD2    H5 7017   4.277   3.909  17.247  2.0626 -2.5249 -0.8057
  471MPD2    N1 7018   3.871   3.988  16.842  0.3282 -0.2067 -0.4158
  471MPD2    H7 7019   3.909   3.913  16.785 -1.8937 -1.6308  0.0005
  472TMC3    C1 7020   3.709   3.939  16.687  0.9398  0.2928 -0.0918
  472TMC3    C2 7021   3.599   3.973  16.617  0.3696  0.2878  0.1877
  472TMC3    C3 7022   3.567   3.896  16.513  0.4436  0.5383 -0.5107
  472TMC3    C4 7023   3.779   3.823  16.666  0.6477 -0.2849 -0.1669
  472TMC3    C5 7024   3.752   3.759  16.551  0.0021  0.2961 -1.1679
  472TMC3    C6 7025   3.652   3.793  16.468  0.0838 -0.9462 -0.3696
  472TMC3     C 7026   3.746   4.020  16.809 -0.0926  0.2699  1.2889
  472TMC3     O 7027   3.675   4.115  16.836 -0.2064  0.2960  0.0445
  472TMC3     H 7028   3.528   4.041  16.662  1.8820 -0.0348  3.1029
  472TMC3    H1 7029   3.853   3.775  16.730  0.5907 -1.1083 -0.7146
  472TMC3    H2 7030   3.625   3.747  16.373 -1.1040 -1.2845  0.1289
  472TMC3    C7 7031   3.782   3.616  16.561  0.4917  0.2949 -0.0008
  472TMC3    C8 7032   3.432   3.902  16.460 -0.2768 -0.2416 -0.4505
  472TMC3    O1 7033   3.820   3.571  16.668  0.6027 -0.3625  0.0380
  472TMC3    O2 7034   3.377   4.011  16.463  0.0130 -1.0982  0.5559
  473MPD2     C 7035   3.422   0.947  14.359 -0.1175 -0.1073  0.4723
  473MPD2    C1 7036   3.486   1.042  14.286 -1.1160 -0.1149 -0.2608
  473MPD2    C2 7037   3.580   1.116  14.350  1.0718  0.2794  0.4236
  473MPD2    C3 7038   3.622   1.086  14.481  0.4660 -0.7248 -0.6203
  473MPD2    C4 7039   3.565   0.981  14.543  0.0206  0.4288 -0.5363
  473MPD2    C5 7040   3.464   0.913  14.485 -0.1312  0.5041 -0.0379
  473MPD2     H 7041   3.630   1.187  14.286  0.9841 -1.4497 -1.5649
  473MPD2    H1 7042   3.588   0.963  14.647 -1.5358 -0.9363 -0.4367
  473MPD2    H2 7043   3.338   0.895  14.314 -0.3819  0.4062  0.3757
  473MPD2    H3 7044   3.411   0.838  14.543  1.4599 -1.4473 -1.1063
  473MPD2     N 7045   3.710   1.159  14.560 -0.6922 -0.2313 -0.4558
  473MPD2    H5 7046   3.726   1.119  14.652  0.5559 -1.4446 -1.2069
  473MPD2    N1 7047   3.476   1.045  14.142 -0.9083  0.1213 -0.4423
  473MPD2    H7 7048   3.523   1.116  14.086  0.9595 -0.2613  0.6516
  474TMC3    C1 7049   3.864   1.303  14.630 -0.4884 -0.3294 -0.3798
  474TMC3    C2 7050   3.865   1.433  14.666 -0.0886  0.3095  0.4922
  474TMC3    C3 7051   3.913   1.452  14.797 -0.6666  0.4987  0.4982
  474TMC3    C4 7052   3.918   1.197  14.694  0.0530 -0.4634  0.8607
  474TMC3    C5 7053   3.969   1.223  14.818  0.3043  0.1182 -0.1209
  474TMC3    C6 7054   3.958   1.355  14.874  0.3685 -0.3736  0.1135
  474TMC3     C 7055   3.775   1.273  14.525  0.0145 -0.1769 -0.1535
  474TMC3     O 7056   3.751   1.351  14.438 -0.0821 -0.5024  0.5934
  474TMC3     H 7057   3.821   1.501  14.594  0.3846  0.8786  0.7403
  474TMC3    H1 7058   3.913   1.098  14.650 -3.3528 -0.2988  0.9067
  474TMC3    H2 7059   3.988   1.382  14.974 -0.7019 -0.5582  0.4826
  474TMC3    C7 7060   4.099   1.166  14.832 -0.8659 -0.1043  0.1672
  474TMC3    C8 7061   3.880   1.576  14.866  0.4837  0.4803  0.1435
  474TMC3    O1 7062   4.140   1.097  14.743 -0.0287  0.2154  0.1548
  474TMC3    O2 7063   3.871   1.573  14.991 -0.1497 -0.1585  0.5325
  475MPD2     C 7064   2.843   3.800  10.041 -1.2202 -0.3490 -0.1145
  475MPD2    C1 7065   2.844   3.922  10.103 -0.2265  0.1054  0.4473
  475MPD2    C2 7066   2.734   3.968  10.165  0.2010 -0.0431 -0.6250
  475MPD2    C3 7067   2.624   3.890  10.176 -0.0856 -0.1740 -0.6033
  475MPD2    C4 7068   2.631   3.753  10.135  0.4800 -0.1231 -1.0431
  475MPD2    C5 7069   2.743   3.711  10.067  0.2380  0.8919 -0.2080
  475MPD2     H 7070   2.720   4.074  10.183 -0.6985 -0.2352 -0.1908
  475MPD2    H1 7071   2.555   3.677  10.150 -0.2371  1.2678  2.3697
  475MPD2    H2 7072   2.934   3.760   9.997 -1.8250 -1.3893 -0.4072
  475MPD2    H3 7073   2.758   3.610  10.032  2.4450  1.9215 -2.2749
  475MPD2     N 7074   2.505   3.949  10.239 -0.0871 -0.3755 -0.5683
  475MPD2    H5 7075   2.517   4.039  10.284  2.5158 -0.4127 -1.1794
  475MPD2    N1 7076   2.951   4.013  10.074  0.5534 -0.0697 -0.0682
  475MPD2    H7 7077   3.026   3.977  10.016  0.9193  0.6634 -0.0619
  476TMC3    C1 7078   3.041   4.237  10.096  0.8523  0.6103  0.0186
  476TMC3    C2 7079   2.956   4.270   9.996 -0.2371 -0.7220  0.6698
  476TMC3    C3 7080   2.919   4.401   9.981 -0.7571 -0.2682  0.3746
  476TMC3    C4 7081   3.077   4.325  10.190 -0.4414 -0.4998 -0.6629
  476TMC3    C5 7082   3.049   4.457  10.166 -0.4839 -0.8579  0.0811
  476TMC3    C6 7083   2.962   4.501  10.067  0.8024  0.6477  0.4385
  476TMC3     C 7084   2.979   4.121  10.160  0.2399 -0.2818  0.4126
  476TMC3     O 7085   2.923   4.158  10.259  0.6447 -0.5536  0.0176
  476TMC3     H 7086   2.913   4.191   9.935  0.9120  0.4799 -1.6646
  476TMC3    H1 7087   3.138   4.297  10.275 -0.2771 -0.6619 -0.8362
  476TMC3    H2 7088   2.914   4.598  10.071 -0.4387  0.0995 -1.1573
  476TMC3    C7 7089   3.041   4.538  10.287 -0.5115  0.0851  0.1605
  476TMC3    C8 7090   2.772   4.414   9.961  0.1247 -0.0503  0.2099
  476TMC3    O1 7091   3.072   4.657  10.276  0.6031 -0.1740  0.2191
  476TMC3    O2 7092   2.717   4.521   9.990 -0.4483  0.0895 -0.6808
  477MPD2     C 7093   4.586   0.610  11.682 -0.2832 -0.0214  0.1472
  477MPD2    C1 7094   4.552   0.716  11.769 -0.3427  0.7442 -0.5227
  477MPD2    C2 7095   4.577   0.698  11.904  0.3428  0.1882  0.4893
  477MPD2    C3 7096   4.632   0.581  11.956 -0.3616 -0.2672  0.1208
  477MPD2    C4 7097   4.652   0.473  11.865 -0.3746  0.5545  0.1710
  477MPD2    C5 7098   4.636   0.494  11.731 -0.6865  0.8551 -0.0562
  477MPD2     H 7099   4.552   0.785  11.964 -0.5886  0.1257  0.2000
  477MPD2    H1 7100   4.691   0.380  11.905  0.6053  1.4242  1.2385
  477MPD2    H2 7101   4.580   0.626  11.575 -0.4563 -0.1051  0.1455
  477MPD2    H3 7102   4.663   0.413  11.664 -2.1854 -0.4229  0.8844
  477MPD2     N 7103   4.647   0.556  12.093  0.5057  0.2420  0.6305
  477MPD2    H5 7104   4.681   0.462  12.109 -2.9413 -0.9930  0.7442
  477MPD2    N1 7105   4.492   0.831  11.707  0.4528  0.0754 -0.0683
  477MPD2    H7 7106   4.480   0.825  11.606 -0.3457  1.6040 -0.0662
  478TMC3    C1 7107   4.394   1.033  11.670 -0.0203 -0.0248 -0.3276
  478TMC3    C2 7108   4.388   1.163  11.693  0.5131 -0.3278  0.5136
  478TMC3    C3 7109   4.312   1.246  11.613  0.1293  0.0397 -0.0083
  478TMC3    C4 7110   4.337   0.976  11.558 -0.4080  0.2149  0.0787
  478TMC3    C5 7111   4.262   1.067  11.478  0.6186  0.4168  0.3422
  478TMC3    C6 7112   4.253   1.202  11.504  0.2944 -0.3706  0.2313
  478TMC3     C 7113   4.462   0.949  11.762 -0.1585 -0.4564 -0.2199
  478TMC3     O 7114   4.471   0.983  11.876 -0.1684 -0.0337 -0.4141
  478TMC3     H 7115   4.404   1.196  11.795 -1.0911  0.0572  0.6542
  478TMC3    H1 7116   4.327   0.869  11.543 -0.0294  0.1261  0.4523
  478TMC3    H2 7117   4.196   1.273  11.444  0.7801 -0.1704  0.0038
  478TMC3    C7 7118   4.180   1.000  11.374  0.1861  0.4726  0.2228
  478TMC3    C8 7119   4.246   1.350  11.699  0.1615  0.1119  0.3419
  478TMC3    O1 7120   4.140   0.885  11.397 -0.2545  0.4206  0.4180
  478TMC3    O2 7121   4.247   1.343  11.821  0.2114 -0.3678 -0.4156
  479MPD2     C 7122   3.608   3.017  15.301 -0.6244 -0.8069  0.1263
  479MPD2    C1 7123   3.549   3.003  15.422 -0.3745 -0.1362 -0.4818
  479MPD2    C2 7124   3.622   3.055  15.533  0.3115  0.4620  0.1141
  479MPD2    C3 7125   3.747   3.111  15.521  0.0536 -0.0074 -0.0124
  479MPD2    C4 7126   3.801   3.118  15.395 -0.0209  0.2403  0.1138
  479MPD2    C5 7127   3.730   3.068  15.286 -0.4173 -0.7981  0.4057
  479MPD2     H 7128   3.576   3.043  15.631 -1.4366  2.2537 -0.4899
  479MPD2    H1 7129   3.904   3.152  15.382  0.8895 -2.4730  0.2212
  479MPD2    H2 7130   3.556   2.972  15.217 -0.2401  0.8248 -0.9785
  479MPD2    H3 7131   3.775   3.073  15.187  3.0669  0.2508  2.0388
  479MPD2     N 7132   3.817   3.157  15.630 -0.0837  0.1711  0.3478
  479MPD2    H5 7133   3.913   3.179  15.605 -0.6937 -0.2705 -2.3395
  479MPD2    N1 7134   3.416   2.960  15.430 -0.9608 -0.6511  0.1267
  479MPD2    H7 7135   3.365   2.947  15.343  0.2199 -0.1723 -0.6261
  480TMC3    C1 7136   3.484   3.076  15.914  0.5115  0.0387 -0.0268
  480TMC3    C2 7137   3.396   3.169  15.865  0.4448  0.3335  0.2840
  480TMC3    C3 7138   3.440   3.280  15.793  0.3850 -0.0489 -0.0863
  480TMC3    C4 7139   3.615   3.081  15.875 -0.1464 -0.0175 -0.1857
  480TMC3    C5 7140   3.645   3.185  15.795 -0.1041 -0.0373  0.2677
  480TMC3    C6 7141   3.565   3.281  15.746  0.5191  0.2858 -1.0571
  480TMC3     C 7142   3.437   2.962  15.987 -0.6041 -0.1582 -0.0160
  480TMC3     O 7143   3.501   2.860  15.968  0.3118  0.3137 -0.2243
  480TMC3     H 7144   3.292   3.170  15.893  0.5522  2.1970  0.6428
  480TMC3    H1 7145   3.682   3.012  15.926  1.6663 -0.0578 -2.5830
  480TMC3    H2 7146   3.612   3.367  15.700 -0.0942  0.7273 -0.8614
  480TMC3    C7 7147   3.780   3.180  15.760 -0.7913 -0.0494  0.2703
  480TMC3    C8 7148   3.332   3.333  15.714 -0.3194  0.3302  0.3633
  480TMC3    O1 7149   3.855   3.205  15.854  0.2519  0.8410 -0.3132
  480TMC3    O2 7150   3.227   3.355  15.768 -0.4261 -0.1042  0.2799
  481MPD2     C 7151   0.445   2.885  14.359 -0.2546 -0.2072  0.6377
  481MPD2    C1 7152   0.333   2.804  14.359  0.6930 -0.8411 -0.4529
  481MPD2    C2 7153   0.262   2.784  14.479  0.5267 -0.0172 -0.1117
  481MPD2    C3 7154   0.299   2.842  14.603  0.0028  0.5719  0.1705
  481MPD2    C4 7155   0.407   2.920  14.600  0.0964  0.9001 -0.2546
  481MPD2    C5 7156   0.475   2.945  14.478  0.1613 -0.5032  0.0965
  481MPD2     H 7157   0.170   2.728  14.470 -0.2447  1.2458 -0.1808
  481MPD2    H1 7158   0.442   2.975  14.686  0.9095  0.9276 -0.5989
  481MPD2    H2 7159   0.502   2.907  14.269 -2.0801 -0.3348 -0.5550
  481MPD2    H3 7160   0.552   3.021  14.483 -1.6366  1.2502  1.3739
  481MPD2     N 7161   0.236   2.807  14.724  0.0936  0.6142  0.1135
  481MPD2    H5 7162   0.286   2.838  14.808  0.5406  1.3082 -0.4037
  481MPD2    N1 7163   0.299   2.746  14.235  0.1831 -0.4104 -0.6075
  481MPD2    H7 7164   0.354   2.785  14.159 -0.9180  1.7865 -0.2866
  482TMC3    C1 7165   0.141   2.646  14.070 -0.2021  0.3217  0.0097
  482TMC3    C2 7166   0.015   2.604  14.050 -0.5498 -0.0547 -0.7840
  482TMC3    C3 7167   4.708   2.551  13.927 -0.9030 -1.0879 -0.2588
  482TMC3    C4 7168   0.236   2.628  13.981 -0.0765 -0.1589 -0.0494
  482TMC3    C5 7169   0.206   2.574  13.858 -0.0816  0.0268  0.1007
  482TMC3    C6 7170   0.077   2.537  13.821  0.0556 -0.1275 -0.0292
  482TMC3     C 7171   0.190   2.661  14.212  0.0285 -0.2652  0.4519
  482TMC3     O 7172   0.112   2.624  14.300 -0.4080  0.1485  0.0747
  482TMC3     H 7173   4.663   2.595  14.128  0.2242 -1.2021 -0.1759
  482TMC3    H1 7174   0.331   2.671  14.008 -0.9852  2.2099 -0.6595
  482TMC3    H2 7175   0.063   2.497  13.721 -0.1925  2.9648 -1.2324
  482TMC3    C7 7176   0.310   2.567  13.761 -0.4500  0.6883  0.2112
  482TMC3    C8 7177   4.588   2.481  13.913  0.2362 -0.3410 -0.3071
  482TMC3    O1 7178   0.421   2.540  13.807  0.0963  0.2151 -0.0437
  482TMC3    O2 7179   4.483   2.530  13.952 -0.2824 -0.3008  0.1048
  483TMC3    C1 7180   2.652   1.483   0.818 -0.7466  0.1425  0.1760
  483TMC3    C2 7181   2.703   1.577   0.728 -0.4662  0.4584 -0.3083
  483TMC3    C3 7182   2.823   1.636   0.751 -0.1262 -0.2776  0.3335
  483TMC3    C4 7183   2.731   1.443   0.926 -0.9256  0.2270  0.0984
  483TMC3    C5 7184   2.859   1.484   0.927 -0.1308  0.0214 -0.8739
  483TMC3    C6 7185   2.907   1.592   0.853 -0.0569  0.6271 -0.2524
  483TMC3     C 7186   2.518   1.432   0.798  0.5241  0.2792  0.0466
  483TMC3     O 7187   2.442   1.466   0.710  0.1633 -0.2598 -0.1764
  483TMC3     H 7188   2.638   1.607   0.647 -2.7703 -7.3856 -1.3733
  483TMC3    H1 7189   2.703   1.361   0.991 -0.6096 -0.5363 -0.7263
  483TMC3    H2 7190   3.008   1.628   0.869  1.6286 -4.5894  0.7567
  483TMC3    C7 7191   2.948   1.431   1.028 -0.3350  0.1452  0.1792
  483TMC3    C8 7192   2.887   1.721   0.647  0.3790 -0.3696  0.5298
  483TMC3    O1 7193   3.057   1.393   0.984  0.7561  0.2979  0.1080
  483TMC3    O2 7194   2.853   1.707   0.531 -0.0130 -0.3489 -0.1640
  484MPD2     C 7195   0.667   4.398  12.521 -0.1068  0.1828 -0.3445
  484MPD2    C1 7196   0.729   4.309  12.437  0.7590 -0.3529 -0.2106
  484MPD2    C2 7197   0.857   4.339  12.383  0.1072 -0.1692 -0.1254
  484MPD2    C3 7198   0.913   4.468  12.403  0.3516  0.6456  0.1420
  484MPD2    C4 7199   0.835   4.565  12.464  0.3067 -0.8166  0.1321
  484MPD2    C5 7200   0.721   4.528  12.530  0.7604 -0.4844 -0.5049
  484MPD2     H 7201   0.908   4.263  12.325  0.0116  1.0944 -1.8589
  484MPD2    H1 7202   0.886   4.660  12.478 -1.7019  0.4834 -1.4215
  484MPD2    H2 7203   0.580   4.358  12.571  0.2410  1.5998  1.4088
  484MPD2    H3 7204   0.665   4.594  12.595 -1.4180 -1.2296 -1.6187
  484MPD2     N 7205   1.051   4.500  12.370  0.0355  0.5128 -0.7527
  484MPD2    H5 7206   1.085   4.595  12.380  2.6146 -0.5244  0.4274
  484MPD2    N1 7207   0.669   4.188  12.430  0.2063 -0.5419  0.3525
  484MPD2    H7 7208   0.582   4.176  12.482 -0.2706 -2.0946 -0.8098
  485TMC3    C1 7209   1.281   4.448  12.395 -0.2783 -0.4384  1.1150
  485TMC3    C2 7210   1.345   4.376  12.491  0.3187  0.0668  0.2824
  485TMC3    C3 7211   1.475   4.347  12.490 -0.0318 -0.2935  0.5865
  485TMC3    C4 7212   1.345   4.494  12.280 -0.2915 -0.8720 -0.4764
  485TMC3    C5 7213   1.480   4.478  12.290  0.2699  0.7038  0.3559
  485TMC3    C6 7214   1.547   4.412  12.390 -0.2732  0.0697  0.6445
  485TMC3     C 7215   1.147   4.398  12.376 -0.0868  0.4779 -0.3901
  485TMC3     O 7216   1.133   4.286  12.423 -0.3506 -0.3034 -0.0410
  485TMC3     H 7217   1.282   4.351  12.575  1.5529 -0.6572  0.9972
  485TMC3    H1 7218   1.302   4.536  12.190 -1.1800  0.8634  0.7623
  485TMC3    H2 7219   1.655   4.404  12.386 -0.3718  0.0504 -2.0404
  485TMC3    C7 7220   1.545   4.443  12.159  0.4881  0.3318  0.1856
  485TMC3    C8 7221   1.505   4.205  12.502  0.3850 -0.9559 -0.2409
  485TMC3    O1 7222   1.537   4.522  12.067 -0.2462 -0.4793  0.0504
  485TMC3    O2 7223   1.618   4.177  12.469  0.4640  0.4414 -0.2482
  486MPD2     C 7224   3.521   3.132  12.604 -0.2586  0.1903  0.5427
  486MPD2    C1 7225   3.393   3.107  12.563  0.2924 -0.0240 -0.1067
  486MPD2    C2 7226   3.310   3.215  12.536  0.5510  0.2750 -0.0808
  486MPD2    C3 7227   3.358   3.339  12.549 -0.1745 -0.3557  0.5151
  486MPD2    C4 7228   3.487   3.368  12.583 -0.2696 -0.7971  0.1709
  486MPD2    C5 7229   3.565   3.261  12.610  0.0612 -0.3822  0.4564
  486MPD2     H 7230   3.211   3.197  12.495  0.5781 -0.2608  0.0917
  486MPD2    H1 7231   3.541   3.462  12.587 -2.6027  0.4772  1.9605
  486MPD2    H2 7232   3.589   3.050  12.625  0.8976  1.1468  0.4747
  486MPD2    H3 7233   3.669   3.279  12.635 -0.3883  2.7303  0.1734
  486MPD2     N 7234   3.269   3.443  12.517  0.5011  0.2299  0.0996
  486MPD2    H5 7235   3.179   3.426  12.471  1.7618 -1.4309 -1.7651
  486MPD2    N1 7236   3.341   2.975  12.570  0.0405  0.6334 -0.1125
  486MPD2    H7 7237   3.412   2.915  12.611 -0.5501 -0.1458 -0.2184
  487TMC3    C1 7238   3.205   2.780  12.564  0.0077 -0.5974  0.2075
  487TMC3    C2 7239   3.137   2.697  12.479  0.1107  0.1232 -0.2705
  487TMC3    C3 7240   3.121   2.564  12.506 -0.8665 -0.5660 -0.8588
  487TMC3    C4 7241   3.264   2.733  12.678  0.3131 -0.1103  0.0418
  487TMC3    C5 7242   3.242   2.601  12.702  0.7750  0.3051  0.2606
  487TMC3    C6 7243   3.172   2.514  12.622 -0.0095 -0.4704  0.0716
  487TMC3     C 7244   3.231   2.918  12.512  0.8154  0.0519  0.5461
  487TMC3     O 7245   3.154   2.972  12.430  0.2362 -0.3109  0.5502
  487TMC3     H 7246   3.079   2.727  12.392  0.6326 -1.3042 -1.1085
  487TMC3    H1 7247   3.318   2.797  12.747  0.9628  0.1832 -0.7419
  487TMC3    H2 7248   3.150   2.415  12.658 -5.6383  1.4279  1.8237
  487TMC3    C7 7249   3.228   2.565  12.839 -0.7537  0.0054 -0.6939
  487TMC3    C8 7250   2.982   2.527  12.497  1.0456 -0.5174  0.8920
  487TMC3    O1 7251   3.143   2.477  12.865  0.1646  0.1531  0.3132
  487TMC3    O2 7252   2.890   2.609  12.502 -0.4308 -0.2798 -0.3521
  488MPD2     C 7253   2.998   0.060  16.718  0.7828 -0.3754 -0.4010
  488MPD2    C1 7254   3.050   0.183  16.716  0.3766 -0.6244 -0.0875
  488MPD2    C2 7255   3.060   0.258  16.838  0.9511  0.8128  0.3407
  488MPD2    C3 7256   3.020   0.201  16.960 -0.1805 -0.1289  0.0023
  488MPD2    C4 7257   2.959   0.075  16.949  0.7398 -0.0780  0.3593
  488MPD2    C5 7258   2.949   0.000  16.835 -0.4540  0.1483  0.0794
  488MPD2     H 7259   3.108   0.354  16.848  0.6480  1.0723 -0.7123
  488MPD2    H1 7260   2.936   0.015  17.037 -2.6118  0.6729 -0.0106
  488MPD2    H2 7261   2.994   0.001  16.628  0.5692 -1.7956  0.5445
  488MPD2    H3 7262   2.908   4.623  16.832 -0.5647  0.1601  1.1893
  488MPD2     N 7263   3.030   0.276  17.083 -0.6404 -0.1073 -0.1424
  488MPD2    H5 7264   3.056   0.374  17.082 -0.4065 -0.1590  1.7635
  488MPD2    N1 7265   3.083   0.251  16.592  1.4526 -0.2195  0.1595
  488MPD2    H7 7266   3.108   0.349  16.604  0.4265 -0.0275  0.7043
  489TMC3    C1 7267   3.000   0.333  17.306  0.5232 -0.4766 -0.3029
  489TMC3    C2 7268   2.978   0.463  17.280 -0.4515 -0.1317  0.6190
  489TMC3    C3 7269   2.976   0.549  17.381 -0.8866  0.1030 -0.6484
  489TMC3    C4 7270   3.015   0.290  17.441  0.0666  0.4184  1.1678
  489TMC3    C5 7271   2.996   0.383  17.545 -0.7165  0.8732  0.0925
  489TMC3    C6 7272   2.984   0.514  17.511 -0.5704 -0.4295 -0.1380
  489TMC3     C 7273   2.990   0.229  17.205  0.1105 -0.3430 -0.2005
  489TMC3     O 7274   2.964   0.116  17.244  0.1534  0.2773 -0.4915
  489TMC3     H 7275   2.950   0.496  17.180  0.2869  1.0324  0.8042
  489TMC3    H1 7276   3.040   0.186  17.457  2.2574  0.7012 -0.4711
  489TMC3    H2 7277   2.982   0.587  17.592  1.1048 -1.3375  0.7103
  489TMC3    C7 7278   3.015   0.355  17.684  0.1833  0.3079 -0.1477
  489TMC3    C8 7279   2.945   0.686  17.354  0.4740  0.3110 -0.2501
  489TMC3    O1 7280   3.054   0.443   0.070  0.0862 -0.3010  0.1677
  489TMC3    O2 7281   2.877   0.743  17.441 -0.3059  0.4361 -0.2244
  490MPD2     C 7282   3.797   0.009   0.047 -0.2949 -0.1807  0.3893
  490MPD2    C1 7283   3.879   4.672  17.650 -0.3098  0.2787 -0.1018
  490MPD2    C2 7284   3.991   0.001  17.603  0.2123  0.0791 -0.1297
  490MPD2    C3 7285   4.034   0.127  17.660 -0.1959  0.4093 -0.9303
  490MPD2    C4 7286   3.955   0.186   0.059 -0.8868  0.2459 -0.1191
  490MPD2    C5 7287   3.833   0.133   0.099 -0.3215 -0.5020  0.1338
  490MPD2     H 7288   4.050   4.685  17.520 -0.6277 -0.8941 -0.2622
  490MPD2    H1 7289   3.972   0.282   0.107 -0.1055 -0.2340  0.5736
  490MPD2    H2 7290   3.706   4.679   0.075 -1.0561  0.0482 -1.6125
  490MPD2    H3 7291   3.771   0.180   0.174  1.7553  1.2986  0.7391
  490MPD2     N 7292   4.160   0.190  17.631  0.7728  0.5047 -0.5074
  490MPD2    H5 7293   4.180   0.275  17.683  0.6223  1.0220 -1.2946
  490MPD2    N1 7294   3.846   4.548  17.592  0.3946 -0.6571  0.2642
  490MPD2    H7 7295   3.898   4.531  17.507 -1.1074 -0.6810 -0.6471
  491TMC3    C1 7296   3.789   4.332  17.552 -0.2402 -1.1151 -0.1966
  491TMC3    C2 7297   3.838   4.222  17.617  0.3064  0.8726 -0.2044
  491TMC3    C3 7298   3.823   4.098  17.557 -0.0818 -0.1181 -0.0703
  491TMC3    C4 7299   3.732   4.324  17.426  0.1789 -0.2840 -0.3494
  491TMC3    C5 7300   3.705   4.199  17.380  0.2847  0.3948 -0.4205
  491TMC3    C6 7301   3.751   4.085  17.440 -0.7389 -0.0112 -0.7166
  491TMC3     C 7302   3.768   4.446  17.635 -0.1912  0.1330  0.6081
  491TMC3     O 7303   3.737   4.428   0.060 -0.2306 -0.0892 -0.0608
  491TMC3     H 7304   3.882   4.225   0.022  1.4700 -0.2564 -0.6853
  491TMC3    H1 7305   3.701   4.421  17.387 -0.3135 -1.0115 -1.7946
  491TMC3    H2 7306   3.729   3.989  17.395 -1.2914  0.9776 -2.5425
  491TMC3    C7 7307   3.624   4.194  17.260  0.0293  0.0459 -0.2789
  491TMC3    C8 7308   3.861   3.983  17.616 -0.1612 -0.3838  0.0380
  491TMC3    O1 7309   3.611   4.080  17.216  0.1585 -0.4289  0.5585
  491TMC3    O2 7310   3.900   3.894  17.541  0.0930 -0.6138  1.0519
  492MPD2     C 7311   4.479   3.893  11.244  0.1606  0.3064  0.2107
  492MPD2    C1 7312   4.370   3.890  11.162  0.6052 -0.3043  0.0311
  492MPD2    C2 7313   4.246   3.869  11.222  1.1941  0.0728 -0.2602
  492MPD2    C3 7314   4.233   3.854  11.366  0.1012  0.0092  0.1141
  492MPD2    C4 7315   4.346   3.845  11.440 -0.4567 -0.0795 -0.1187
  492MPD2    C5 7316   4.470   3.870  11.382  0.4337 -0.3902 -0.3262
  492MPD2     H 7317   4.162   3.849  11.157  1.6278  1.8184 -1.3634
  492MPD2    H1 7318   4.348   3.832  11.547 -2.6453  1.9655  0.1888
  492MPD2    H2 7319   4.579   3.904  11.202  0.2291 -0.1941  0.2495
  492MPD2    H3 7320   4.556   3.869  11.448  0.4146  0.4373 -0.2868
  492MPD2     N 7321   4.114   3.835  11.438 -0.3015 -0.3919 -0.1793
  492MPD2    H5 7322   4.118   3.810  11.536  1.2382 -0.0876 -0.1564
  492MPD2    N1 7323   4.381   3.922  11.026  0.6593  0.5568 -0.3989
  492MPD2    H7 7324   4.474   3.948  10.996  0.1780  0.3606 -2.0335
  493TMC3    C1 7325   4.327   3.958  10.797  0.2642  0.4181 -0.7141
  493TMC3    C2 7326   4.435   4.042  10.788 -0.8542  0.4831  0.5877
  493TMC3    C3 7327   4.474   4.075  10.662  0.2229 -0.1962 -0.1734
  493TMC3    C4 7328   4.266   3.908  10.689 -0.5626 -0.6045 -0.8050
  493TMC3    C5 7329   4.315   3.941  10.563  0.2312  0.2379 -0.1201
  493TMC3    C6 7330   4.421   4.031  10.545  0.0334 -0.3002 -0.6523
  493TMC3     C 7331   4.278   3.923  10.926 -0.6726 -0.1218  0.3082
  493TMC3     O 7332   4.163   3.884  10.927 -0.2156 -0.1373  0.4957
  493TMC3     H 7333   4.475   4.094  10.874 -3.0442  2.6013  0.3288
  493TMC3    H1 7334   4.172   3.855  10.694  0.5160 -2.4913 -0.7370
  493TMC3    H2 7335   4.470   4.058  10.453 -2.8990  1.8666 -1.5855
  493TMC3    C7 7336   4.254   3.881  10.447 -0.0513  0.4785 -0.0705
  493TMC3    C8 7337   4.613   4.140  10.664  0.1550 -0.2122 -0.5428
  493TMC3    O1 7338   4.217   3.957  10.359  0.2999 -0.5418 -0.4487
  493TMC3    O2 7339   4.669   4.144  10.776 -0.0993  0.0720  0.2152
  494TMC3    C1 7340   0.303   1.122   0.338  0.0390  0.7979 -1.0425
  494TMC3    C2 7341   0.413   1.027   0.318  0.1086  0.3090  0.0010
  494TMC3    C3 7342   0.460   1.012   0.191  0.0747  0.0605  0.2852
  494TMC3    C4 7343   0.239   1.170   0.218 -0.1824 -0.6878 -0.3347
  494TMC3    C5 7344   0.283   1.130   0.091  0.2489  0.2482 -0.3857
  494TMC3    C6 7345   0.397   1.050   0.080 -0.4337  0.6882 -0.6433
  494TMC3     C 7346   0.292   1.166   0.471  0.3938  0.5509 -0.6165
  494TMC3     O 7347   0.322   1.090   0.563 -0.4343  0.4189 -0.6262
  494TMC3     H 7348   0.476   1.000   0.402  0.1367  1.2741  0.2797
  494TMC3    H1 7349   0.145   1.223   0.231  0.0477 -0.7323  1.6462
  494TMC3    H2 7350   0.447   1.042  17.678  1.7031 -1.3554  0.6486
  494TMC3    C7 7351   0.227   1.191  17.667  0.6938  0.5060 -0.4014
  494TMC3    C8 7352   0.555   0.903   0.168  0.4162  0.0591  0.5781
  494TMC3    O1 7353   0.258   1.128  17.565  0.2724 -0.4007  0.0391
  494TMC3    O2 7354   0.639   0.893   0.258  0.3604 -0.5501 -0.2939
  495TMC3    C1 7355   3.202   2.938  14.820  0.0266 -0.1712  0.1823
  495TMC3    C2 7356   3.221   3.024  14.712 -0.5013  0.4797  0.8116
  495TMC3    C3 7357   3.286   3.146  14.735 -0.8380  0.4424  1.1634
  495TMC3    C4 7358   3.240   2.971  14.945  0.1259  0.0919  0.3092
  495TMC3    C5 7359   3.303   3.092  14.959 -0.4857  0.1653  0.1523
  495TMC3    C6 7360   3.328   3.180  14.858  0.7964  0.1838 -0.2265
  495TMC3     C 7361   3.096   2.843  14.796 -0.7420  0.4751  0.2718
  495TMC3     O 7362   3.074   2.811  14.676 -0.1277  0.2525  0.1439
  495TMC3     H 7363   3.184   2.993  14.615 -1.2947 -0.9859  1.5793
  495TMC3    H1 7364   3.223   2.908  15.032  0.4047  0.6450  0.7622
  495TMC3    H2 7365   3.372   3.278  14.876 -0.3416  0.7760 -0.6975
  495TMC3    C7 7366   3.310   3.141  15.092 -0.5057  0.3294 -0.6170
  495TMC3    C8 7367   3.246   3.247  14.640  1.0922 -0.4829  0.3742
  495TMC3    O1 7368   3.340   3.052  15.175 -0.0726 -0.1402  0.0572
  495TMC3    O2 7369   3.165   3.205  14.561 -0.2378  0.6279  0.3324
  496MPD2     C 7370   0.343   3.305  15.397 -0.1825 -0.1710  0.8400
  496MPD2    C1 7371   0.438   3.234  15.475 -0.1010 -0.3988 -0.6528
  496MPD2    C2 7372   0.465   3.281  15.604  0.5076 -0.4258 -0.0420
  496MPD2    C3 7373   0.404   3.398  15.657  0.7415 -0.3261 -0.6997
  496MPD2    C4 7374   0.312   3.464  15.581 -0.2256  0.2661 -0.6118
  496MPD2    C5 7375   0.281   3.415  15.456  0.5187  0.3541 -0.0225
  496MPD2     H 7376   0.533   3.230  15.671 -1.8156  0.0688  2.7028
  496MPD2    H1 7377   0.257   3.549  15.618 -0.8347 -0.9933  1.3717
  496MPD2    H2 7378   0.313   3.272  15.298  0.4869  2.6510 -0.3335
  496MPD2    H3 7379   0.195   3.460  15.406 -0.0797 -2.4277 -1.5004
  496MPD2     N 7380   0.415   3.453  15.789 -0.3245 -0.0707  0.1752
  496MPD2    H5 7381   0.356   3.534  15.805  0.7318  0.9813 -1.3754
  496MPD2    N1 7382   0.491   3.113  15.425  0.3260  0.1356 -0.0455
  496MPD2    H7 7383   0.451   3.095  15.333 -0.1195  1.6351 -0.1470
  497TMC3    C1 7384   0.453   3.456  16.023  0.7389 -0.0288  0.4433
  497TMC3    C2 7385   0.342   3.537  16.014 -0.1827 -0.2685  0.5340
  497TMC3    C3 7386   0.236   3.525  16.099 -0.5335 -0.0865  0.7026
  497TMC3    C4 7387   0.455   3.371  16.130  0.4031 -0.4072 -0.0229
  497TMC3    C5 7388   0.345   3.365  16.215 -0.4628  0.8501  0.0435
  497TMC3    C6 7389   0.234   3.435  16.198 -0.3002 -0.7459 -0.5976
  497TMC3     C 7390   0.483   3.394  15.895 -0.4507  0.6047 -1.0747
  497TMC3     O 7391   0.549   3.294  15.886  0.7543 -0.2711 -0.8827
  497TMC3     H 7392   0.336   3.613  15.937 -2.0750 -1.5090 -0.5372
  497TMC3    H1 7393   0.531   3.295  16.146  0.3844 -0.4950 -0.3597
  497TMC3    H2 7394   0.161   3.430  16.279  0.8949  2.0753  0.6636
  497TMC3    C7 7395   0.358   3.299  16.344  0.5180  0.3256 -0.0279
  497TMC3    C8 7396   0.120   3.520  16.018  0.0590  0.1683  0.3672
  497TMC3    O1 7397   0.254   3.279  16.410  0.1651 -0.3512 -0.5403
  497TMC3    O2 7398   0.108   3.604  15.932 -0.1163 -0.5785 -0.0906
  498MPD2     C 7399   1.759   3.972   9.554 -0.3024 -0.0204  0.8264
  498MPD2    C1 7400   1.870   3.930   9.627 -0.6307  0.4525  0.4071
  498MPD2    C2 7401   1.879   3.796   9.643  0.3054  0.1829  0.3427
  498MPD2    C3 7402   1.790   3.701   9.585  0.3282  0.5163 -0.0609
  498MPD2    C4 7403   1.689   3.746   9.505 -0.0344  0.4625 -0.3018
  498MPD2    C5 7404   1.679   3.885   9.484 -0.3680  0.1824 -0.0673
  498MPD2     H 7405   1.963   3.762   9.703  0.7680 -1.0172 -0.9928
  498MPD2    H1 7406   1.609   3.684   9.467  1.3213 -1.3803 -0.1242
  498MPD2    H2 7407   1.736   4.076   9.533 -0.5932 -0.5232 -1.3733
  498MPD2    H3 7408   1.595   3.928   9.431 -0.7091 -0.4138 -0.0013
  498MPD2     N 7409   1.814   3.567   9.606  0.3318  0.2253  0.0614
  498MPD2    H5 7410   1.862   3.552   9.695 -0.4152 -0.2558  0.3867
  498MPD2    N1 7411   1.960   4.016   9.675 -0.1868  0.4573 -0.7974
  498MPD2    H7 7412   2.047   3.977   9.710  0.2632  0.6955 -1.6454
  499TMC3    C1 7413   2.052   4.230   9.708  0.4488  0.7514  0.7124
  499TMC3    C2 7414   2.174   4.203   9.641  0.5566 -0.3045 -0.2129
  499TMC3    C3 7415   2.277   4.294   9.663 -0.3806  0.3812  0.1502
  499TMC3    C4 7416   2.035   4.352   9.771  0.1144 -0.3688 -0.1289
  499TMC3    C5 7417   2.143   4.438   9.778 -0.7326  0.5295 -0.0580
  499TMC3    C6 7418   2.263   4.417   9.714 -0.1617  0.3220 -0.6522
  499TMC3     C 7419   1.931   4.152   9.680  0.2855 -0.0707 -0.3359
  499TMC3     O 7420   1.824   4.205   9.693  0.3608 -0.3293  0.3772
  499TMC3     H 7421   2.199   4.109   9.593 -0.8544 -0.4956 -0.5516
  499TMC3    H1 7422   1.944   4.374   9.826  1.3929 -0.6725  2.0826
  499TMC3    H2 7423   2.347   4.485   9.720  2.8899 -3.5613  0.5768
  499TMC3    C7 7424   2.121   4.572   9.807  0.0185 -0.5595 -0.1484
  499TMC3    C8 7425   2.391   4.278   9.579  0.3373 -0.3307 -0.3750
  499TMC3    O1 7426   2.157   4.658   9.727  0.0920  0.3053 -0.1631
  499TMC3    O2 7427   2.392   4.208   9.479 -0.1362 -1.0486 -0.3696
  500MPD2     C 7428   3.561   0.363   9.843  0.0222  0.4227 -0.1282
  500MPD2    C1 7429   3.568   0.481   9.917  0.3797  0.2494  0.3480
  500MPD2    C2 7430   3.451   0.564   9.911 -0.1567  0.4291  0.7336
  500MPD2    C3 7431   3.336   0.527   9.845 -0.1512  0.2869  0.1311
  500MPD2    C4 7432   3.327   0.404   9.784  0.1839 -0.0233 -0.1145
  500MPD2    C5 7433   3.437   0.323   9.788 -0.0028 -0.3772 -0.0775
  500MPD2     H 7434   3.457   0.656   9.968 -0.3481  0.3603  0.8688
  500MPD2    H1 7435   3.237   0.359   9.743  0.9575 -1.1673 -0.5571
  500MPD2    H2 7436   3.643   0.292   9.833  0.3021  0.3629  2.6086
  500MPD2    H3 7437   3.430   0.226   9.740 -0.4744  0.7261 -2.2827
  500MPD2     N 7438   3.212   0.601   9.838 -0.2891 -0.5442 -0.3915
  500MPD2    H5 7439   3.136   0.558   9.786  0.9835 -1.4882 -1.4832
  500MPD2    N1 7440   3.685   0.529   9.982  0.4966 -0.1623  0.3611
  500MPD2    H7 7441   3.681   0.613  10.039  1.7174 -0.4432  0.8555
  501TMC3    C1 7442   3.911   0.570  10.009  0.0504  0.0552 -0.3821
  501TMC3    C2 7443   3.894   0.702   9.995  0.3224  0.5236  0.0170
  501TMC3    C3 7444   3.984   0.782  10.057  1.0398 -0.3994  0.4495
  501TMC3    C4 7445   4.021   0.510  10.064 -0.6056  0.5970 -0.0433
  501TMC3    C5 7446   4.109   0.592  10.123 -0.2874 -0.9555 -0.3035
  501TMC3    C6 7447   4.085   0.727  10.133  0.2058 -0.0950  1.4423
  501TMC3     C 7448   3.814   0.482   9.963  0.7095  0.1677  0.1620
  501TMC3     O 7449   3.852   0.374   9.918 -0.2122  0.1985  0.2861
  501TMC3     H 7450   3.805   0.742   9.948 -0.5854 -0.8842  0.5085
  501TMC3    H1 7451   4.041   0.404  10.073  1.2524  0.7764 -2.2339
  501TMC3    H2 7452   4.144   0.807  10.177 -0.7638  0.9858  0.7705
  501TMC3    C7 7453   4.222   0.529  10.188 -0.0160 -0.1452  0.1172
  501TMC3    C8 7454   3.949   0.919  10.085 -0.3221 -0.6708  0.0464
  501TMC3    O1 7455   4.228   0.407  10.201  0.3895  0.1242  0.0086
  501TMC3    O2 7456   3.988   0.960  10.194  0.1999 -0.2483  0.2866
  502TMC3    C1 7457   2.700   4.073  14.791 -0.1974  0.4452 -0.6263
  502TMC3    C2 7458   2.625   4.161  14.718  0.3386  0.6237  0.2697
  502TMC3    C3 7459   2.488   4.160  14.716 -0.1003 -0.0493  0.0286
  502TMC3    C4 7460   2.642   3.963  14.853  0.4667  0.0422  0.1254
  502TMC3    C5 7461   2.508   3.959  14.852  0.4960  0.0869 -0.5030
  502TMC3    C6 7462   2.430   4.060  14.796 -0.1882 -0.8108 -0.5783
  502TMC3     C 7463   2.810   4.139  14.867  0.5326 -0.1864 -0.5776
  502TMC3     O 7464   2.846   4.247  14.829 -0.2259  0.0825  0.1299
  502TMC3     H 7465   2.672   4.235  14.654 -0.6145 -0.3333 -1.5555
  502TMC3    H1 7466   2.701   3.886  14.902 -3.1735 -2.0008  1.3070
  502TMC3    H2 7467   2.328   4.035  14.771  0.1585 -0.1054 -2.6697
  502TMC3    C7 7468   2.466   3.927  14.989  0.2372  0.1696  1.2108
  502TMC3    C8 7469   2.444   4.293  14.750 -1.0768  0.6459 -0.8429
  502TMC3    O1 7470   2.556   3.891  15.064  0.2224 -0.3558  0.2734
  502TMC3    O2 7471   2.518   4.387  14.724 -0.3589  0.3642  0.0805
  503MPD2     C 7472   0.221   0.037  16.726  0.1230  0.1791  0.0974
  503MPD2    C1 7473   0.225   0.102  16.852 -0.2144  0.7297  0.1582
  503MPD2    C2 7474   0.294   0.036  16.950 -0.2595  0.7248  0.7265
  503MPD2    C3 7475   0.340   4.632  16.937 -0.1119  0.3201  0.0816
  503MPD2    C4 7476   0.314   4.556  16.823 -1.1668 -0.5615  0.4244
  503MPD2    C5 7477   0.248   4.624  16.720 -0.8454 -0.0946  0.1262
  503MPD2     H 7478   0.304   0.078  17.050  0.7990  1.3927  0.3356
  503MPD2    H1 7479   0.330   4.451  16.800  0.7161 -0.5797  1.7926
  503MPD2    H2 7480   0.177   0.082  16.637 -1.9093 -2.6696 -0.3377
  503MPD2    H3 7481   0.207   4.563  16.641 -0.7734 -0.2702  0.2263
  503MPD2     N 7482   0.403   4.576  17.050 -0.6202 -0.5883 -0.2314
  503MPD2    H5 7483   0.414   4.631  17.135  0.9049  0.5432 -1.1619
  503MPD2    N1 7484   0.190   0.230  16.870  0.7401 -0.0585  0.2892
  503MPD2    H7 7485   0.227   0.272  16.955  0.5480  0.1875  0.2529
  504TMC3    C1 7486   0.505   4.417  17.192  0.8191  0.0019  0.5127
  504TMC3    C2 7487   0.463   4.467  17.314  0.0068 -0.1664  0.5442
  504TMC3    C3 7488   0.544   4.443  17.426 -0.1157 -0.5249 -0.4543
  504TMC3    C4 7489   0.616   4.332  17.186  0.0934  0.2132  0.1194
  504TMC3    C5 7490   0.688   4.298  17.294  0.5774  0.1210 -0.7586
  504TMC3    C6 7491   0.648   4.352  17.415  0.2405  0.6092 -0.2509
  504TMC3     C 7492   0.445   4.445  17.064  0.4139  0.4336  0.3312
  504TMC3     O 7493   0.458   4.355  16.983  0.7500  1.0139  0.0755
  504TMC3     H 7494   0.377   4.533  17.325  0.6903  0.7958  0.0814
  504TMC3    H1 7495   0.634   4.279  17.093 -1.5468  1.5925 -0.9991
  504TMC3    H2 7496   0.695   4.316  17.506 -0.5530  3.5437  1.3163
  504TMC3    C7 7497   0.817   4.234  17.273  0.5125  0.3284 -0.1178
  504TMC3    C8 7498   0.462   4.437  17.546  0.1548 -0.3213  0.5877
  504TMC3    O1 7499   0.841   4.195  17.160 -0.5825  0.0624 -0.4929
  504TMC3    O2 7500   0.340   4.443  17.528  0.1376 -0.1483  0.5015
  505MPD2     C 7501   0.809   3.101  10.558  0.2969 -0.8559 -0.4864
  505MPD2    C1 7502   0.887   2.992  10.533  0.8923  0.8688 -0.1137
  505MPD2    C2 7503   1.001   2.977  10.607  0.1371  0.1562  0.0529
  505MPD2    C3 7504   1.053   3.080  10.686 -0.0912 -0.2749  0.6793
  505MPD2    C4 7505   0.977   3.198  10.703  0.2475 -0.4475 -0.2259
  505MPD2    C5 7506   0.854   3.193  10.648  0.4033  0.0358 -0.5889
  505MPD2     H 7507   1.071   2.899  10.581  0.2437  0.4343 -0.4891
  505MPD2    H1 7508   1.009   3.284  10.760 -0.3086  0.5307 -1.4045
  505MPD2    H2 7509   0.710   3.100  10.513 -0.7565 -0.6128  1.8520
  505MPD2    H3 7510   0.792   3.282  10.649 -1.8144 -1.5102  0.2690
  505MPD2     N 7511   1.185   3.066  10.735  0.3169  0.0925 -0.5034
  505MPD2    H5 7512   1.223   2.973  10.722 -1.5029 -0.7766  0.3868
  505MPD2    N1 7513   0.839   2.902  10.431 -0.3884  0.8233 -0.5372
  505MPD2    H7 7514   0.767   2.928  10.365 -1.0489  0.0234 -0.1250
  506TMC3    C1 7515   0.849   2.704  10.290  0.2771 -0.2071  0.1346
  506TMC3    C2 7516   0.872   2.755  10.166  0.8884  0.1671 -0.6443
  506TMC3    C3 7517   0.902   2.668  10.066  0.3482  0.3649  0.2383
  506TMC3    C4 7518   0.872   2.568  10.312  0.1529 -0.4170 -0.0107
  506TMC3    C5 7519   0.915   2.484  10.216 -0.4557  0.6479 -0.5106
  506TMC3    C6 7520   0.924   2.535  10.086 -0.4908  0.8919 -0.3293
  506TMC3     C 7521   0.901   2.780  10.408 -0.0259  0.5784  0.6519
  506TMC3     O 7522   0.980   2.717  10.481 -0.0428  0.3046 -0.2461
  506TMC3     H 7523   0.879   2.863  10.155 -0.4331  0.1575 -1.5764
  506TMC3    H1 7524   0.850   2.533  10.412  0.8564 -0.2160  0.2132
  506TMC3    H2 7525   0.979   2.480  10.011  2.0341 -0.9916  2.8453
  506TMC3    C7 7526   1.041   2.429  10.261 -0.3173 -0.6697 -1.4666
  506TMC3    C8 7527   0.918   2.716   9.927 -0.2117  0.0779 -0.3430
  506TMC3    O1 7528   1.092   2.339  10.199 -0.3024  0.0636 -0.5399
  506TMC3    O2 7529   0.874   2.635   9.845  0.1488 -0.6363  0.3002
  507TMC3    C1 7530   0.901   3.721  14.711 -0.5303  0.8092 -0.5359
  507TMC3    C2 7531   0.957   3.777  14.601 -0.1771  0.0396  0.7294
  507TMC3    C3 7532   1.081   3.825  14.611  0.4262 -0.4376 -0.2516
  507TMC3    C4 7533   0.956   3.722  14.833 -0.8669 -0.0476  0.0516
  507TMC3    C5 7534   1.076   3.783  14.846  0.4018  0.3928 -0.5227
  507TMC3    C6 7535   1.140   3.829  14.738 -0.0282 -0.2251 -0.1504
  507TMC3     C 7536   0.757   3.687  14.706  0.0489 -0.0336 -0.3036
  507TMC3     O 7537   0.726   3.604  14.791  0.3976 -0.0715  0.1007
  507TMC3     H 7538   0.903   3.773  14.507  0.6040  1.7225  0.2046
  507TMC3    H1 7539   0.894   3.685  14.913  0.6620 -0.1036  1.2069
  507TMC3    H2 7540   1.243   3.863  14.737  0.7617 -2.6373  0.8747
  507TMC3    C7 7541   1.101   3.870  14.962 -0.4682  0.1817 -0.7038
  507TMC3    C8 7542   1.102   3.961  14.553  0.5048 -0.3151  0.2203
  507TMC3    O1 7543   1.057   3.839  15.072  0.2180  0.0812 -0.3574
  507TMC3    O2 7544   1.167   4.030  14.632  0.2736  0.1163  0.0414
  508MPD2     C 7545   2.308   1.627  16.054 -0.5916 -0.1668  0.2660
  508MPD2    C1 7546   2.307   1.752  16.111 -0.3298  0.3535  0.0841
  508MPD2    C2 7547   2.299   1.863  16.027 -0.3351 -0.8790  0.3004
  508MPD2    C3 7548   2.272   1.850  15.893 -0.1509 -0.8107 -0.2240
  508MPD2    C4 7549   2.255   1.719  15.843  0.0087  0.2900  0.0977
  508MPD2    C5 7550   2.282   1.612  15.918 -0.0094  0.4159  0.3322
  508MPD2     H 7551   2.299   1.962  16.070  3.7640 -0.8277  0.1805
  508MPD2    H1 7552   2.229   1.689  15.742 -0.2483 -0.0140  0.2554
  508MPD2    H2 7553   2.318   1.537  16.113 -0.6686 -0.9376 -0.8956
  508MPD2    H3 7554   2.269   1.518  15.867  1.7541 -1.5721  3.5704
  508MPD2     N 7555   2.266   1.964  15.809  0.2427  0.5051 -0.6716
  508MPD2    H5 7556   2.302   2.054  15.838 -2.3214  1.2973  0.0880
  508MPD2    N1 7557   2.319   1.756  16.252  0.3813  0.4546 -0.3499
  508MPD2    H7 7558   2.332   1.669  16.303  3.0293  2.0812  1.7447
  509TMC3    C1 7559   2.108   2.284  15.565 -0.2276  0.3744 -0.1935
  509TMC3    C2 7560   2.220   2.364  15.559 -0.4939 -0.4237 -0.4058
  509TMC3    C3 7561   2.335   2.306  15.598  0.1190 -0.0616  0.1168
  509TMC3    C4 7562   2.110   2.152  15.599 -0.2688  0.6585 -0.2191
  509TMC3    C5 7563   2.229   2.097  15.623  0.2315 -0.8481 -0.9864
  509TMC3    C6 7564   2.348   2.171  15.620  0.6123  0.3183  0.6107
  509TMC3     C 7565   1.987   2.351  15.525 -0.1668 -0.2325  0.3101
  509TMC3     O 7566   1.880   2.317  15.568 -0.4682  0.1196  0.6823
  509TMC3     H 7567   2.227   2.470  15.537 -2.5714 -0.2065  0.0140
  509TMC3    H1 7568   2.024   2.090  15.620  0.0382  0.5386  0.6730
  509TMC3    H2 7569   2.442   2.138  15.662  0.5584 -2.0112 -1.1419
  509TMC3    C7 7570   2.214   1.965  15.681  0.4888 -0.3069  0.3450
  509TMC3    C8 7571   2.461   2.374  15.549  0.2782 -0.1963 -0.2117
  509TMC3    O1 7572   2.152   1.878  15.618 -1.2942 -0.3795  0.2718
  509TMC3    O2 7573   2.538   2.318  15.474  0.2316 -0.6488  0.9603
  510MPD2     C 7574   4.607   3.405  14.162  0.3939 -1.2336  0.2992
  510MPD2    C1 7575   4.671   3.416  14.284  0.2660  0.5109  0.0745
  510MPD2    C2 7576   0.079   3.459  14.288  0.1299  0.0253 -0.1951
  510MPD2    C3 7577   0.144   3.479  14.171 -0.5349 -0.6571  0.2616
  510MPD2    C4 7578   0.077   3.485  14.050 -0.2351 -0.1677  0.0542
  510MPD2    C5 7579   4.663   3.453  14.045 -0.4543 -0.5069  0.1457
  510MPD2     H 7580   0.145   3.459  14.374 -0.1518 -0.6011  0.0256
  510MPD2    H1 7581   0.123   3.518  13.957 -0.2482 -0.1668  0.0481
  510MPD2    H2 7582   4.502   3.382  14.168  0.0153  0.7191  1.2767
  510MPD2    H3 7583   4.605   3.441  13.954  0.7627 -0.2239 -0.6627
  510MPD2     N 7584   0.279   3.510  14.181 -0.4813  0.0793  0.2606
  510MPD2    H5 7585   0.313   3.511  14.277 -0.8939  1.6581  0.3818
  510MPD2    N1 7586   4.599   3.392  14.401  0.3546  0.7897 -0.2624
  510MPD2    H7 7587   4.506   3.358  14.379  0.3816  0.4113  0.2193
  511TMC3    C1 7588   4.542   3.355  14.632  0.5700 -0.1254 -0.2730
  511TMC3    C2 7589   4.556   3.381  14.770 -0.6815 -0.3657  0.0829
  511TMC3    C3 7590   4.488   3.307  14.860  0.4598 -0.3810 -0.9966
  511TMC3    C4 7591   4.473   3.240  14.592  0.7719 -0.5992 -1.0395
  511TMC3    C5 7592   4.406   3.168  14.685 -0.1728 -0.5647  0.0169
  511TMC3    C6 7593   4.416   3.193  14.826  0.5619  0.4334  0.3002
  511TMC3     C 7594   4.627   3.420  14.527  0.2481  0.1769 -1.0302
  511TMC3     O 7595   0.010   3.469  14.563 -0.0907  0.4337  0.0588
  511TMC3     H 7596   4.612   3.463  14.813 -1.9861  0.0136  1.0708
  511TMC3    H1 7597   4.443   3.217  14.490 -0.8732 -0.4836 -0.5773
  511TMC3    H2 7598   4.355   3.143  14.901 -2.9796 -0.5873 -3.2976
  511TMC3    C7 7599   4.323   3.065  14.639 -0.2980 -0.1245  0.3424
  511TMC3    C8 7600   4.473   3.358  14.996 -0.3745 -0.4583  0.2882
  511TMC3    O1 7601   4.287   3.076  14.522  0.4606 -0.4143  0.2314
  511TMC3    O2 7602   4.459   3.481  15.012  0.0199  0.1713 -0.2108
  512TMC3    C1 7603   3.926   2.694  13.054 -0.6213 -0.6289 -0.4453
  512TMC3    C2 7604   3.965   2.707  13.182  0.9238 -0.1635  0.1522
  512TMC3    C3 7605   4.001   2.593  13.248  0.5426  0.0808 -0.0917
  512TMC3    C4 7606   3.915   2.570  12.993  0.0121 -0.6684  1.1121
  512TMC3    C5 7607   3.941   2.460  13.065 -0.5394  0.3037  0.3862
  512TMC3    C6 7608   3.982   2.466  13.197  0.0113 -0.5193  0.1762
  512TMC3     C 7609   3.838   2.792  12.996  0.6144  0.2633  0.3125
  512TMC3     O 7610   3.812   2.788  12.875 -0.6746  0.1677  0.3923
  512TMC3     H 7611   3.977   2.801  13.234  0.8681  0.4754 -0.9824
  512TMC3    H1 7612   3.892   2.566  12.887  1.7132  0.3743  0.6964
  512TMC3    H2 7613   4.006   2.379  13.257  1.0381 -0.2551  0.1533
  512TMC3    C7 7614   3.872   2.335  13.023  0.3965 -0.0584  0.1672
  512TMC3    C8 7615   4.000   2.595  13.392 -0.2309  0.2501 -0.1299
  512TMC3    O1 7616   3.798   2.341  12.924  0.5769 -0.0533  0.6142
  512TMC3    O2 7617   3.978   2.490  13.450  0.0129  0.2437 -0.1877
  513MPD2     C 7618   0.430   3.023  13.044  1.0684  0.4330 -0.9611
  513MPD2    C1 7619   0.536   2.950  13.004  0.0028 -0.1214 -0.0502
  513MPD2    C2 7620   0.613   2.891  13.103 -0.0319  0.0235  0.2222
  513MPD2    C3 7621   0.578   2.901  13.239  0.4245  0.4905  0.3113
  513MPD2    C4 7622   0.464   2.967  13.276  0.2651  0.5529  0.3934
  513MPD2    C5 7623   0.397   3.034  13.172  0.5278  0.2363 -0.2420
  513MPD2     H 7624   0.709   2.843  13.084  0.0800  0.7221 -0.9636
  513MPD2    H1 7625   0.430   2.979  13.378 -3.5128 -0.0933 -0.8013
  513MPD2    H2 7626   0.372   3.085  12.975  1.2696  1.2847 -0.3665
  513MPD2    H3 7627   0.313   3.097  13.197  0.4168 -0.0331  0.0559
  513MPD2     N 7628   0.663   2.833  13.328  0.4511 -0.1091  0.3412
  513MPD2    H5 7629   0.736   2.782  13.280 -0.8624  0.7159 -2.5771
  513MPD2    N1 7630   0.564   2.942  12.863  0.3717 -0.5915  0.5967
  513MPD2    H7 7631   0.511   3.001  12.799  0.9775 -1.3514 -0.5910
  514TMC3    C1 7632   0.642   2.825  12.669  0.0536  0.5120  0.2864
  514TMC3    C2 7633   0.660   2.937  12.592 -0.5479  0.1555 -0.1102
  514TMC3    C3 7634   0.748   2.916  12.484  0.5245 -0.1878 -0.2537
  514TMC3    C4 7635   0.701   2.702  12.643 -0.4508  0.4471  0.9697
  514TMC3    C5 7636   0.787   2.689  12.534 -0.2702 -0.3536 -0.4307
  514TMC3    C6 7637   0.807   2.799  12.454  0.2627 -0.0779 -0.0715
  514TMC3     C 7638   0.644   2.842  12.816 -0.4140  0.4376  0.4554
  514TMC3     O 7639   0.698   2.748  12.875 -0.2825  0.4837 -0.0505
  514TMC3     H 7640   0.626   3.038  12.612 -0.6644 -0.0466  0.7099
  514TMC3    H1 7641   0.667   2.611  12.692 -0.5655 -1.1361 -2.0222
  514TMC3    H2 7642   0.886   2.789  12.380 -0.8243 -0.3804 -1.1780
  514TMC3    C7 7643   0.917   2.639  12.579  0.2033  0.1516 -0.2225
  514TMC3    C8 7644   0.744   3.018  12.374 -0.3470  0.4645 -0.0080
  514TMC3    O1 7645   1.004   2.611  12.501  0.5194  0.7393  0.0544
  514TMC3    O2 7646   0.659   3.101  12.382 -0.2769 -0.2491  0.0148
  515MPD2     C 7647   3.818   0.155  14.480 -0.4421  0.3817  0.0515
  515MPD2    C1 7648   3.770   0.054  14.567 -0.1059  0.0611 -0.4657
  515MPD2    C2 7649   3.848   0.016  14.672 -0.3657 -0.0348  0.3491
  515MPD2    C3 7650   3.965   0.090  14.703 -0.8437  0.9212  0.6312
  515MPD2    C4 7651   4.006   0.190  14.615 -0.4956  0.4408 -0.0481
  515MPD2    C5 7652   3.937   0.223  14.504  0.2335 -0.9177  0.0027
  515MPD2     H 7653   3.812   4.671  14.748 -1.3899 -2.2239 -2.0745
  515MPD2    H1 7654   4.093   0.252  14.631 -0.1683 -0.2932  0.9886
  515MPD2    H2 7655   3.768   0.192  14.391 -0.1692 -0.3055 -0.3800
  515MPD2    H3 7656   3.977   0.298  14.437  1.7776 -0.2302  1.6862
  515MPD2     N 7657   4.056   0.066  14.811 -0.7683  0.0286 -0.4070
  515MPD2    H5 7658   4.142   0.120  14.809 -1.8289  1.8135  2.4114
  515MPD2    N1 7659   3.655   4.702  14.539 -0.6022  0.2269 -0.2927
  515MPD2    H7 7660   3.630   4.633  14.609  3.5941  1.5946  2.5122
  516TMC3    C1 7661   3.479   4.612  14.402 -0.3965  0.6301 -0.0014
  516TMC3    C2 7662   3.373   4.653  14.317  0.1774 -0.0085  0.5756
  516TMC3    C3 7663   3.280   4.559  14.279  0.1532  0.1736  0.3196
  516TMC3    C4 7664   3.503   4.478  14.432 -0.4384 -0.4302  1.4958
  516TMC3    C5 7665   3.408   4.390  14.396 -0.2283 -0.0130  0.2642
  516TMC3    C6 7666   3.298   4.423  14.318 -0.1537 -0.2245 -0.1749
  516TMC3     C 7667   3.571   4.722  14.427  0.2118  0.0095  0.4844
  516TMC3     O 7668   3.585   0.071  14.331  0.2718 -0.8045 -0.4675
  516TMC3     H 7669   3.351   0.036  14.306  0.1917 -0.1761 -1.0736
  516TMC3    H1 7670   3.590   4.448  14.490  1.8424  1.8779 -0.7326
  516TMC3    H2 7671   3.216   4.361  14.285 -1.9364  2.1345 -0.1922
  516TMC3    C7 7672   3.384   4.290  14.495  0.3321  0.7871 -0.0895
  516TMC3    C8 7673   3.183   4.586  14.168  0.4178 -0.4970 -0.1277
  516TMC3    O1 7674   3.429   4.297  14.610  1.3242 -0.4463 -0.0515
  516TMC3    O2 7675   3.111   4.491  14.139 -0.1104 -0.6966  0.2196
  517MPD2     C 7676   2.975   1.680  17.232  0.3413 -0.3587  0.1399
  517MPD2    C1 7677   3.078   1.668  17.325 -0.1047  0.0858 -0.6091
  517MPD2    C2 7678   3.124   1.781  17.388  0.2414  0.6778  0.0663
  517MPD2    C3 7679   3.064   1.905  17.376 -0.8272 -0.9090 -0.8708
  517MPD2    C4 7680   2.971   1.914  17.276 -0.2634  0.9638  0.4896
  517MPD2    C5 7681   2.933   1.802  17.205  0.2814  0.1969 -0.3028
  517MPD2     H 7682   3.217   1.779  17.443  0.1636 -0.3418  0.1539
  517MPD2    H1 7683   2.934   2.011  17.245 -0.8613  0.8146  0.7227
  517MPD2    H2 7684   2.941   1.599  17.169  0.3938 -0.0465 -0.2863
  517MPD2    H3 7685   2.863   1.811  17.122  0.2982  0.5355 -0.2813
  517MPD2     N 7686   3.102   2.021  17.456  0.0241  0.4278  0.5055
  517MPD2    H5 7687   3.069   2.113  17.428  2.0998  1.5341  1.7851
  517MPD2    N1 7688   3.142   1.548  17.347 -0.3612  0.0651  0.6784
  517MPD2    H7 7689   3.226   1.543  17.404  0.1386  1.6974  0.0800
  518TMC3    C1 7690   3.232   1.339  17.310  0.3756 -0.0591 -0.1960
  518TMC3    C2 7691   3.207   1.204  17.297 -0.8203 -0.4752  0.2673
  518TMC3    C3 7692   3.310   1.116  17.289 -0.3037  0.3902 -0.8329
  518TMC3    C4 7693   3.361   1.392  17.289 -0.7968 -0.0841 -0.2041
  518TMC3    C5 7694   3.463   1.303  17.279  0.6798 -0.1567  0.7264
  518TMC3    C6 7695   3.437   1.168  17.269  0.4941  0.7637  1.2538
  518TMC3     C 7696   3.122   1.428  17.292 -0.4873  0.3626  0.2439
  518TMC3     O 7697   3.021   1.387  17.229 -0.6147  0.0033 -0.6072
  518TMC3     H 7698   3.111   1.161  17.323 -0.6841 -0.3409  1.0046
  518TMC3    H1 7699   3.379   1.497  17.272  1.9018 -0.7402 -1.3752
  518TMC3    H2 7700   3.512   1.096  17.239  0.0170 -0.2478  2.4961
  518TMC3    C7 7701   3.599   1.351  17.301 -0.5698 -0.2130 -0.5261
  518TMC3    C8 7702   3.308   0.976  17.328 -0.5152  0.3877 -0.2688
  518TMC3    O1 7703   3.612   1.471  17.324 -0.0138 -0.3971 -0.0622
  518TMC3    O2 7704   3.381   0.902  17.263  0.2607  0.0718 -0.1142
  519MPD2     C 7705   0.068   4.460  14.353  0.3635 -0.6912 -0.2580
  519MPD2    C1 7706   0.070   4.480  14.218 -0.0072 -0.1491 -0.5286
  519MPD2    C2 7707   0.145   4.392  14.141  0.5273  0.8251 -0.1147
  519MPD2    C3 7708   0.225   4.289  14.187 -0.2118  0.0139 -0.6204
  519MPD2    C4 7709   0.218   4.266  14.323 -0.2739 -0.4692  0.2073
  519MPD2    C5 7710   0.142   4.356  14.398 -0.3952 -0.3382 -0.2106
  519MPD2     H 7711   0.151   4.406  14.034  0.4284 -0.5893 -0.3023
  519MPD2    H1 7712   0.276   4.190  14.375  2.6547  1.1419 -0.7653
  519MPD2    H2 7713   0.027   4.518  14.435  4.1118 -0.6535  1.5875
  519MPD2    H3 7714   0.148   4.343  14.506  2.6565  1.3113 -0.1863
  519MPD2     N 7715   0.286   4.209  14.093 -0.2208 -0.4946 -0.4951
  519MPD2    H5 7716   0.255   4.210  13.997  0.1514  0.9691 -0.5987
  519MPD2    N1 7717   4.723   4.585  14.168  0.4622  0.6183  0.0388
  519MPD2    H7 7718   4.675   4.649  14.231 -2.3952 -3.0741  1.6214
  520TMC3    C1 7719   0.447   4.051  14.015 -0.2327  0.0066  0.2635
  520TMC3    C2 7720   0.375   4.031  13.895  0.2612 -0.4595  0.1562
  520TMC3    C3 7721   0.450   3.965  13.795  0.6659 -0.7867  0.1523
  520TMC3    C4 7722   0.569   4.005  14.039 -0.3047 -0.4723  0.1568
  520TMC3    C5 7723   0.642   3.957  13.936  0.6493  1.2231  0.5329
  520TMC3    C6 7724   0.585   3.938  13.805 -0.2203  0.5383 -0.1914
  520TMC3     C 7725   0.386   4.126  14.118  0.5069 -0.1009 -0.4451
  520TMC3     O 7726   0.425   4.100  14.230 -0.3989  0.4021 -0.7343
  520TMC3     H 7727   0.275   4.072  13.892  0.8038  0.8669  0.0573
  520TMC3    H1 7728   0.620   4.021  14.133  0.0420 -0.4832 -0.0289
  520TMC3    H2 7729   0.646   3.893  13.727 -0.7609 -1.1025  0.3397
  520TMC3    C7 7730   0.775   3.928  13.970  0.0137 -0.0898  0.6421
  520TMC3    C8 7731   0.385   3.937  13.666  0.7954  1.4359  0.4967
  520TMC3    O1 7732   0.811   3.875  14.074 -0.0061  0.3671 -0.7878
  520TMC3    O2 7733   0.468   3.892  13.591 -0.2557 -0.3311  0.1934
  521MPD2     C 7734   0.731   2.309  17.465  0.0579 -0.8707 -0.8028
  521MPD2    C1 7735   0.753   2.352  17.339 -0.1305  0.7299 -0.1685
  521MPD2    C2 7736   0.874   2.341  17.274  0.1516 -0.1394  0.7545
  521MPD2    C3 7737   0.974   2.270  17.336  0.4660 -0.3581 -0.0662
  521MPD2    C4 7738   0.960   2.221  17.461 -0.4217  1.1049  0.6845
  521MPD2    C5 7739   0.838   2.247  17.522  0.3233 -0.1705 -0.4507
  521MPD2     H 7740   0.889   2.370  17.171  0.6587  1.1332  1.1882
  521MPD2    H1 7741   1.035   2.160  17.510 -0.7720  0.4143  0.3557
  521MPD2    H2 7742   0.638   2.316  17.520  1.5964 -1.0202  1.8258
  521MPD2    H3 7743   0.833   2.207  17.623 -1.4846  0.0889 -0.4399
  521MPD2     N 7744   1.086   2.250  17.260  0.0402  0.2764  0.3008
  521MPD2    H5 7745   1.083   2.290  17.166  1.1347 -1.1862 -0.3693
  521MPD2    N1 7746   0.634   2.402  17.275 -0.1182 -0.0908  0.2077
  521MPD2    H7 7747   0.554   2.393  17.338 -0.4968 -3.0290 -0.7119
  522TMC3    C1 7748   1.307   2.192  17.184 -0.2234 -0.6174  0.0743
  522TMC3    C2 7749   1.423   2.140  17.213 -0.5581 -0.3605  0.0112
  522TMC3    C3 7750   1.514   2.124  17.114  0.1242  0.0111  0.9160
  522TMC3    C4 7751   1.280   2.256  17.065 -0.3480 -0.1635 -0.4463
  522TMC3    C5 7752   1.378   2.254  16.971  0.5851  0.5432  0.3943
  522TMC3    C6 7753   1.496   2.175  16.989 -0.2460 -1.2443 -0.3266
  522TMC3     C 7754   1.202   2.180  17.285 -0.0803 -0.3828 -0.0305
  522TMC3     O 7755   1.242   2.147  17.398 -0.3682 -0.2697  0.0387
  522TMC3     H 7756   1.441   2.101  17.313 -3.8888 -1.1660  0.2850
  522TMC3    H1 7757   1.179   2.292  17.045  0.4108  1.8727 -0.6599
  522TMC3    H2 7758   1.578   2.156  16.919  0.4184 -2.2654  0.7370
  522TMC3    C7 7759   1.358   2.315  16.837 -0.2090 -0.1478 -0.3963
  522TMC3    C8 7760   1.636   2.063  17.159 -0.0038 -0.0473  0.1073
  522TMC3    O1 7761   1.440   2.282  16.755 -0.1287 -0.0411  0.3115
  522TMC3    O2 7762   1.634   2.010  17.270 -0.0737  0.8582 -0.5539
  523MPD2     C 7763   4.415   2.060   9.541  0.1633  0.3250 -0.2227
  523MPD2    C1 7764   4.384   2.044   9.670 -0.0398  0.0276  0.3572
  523MPD2    C2 7765   4.403   2.158   9.757  0.1884 -0.6418 -0.9632
  523MPD2    C3 7766   4.436   2.278   9.702  0.0577 -0.2355 -0.1231
  523MPD2    C4 7767   4.444   2.298   9.557 -0.2683  0.1831  0.1051
  523MPD2    C5 7768   4.440   2.185   9.483 -0.6370  0.1245  0.0270
  523MPD2     H 7769   4.383   2.133   9.860  0.7732  0.1278 -0.6590
  523MPD2    H1 7770   4.475   2.390   9.509  1.5113 -1.1238 -1.3021
  523MPD2    H2 7771   4.427   1.975   9.475 -2.4821  0.3474 -0.7219
  523MPD2    H3 7772   4.460   2.189   9.377 -0.9843  0.8678 -0.0116
  523MPD2     N 7773   4.463   2.397   9.773  0.1946  0.3124 -0.4115
  523MPD2    H5 7774   4.489   2.480   9.721  2.2790 -0.0789  0.0019
  523MPD2    N1 7775   4.344   1.923   9.733 -0.1447 -0.1946 -0.1056
  523MPD2    H7 7776   4.341   1.917   9.834  0.2933  3.0060  0.1092
  524TMC3    C1 7777   4.486   2.546   9.963 -0.0981  0.7356 -0.5747
  524TMC3    C2 7778   4.520   2.555  10.099 -0.3938  0.3680 -0.1865
  524TMC3    C3 7779   4.494   2.678  10.153 -0.0205 -0.0423 -0.2769
  524TMC3    C4 7780   4.442   2.657   9.893 -0.5077 -0.0187  0.0211
  524TMC3    C5 7781   4.405   2.773   9.960  0.2260  0.0844  0.5485
  524TMC3    C6 7782   4.429   2.784  10.094 -0.7134  0.7783 -0.2231
  524TMC3     C 7783   4.456   2.408   9.913 -0.4760 -0.5064 -0.3798
  524TMC3     O 7784   4.438   2.328  10.003 -0.4794  0.5072 -0.4563
  524TMC3     H 7785   4.574   2.470  10.139 -0.3136  1.3956  1.8670
  524TMC3    H1 7786   4.423   2.656   9.786 -0.6597 -1.2328  0.0562
  524TMC3    H2 7787   4.396   2.872  10.148 -0.3230  1.1748 -0.6338
  524TMC3    C7 7788   4.300   2.845   9.900  0.1792 -0.0056  0.7451
  524TMC3    C8 7789   4.509   2.698  10.297 -0.4144 -0.2043  0.2368
  524TMC3    O1 7790   4.308   2.968   9.895 -0.1634 -0.1453 -0.2014
  524TMC3    O2 7791   4.424   2.769  10.353  0.7544 -0.0233  0.1902
  525MPD2     C 7792   1.506   3.992  14.337  0.0340 -0.1992 -0.1503
  525MPD2    C1 7793   1.622   4.054  14.383 -0.0400  0.7004  0.4959
  525MPD2    C2 7794   1.631   4.190  14.357  0.1594 -0.9122 -0.3812
  525MPD2    C3 7795   1.528   4.260  14.294 -0.7102  0.0297 -1.2739
  525MPD2    C4 7796   1.412   4.194  14.261 -0.0069 -0.0777 -0.3528
  525MPD2    C5 7797   1.401   4.058  14.283  0.2176 -0.3116  0.5009
  525MPD2     H 7798   1.723   4.241  14.382 -0.1462  0.0724 -1.2648
  525MPD2    H1 7799   1.318   4.238  14.227  0.8613  0.3953 -2.1551
  525MPD2    H2 7800   1.489   3.885  14.350  1.2392 -0.5451 -1.3722
  525MPD2    H3 7801   1.313   4.003  14.251 -0.3289  0.4220  0.7441
  525MPD2     N 7802   1.545   4.393  14.274 -1.2765  0.6822 -0.2098
  525MPD2    H5 7803   1.625   4.442  14.313  0.1239 -1.3449 -0.5614
  525MPD2    N1 7804   1.723   3.988  14.459 -0.4298 -0.3512 -0.9979
  525MPD2    H7 7805   1.807   4.040  14.481 -2.0578  1.5657  0.8059
  526TMC3    C1 7806   1.810   3.827  14.596  0.1585 -0.0896 -0.1230
  526TMC3    C2 7807   1.774   3.754  14.706  0.7806 -0.3771 -0.1569
  526TMC3    C3 7808   1.878   3.732  14.789  0.6988 -0.2200  0.0257
  526TMC3    C4 7809   1.932   3.886  14.569  0.7827  0.0635 -0.3187
  526TMC3    C5 7810   2.032   3.859  14.663 -0.5351  0.0334  0.1673
  526TMC3    C6 7811   2.007   3.779  14.772 -0.2266  0.0040 -0.0563
  526TMC3     C 7812   1.701   3.867  14.520  0.1980 -0.0714  0.2132
  526TMC3     O 7813   1.596   3.804  14.528 -0.1913 -0.2781  0.2698
  526TMC3     H 7814   1.678   3.705  14.712 -0.0946  1.4530  0.5687
  526TMC3    H1 7815   1.956   3.929  14.473  1.9689 -0.0760 -0.0894
  526TMC3    H2 7816   2.081   3.747  14.845  0.5442  0.2463 -0.7363
  526TMC3    C7 7817   2.174   3.879  14.605 -0.1573  0.2066 -0.1274
  526TMC3    C8 7818   1.844   3.687  14.921 -0.1699  0.3443 -0.0867
  526TMC3    O1 7819   2.258   3.800  14.641 -0.0045 -0.3976 -0.6676
  526TMC3    O2 7820   1.905   3.735  15.015 -0.0408  0.3067 -0.3798
  527MPD2     C 7821   0.220   1.411   1.593 -0.3758 -0.4673  0.7426
  527MPD2    C1 7822   0.350   1.393   1.552  0.1459 -1.0427 -0.5706
  527MPD2    C2 7823   0.381   1.427   1.425  0.0542  0.3926 -0.2107
  527MPD2    C3 7824   0.296   1.503   1.350 -0.3292  0.5359  0.6607
  527MPD2    C4 7825   0.175   1.534   1.400 -0.0661  0.6665  0.3755
  527MPD2    C5 7826   0.133   1.483   1.523  0.7072  0.2326 -0.3899
  527MPD2     H 7827   0.480   1.412   1.384 -1.2537  1.1526 -3.6318
  527MPD2    H1 7828   0.101   1.587   1.341 -0.8773  0.7179  1.4372
  527MPD2    H2 7829   0.185   1.374   1.689 -1.2353 -0.1625  0.5476
  527MPD2    H3 7830   0.035   1.506   1.563 -0.1379 -1.8257 -1.2396
  527MPD2     N 7831   0.341   1.524   1.218  0.3630 -0.4252 -0.3581
  527MPD2    H5 7832   0.431   1.480   1.200 -0.1831 -0.3204 -3.3153
  527MPD2    N1 7833   0.445   1.317   1.625 -0.3340  0.2517  0.0181
  527MPD2    H7 7834   0.537   1.302   1.585 -0.5373  0.1474 -0.4146
  528TMC3    C1 7835   0.522   1.151   1.784 -0.1069  0.1536  0.1764
  528TMC3    C2 7836   0.650   1.187   1.759 -0.3137 -0.1228  0.2363
  528TMC3    C3 7837   0.750   1.141   1.844  0.3827 -0.2117  0.2903
  528TMC3    C4 7838   0.497   1.068   1.891 -0.6936 -0.2228 -0.0541
  528TMC3    C5 7839   0.596   1.030   1.973 -0.5972 -0.9701 -1.0204
  528TMC3    C6 7840   0.728   1.063   1.956 -0.3699  0.0761  0.2937
  528TMC3     C 7841   0.417   1.245   1.737 -0.1971 -0.3694  0.4461
  528TMC3     O 7842   0.311   1.221   1.789  0.8649 -0.4943  0.2402
  528TMC3     H 7843   0.666   1.260   1.681 -1.8423 -1.6336 -1.5077
  528TMC3    H1 7844   0.394   1.053   1.921 -0.3478 -2.5103 -0.0494
  528TMC3    H2 7845   0.811   1.015   2.006 -0.7907  0.4571  1.3439
  528TMC3    C7 7846   0.547   0.932   2.069  0.2325 -0.4552 -0.1712
  528TMC3    C8 7847   0.871   1.118   1.777  0.4241 -0.6535  0.1045
  528TMC3    O1 7848   0.427   0.934   2.091 -0.0944  0.4414  0.1568
  528TMC3    O2 7849   0.936   1.020   1.818 -0.3764 -0.1656 -0.0009
  529MPD2     C 7850   1.839   0.613   1.068  0.6653  0.1200  0.5238
  529MPD2    C1 7851   1.957   0.555   1.030 -0.3109 -1.0764  0.3088
  529MPD2    C2 7852   2.022   0.605   0.915 -0.4638 -0.1895 -0.1003
  529MPD2    C3 7853   1.963   0.710   0.839 -0.1178  0.2902 -0.1713
  529MPD2    C4 7854   1.836   0.753   0.877 -0.8617 -0.5775  0.4014
  529MPD2    C5 7855   1.777   0.710   0.994  0.2986  0.0931  0.7104
  529MPD2     H 7856   2.125   0.577   0.894 -0.9126 -1.7351 -0.2338
  529MPD2    H1 7857   1.781   0.821   0.813  1.7931  0.4400 -0.7843
  529MPD2    H2 7858   1.780   0.582   1.153 -0.0036  0.1418  0.0674
  529MPD2    H3 7859   1.687   0.759   1.029 -1.3993 -1.8790 -0.8682
  529MPD2     N 7860   2.024   0.791   0.739 -0.1152  0.5999 -0.4502
  529MPD2    H5 7861   1.970   0.868   0.702  1.6186  2.3906  0.7746
  529MPD2    N1 7862   2.015   0.452   1.109 -0.9304  0.0437  0.4142
  529MPD2    H7 7863   1.975   0.459   1.202 -3.2669  1.6154 -0.6890
  530TMC3    C1 7864   2.128   0.244   1.158  0.1193  0.2925  0.1475
  530TMC3    C2 7865   2.167   0.290   1.275  0.1455 -0.9738 -0.7822
  530TMC3    C3 7866   2.227   0.200   1.355 -0.3505 -0.6406  0.2312
  530TMC3    C4 7867   2.155   0.123   1.107  0.0416  0.7036 -0.1637
  530TMC3    C5 7868   2.218   0.040   1.189 -0.1918  0.3623 -0.3226
  530TMC3    C6 7869   2.268   0.074   1.307  0.4610  0.7017 -0.5759
  530TMC3     C 7870   2.096   0.355   1.067  0.3683 -0.4211  0.2835
  530TMC3     O 7871   2.129   0.334   0.951  1.0210  0.0792 -0.3487
  530TMC3     H 7872   2.136   0.385   1.317  1.4799 -1.1260  0.5888
  530TMC3    H1 7873   2.105   0.095   1.015  1.5078 -0.3461 -0.6302
  530TMC3    H2 7874   2.325   0.005   1.369 -1.2645  0.6047  0.8887
  530TMC3    C7 7875   2.211   4.618   1.174 -0.1439 -0.4753 -0.6247
  530TMC3    C8 7876   2.276   0.249   1.482  0.4554  0.7228  1.0666
  530TMC3    O1 7877   2.221   4.566   1.063 -0.3473 -0.5026  0.1805
  530TMC3    O2 7878   2.226   0.348   1.535 -0.2977  0.1850  0.1318
  531MPD2     C 7879   1.195   2.499  12.970  1.0466 -0.6887  0.0541
  531MPD2    C1 7880   1.088   2.572  13.021  0.4743 -0.0883  0.0605
  531MPD2    C2 7881   1.008   2.627  12.929 -0.4544 -0.2465 -1.1104
  531MPD2    C3 7882   1.010   2.601  12.796  0.2329 -0.0614  0.7912
  531MPD2    C4 7883   1.122   2.533  12.746 -0.4375  0.7987  0.0012
  531MPD2    C5 7884   1.212   2.484  12.836  0.3490 -0.1156  0.1389
  531MPD2     H 7885   0.932   2.699  12.958 -0.1245 -0.1009 -0.5983
  531MPD2    H1 7886   1.148   2.510  12.643 -0.9166 -0.9261  0.2633
  531MPD2    H2 7887   1.280   2.467  13.030  0.7012 -1.8308 -0.0575
  531MPD2    H3 7888   1.302   2.446  12.790  0.1445 -0.9076  0.4059
  531MPD2     N 7889   0.908   2.648  12.712  0.0946  0.2049  0.6200
  531MPD2    H5 7890   0.831   2.694  12.761 -0.0996 -0.0409  0.5446
  531MPD2    N1 7891   1.075   2.603  13.159 -0.5575 -0.4421  0.5570
  531MPD2    H7 7892   1.157   2.590  13.218 -0.2417  1.4954  0.5574
  532TMC3    C1 7893   0.966   2.677  13.361  0.4730  0.0376  0.7315
  532TMC3    C2 7894   0.837   2.677  13.414  0.3475  0.7504 -0.7917
  532TMC3    C3 7895   0.799   2.777  13.498 -0.5613 -0.2276  0.4364
  532TMC3    C4 7896   1.040   2.782  13.392 -0.2689  0.1452 -0.6795
  532TMC3    C5 7897   1.010   2.868  13.493 -0.6722  0.4145 -0.0546
  532TMC3    C6 7898   0.890   2.864  13.547  0.9416 -0.9730  0.3655
  532TMC3     C 7899   0.958   2.655  13.216 -0.3588  0.2771  0.1212
  532TMC3     O 7900   0.849   2.673  13.167 -0.1086  0.3653  0.7428
  532TMC3     H 7901   0.773   2.594  13.386  2.4440 -1.2958  0.5215
  532TMC3    H1 7902   1.131   2.796  13.334  0.1102  1.5065  0.2239
  532TMC3    H2 7903   0.854   2.945  13.609  1.8151  0.2327 -0.7125
  532TMC3    C7 7904   1.114   2.921  13.580 -0.6188 -0.1066 -0.2060
  532TMC3    C8 7905   0.674   2.842  13.464  0.9706 -0.0765 -0.2243
  532TMC3    O1 7906   1.090   3.012  13.657 -0.7072 -0.1672  0.1797
  532TMC3    O2 7907   0.621   2.916  13.543  0.1963  0.4118 -1.0122
  533TMC3    C1 7908   1.492   4.613  14.230  0.0374 -0.5355 -0.2048
  533TMC3    C2 7909   1.609   4.678  14.202 -0.2433 -0.5754  0.2027
  533TMC3    C3 7910   1.654   0.048  14.295  0.2680  0.5682 -0.2192
  533TMC3    C4 7911   1.438   4.630  14.355  0.0288 -0.7187  0.9709
  533TMC3    C5 7912   1.474   0.001  14.446  0.3302  0.4756  0.2558
  533TMC3    C6 7913   1.592   0.068  14.419  0.7842  0.0986  0.6819
  533TMC3     C 7914   1.479   4.476  14.182 -0.1251  0.4813  0.1843
  533TMC3     O 7915   1.374   4.451  14.127 -0.2717  0.0245 -0.0230
  533TMC3     H 7916   1.664   4.654  14.112 -0.3709 -1.0241  0.2446
  533TMC3    H1 7917   1.357   4.563  14.381  0.1503 -1.0232  0.5734
  533TMC3    H2 7918   1.634   0.125  14.501  0.3914  0.2278  0.7894
  533TMC3    C7 7919   1.473   4.666  14.575 -0.4992 -0.3117  0.4985
  533TMC3    C8 7920   1.762   0.135  14.260 -0.0699  0.6767  0.4482
  533TMC3    O1 7921   1.491   4.547  14.579 -0.1914  0.6439 -0.1948
  533TMC3    O2 7922   1.771   0.160  14.140 -0.1145  0.2887 -0.2070
  534MPD2     C 7923   0.060   0.243   2.214  0.1718  0.0974  1.4007
  534MPD2    C1 7924   0.083   0.311   2.096 -0.4532 -0.1166  0.1438
  534MPD2    C2 7925   4.709   0.335   2.004  0.2344  0.4062 -0.2041
  534MPD2    C3 7926   4.575   0.309   2.047  0.4674 -0.1113  0.8480
  534MPD2    C4 7927   4.547   0.254   2.173  0.2281 -0.1059 -0.5970
  534MPD2    C5 7928   4.654   0.219   2.254  0.1098 -0.6134 -0.2148
  534MPD2     H 7929   0.001   0.391   1.912  1.8144  1.1549  0.5190
  534MPD2    H1 7930   4.443   0.229   2.195 -0.4531  0.8703 -2.7353
  534MPD2    H2 7931   0.137   0.220   2.288  0.0604 -2.4451  0.7314
  534MPD2    H3 7932   4.622   0.184   2.351 -0.3444 -0.8312 -0.4439
  534MPD2     N 7933   4.462   0.341   1.964 -0.1418  0.2827 -0.2355
  534MPD2    H5 7934   4.370   0.334   2.005 -0.8187 -0.8283 -1.9822
  534MPD2    N1 7935   0.220   0.352   2.055  0.1100 -0.1317  0.1068
  534MPD2    H7 7936   0.225   0.400   1.966 -0.2097 -2.2871 -1.0630
  535TMC3    C1 7937   4.344   0.404   1.766  0.4333  0.0237  0.1980
  535TMC3    C2 7938   4.225   0.430   1.841 -0.1060  0.0390  0.2821
  535TMC3    C3 7939   4.128   0.505   1.789 -0.2220 -0.1470  0.5702
  535TMC3    C4 7940   4.357   0.459   1.640 -0.0421 -0.5695  0.6279
  535TMC3    C5 7941   4.262   0.554   1.603  0.6290  0.7903  0.2934
  535TMC3    C6 7942   4.143   0.574   1.675 -0.2143  0.6068 -0.7883
  535TMC3     C 7943   4.471   0.371   1.828 -0.2998  0.2872  0.2226
  535TMC3     O 7944   4.570   0.366   1.757 -0.2260  0.2130 -1.1538
  535TMC3     H 7945   4.204   0.368   1.928 -1.5988  0.2003  0.0332
  535TMC3    H1 7946   4.448   0.459   1.582 -1.7647 -1.3557 -2.0787
  535TMC3    H2 7947   4.078   0.659   1.658  0.3494  1.0915 -0.5205
  535TMC3    C7 7948   4.275   0.613   1.470 -0.3580  0.2922 -0.0362
  535TMC3    C8 7949   3.997   0.510   1.838 -0.4713  0.3134  0.2963
  535TMC3    O1 7950   4.353   0.562   1.389  0.1708  0.1735 -0.1624
  535TMC3    O2 7951   3.911   0.562   1.765 -0.2002 -0.4341 -0.6561
  536MPD2     C 7952   3.136   4.252  16.274 -0.6597  0.4853 -0.3824
  536MPD2    C1 7953   3.030   4.171  16.306  0.4343 -0.0374 -0.1227
  536MPD2    C2 7954   2.947   4.129  16.207 -0.0365  0.3218 -0.1064
  536MPD2    C3 7955   2.973   4.169  16.075  0.3556  0.0759  0.5051
  536MPD2    C4 7956   3.074   4.263  16.047  0.8418  0.1332  0.2696
  536MPD2    C5 7957   3.155   4.302  16.153  0.5774 -0.8028 -0.1378
  536MPD2     H 7958   2.864   4.062  16.227  0.9101 -1.3400 -1.6843
  536MPD2    H1 7959   3.096   4.287  15.944  0.4054  1.6128  0.5244
  536MPD2    H2 7960   3.211   4.268  16.351  1.8358 -2.9946 -2.0968
  536MPD2    H3 7961   3.232   4.377  16.143 -0.7645  0.4249 -1.2815
  536MPD2     N 7962   2.902   4.119  15.965  0.1050 -0.0908  0.1140
  536MPD2    H5 7963   2.930   4.150  15.873 -1.0621 -2.5446 -1.0464
  536MPD2    N1 7964   3.043   4.108  16.429 -0.3481  0.2026 -0.2631
  536MPD2    H7 7965   3.109   4.152  16.493 -0.7766 -0.8837  0.9253
  537TMC3    C1 7966   3.003   3.972  16.617 -0.0833  0.7987  0.3133
  537TMC3    C2 7967   3.118   4.022  16.669  0.0480  0.5325  0.1845
  537TMC3    C3 7968   3.169   3.957  16.783 -0.2160 -0.0564 -0.3917
  537TMC3    C4 7969   2.930   3.865  16.673  0.0464 -0.0255  0.1066
  537TMC3    C5 7970   2.984   3.820  16.794 -0.0574 -0.2320 -0.1011
  537TMC3    C6 7971   3.106   3.859  16.843  0.1683 -0.2572  0.3688
  537TMC3     C 7972   2.959   4.014  16.482 -0.0582 -0.5004 -0.7763
  537TMC3     O 7973   2.864   3.964  16.433  0.2478  0.3237 -0.1775
  537TMC3     H 7974   3.163   4.110  16.626 -1.6869  0.7468 -1.1838
  537TMC3    H1 7975   2.835   3.824  16.639 -1.7142  2.7333  1.6691
  537TMC3    H2 7976   3.146   3.818  16.936  1.5089 -1.3180 -0.6795
  537TMC3    C7 7977   2.916   3.726  16.878  0.1561 -0.8550  0.0927
  537TMC3    C8 7978   3.268   4.024  16.865 -0.2964  0.9365  0.4348
  537TMC3    O1 7979   2.978   3.644  16.945  0.1559  0.1338 -0.1501
  537TMC3    O2 7980   3.327   3.954  16.943  0.1643  0.3102  0.3105
  538TMC3    C1 7981   4.530   2.232  10.920  0.0589 -0.9012  0.6950
  538TMC3    C2 7982   4.608   2.138  10.856 -0.3409  0.1344  0.2674
  538TMC3    C3 7983   4.595   2.133  10.721 -0.7595  0.1466  0.5124
  538TMC3    C4 7984   4.443   2.318  10.860  0.1044  0.1470  1.0152
  538TMC3    C5 7985   4.438   2.307  10.727 -0.1088  0.9915 -0.8391
  538TMC3    C6 7986   4.508   2.217  10.654  0.0571 -0.5902 -0.0941
  538TMC3     C 7987   4.515   2.220  11.063 -0.0108  0.6310  0.2927
  538TMC3     O 7988   4.412   2.260  11.118 -0.1533 -0.0172 -0.6407
  538TMC3     H 7989   4.659   2.065  10.917 -0.9683 -1.1126 -0.7147
  538TMC3    H1 7990   4.369   2.376  10.914  1.0735  0.2720  2.2141
  538TMC3    H2 7991   4.501   2.210  10.546  2.3990 -1.6072 -0.1704
  538TMC3    C7 7992   4.333   2.376  10.653 -1.2770 -0.3551 -0.3287
  538TMC3    C8 7993   4.669   2.038  10.645 -0.2733  0.3655  0.0931
  538TMC3    O1 7994   4.291   2.331  10.548 -0.1215 -0.5151 -0.1300
  538TMC3    O2 7995   4.679   2.067  10.524  0.2391  0.6856  0.1149
  539MPD2     C 7996   4.107   1.593  11.807  0.1876  0.1578 -0.5943
  539MPD2    C1 7997   4.173   1.592  11.684 -0.8879 -0.0620 -1.1391
  539MPD2    C2 7998   4.197   1.712  11.615 -0.6923  0.9664 -0.3666
  539MPD2    C3 7999   4.137   1.828  11.668 -0.2304  0.1251  0.5806
  539MPD2    C4 8000   4.072   1.830  11.788  0.3714  0.0822 -0.4428
  539MPD2    C5 8001   4.065   1.714  11.857  0.0310  0.1078 -0.0989
  539MPD2     H 8002   4.268   1.718  11.533  0.2891 -2.4810  0.2337
  539MPD2    H1 8003   4.020   1.918  11.824 -1.5865 -0.8542 -0.9854
  539MPD2    H2 8004   4.080   1.504  11.864 -0.7823 -0.0750 -1.4256
  539MPD2    H3 8005   4.010   1.715  11.950  0.0276 -1.1901 -0.0862
  539MPD2     N 8006   4.130   1.943  11.588  0.0180 -1.2081 -0.4417
  539MPD2    H5 8007   4.072   2.016  11.630  0.5536 -1.2480  0.3596
  539MPD2    N1 8008   4.236   1.473  11.634  0.0123  0.1518 -0.0736
  539MPD2    H7 8009   4.281   1.481  11.543 -1.0292 -0.9608 -0.6849
  540TMC3    C1 8010   4.150   2.098  11.407  0.1124 -0.0916  0.1601
  540TMC3    C2 8011   4.146   2.109  11.271 -0.2068  0.1827 -0.4937
  540TMC3    C3 8012   4.084   2.216  11.217 -0.6228  0.0826 -0.3898
  540TMC3    C4 8013   4.112   2.199  11.489 -0.2172  1.3430 -0.3891
  540TMC3    C5 8014   4.057   2.316  11.432 -0.8725 -0.1218  0.8088
  540TMC3    C6 8015   4.038   2.327  11.294 -0.1227 -0.1451  0.0965
  540TMC3     C 8016   4.184   1.963  11.462  0.3598 -0.6440  0.5870
  540TMC3     O 8017   4.223   1.880  11.381  0.2215 -0.0529 -0.8241
  540TMC3     H 8018   4.189   2.031  11.209  0.7337 -2.2922  3.2643
  540TMC3    H1 8019   4.131   2.191  11.595 -0.4104 -1.3787 -0.5629
  540TMC3    H2 8020   3.961   2.394  11.258  0.0931 -0.0702 -0.2318
  540TMC3    C7 8021   3.974   2.409  11.508 -0.7733  0.5274  0.5093
  540TMC3    C8 8022   4.064   2.228  11.074  0.0358 -0.3347  0.0557
  540TMC3    O1 8023   3.959   2.388  11.632  0.4931  0.1451  0.0570
  540TMC3    O2 8024   4.056   2.344  11.027  0.4493  0.3373 -0.1139
  541MPD2     C 8025   2.261   2.984  13.148 -1.0289  0.0836  0.1156
  541MPD2    C1 8026   2.342   2.923  13.050 -0.2481  0.4852  0.8740
  541MPD2    C2 8027   2.366   2.993  12.932  0.3204  0.4431  0.1411
  541MPD2    C3 8028   2.309   3.119  12.907  0.0102  0.1628 -0.4501
  541MPD2    C4 8029   2.233   3.182  13.007 -0.1108  0.2637 -0.8835
  541MPD2    C5 8030   2.213   3.114  13.123  0.3177  0.5369  0.0118
  541MPD2     H 8031   2.426   2.954  12.850 -1.1149 -1.0686 -0.1812
  541MPD2    H1 8032   2.207   3.286  12.988  1.3241  0.3654 -2.2949
  541MPD2    H2 8033   2.239   2.937  13.243  1.5527 -0.9207  0.2055
  541MPD2    H3 8034   2.163   3.165  13.204  1.1124  1.5319 -0.1196
  541MPD2     N 8035   2.325   3.193  12.786 -0.0237  0.2940  0.6141
  541MPD2    H5 8036   2.276   3.282  12.789  0.2528  0.4686 -0.1452
  541MPD2    N1 8037   2.385   2.791  13.077 -0.0396  0.1498  0.3770
  541MPD2    H7 8038   2.351   2.744  13.161  1.3757 -0.4190  0.6189
  542TMC3    C1 8039   2.344   3.217  12.547  0.2303 -0.3067  0.0135
  542TMC3    C2 8040   2.438   3.241  12.452  1.2199  0.0068 -0.0717
  542TMC3    C3 8041   2.408   3.325  12.345  0.2120  0.3984  0.6513
  542TMC3    C4 8042   2.219   3.269  12.535  0.0353  0.5462  0.5578
  542TMC3    C5 8043   2.183   3.341  12.420  0.9657  0.0974  0.2486
  542TMC3    C6 8044   2.279   3.370  12.327 -0.6635  0.4016 -0.1726
  542TMC3     C 8045   2.391   3.150  12.669  0.0879  0.6544  0.5429
  542TMC3     O 8046   2.460   3.052  12.653 -0.6443  0.0793 -0.4605
  542TMC3     H 8047   2.535   3.198  12.474  1.0478  0.0787  0.8138
  542TMC3    H1 8048   2.142   3.249  12.609 -0.0007 -0.9050  0.1205
  542TMC3    H2 8049   2.254   3.431  12.241 -0.8432  0.8623  0.2017
  542TMC3    C7 8050   2.089   3.454  12.435  0.2025  0.4658 -0.4274
  542TMC3    C8 8051   2.500   3.320  12.227 -0.2081 -0.1521 -0.0130
  542TMC3    O1 8052   2.122   3.560  12.383 -0.0393  0.4626  0.4649
  542TMC3    O2 8053   2.446   3.348  12.123  0.4655 -0.1824  0.2624
  543TMC3    C1 8054   1.985   4.449  17.519 -0.5110 -0.4399 -0.1517
  543TMC3    C2 8055   1.959   4.346  17.600  0.2976 -0.1318  0.4050
  543TMC3    C3 8056   1.967   4.357   0.049  0.0408 -0.6151  0.2294
  543TMC3    C4 8057   2.025   4.566  17.581 -0.2765  0.2717 -0.2067
  543TMC3    C5 8058   2.011   4.583   0.019 -0.8327 -0.0641  0.7848
  543TMC3    C6 8059   1.986   4.483   0.106  0.0893 -0.4967 -0.1533
  543TMC3     C 8060   2.045   4.409  17.395  0.4673  0.6003  1.5212
  543TMC3     O 8061   2.099   4.302  17.366  0.5635  0.2867  0.3740
  543TMC3     H 8062   1.948   4.245  17.561  0.5781 -0.4535  1.1526
  543TMC3    H1 8063   2.018   4.654  17.519 -0.1241  1.1897  1.0793
  543TMC3    H2 8064   1.974   4.501   0.212  2.5591  0.0765  0.0382
  543TMC3    C7 8065   2.018   4.716   0.074  0.9160  0.1248  0.1680
  543TMC3    C8 8066   1.936   4.234   0.124  0.0898 -0.3309  0.8305
  543TMC3    O1 8067   1.973   0.001   0.187  0.0450  0.2939 -0.6026
  543TMC3    O2 8068   1.895   4.142   0.059  0.1025 -0.0355  0.4368
  544MPD2     C 8069   1.798   3.969   0.532 -0.5845 -1.4888  0.2651
  544MPD2    C1 8070   1.753   3.959   0.403 -0.3563 -0.8736 -0.0283
  544MPD2    C2 8071   1.808   4.042   0.316  0.1893 -0.5771 -0.3870
  544MPD2    C3 8072   1.903   4.143   0.352  0.5656 -0.1922 -0.3214
  544MPD2    C4 8073   1.936   4.151   0.484 -0.0311  0.0686  0.3103
  544MPD2    C5 8074   1.896   4.057   0.572 -0.4021 -0.2964  0.8035
  544MPD2     H 8075   1.775   4.025   0.214 -0.5691 -0.6513 -0.1303
  544MPD2    H1 8076   2.022   4.212   0.510 -0.5947  1.2325 -0.5306
  544MPD2    H2 8077   1.777   3.896   0.610 -2.0859 -1.9919 -0.6151
  544MPD2    H3 8078   1.920   4.069   0.677 -3.1734  1.2313  1.2656
  544MPD2     N 8079   1.947   4.240   0.261  0.3520 -0.4478  0.7248
  544MPD2    H5 8080   1.988   4.322   0.305  0.1807 -0.1571  0.3354
  544MPD2    N1 8081   1.652   3.862   0.380  0.1448 -0.2799  0.3779
  544MPD2    H7 8082   1.640   3.801   0.460 -3.3483  1.5772  1.2514
  545TMC3    C1 8083   1.485   3.741   0.268  0.0014  0.6824 -1.2465
  545TMC3    C2 8084   1.393   3.752   0.171 -0.0289  0.8309  0.1356
  545TMC3    C3 8085   1.322   3.643   0.144  0.3095 -0.5250 -0.2559
  545TMC3    C4 8086   1.506   3.630   0.343 -0.2114  0.4065  0.2901
  545TMC3    C5 8087   1.438   3.516   0.306  0.0199  0.2948 -0.2853
  545TMC3    C6 8088   1.331   3.525   0.214 -0.5758  0.8883 -0.6484
  545TMC3     C 8089   1.577   3.849   0.264 -0.2430  0.7740  0.4178
  545TMC3     O 8090   1.571   3.921   0.165 -0.0197 -0.6043 -0.0695
  545TMC3     H 8091   1.376   3.847   0.121 -1.7642  0.6994  0.4995
  545TMC3    H1 8092   1.584   3.622   0.418 -1.4781  0.0640  1.5656
  545TMC3    H2 8093   1.285   3.432   0.185  2.0225  0.2844 -2.8919
  545TMC3    C7 8094   1.445   3.388   0.371 -0.1088  0.4839  0.4239
  545TMC3    C8 8095   1.212   3.670   0.063  0.5757  0.4106 -0.0594
  545TMC3    O1 8096   1.378   3.297   0.329  0.3670  0.1811  0.4861
  545TMC3    O2 8097   1.175   3.785   0.057 -0.9247 -0.0031 -0.7786
  546MPD2     C 8098   3.451   4.240   0.102 -0.0005  0.1979  0.3137
  546MPD2    C1 8099   3.415   4.248  17.662  0.6045  0.1820  0.7030
  546MPD2    C2 8100   3.403   4.374  17.606  0.0349 -0.9098 -0.1027
  546MPD2    C3 8101   3.428   4.489  17.681  0.0567  0.1559 -0.2131
  546MPD2    C4 8102   3.447   4.475   0.125  0.3353  0.3947  0.1009
  546MPD2    C5 8103   3.458   4.354   0.178 -0.4976  0.0310  0.4929
  546MPD2     H 8104   3.388   4.388  17.499  2.7560 -0.8205 -0.4683
  546MPD2    H1 8105   3.456   4.561   0.190 -0.6603  0.7541 -0.2373
  546MPD2    H2 8106   3.459   4.146   0.154 -0.8831 -0.8158 -1.3752
  546MPD2    H3 8107   3.470   4.344   0.286 -0.8841 -2.2459  0.3172
  546MPD2     N 8108   3.438   4.617  17.619 -0.2696  0.0945 -0.5129
  546MPD2    H5 8109   3.432   4.697  17.681  0.1866 -1.7199  1.8931
  546MPD2    N1 8110   3.385   4.127  17.597  0.7808 -0.2350  0.0120
  546MPD2    H7 8111   3.410   4.043  17.649  2.5609 -0.6751 -1.5336
  547TMC3    C1 8112   3.300   3.993  17.427  0.1341 -0.2977  0.2742
  547TMC3    C2 8113   3.251   4.003  17.298 -0.0079  0.7105 -0.5005
  547TMC3    C3 8114   3.143   3.928  17.251 -0.7705 -0.3896  0.5850
  547TMC3    C4 8115   3.239   3.912  17.514 -0.6124  0.8109 -0.8974
  547TMC3    C5 8116   3.141   3.827  17.458  0.3074 -0.5768  0.4539
  547TMC3    C6 8117   3.092   3.830  17.325 -0.3088 -0.6230  0.8214
  547TMC3     C 8118   3.317   4.126  17.480  0.0273 -0.1204 -0.6565
  547TMC3     O 8119   3.262   4.219  17.422  0.0340  0.3592 -0.0480
  547TMC3     H 8120   3.304   4.068  17.229  0.4512 -0.2532 -1.0633
  547TMC3    H1 8121   3.245   3.919  17.622 -0.9799 -1.7446 -0.7092
  547TMC3    H2 8122   3.016   3.760  17.293  1.2163 -2.1573  0.5568
  547TMC3    C7 8123   3.060   3.756  17.563 -0.4962  1.0463 -0.0743
  547TMC3    C8 8124   3.055   3.993  17.156  0.2811 -0.4807  0.4305
  547TMC3    O1 8125   3.063   3.790  17.682 -0.0727 -0.1845 -0.0924
  547TMC3    O2 8126   2.964   3.919  17.120  0.2025 -0.0514 -0.2017
  548MPD2     C 8127   3.241   0.177  12.145 -0.3832  0.2631 -0.3352
  548MPD2    C1 8128   3.275   0.099  12.257 -0.1701 -0.1201 -0.3629
  548MPD2    C2 8129   3.405   0.039  12.263  0.1171 -0.6402  0.2473
  548MPD2    C3 8130   3.484   0.031  12.145  0.3187 -0.6602 -0.0012
  548MPD2    C4 8131   3.444   0.105  12.037 -0.1332  0.2617 -0.0402
  548MPD2    C5 8132   3.325   0.175  12.036 -0.4597 -0.4926 -1.1396
  548MPD2     H 8133   3.440   4.707  12.350  0.0691  0.0863  0.7228
  548MPD2    H1 8134   3.499   0.093  11.944 -0.8561 -3.0193 -0.0384
  548MPD2    H2 8135   3.149   0.234  12.151  0.2862  1.3654 -0.3604
  548MPD2    H3 8136   3.297   0.228  11.945 -0.3859  0.3029 -0.6962
  548MPD2     N 8137   3.592   4.657  12.145  0.8028 -0.8178  0.5204
  548MPD2    H5 8138   3.621   4.621  12.235  1.9794  1.5452  1.0876
  548MPD2    N1 8139   3.176   0.098  12.361  0.0644 -0.1789 -0.1863
  548MPD2    H7 8140   3.087   0.142  12.340  0.0694  1.4139  3.1417
  549TMC3    C1 8141   3.059   0.045  12.556 -0.4222  0.2866 -0.0001
  549TMC3    C2 8142   2.996   0.167  12.557 -0.0163  0.7156 -0.1468
  549TMC3    C3 8143   2.882   0.172  12.623 -1.0383  0.3569  0.1076
  549TMC3    C4 8144   3.018   4.654  12.630  0.0487 -0.1847 -0.1422
  549TMC3    C5 8145   2.897   4.669  12.694 -0.2124  0.0635 -0.4063
  549TMC3    C6 8146   2.831   0.066  12.688 -0.4544 -0.2754 -1.0609
  549TMC3     C 8147   3.187   0.026  12.477 -0.2279 -0.3936 -1.0833
  549TMC3     O 8148   3.262   4.661  12.517  0.2574  0.5860  0.4090
  549TMC3     H 8149   3.030   0.258  12.507 -0.0249 -0.4128 -2.2284
  549TMC3    H1 8150   3.064   4.556  12.640  0.6930 -0.1310 -2.5066
  549TMC3    H2 8151   2.738   0.080  12.742 -0.2307 -3.4987  0.1663
  549TMC3    C7 8152   2.825   4.563  12.764 -0.6685 -0.9823  0.2771
  549TMC3    C8 8153   2.801   0.287  12.611  0.3375 -0.8515 -0.1601
  549TMC3    O1 8154   2.727   4.591  12.829 -0.3231  0.3714 -0.2478
  549TMC3    O2 8155   2.679   0.273  12.606 -0.1776 -0.1421  0.0187
  550TMC3    C1 8156   1.976   2.742  12.399 -0.5942 -0.4177 -1.1595
  550TMC3    C2 8157   1.995   2.836  12.492 -1.2332  0.0605  0.0729
  550TMC3    C3 8158   2.026   2.961  12.445 -0.2568 -0.1647  0.6912
  550TMC3    C4 8159   1.976   2.773  12.266  0.3041  0.2784  0.0530
  550TMC3    C5 8160   2.009   2.897  12.223  0.5333 -0.5913  0.3099
  550TMC3    C6 8161   2.048   2.987  12.312  0.1624  0.5747 -0.0807
  550TMC3     C 8162   1.900   2.626  12.445  0.7334  0.0378  0.3832
  550TMC3     O 8163   1.927   2.579  12.557  0.0150  0.3165 -0.1661
  550TMC3     H 8164   1.981   2.810  12.596  0.1060 -3.6245 -0.6566
  550TMC3    H1 8165   1.964   2.691  12.197  3.7163 -1.6420  1.6996
  550TMC3    H2 8166   2.063   3.090  12.282  0.3517  1.0600  1.6578
  550TMC3    C7 8167   1.994   2.929  12.086  0.2422 -1.0945 -0.4012
  550TMC3    C8 8168   1.967   3.052  12.529 -0.2778  0.3880 -0.3997
  550TMC3    O1 8169   2.067   3.010  12.039  0.3891  0.3313 -0.0135
  550TMC3    O2 8170   1.921   3.158  12.480  0.5124 -0.1971  0.1745
  551TMC3    C1 8171   3.907   0.550  13.374  0.3673  0.1450  0.4085
  551TMC3    C2 8172   4.021   0.619  13.335 -0.1678  0.1896 -0.3356
  551TMC3    C3 8173   4.065   0.720  13.421  0.2642 -0.9127 -0.4949
  551TMC3    C4 8174   3.845   0.577  13.495 -0.7416  0.0246 -0.5951
  551TMC3    C5 8175   3.909   0.669  13.580 -0.5450 -0.2756  0.0126
  551TMC3    C6 8176   4.010   0.753  13.542  0.0419 -0.5061  0.9528
  551TMC3     C 8177   3.832   0.492  13.276 -0.2376 -0.4020  0.5423
  551TMC3     O 8178   3.879   0.484  13.165  0.0250  0.1433  0.5231
  551TMC3     H 8179   4.085   0.581  13.256  0.6537  0.5873  0.1342
  551TMC3    H1 8180   3.764   0.517  13.535 -1.6934 -0.5334 -3.3370
  551TMC3    H2 8181   4.058   0.822  13.610 -0.7829  3.5072 -2.5177
  551TMC3    C7 8182   3.877   0.661  13.723 -0.0185 -0.0248  0.3322
  551TMC3    C8 8183   4.203   0.762  13.413 -0.1028  0.7312 -0.7444
  551TMC3    O1 8184   3.891   0.764  13.786  0.0725  0.4410 -0.7654
  551TMC3    O2 8185   4.285   0.683  13.365 -0.0712 -0.5415  0.4206
  552MPD2     C 8186   1.155   2.771  14.127 -0.2981 -0.6773 -0.3544
  552MPD2    C1 8187   1.257   2.731  14.042  0.0940  0.3043  0.0364
  552MPD2    C2 8188   1.391   2.747  14.074  0.5787  0.1679  0.0659
  552MPD2    C3 8189   1.416   2.811  14.198  0.1392  0.2180  0.7244
  552MPD2    C4 8190   1.318   2.830  14.290  0.5975  0.0795  0.1444
  552MPD2    C5 8191   1.185   2.813  14.252  0.6775  0.1068 -0.3855
  552MPD2     H 8192   1.469   2.710  14.009  0.6732  0.4831 -0.0030
  552MPD2    H1 8193   1.339   2.852  14.395  0.3954  0.1866  0.1630
  552MPD2    H2 8194   1.049   2.761  14.107 -0.2471  0.4486 -1.1925
  552MPD2    H3 8195   1.108   2.828  14.327 -0.4956 -0.4993 -1.4700
  552MPD2     N 8196   1.546   2.835  14.257  1.0876  0.4626 -0.8180
  552MPD2    H5 8197   1.548   2.879  14.349  1.3906 -3.1830  0.9142
  552MPD2    N1 8198   1.229   2.651  13.934 -0.4664 -0.4129 -0.5071
  552MPD2    H7 8199   1.303   2.592  13.897  0.9211  0.4912  0.8302
  553TMC3    C1 8200   1.111   2.525  13.794  0.1656 -0.1890  0.5385
  553TMC3    C2 8201   1.076   2.541  13.663 -0.2146  0.3527  0.3861
  553TMC3    C3 8202   1.087   2.432  13.576  0.7425  0.2523 -0.0869
  553TMC3    C4 8203   1.148   2.410  13.858  0.2904  0.1391  0.2748
  553TMC3    C5 8204   1.153   2.303  13.769  0.1267  0.2628 -0.5299
  553TMC3    C6 8205   1.129   2.310  13.634 -0.1424  0.9152  1.0329
  553TMC3     C 8206   1.111   2.644  13.876 -0.6527 -0.0273  0.0694
  553TMC3     O 8207   1.013   2.714  13.875 -0.1030  0.1523 -0.0444
  553TMC3     H 8208   1.046   2.639  13.627  2.3882  0.0492 -2.5892
  553TMC3    H1 8209   1.171   2.409  13.963  0.9569  3.8988  0.1696
  553TMC3    H2 8210   1.111   2.222  13.575  2.0641  0.0504  1.6301
  553TMC3    C7 8211   1.213   2.183  13.822  0.3678 -0.6196  0.1991
  553TMC3    C8 8212   1.173   2.459  13.463 -0.3197 -0.0119 -0.3126
  553TMC3    O1 8213   1.168   2.071  13.796  0.2872  0.3748 -0.4251
  553TMC3    O2 8214   1.224   2.566  13.460 -0.7416  0.8263 -0.1660
  554TMC3    C1 8215   3.330   1.735  11.846 -0.4145 -0.3129 -0.1099
  554TMC3    C2 8216   3.291   1.651  11.745 -0.3875  0.1611 -0.3969
  554TMC3    C3 8217   3.297   1.699  11.615  0.3714  0.7569  0.4881
  554TMC3    C4 8218   3.400   1.853  11.816  0.1412  0.7809  0.1378
  554TMC3    C5 8219   3.424   1.890  11.684 -0.0083  0.4818 -0.3102
  554TMC3    C6 8220   3.370   1.812  11.579  0.8117  0.1292  1.4309
  554TMC3     C 8221   3.301   1.698  11.980 -0.0323 -0.6636  0.4670
  554TMC3     O 8222   3.304   1.778  12.070  0.4895 -0.0443 -0.2461
  554TMC3     H 8223   3.229   1.563  11.758 -2.2522  1.5038 -0.2481
  554TMC3    H1 8224   3.419   1.921  11.898  0.4856  0.4244  0.3510
  554TMC3    H2 8225   3.373   1.845  11.476 -0.7487 -0.4901  1.1999
  554TMC3    C7 8226   3.487   2.013  11.656 -0.3136  0.0799 -0.2785
  554TMC3    C8 8227   3.231   1.641  11.496 -0.1626  0.3283 -0.4467
  554TMC3    O1 8228   3.501   2.082  11.757  0.4492  0.4160 -0.1267
  554TMC3    O2 8229   3.245   1.689  11.384  0.1954  0.4557 -0.6371
  555TMC3    C1 8230   2.493   1.081  15.034 -0.2577  0.0341  0.2967
  555TMC3    C2 8231   2.586   1.109  15.132 -0.3852 -0.3527  0.4384
  555TMC3    C3 8232   2.602   1.022  15.240 -0.1492  0.4177  0.6172
  555TMC3    C4 8233   2.416   0.969  15.032  0.0412 -0.1682 -0.1927
  555TMC3    C5 8234   2.439   0.879  15.133 -0.0944  0.2895  0.3975
  555TMC3    C6 8235   2.531   0.903  15.230 -0.5128 -0.0689  0.3181
  555TMC3     C 8236   2.497   1.176  14.927  0.5097  0.0094 -0.2909
  555TMC3     O 8237   2.605   1.191  14.872 -0.6395 -0.0388 -0.5030
  555TMC3     H 8238   2.645   1.198  15.118 -2.1973  0.7167 -0.2713
  555TMC3    H1 8239   2.360   0.956  14.940  0.2870 -0.1816 -0.3378
  555TMC3    H2 8240   2.557   0.821  15.296 -2.1771 -0.3732  0.6068
  555TMC3    C7 8241   2.353   0.761  15.131  0.1104 -0.5464  0.3084
  555TMC3    C8 8242   2.696   1.051  15.348 -0.7437 -1.5195  0.1948
  555TMC3    O1 8243   2.359   0.700  15.239  0.7390 -0.2847 -0.3532
  555TMC3    O2 8244   2.781   1.135  15.321  0.6420  0.6859 -0.3667
  556MPD2     C 8245   0.525   2.700  10.284 -0.1049  0.8998 -0.8950
  556MPD2    C1 8246   0.497   2.615  10.388 -0.1475  0.0301  0.0635
  556MPD2    C2 8247   0.471   2.484  10.370  0.7565  0.4201  0.5122
  556MPD2    C3 8248   0.482   2.430  10.247  1.0055  0.0135 -0.2563
  556MPD2    C4 8249   0.495   2.509  10.138  0.0787 -1.2111  0.1804
  556MPD2    C5 8250   0.524   2.640  10.157  0.0434 -0.3352  0.0217
  556MPD2     H 8251   0.465   2.418  10.456  2.0956 -1.7217 -1.0227
  556MPD2    H1 8252   0.481   2.481  10.034  0.3802 -0.5991 -0.0187
  556MPD2    H2 8253   0.549   2.806  10.284 -1.4899  1.2119 -0.6989
  556MPD2    H3 8254   0.541   2.712  10.079 -0.1134 -1.1686 -0.7772
  556MPD2     N 8255   0.476   2.286  10.224 -0.1102  0.2739 -0.9412
  556MPD2    H5 8256   0.456   2.227  10.304 -1.2560 -0.9430 -2.1482
  556MPD2    N1 8257   0.482   2.663  10.519 -0.2211  0.4051 -0.0913
  556MPD2    H7 8258   0.456   2.594  10.590 -2.5753  0.2793 -1.0778
  557TMC3    C1 8259   0.467   2.082  10.106  0.6488  0.1085 -0.2903
  557TMC3    C2 8260   0.459   2.017   9.987 -0.2449 -0.0941  0.3286
  557TMC3    C3 8261   0.469   1.880   9.987 -0.8795  0.5698  0.3371
  557TMC3    C4 8262   0.462   2.016  10.226 -0.1597  0.0018  0.1391
  557TMC3    C5 8263   0.485   1.878  10.215  0.0015 -0.1175 -0.6232
  557TMC3    C6 8264   0.469   1.804  10.100  0.5248  0.3201 -0.1391
  557TMC3     C 8265   0.502   2.220  10.099 -0.8355 -0.6921 -0.6484
  557TMC3     O 8266   0.526   2.266   9.987  0.0428  0.3826  0.5774
  557TMC3     H 8267   0.458   2.064   9.889 -2.5497  0.9322  0.8286
  557TMC3    H1 8268   0.483   2.075  10.315  0.7328  0.4987 -0.4067
  557TMC3    H2 8269   0.472   1.696  10.107 -1.2089  0.2268 -0.8374
  557TMC3    C7 8270   0.465   1.807  10.336  0.2383 -0.3809 -0.1011
  557TMC3    C8 8271   0.423   1.821   9.865  0.2323  0.1088 -0.0304
  557TMC3    O1 8272   0.507   1.692  10.343  0.1506 -0.3634 -0.1791
  557TMC3    O2 8273   0.367   1.882   9.781  0.4045  0.3013 -0.3022
  558TMC3    C1 8274   3.054   0.758   9.870  0.0902 -0.1232  0.1938
  558TMC3    C2 8275   2.987   0.819   9.966 -0.0203 -0.3323 -0.4147
  558TMC3    C3 8276   2.851   0.845   9.945 -0.3940 -0.2228 -0.1806
  558TMC3    C4 8277   2.995   0.712   9.751 -0.1024 -0.5239  0.4517
  558TMC3    C5 8278   2.857   0.737   9.733  0.1511 -0.1717 -0.0769
  558TMC3    C6 8279   2.790   0.807   9.829  0.0650 -0.3302 -0.3430
  558TMC3     C 8280   3.190   0.718   9.902  0.3080  0.4882  0.1749
  558TMC3     O 8281   3.250   0.764   9.999  0.4266 -0.7804  0.1321
  558TMC3     H 8282   3.042   0.844  10.056  0.3089 -2.5158  0.0151
  558TMC3    H1 8283   3.049   0.667   9.669  0.2227 -0.0643  0.4113
  558TMC3    H2 8284   2.690   0.842   9.807 -0.2247  0.3750  2.1030
  558TMC3    C7 8285   2.792   0.671   9.625  0.2732 -0.3162 -0.4478
  558TMC3    C8 8286   2.761   0.881  10.047 -0.2653 -0.0675 -0.2504
  558TMC3    O1 8287   2.853   0.594   9.551  0.1203 -0.0477  0.3304
  558TMC3    O2 8288   2.641   0.891  10.016 -0.4596 -0.3853  0.5955
  559MPD2     C 8289   3.026   1.132  10.542 -0.0414  0.0489  1.2345
  559MPD2    C1 8290   3.002   1.062  10.659 -0.3066  0.0316 -0.1936
  559MPD2    C2 8291   3.117   1.032  10.732 -0.4683 -0.1578 -0.2107
  559MPD2    C3 8292   3.237   1.093  10.696 -0.6211  0.0506 -0.3174
  559MPD2    C4 8293   3.258   1.175  10.586  0.0648  0.0541  0.1748
  559MPD2    C5 8294   3.152   1.179  10.499  0.2406 -1.2334  0.0362
  559MPD2     H 8295   3.104   0.974  10.823  1.6769  0.4297  0.4696
  559MPD2    H1 8296   3.352   1.222  10.559 -0.3300 -0.2004 -1.6197
  559MPD2    H2 8297   2.946   1.143  10.470 -1.7752 -2.0488  2.8374
  559MPD2    H3 8298   3.156   1.224  10.401 -1.8739 -1.6810 -0.2497
  559MPD2     N 8299   3.348   1.059  10.774  0.0019 -0.4173 -0.2254
  559MPD2    H5 8300   3.348   0.977  10.833 -2.2440 -2.3529 -2.9383
  559MPD2    N1 8301   2.871   1.031  10.695  0.0822  0.4055 -0.6359
  559MPD2    H7 8302   2.799   1.064  10.631 -2.1742 -0.3360  1.5268
  560TMC3    C1 8303   3.556   1.075  10.871  0.1231  0.0657  0.5831
  560TMC3    C2 8304   3.563   0.940  10.862  0.8104 -0.2043 -0.3642
  560TMC3    C3 8305   3.590   0.870  10.980  0.3654  1.0843 -0.5059
  560TMC3    C4 8306   3.577   1.142  10.990 -0.2623  0.0159 -0.1543
  560TMC3    C5 8307   3.595   1.070  11.101  0.1727 -0.3480  0.0151
  560TMC3    C6 8308   3.595   0.933  11.099  0.5565  0.3136  0.1229
  560TMC3     C 8309   3.469   1.127  10.771 -0.6382  0.3267 -0.3791
  560TMC3     O 8310   3.502   1.238  10.726  0.4941  0.1317 -1.1330
  560TMC3     H 8311   3.546   0.895  10.765 -0.4251  1.4326 -0.9051
  560TMC3    H1 8312   3.554   1.248  10.991  0.7677  0.2360  0.4144
  560TMC3    H2 8313   3.592   0.880  11.193 -0.9202  0.2241  0.0269
  560TMC3    C7 8314   3.655   1.127  11.214 -0.0891  0.0110 -0.6431
  560TMC3    C8 8315   3.562   0.729  10.984  0.2790 -0.1307  0.3567
  560TMC3    O1 8316   3.674   1.057  11.311  0.0308 -0.4651 -0.3719
  560TMC3    O2 8317   3.520   0.670  11.082  0.1338 -0.4940  0.8766
  561TMC3    C1 8318   0.885   0.155  11.737  0.0532  0.0778  0.8037
  561TMC3    C2 8319   0.816   0.086  11.840 -0.2704  0.5381 -0.7657
  561TMC3    C3 8320   0.805   0.146  11.960 -0.2011 -0.1656  0.0584
  561TMC3    C4 8321   0.943   0.274  11.762 -0.3088 -0.7799  0.3072
  561TMC3    C5 8322   0.916   0.337  11.884  0.2024  0.0471 -0.0401
  561TMC3    C6 8323   0.848   0.270  11.985  0.9039 -0.4099  0.4289
  561TMC3     C 8324   0.867   0.096  11.609 -0.3945 -0.1480 -0.5914
  561TMC3     O 8325   0.771   0.017  11.603 -0.1929 -0.2049 -0.3953
  561TMC3     H 8326   0.762   4.716  11.831  1.3698 -0.2858 -2.0827
  561TMC3    H1 8327   1.006   0.328  11.692 -0.8885 -2.1512 -1.2574
  561TMC3    H2 8328   0.847   0.303  12.088 -0.0130 -1.4110  0.7471
  561TMC3    C7 8329   0.993   0.443  11.935  0.5812  0.1630  0.8274
  561TMC3    C8 8330   0.728   0.084  12.057  0.5067  0.3903  0.8482
  561TMC3    O1 8331   1.021   0.436  12.057  0.1645 -0.2041  0.1276
  561TMC3    O2 8332   0.715   4.689  12.052 -0.2090  0.5066  0.2491
  562TMC3    C1 8333   2.324   1.465  15.469 -0.2119  0.2669  1.3185
  562TMC3    C2 8334   2.205   1.531  15.504 -0.0517 -0.1533 -0.1886
  562TMC3    C3 8335   2.092   1.454  15.503  0.2636  0.2803  0.7566
  562TMC3    C4 8336   2.325   1.330  15.445 -0.4197  0.7249  0.3522
  562TMC3    C5 8337   2.213   1.259  15.463  0.2911 -0.5645  0.4951
  562TMC3    C6 8338   2.089   1.319  15.483  0.2769  0.5974  0.0696
  562TMC3     C 8339   2.445   1.547  15.480  0.0331  0.4998  0.3914
  562TMC3     O 8340   2.438   1.664  15.457 -0.5844  0.7348  0.1360
  562TMC3     H 8341   2.208   1.636  15.530 -0.4812 -0.5745  1.5829
  562TMC3    H1 8342   2.414   1.271  15.427 -1.1796 -1.6047  4.1156
  562TMC3    H2 8343   1.997   1.261  15.484 -0.6685  2.0268 -3.5679
  562TMC3    C7 8344   2.207   1.130  15.388  0.0229 -0.0324 -0.0087
  562TMC3    C8 8345   1.974   1.520  15.545 -0.0504  0.3116 -0.2303
  562TMC3    O1 8346   2.295   1.095  15.311 -0.3052 -0.1294  0.1926
  562TMC3    O2 8347   1.894   1.467  15.617 -0.4062 -0.2410  0.0575
  563MPD2     C 8348   4.182   2.857  15.469  0.0286  0.0878 -0.1999
  563MPD2    C1 8349   4.213   2.885  15.604  0.3588 -0.2435 -0.1747
  563MPD2    C2 8350   4.343   2.871  15.640  0.6490 -0.0265  0.2646
  563MPD2    C3 8351   4.431   2.810  15.555 -0.3198 -0.1051 -0.0762
  563MPD2    C4 8352   4.405   2.778  15.428 -0.1957 -0.2899  0.2985
  563MPD2    C5 8353   4.273   2.798  15.391  0.4374 -0.7125 -0.0241
  563MPD2     H 8354   4.376   2.890  15.741  0.4978 -0.3473  0.3767
  563MPD2    H1 8355   4.474   2.716  15.372 -0.6821 -1.2658  0.7782
  563MPD2    H2 8356   4.080   2.849  15.433 -0.1409 -1.4289  0.6470
  563MPD2    H3 8357   4.240   2.761  15.295  0.3684 -0.5038 -0.0819
  563MPD2     N 8358   4.547   2.769  15.619  0.5514  0.2431 -0.3014
  563MPD2    H5 8359   4.550   2.805  15.714  0.9540  1.0375 -0.6185
  563MPD2    N1 8360   4.107   2.924  15.696  0.2508 -0.4002 -0.0452
  563MPD2    H7 8361   4.016   2.930  15.651  0.6097 -0.7668 -0.8094
  564TMC3    C1 8362   3.988   2.937  15.913 -0.8698 -0.2212 -0.7679
  564TMC3    C2 8363   3.889   2.862  15.853 -0.2785 -0.0530  0.2892
  564TMC3    C3 8364   3.816   2.777  15.940  0.3478 -0.4581 -0.0215
  564TMC3    C4 8365   4.012   2.923  16.046  0.0020 -0.8086  0.2203
  564TMC3    C5 8366   3.938   2.845  16.124 -0.1351 -0.2168 -0.3998
  564TMC3    C6 8367   3.821   2.793  16.076 -0.3417 -0.4375 -0.5832
  564TMC3     C 8368   4.114   2.943  15.833 -0.7472  0.6353 -0.4655
  564TMC3     O 8369   4.216   2.941  15.902 -0.2903 -0.1299 -0.1787
  564TMC3     H 8370   3.882   2.854  15.745 -0.3457 -3.2499  0.5445
  564TMC3    H1 8371   4.097   2.968  16.095 -0.7140  0.0449  0.6917
  564TMC3    H2 8372   3.780   2.718  16.142  1.1669 -1.1209 -0.4170
  564TMC3    C7 8373   4.015   2.747  16.201  0.7258  0.1113 -0.4423
  564TMC3    C8 8374   3.828   2.635  15.906 -0.3708 -0.6293  1.2469
  564TMC3    O1 8375   3.963   2.672  16.281  0.5254 -0.0393 -0.7985
  564TMC3    O2 8376   3.786   2.550  15.986 -0.2798  0.7316 -0.1592
  565TMC3    C1 8377   1.400   4.040  10.199  0.2799  0.2744 -0.4599
  565TMC3    C2 8378   1.348   3.991  10.316  0.7912  0.9472  0.3779
  565TMC3    C3 8379   1.246   3.901  10.309 -0.3722  0.1269 -0.2310
  565TMC3    C4 8380   1.362   3.996  10.073  0.8613  0.0497 -0.4632
  565TMC3    C5 8381   1.251   3.910  10.072 -0.1279 -0.4190  0.0133
  565TMC3    C6 8382   1.184   3.872  10.189 -0.7273  0.3550  0.0220
  565TMC3     C 8383   1.458   4.170  10.207  0.4371  0.0414 -0.2341
  565TMC3     O 8384   1.425   4.248  10.117 -0.1538  0.3308 -0.3810
  565TMC3     H 8385   1.394   4.014  10.412  1.6831 -1.4916  0.5514
  565TMC3    H1 8386   1.410   4.040   9.986  0.0333  0.7127 -0.5854
  565TMC3    H2 8387   1.117   3.788  10.178 -0.7297  0.5748 -1.5675
  565TMC3    C7 8388   1.180   3.884   9.950  0.1205  0.5703 -0.1697
  565TMC3    C8 8389   1.164   3.856  10.420  0.4545 -0.1359 -0.2207
  565TMC3    O1 8390   1.063   3.848   9.952 -0.2794 -0.0252 -0.3137
  565TMC3    O2 8391   1.060   3.799  10.398 -0.3806 -0.2430  0.5268
  566MPD2     C 8392   1.552   1.337  14.416 -0.1010  0.0216  0.4685
  566MPD2    C1 8393   1.659   1.251  14.383 -0.0480  0.3976 -0.9414
  566MPD2    C2 8394   1.623   1.138  14.309  0.3123 -0.1798 -0.5226
  566MPD2    C3 8395   1.489   1.110  14.276 -0.0254 -1.1793  0.0797
  566MPD2    C4 8396   1.392   1.190  14.322  0.3133 -0.2298  0.1426
  566MPD2    C5 8397   1.420   1.304  14.391  0.5605 -0.3960  0.4853
  566MPD2     H 8398   1.700   1.072  14.269  0.2955  0.0467 -0.9252
  566MPD2    H1 8399   1.289   1.166  14.300  1.0108 -1.4202 -1.8177
  566MPD2    H2 8400   1.579   1.433  14.457  3.0241 -0.6166 -0.1393
  566MPD2    H3 8401   1.343   1.373  14.423  3.4659  3.9842 -1.9794
  566MPD2     N 8402   1.449   0.997  14.204  0.2222 -0.4852 -0.2481
  566MPD2    H5 8403   1.350   0.990  14.182 -0.0979 -1.2482  1.4340
  566MPD2    N1 8404   1.790   1.281  14.403 -0.6580  0.4281  0.4332
  566MPD2    H7 8405   1.855   1.208  14.376 -0.8452 -0.6416  2.8759
  567TMC3    C1 8406   1.991   1.399  14.429 -0.6209  0.5946  0.4992
  567TMC3    C2 8407   2.034   1.452  14.309  0.5909 -0.4598 -0.2441
  567TMC3    C3 8408   2.119   1.376  14.234  0.0572 -1.1407  0.6037
  567TMC3    C4 8409   2.042   1.278  14.472 -0.5816  0.7760 -0.1573
  567TMC3    C5 8410   2.120   1.199  14.386  0.2830  0.1804  0.5791
  567TMC3    C6 8411   2.166   1.252  14.272 -0.1522  0.5388 -0.3050
  567TMC3     C 8412   1.846   1.405  14.428  0.7647 -0.2711  0.9433
  567TMC3     O 8413   1.795   1.516  14.425  0.7224 -0.2228  0.4536
  567TMC3     H 8414   1.995   1.549  14.282  2.1937 -0.2724 -1.8755
  567TMC3    H1 8415   2.003   1.245  14.568  1.1045 -1.3199 -0.1866
  567TMC3    H2 8416   2.247   1.200  14.223  0.2895  0.7327  0.2289
  567TMC3    C7 8417   2.103   1.061  14.388 -0.9555 -0.1402  0.6759
  567TMC3    C8 8418   2.125   1.421  14.097  0.0227 -0.2195 -0.6506
  567TMC3    O1 8419   2.119   0.997  14.288 -0.0706  0.1862 -0.5603
  567TMC3    O2 8420   2.087   1.534  14.070 -0.2137  0.3775 -0.1151
  568MPD2     C 8421   4.318   1.325  16.485 -0.0142  1.3274  0.1165
  568MPD2    C1 8422   4.244   1.417  16.558  1.0271  0.2227 -0.5485
  568MPD2    C2 8423   4.198   1.525  16.485 -0.1927 -0.0458  0.3864
  568MPD2    C3 8424   4.229   1.540  16.351  0.4986  0.6068 -0.0194
  568MPD2    C4 8425   4.313   1.450  16.289  0.4189  0.7719  0.0066
  568MPD2    C5 8426   4.361   1.345  16.359 -0.1788 -0.3697 -0.1183
  568MPD2     H 8427   4.129   1.598  16.525 -0.0804  0.1331  0.2516
  568MPD2    H1 8428   4.352   1.459  16.189  1.6244  0.1879  0.4171
  568MPD2    H2 8429   4.361   1.237  16.531  0.1472  1.2163 -0.2474
  568MPD2    H3 8430   4.425   1.276  16.305  1.2142  0.2009  0.8106
  568MPD2     N 8431   4.173   1.644  16.281 -0.1376 -0.1618  0.4298
  568MPD2    H5 8432   4.113   1.707  16.333 -1.6534 -1.0275 -0.2869
  568MPD2    N1 8433   4.206   1.378  16.688  0.2614 -0.0036 -0.1575
  568MPD2    H7 8434   4.254   1.302  16.736  0.8994 -0.4732 -1.5389
  569TMC3    C1 8435   4.136   1.800  16.109  0.0146  0.2617 -0.0835
  569TMC3    C2 8436   4.015   1.815  16.163  0.1091 -0.7456 -0.4824
  569TMC3    C3 8437   3.957   1.939  16.155 -0.4069 -0.2934  0.1643
  569TMC3    C4 8438   4.188   1.888  16.019 -0.7353  0.0601 -0.1485
  569TMC3    C5 8439   4.123   2.003  16.003  0.1080 -0.0364 -0.4745
  569TMC3    C6 8440   4.009   2.043  16.083 -0.4443 -0.2307  0.3821
  569TMC3     C 8441   4.224   1.699  16.167 -0.0014 -0.0181  0.1830
  569TMC3     O 8442   4.329   1.680  16.107  0.2140  0.4022  0.5558
  569TMC3     H 8443   3.961   1.731  16.204 -2.3742  2.4433  2.7981
  569TMC3    H1 8444   4.273   1.862  15.958  0.9627  2.8822  1.0475
  569TMC3    H2 8445   3.962   2.140  16.085  0.3442  0.1104  1.9954
  569TMC3    C7 8446   4.165   2.088  15.890 -1.1901 -0.3109  0.2737
  569TMC3    C8 8447   3.893   1.978  16.284  0.3606  0.7122 -0.1966
  569TMC3    O1 8448   4.242   2.046  15.806  0.1474  0.5071 -0.4964
  569TMC3    O2 8449   3.845   1.886  16.355 -0.1359 -0.1071  0.1712
  570TMC3    C1 8450   3.119   0.297  16.365 -0.4604 -0.1895 -0.2721
  570TMC3    C2 8451   3.197   0.258  16.256 -0.3580 -0.5914 -0.2439
  570TMC3    C3 8452   3.211   0.348  16.150 -0.6568 -0.5996  1.2085
  570TMC3    C4 8453   3.053   0.419  16.369  0.4018  0.3343 -0.0004
  570TMC3    C5 8454   3.070   0.504  16.261 -0.3348  0.2098  0.6801
  570TMC3    C6 8455   3.149   0.467  16.157  0.3903 -0.6945  0.2171
  570TMC3     C 8456   3.099   0.195  16.467 -0.4557  0.2952  0.1729
  570TMC3     O 8457   3.097   0.078  16.433  0.0058 -0.6462 -0.1486
  570TMC3     H 8458   3.232   0.156  16.251  2.4517  0.3647 -0.5240
  570TMC3    H1 8459   2.983   0.435  16.450  0.4132  0.1156  0.0545
  570TMC3    H2 8460   3.154   0.510  16.058  1.8063 -1.3418  0.0202
  570TMC3    C7 8461   3.063   0.646  16.292 -0.3714  0.4365  0.0877
  570TMC3    C8 8462   3.341   0.362  16.091 -0.1603 -0.9018  0.2936
  570TMC3    O1 8463   3.061   0.681  16.412  0.7908  0.6917 -0.0879
  570TMC3    O2 8464   3.376   0.475  16.056  1.0459 -0.0872 -0.7784
  571MPD2     C 8465   2.003   1.545  17.555 -0.2209 -0.0938 -0.0207
  571MPD2    C1 8466   1.907   1.636  17.531  0.3503 -0.5985  0.2281
  571MPD2    C2 8467   1.890   1.742  17.623  0.2004 -0.2349 -0.0456
  571MPD2    C3 8468   1.957   1.742   0.052  0.6724 -0.5698 -0.1565
  571MPD2    C4 8469   2.048   1.651   0.067 -0.0566  0.7447 -0.3135
  571MPD2    C5 8470   2.081   1.554  17.669 -0.9919 -0.5846  0.7082
  571MPD2     H 8471   1.821   1.824  17.610  0.9360  0.4958  0.6275
  571MPD2    H1 8472   2.113   1.657   0.153  1.6598 -3.0762 -1.3191
  571MPD2    H2 8473   2.015   1.466  17.482  1.3790  0.4637 -0.3483
  571MPD2    H3 8474   2.176   1.505  17.682 -0.2803  0.4708 -0.6126
  571MPD2     N 8475   1.942   1.833   0.158  0.1861 -0.3203  0.2003
  571MPD2    H5 8476   1.981   1.813   0.250 -0.4170  0.2430  0.5811
  571MPD2    N1 8477   1.845   1.629  17.405  0.7452 -0.0450 -0.1776
  571MPD2    H7 8478   1.886   1.559  17.345  0.9114  1.1649 -1.4518
  572TMC3    C1 8479   1.857   2.020   0.277  0.1347 -0.3842 -0.2289
  572TMC3    C2 8480   1.953   2.004   0.371  0.1338  0.1850 -0.2946
  572TMC3    C3 8481   1.961   2.096   0.470 -0.4007  0.1310 -0.3334
  572TMC3    C4 8482   1.760   2.120   0.287  0.6572 -0.8503 -0.3003
  572TMC3    C5 8483   1.775   2.204   0.391 -0.1166 -0.0617 -0.0381
  572TMC3    C6 8484   1.868   2.190   0.490 -0.8648 -0.7720  0.1020
  572TMC3     C 8485   1.862   1.946   0.153 -0.4327  0.6037  0.2882
  572TMC3     O 8486   1.782   1.985   0.067  0.9198 -0.6210 -0.3172
  572TMC3     H 8487   2.036   1.938   0.349 -0.4477 -0.8788  0.7417
  572TMC3    H1 8488   1.685   2.145   0.213  1.6070  2.0031 -0.2923
  572TMC3    H2 8489   1.877   2.263   0.569  0.1883 -1.7475  0.9004
  572TMC3    C7 8490   1.660   2.292   0.422 -0.7408  0.3017 -0.5498
  572TMC3    C8 8491   2.044   2.063   0.583 -0.4776 -0.6140 -0.6766
  572TMC3    O1 8492   1.609   2.339   0.323 -0.1369  0.6190 -0.0249
  572TMC3    O2 8493   2.004   2.111   0.687  0.2629  0.0256 -0.1630
  573MPD2     C 8494   2.668   2.542   1.210 -0.0598  0.4343  0.8635
  573MPD2    C1 8495   2.601   2.658   1.246 -0.0633 -0.0890  0.2715
  573MPD2    C2 8496   2.504   2.711   1.163 -0.1526 -0.1819 -0.2308
  573MPD2    C3 8497   2.465   2.644   1.050 -0.3469 -0.1393  1.0348
  573MPD2    C4 8498   2.541   2.532   1.011 -0.2868  0.0786  0.4040
  573MPD2    C5 8499   2.639   2.480   1.093  0.7241 -0.1416  0.0657
  573MPD2     H 8500   2.437   2.788   1.199 -1.4526 -0.9898 -0.9051
  573MPD2    H1 8501   2.515   2.482   0.919 -0.4475 -0.6476  0.8475
  573MPD2    H2 8502   2.736   2.496   1.281 -0.0292  0.3229  0.7627
  573MPD2    H3 8503   2.676   2.381   1.069  1.6616 -0.3670  2.3282
  573MPD2     N 8504   2.373   2.690   0.952  0.2648  0.2141  0.7489
  573MPD2    H5 8505   2.363   2.634   0.868 -1.2304 -1.0581  1.7753
  573MPD2    N1 8506   2.639   2.720   1.367 -0.1984 -0.3699 -0.4260
  573MPD2    H7 8507   2.727   2.693   1.411 -0.7737 -0.8082  0.4379
  574TMC3    C1 8508   2.212   2.843   0.855 -0.0828  0.0799  0.2589
  574TMC3    C2 8509   2.091   2.910   0.874 -0.7568 -0.0604 -0.2491
  574TMC3    C3 8510   2.026   2.948   0.759  0.5787 -0.6156  1.0905
  574TMC3    C4 8511   2.265   2.815   0.735  0.8528 -0.1960  0.2871
  574TMC3    C5 8512   2.195   2.852   0.628  0.4359 -0.5746 -0.7346
  574TMC3    C6 8513   2.074   2.926   0.634  0.0649 -0.3609 -0.1222
  574TMC3     C 8514   2.284   2.797   0.977  0.1116 -0.2483  0.4021
  574TMC3     O 8515   2.271   2.871   1.078  0.2932 -0.1522 -0.2356
  574TMC3     H 8516   2.046   2.925   0.971 -0.5948 -1.3048  0.0210
  574TMC3    H1 8517   2.355   2.759   0.715  1.1465  0.6872 -0.9228
  574TMC3    H2 8518   2.002   2.928   0.553 -1.5370  2.3055  1.3506
  574TMC3    C7 8519   2.228   2.796   0.503  0.4141  0.1698 -0.1848
  574TMC3    C8 8520   1.884   2.980   0.769  0.0984  0.5747  0.2499
  574TMC3    O1 8521   2.291   2.692   0.489  0.3476  0.0900  0.5376
  574TMC3    O2 8522   1.822   2.918   0.856  0.2000 -0.1109  0.0788
  575TMC3    C1 8523   0.368   3.781  10.683 -0.6100  0.0621  0.5791
  575TMC3    C2 8524   0.302   3.808  10.567 -0.3165  0.5740  0.8090
  575TMC3    C3 8525   0.357   3.913  10.496  0.1437 -0.5820  0.6078
  575TMC3    C4 8526   0.489   3.840  10.717  0.3087 -0.1936 -0.0213
  575TMC3    C5 8527   0.542   3.937  10.638 -0.2721  0.5228 -0.1925
  575TMC3    C6 8528   0.477   3.973  10.526  0.0735  0.5194 -0.1495
  575TMC3     C 8529   0.326   3.676  10.766  0.6689  0.4090 -0.0184
  575TMC3     O 8530   0.355   3.669  10.881 -0.6073  0.5783 -0.4707
  575TMC3     H 8531   0.206   3.767  10.540  0.5159 -0.2851 -0.8696
  575TMC3    H1 8532   0.530   3.802  10.810  1.0129  1.3756  0.3017
  575TMC3    H2 8533   0.518   4.047  10.458 -1.3528 -0.4930 -2.0962
  575TMC3    C7 8534   0.687   3.963  10.638  0.6588 -0.3171 -0.8280
  575TMC3    C8 8535   0.305   3.927  10.373 -0.3762 -0.2680 -0.6057
  575TMC3    O1 8536   0.724   4.042  10.553 -0.3533  0.1707 -0.4955
  575TMC3    O2 8537   0.239   3.832  10.338  0.0300 -0.5072 -0.2664
  576MPD2     C 8538   4.326   0.560  12.883  0.1961 -0.5849 -0.6806
  576MPD2    C1 8539   4.361   0.657  12.787  0.3893  0.5307  0.4544
  576MPD2    C2 8540   4.317   0.791  12.808  0.0474  1.2621  0.9581
  576MPD2    C3 8541   4.249   0.834  12.923 -0.2120 -0.3923  0.4788
  576MPD2    C4 8542   4.227   0.735  13.021 -0.6588  0.8305 -0.5253
  576MPD2    C5 8543   4.257   0.602  12.995  0.3692  0.0234 -0.9113
  576MPD2     H 8544   4.331   0.855  12.722  1.9438  0.8191  0.9262
  576MPD2    H1 8545   4.171   0.750  13.112  0.4902  0.0247  0.3075
  576MPD2    H2 8546   4.341   0.454  12.868 -0.5223 -0.6735 -0.7859
  576MPD2    H3 8547   4.220   0.529  13.066  1.6170  2.4125  2.1661
  576MPD2     N 8548   4.207   0.975  12.934  0.6413 -0.6581 -0.1429
  576MPD2    H5 8549   4.232   1.038  12.859 -0.0820  0.8890  0.8822
  576MPD2    N1 8550   4.437   0.628  12.669 -0.1191 -0.6666  0.3060
  576MPD2    H7 8551   4.449   0.703  12.602 -1.0938  0.2200  1.1247
  577TMC3    C1 8552   4.574   0.504  12.524  0.5011 -0.5974 -0.1745
  577TMC3    C2 8553   4.667   0.407  12.524  0.5948  0.6987  0.2438
  577TMC3    C3 8554   0.041   0.409  12.419 -0.2261  0.2561 -0.2106
  577TMC3    C4 8555   4.561   0.598  12.424 -0.7170 -0.3664  0.1797
  577TMC3    C5 8556   4.651   0.587  12.322  0.2182 -0.3341 -0.2512
  577TMC3    C6 8557   0.028   0.494  12.313  0.8144 -0.5197  0.7057
  577TMC3     C 8558   4.494   0.504  12.645 -0.1785 -0.0598  0.5014
  577TMC3     O 8559   4.512   0.412  12.722  0.0174  0.3725  0.6844
  577TMC3     H 8560   4.666   0.333  12.604 -4.3513  0.2668 -0.2513
  577TMC3    H1 8561   4.473   0.662  12.427 -1.2250 -1.0381 -0.4196
  577TMC3    H2 8562   0.094   0.492  12.228 -0.4679 -2.8684 -0.2261
  577TMC3    C7 8563   4.619   0.646  12.196  0.3531  0.2789  0.6755
  577TMC3    C8 8564   0.130   0.293  12.430 -0.1965 -0.5717  0.2931
  577TMC3    O1 8565   4.556   0.751  12.196 -0.1273 -0.3116 -0.1546
  577TMC3    O2 8566   0.096   0.208  12.513  0.1879  0.0489 -0.0575
  578MPD2     C 8567   2.447   0.698   1.821  0.1167  0.3400 -0.5843
  578MPD2    C1 8568   2.515   0.644   1.711  0.4723 -0.1596  0.2333
  578MPD2    C2 8569   2.641   0.590   1.727  0.9572  0.4420 -0.7271
  578MPD2    C3 8570   2.705   0.589   1.849 -0.1056  0.2549 -0.0588
  578MPD2    C4 8571   2.646   0.646   1.959 -0.2366  0.4895 -0.2148
  578MPD2    C5 8572   2.513   0.701   1.942 -0.0465 -0.8420  0.5394
  578MPD2     H 8573   2.697   0.550   1.644  0.9370 -0.6119 -0.2351
  578MPD2    H1 8574   2.697   0.658   2.054 -1.0111 -0.0764  0.2702
  578MPD2    H2 8575   2.347   0.739   1.809 -0.4690 -1.0220 -0.3533
  578MPD2    H3 8576   2.467   0.746   2.030  0.6344 -0.1515  0.5381
  578MPD2     N 8577   2.827   0.520   1.846 -0.5886 -0.1994 -0.1447
  578MPD2    H5 8578   2.856   0.476   1.760 -1.8359  1.3880 -1.3805
  578MPD2    N1 8579   2.463   0.627   1.580 -0.3313 -0.6964 -0.0618
  578MPD2    H7 8580   2.527   0.594   1.508  0.2351 -1.2419  0.7036
  579TMC3    C1 8581   3.043   0.451   1.914  0.1066  0.1910 -0.0374
  579TMC3    C2 8582   3.150   0.511   1.971  0.5409  0.2023 -0.6443
  579TMC3    C3 8583   3.275   0.461   1.938 -0.2213 -0.5023 -0.3441
  579TMC3    C4 8584   3.051   0.350   1.825  0.1792 -0.4668  0.0278
  579TMC3    C5 8585   3.181   0.309   1.792  0.8274 -0.2689 -0.1953
  579TMC3    C6 8586   3.296   0.364   1.845  0.0753 -0.6032  0.3058
  579TMC3     C 8587   2.918   0.508   1.950  0.5046 -0.0864 -0.6034
  579TMC3     O 8588   2.905   0.562   2.062  0.8503  0.6488 -0.0667
  579TMC3     H 8589   3.139   0.594   2.040 -0.9212 -0.7266  0.2310
  579TMC3    H1 8590   2.961   0.320   1.774  1.0097 -0.2418 -1.5710
  579TMC3    H2 8591   3.392   0.321   1.821  0.3839  0.8305 -1.0436
  579TMC3    C7 8592   3.201   0.193   1.711  0.0048  0.2985  0.0087
  579TMC3    C8 8593   3.389   0.514   2.019  0.2096 -0.7687 -0.7107
  579TMC3    O1 8594   3.310   0.145   1.708  0.4793 -0.4657 -0.5610
  579TMC3    O2 8595   3.369   0.601   2.105  0.3220  0.7289  0.0906
  580TMC3    C1 8596   2.484   4.525  11.899 -0.4251 -0.7628 -0.2653
  580TMC3    C2 8597   2.501   4.519  11.766 -0.7673  0.3265 -0.0805
  580TMC3    C3 8598   2.545   4.406  11.705  0.2720  0.1395 -0.1133
  580TMC3    C4 8599   2.495   4.407  11.969  0.2441 -0.1540 -0.5617
  580TMC3    C5 8600   2.536   4.290  11.912  0.7703 -0.5366  0.0592
  580TMC3    C6 8601   2.576   4.297  11.782 -0.3573  0.1005 -1.0626
  580TMC3     C 8602   2.557   4.637  11.965  0.4202 -0.2224 -0.4024
  580TMC3     O 8603   2.592   4.626  12.085 -0.3054 -0.1470 -0.2537
  580TMC3     H 8604   2.495   4.611  11.709 -1.1584 -0.2326 -0.9317
  580TMC3    H1 8605   2.477   4.413  12.076  0.5033 -0.0174 -0.5266
  580TMC3    H2 8606   2.644   4.223  11.740 -0.3992  0.5968 -2.0068
  580TMC3    C7 8607   2.585   4.185  11.991 -0.9514  0.3973 -0.8311
  580TMC3    C8 8608   2.636   4.434  11.599  0.4116  0.4979  0.6175
  580TMC3    O1 8609   2.646   4.227  12.089  0.2903  0.0211  0.3824
  580TMC3    O2 8610   2.599   4.428  11.485 -0.3724 -0.4577 -0.5492
  581MPD2     C 8611   4.678   3.885  14.615 -0.3437 -0.2844  0.0841
  581MPD2    C1 8612   4.639   3.952  14.726 -0.1374 -0.4005  0.7322
  581MPD2    C2 8613   4.579   4.078  14.719  0.2770 -0.6617 -0.2644
  581MPD2    C3 8614   4.557   4.135  14.597  0.9912  0.6782  0.3224
  581MPD2    C4 8615   4.598   4.070  14.486  0.3306  0.1278  0.3427
  581MPD2    C5 8616   4.657   3.948  14.493 -0.4998  0.1173  0.5673
  581MPD2     H 8617   4.543   4.128  14.808  0.6297 -0.8377 -0.0202
  581MPD2    H1 8618   4.586   4.104  14.384  1.7092 -0.1218  0.0919
  581MPD2    H2 8619   4.722   3.787  14.632 -1.0269 -0.2280  2.1913
  581MPD2    H3 8620   4.688   3.898  14.402 -1.8179 -2.1184  1.3572
  581MPD2     N 8621   4.484   4.253  14.572  0.1623  0.3535  0.0244
  581MPD2    H5 8622   4.480   4.293  14.479 -1.1569  0.4847  0.1431
  581MPD2    N1 8623   4.674   3.902  14.854  1.1180 -0.1389  0.2112
  581MPD2    H7 8624   4.716   3.809  14.857  0.4784 -0.4063  0.9862
  582TMC3    C1 8625   0.020   3.899  15.074 -0.4903  0.2759  0.0356
  582TMC3    C2 8626   0.114   3.950  15.158 -1.2759  0.2054  1.1217
  582TMC3    C3 8627   0.176   3.853  15.241  0.4369  0.4909 -0.1505
  582TMC3    C4 8628   4.692   3.775  15.091 -0.1221  0.5765 -0.9353
  582TMC3    C5 8629   0.021   3.694  15.184  0.3757 -0.0621  0.0636
  582TMC3    C6 8630   0.127   3.723  15.260 -0.0178 -0.0590  0.1262
  582TMC3     C 8631   4.693   3.980  14.966 -0.5879 -0.3688  0.3885
  582TMC3     O 8632   4.689   4.103  14.979  0.0912  0.0095 -0.5383
  582TMC3     H 8633   0.174   4.036  15.129  0.3730 -1.2516  0.2048
  582TMC3    H1 8634   4.601   3.741  15.041  0.0577  0.2907 -1.0692
  582TMC3    H2 8635   0.165   3.646  15.326 -2.7435 -1.2428  0.3431
  582TMC3    C7 8636   4.641   3.635  15.264 -0.1824  0.3165 -0.1218
  582TMC3    C8 8637   0.276   3.903  15.338  0.1823 -0.0907  0.2144
  582TMC3    O1 8638   4.666   3.539  15.338 -0.3067  0.7745  0.5705
  582TMC3    O2 8639   0.271   4.022  15.365  0.5143  0.7407  0.2500
  583MPD2     C 8640   0.452   0.731  16.408 -0.4615 -0.4395  0.0517
  583MPD2    C1 8641   0.535   0.842  16.408 -0.3547  1.0885  0.7598
  583MPD2    C2 8642   0.510   0.950  16.483 -0.0313  0.5493  0.1968
  583MPD2    C3 8643   0.405   0.942  16.572 -0.3708  0.0120 -0.2532
  583MPD2    C4 8644   0.322   0.836  16.581 -0.1815 -0.3051 -0.5520
  583MPD2    C5 8645   0.349   0.729  16.496  0.1720  0.6536  0.2387
  583MPD2     H 8646   0.577   1.036  16.479 -0.8316  1.1253 -0.7683
  583MPD2    H1 8647   0.229   0.843  16.635 -0.9147  0.4912 -1.9382
  583MPD2    H2 8648   0.464   0.645  16.343 -1.0280  0.5232 -1.3393
  583MPD2    H3 8649   0.284   0.643  16.490  1.2986 -0.0246 -2.1314
  583MPD2     N 8650   0.386   1.052  16.657  0.4217  0.4636 -0.0967
  583MPD2    H5 8651   0.425   1.140  16.625  1.2811 -0.8007 -2.5827
  583MPD2    N1 8652   0.646   0.854  16.320  0.4378  0.3314  0.4511
  583MPD2    H7 8653   0.683   0.948  16.316 -3.1074  1.6469 -1.2838
  584TMC3    C1 8654   0.267   1.183  16.813 -0.2106 -0.0952 -0.4574
  584TMC3    C2 8655   0.246   1.291  16.731  0.0359 -0.1886  0.3909
  584TMC3    C3 8656   0.200   1.405  16.785  0.2731 -0.5068  0.7346
  584TMC3    C4 8657   0.239   1.188  16.949 -0.3059 -0.4532  0.1025
  584TMC3    C5 8658   0.185   1.306  16.991  0.1759  0.2816  0.3944
  584TMC3    C6 8659   0.165   1.413  16.918 -0.6488 -0.7311  1.5409
  584TMC3     C 8660   0.307   1.051  16.766 -0.1719 -0.6007  0.1354
  584TMC3     O 8661   0.266   0.955  16.832 -0.3007  0.2449  0.1046
  584TMC3     H 8662   0.270   1.278  16.626  3.0280 -0.9663  1.1500
  584TMC3    H1 8663   0.265   1.114  17.023 -2.4213 -0.0630  1.2161
  584TMC3    H2 8664   0.140   1.506  16.967  1.0900  1.6464 -2.0478
  584TMC3    C7 8665   0.189   1.321  17.137 -0.1453  0.9242 -1.3732
  584TMC3    C8 8666   0.203   1.526  16.706  0.0532  0.3594 -0.4821
  584TMC3    O1 8667   0.282   1.259  17.191 -0.4782 -0.3599 -0.2064
  584TMC3    O2 8668   0.184   1.512  16.587 -0.0893  0.6513 -0.4001
  585MPD2     C 8669   4.498   0.236   0.713  0.8072  0.1125 -0.1606
  585MPD2    C1 8670   4.535   0.336   0.624  0.0800  0.0682 -0.0135
  585MPD2    C2 8671   4.540   0.306   0.488 -0.5493 -0.0069 -0.0218
  585MPD2    C3 8672   4.500   0.185   0.434 -0.3000  0.1105  0.8075
  585MPD2    C4 8673   4.447   0.095   0.522  0.0288 -0.7511  0.2462
  585MPD2    C5 8674   4.459   0.116   0.655  0.0708 -0.2502  0.4145
  585MPD2     H 8675   4.573   0.383   0.420  0.7185 -0.1668  0.4062
  585MPD2    H1 8676   4.410   4.722   0.486 -0.8192  0.6424 -2.5970
  585MPD2    H2 8677   4.506   0.243   0.821 -2.0433  2.0918 -0.0836
  585MPD2    H3 8678   4.421   0.034   0.714 -1.6773  0.1211 -0.2052
  585MPD2     N 8679   4.501   0.156   0.299  0.0294  0.1004  0.2145
  585MPD2    H5 8680   4.434   0.090   0.262  0.2157 -1.3523  2.4737
  585MPD2    N1 8681   4.564   0.464   0.667  0.2006  0.1817  0.0576
  585MPD2    H7 8682   4.604   0.526   0.598  0.6253 -1.6460 -1.3435
  586TMC3    C1 8683   4.538   0.221   0.070  0.2920 -1.0401 -0.0703
  586TMC3    C2 8684   4.642   0.200  17.683  0.9808  0.3574  0.3514
  586TMC3    C3 8685   4.618   0.157  17.553 -0.3551 -0.5578  0.4387
  586TMC3    C4 8686   4.410   0.231   0.030  0.0207  0.4069  0.7069
  586TMC3    C5 8687   4.385   0.189  17.594  0.4170 -0.3724 -0.1133
  586TMC3    C6 8688   4.491   0.160  17.506  0.1328 -0.0125  0.3254
  586TMC3     C 8689   4.579   0.233   0.210 -0.1979 -0.6668 -0.5950
  586TMC3     O 8690   4.684   0.292   0.230  0.4108  0.4740 -0.1126
  586TMC3     H 8691   0.019   0.198   0.030  1.5744 -3.0214 -1.2130
  586TMC3    H1 8692   4.342   0.264   0.107  2.7557  0.6072  3.0435
  586TMC3    H2 8693   4.474   0.131  17.403 -0.6425 -1.5916  0.8943
  586TMC3    C7 8694   4.258   0.141  17.550  0.5193 -0.1374  0.5578
  586TMC3    C8 8695   4.685   0.039  17.516 -0.2642  0.2742 -0.1083
  586TMC3    O1 8696   4.261   0.058  17.460 -0.0122 -0.0922 -0.4208
  586TMC3    O2 8697   4.683   4.662  17.591 -0.5903  0.0935 -0.0377
  587TMC3    C1 8698   2.256   3.257  16.768  0.3661 -0.0512 -0.0683
  587TMC3    C2 8699   2.221   3.389  16.752  0.5765 -0.1630 -0.5828
  587TMC3    C3 8700   2.315   3.481  16.731  0.8950 -0.5465  0.0889
  587TMC3    C4 8701   2.387   3.223  16.755 -0.3678 -0.0480 -0.0970
  587TMC3    C5 8702   2.484   3.322  16.749 -0.1968  0.8002  0.5393
  587TMC3    C6 8703   2.451   3.454  16.746 -0.7661 -0.2881  0.1462
  587TMC3     C 8704   2.161   3.146  16.733  0.5800 -0.0133  0.0620
  587TMC3     O 8705   2.201   3.031  16.735  0.0839 -0.1011 -0.4495
  587TMC3     H 8706   2.121   3.426  16.733  0.0448  0.2060  2.8470
  587TMC3    H1 8707   2.418   3.119  16.757 -0.4480 -0.1159 -3.0043
  587TMC3    H2 8708   2.521   3.537  16.736 -1.0958 -0.2655 -1.9866
  587TMC3    C7 8709   2.625   3.283  16.773  0.1311 -0.0925 -0.4663
  587TMC3    C8 8710   2.299   3.628  16.724 -0.1539 -0.3612  0.1625
  587TMC3    O1 8711   2.641   3.168  16.814 -0.0108 -0.3735  0.5255
  587TMC3    O2 8712   2.392   3.702  16.695  0.1650 -0.7036 -0.0560
  588TMC3    C1 8713   4.665   0.945   9.472 -0.3827  0.3995  0.4804
  588TMC3    C2 8714   4.609   0.822   9.455 -0.1069 -0.5794  0.4864
  588TMC3    C3 8715   4.649   0.719   9.536 -0.7457 -0.6609 -0.5897
  588TMC3    C4 8716   0.036   0.973   9.568  0.2749  0.9169 -0.5189
  588TMC3    C5 8717   0.062   0.878   9.657  0.4423  0.1659 -0.1000
  588TMC3    C6 8718   0.012   0.749   9.645 -0.3119 -0.0528  0.4161
  588TMC3     C 8719   4.617   1.063   9.399  0.6435  0.2794 -0.8362
  588TMC3     O 8720   4.536   1.046   9.309  0.3218 -0.5873  0.2366
  588TMC3     H 8721   4.532   0.801   9.381 -0.0249  1.3820 -0.1415
  588TMC3    H1 8722   0.111   1.051   9.572  0.4527  0.7502 -0.5853
  588TMC3    H2 8723   0.051   0.674   9.713  0.2096  0.7054  0.9552
  588TMC3    C7 8724   0.122   0.912   9.788 -0.2871 -0.9003  0.1268
  588TMC3    C8 8725   4.575   0.598   9.538  0.4510 -0.0522  0.1921
  588TMC3    O1 8726   0.176   0.825   9.852 -0.3472 -0.3884 -0.7082
  588TMC3    O2 8727   4.463   0.597   9.493  0.1150  0.1310  0.1677
  589TMC3    C1 8728   3.019   3.261   1.095  0.5020  0.4016  0.1407
  589TMC3    C2 8729   3.119   3.221   1.182 -0.0932 -0.0003  0.1002
  589TMC3    C3 8730   3.213   3.135   1.134 -0.0408 -0.1044  0.4682
  589TMC3    C4 8731   3.005   3.208   0.969 -0.3088  0.5000 -0.4731
  589TMC3    C5 8732   3.102   3.117   0.930  0.1451 -0.3659 -0.6038
  589TMC3    C6 8733   3.204   3.083   1.008 -0.7265 -0.6529  0.4537
  589TMC3     C 8734   2.942   3.381   1.123  0.1235 -0.7032 -0.2365
  589TMC3     O 8735   2.852   3.408   1.041 -0.2871  0.2668  0.6604
  589TMC3     H 8736   3.156   3.279   1.266  1.0407  0.3870 -0.6711
  589TMC3    H1 8737   2.920   3.234   0.907 -0.2556 -1.1940 -1.2433
  589TMC3    H2 8738   3.265   2.998   0.981  1.5539  0.9474  0.6083
  589TMC3    C7 8739   3.090   3.036   0.807  0.1286  0.1352  0.0006
  589TMC3    C8 8740   3.304   3.068   1.231 -0.0868  0.0098 -0.0140
  589TMC3    O1 8741   3.165   2.943   0.792  0.0886 -0.1751 -0.7566
  589TMC3    O2 8742   3.280   3.074   1.348  0.5424  0.5058 -0.1946
  590MPD2     C 8743   2.855   1.700  16.685 -0.4406 -0.2074  0.3049
  590MPD2    C1 8744   2.790   1.805  16.634 -0.1829 -0.8817 -0.0705
  590MPD2    C2 8745   2.862   1.916  16.586  0.1883 -0.0202  0.3535
  590MPD2    C3 8746   2.998   1.920  16.601 -0.1457 -0.2054  0.0382
  590MPD2    C4 8747   3.055   1.813  16.667  0.2566 -0.4421 -0.2394
  590MPD2    C5 8748   2.989   1.709  16.715  0.2051 -0.1073  0.9476
  590MPD2     H 8749   2.812   1.998  16.536 -1.1671 -0.8869  0.2982
  590MPD2    H1 8750   3.163   1.810  16.672  0.3200  1.2718 -0.5652
  590MPD2    H2 8751   2.806   1.608  16.716 -2.5318  0.7473 -0.1706
  590MPD2    H3 8752   3.046   1.625  16.753  1.5448  0.6145  0.5390
  590MPD2     N 8753   3.072   2.024  16.538  0.2602  0.1490 -0.9278
  590MPD2    H5 8754   3.029   2.103  16.490 -1.4591 -1.2238 -1.6641
  590MPD2    N1 8755   2.651   1.800  16.615  0.4611 -0.5717 -0.2556
  590MPD2    H7 8756   2.603   1.870  16.558  0.4827 -0.5878 -0.2939
  591TMC3    C1 8757   3.267   2.142  16.463 -0.3322 -0.7950  0.3559
  591TMC3    C2 8758   3.369   2.097  16.382 -0.3496 -0.4137 -0.2114
  591TMC3    C3 8759   3.420   2.177  16.288 -0.2175  0.9536  0.5972
  591TMC3    C4 8760   3.201   2.261  16.438 -0.0398 -0.2843  0.6172
  591TMC3    C5 8761   3.240   2.338  16.337  0.8363 -0.0078 -0.4388
  591TMC3    C6 8762   3.358   2.299  16.260  0.1652  0.1025 -0.5647
  591TMC3     C 8763   3.212   2.035  16.546 -0.3572 -0.2208 -0.1371
  591TMC3     O 8764   3.285   1.973  16.616 -0.2419 -0.4073  0.4544
  591TMC3     H 8765   3.430   2.011  16.410  0.8607  0.5409  0.0742
  591TMC3    H1 8766   3.124   2.282  16.511  0.2341 -0.3764  0.9328
  591TMC3    H2 8767   3.390   2.368  16.183 -1.3963 -1.6059 -2.7767
  591TMC3    C7 8768   3.155   2.457  16.309 -0.0620  0.8875  0.2294
  591TMC3    C8 8769   3.516   2.114  16.197 -0.2296  0.3183 -0.2153
  591TMC3    O1 8770   3.039   2.453  16.337  0.8840  1.2227 -0.0047
  591TMC3    O2 8771   3.515   1.990  16.198  0.3024 -0.4049 -0.0945
  592MPD2     C 8772   3.623   4.056  11.053  0.0599 -0.2271 -0.3865
  592MPD2    C1 8773   3.659   4.061  11.184 -0.1895  0.3714 -1.1748
  592MPD2    C2 8774   3.579   4.017  11.291 -0.6243  0.4918 -0.3143
  592MPD2    C3 8775   3.450   3.988  11.253 -0.0290 -0.1649 -0.3215
  592MPD2    C4 8776   3.411   3.982  11.119 -0.0991  0.0658  0.1333
  592MPD2    C5 8777   3.499   4.018  11.023 -0.7924  0.4293 -0.2572
  592MPD2     H 8778   3.614   4.028  11.393  0.5882  1.4413 -0.8295
  592MPD2    H1 8779   3.307   3.962  11.099 -0.1663 -0.9095  1.3900
  592MPD2    H2 8780   3.694   4.078  10.974  0.7041 -1.1763 -0.0746
  592MPD2    H3 8781   3.475   4.013  10.918  0.0017 -0.4022 -0.3961
  592MPD2     N 8782   3.368   3.956  11.360  0.2897 -0.2474  0.0600
  592MPD2    H5 8783   3.403   3.995  11.447  0.3322 -0.6874  0.2405
  592MPD2    N1 8784   3.787   4.120  11.194  0.2007  0.0272  0.0859
  592MPD2    H7 8785   3.835   4.139  11.107 -1.8455 -1.0331 -1.2818
  593TMC3    C1 8786   3.985   4.201  11.285 -0.1362  0.1508 -0.3077
  593TMC3    C2 8787   4.065   4.219  11.395 -0.4710  0.1478  0.0787
  593TMC3    C3 8788   4.201   4.216  11.379  0.2437 -0.1436 -0.0798
  593TMC3    C4 8789   4.042   4.193  11.157  0.0644 -0.0802  0.2483
  593TMC3    C5 8790   4.182   4.211  11.148  0.2646 -0.7680 -0.2193
  593TMC3    C6 8791   4.263   4.211  11.258 -0.0471  0.0499 -0.7235
  593TMC3     C 8792   3.851   4.149  11.310  0.0642 -0.2301  0.7777
  593TMC3     O 8793   3.805   4.144  11.424 -0.2006  0.5205  0.4909
  593TMC3     H 8794   4.022   4.225  11.494  1.0563  1.2722  0.6600
  593TMC3    H1 8795   3.975   4.195  11.071 -0.9653 -4.7073  0.9714
  593TMC3    H2 8796   4.370   4.226  11.268  0.2459 -2.1819 -0.3398
  593TMC3    C7 8797   4.243   4.259  11.018 -0.0909  0.0097  0.5073
  593TMC3    C8 8798   4.271   4.287  11.479  0.3905 -0.1855  0.7914
  593TMC3    O1 8799   4.353   4.315  11.025  0.1756  0.0770 -0.1410
  593TMC3    O2 8800   4.390   4.271  11.495 -0.1956 -0.0184 -0.1322
  594MPD2     C 8801   2.381   2.893  14.010 -0.0907  0.7584  0.2558
  594MPD2    C1 8802   2.319   2.981  14.095  0.0698 -0.0073  0.4161
  594MPD2    C2 8803   2.384   3.098  14.131 -0.5343  1.2747  0.1685
  594MPD2    C3 8804   2.513   3.122  14.091  0.4448  0.9532  1.5151
  594MPD2    C4 8805   2.578   3.032  14.004  0.5463  0.1910 -0.4470
  594MPD2    C5 8806   2.510   2.923  13.969 -0.5187 -0.0536  0.5080
  594MPD2     H 8807   2.336   3.175  14.190 -2.4318 -0.5655  1.0217
  594MPD2    H1 8808   2.674   3.046  13.956  1.2768 -1.1763  0.6626
  594MPD2    H2 8809   2.345   2.796  13.979 -0.1086  1.2675 -1.3169
  594MPD2    H3 8810   2.551   2.846  13.904  0.1556  0.2900  0.5172
  594MPD2     N 8811   2.567   3.250  14.122 -0.4755 -0.2345  0.6134
  594MPD2    H5 8812   2.511   3.311  14.180  0.8828  1.7013 -0.0782
  594MPD2    N1 8813   2.189   2.942  14.137  0.3986  0.1145 -0.3794
  594MPD2    H7 8814   2.164   2.845  14.119  0.6463 -0.1497  0.7087
  595TMC3    C1 8815   2.855   3.605  14.172 -0.1491  0.1298 -0.3335
  595TMC3    C2 8816   2.844   3.475  14.139 -0.4817  0.2761 -0.4872
  595TMC3    C3 8817   2.716   3.431  14.124 -0.5810  0.5736  0.6294
  595TMC3    C4 8818   2.753   3.696  14.178  0.6127 -0.3381  0.3372
  595TMC3    C5 8819   2.625   3.655  14.152  0.0687  0.0953 -0.3320
  595TMC3    C6 8820   2.604   3.520  14.134  0.1353 -0.7517 -0.0882
  595TMC3     C 8821   2.977   3.663  14.230  0.6643  0.3559 -0.4305
  595TMC3     O 8822   3.007   3.776  14.192 -0.0368  0.1948  0.8317
  595TMC3     H 8823   2.927   3.406  14.139 -0.6237  0.1058 -0.6474
  595TMC3    H1 8824   2.770   3.800  14.204  0.1373 -0.2396  0.2543
  595TMC3    H2 8825   2.501   3.503  14.105 -0.0115 -0.4395  0.2562
  595TMC3    C7 8826   2.512   3.725  14.203  0.1917  0.5662  0.0066
  595TMC3    C8 8827   2.698   3.291  14.106 -0.1737  0.8043  0.3908
  595TMC3    O1 8828   2.419   3.657  14.248 -0.0199 -0.0352 -0.2660
  595TMC3    O2 8829   2.798   3.222  14.080  0.0020 -0.6523 -0.6457
  596MPD2     C 8830   1.213   0.880  16.534 -0.8050  0.9115 -0.1203
  596MPD2    C1 8831   1.237   1.003  16.470  0.2998 -0.4393  0.5340
  596MPD2    C2 8832   1.273   1.003  16.334 -0.0983 -0.3980 -0.4349
  596MPD2    C3 8833   1.297   0.889  16.260 -0.1326 -0.1565  0.3817
  596MPD2    C4 8834   1.271   0.767  16.323  0.4327 -0.0716 -0.2893
  596MPD2    C5 8835   1.227   0.764  16.455  0.4054 -0.0611 -0.0708
  596MPD2     H 8836   1.282   1.099  16.284 -0.4696  1.5461  3.1946
  596MPD2    H1 8837   1.276   0.677  16.262 -0.5779 -0.5960  0.4093
  596MPD2    H2 8838   1.183   0.870  16.638  0.9300 -2.2683  0.0898
  596MPD2    H3 8839   1.201   0.667  16.494 -1.8747  0.4882 -0.2160
  596MPD2     N 8840   1.335   0.892  16.128 -0.0507 -0.8626  1.0128
  596MPD2    H5 8841   1.327   0.801  16.084 -0.9788 -0.2254 -0.1340
  596MPD2    N1 8842   1.237   1.128  16.528  0.4045  0.2111  0.1726
  596MPD2    H7 8843   1.268   1.207  16.472 -0.2759  0.5542  0.2892
  597TMC3    C1 8844   1.165   1.299  16.675  0.1936 -0.3521 -0.1613
  597TMC3    C2 8845   1.230   1.390  16.604  0.7522 -0.2120 -0.2718
  597TMC3    C3 8846   1.189   1.520  16.624 -1.1941 -0.2935  0.5030
  597TMC3    C4 8847   1.060   1.324  16.761  0.5335 -0.4350 -0.2431
  597TMC3    C5 8848   1.027   1.452  16.772 -0.3895 -0.2643  0.0597
  597TMC3    C6 8849   1.086   1.553  16.709 -0.1624  0.1191  0.2510
  597TMC3     C 8850   1.192   1.155  16.654 -0.1824  0.1408 -0.0887
  597TMC3     O 8851   1.144   1.079  16.737 -0.5517 -0.3723 -0.4256
  597TMC3     H 8852   1.318   1.364  16.547  0.5973  2.0714 -1.5954
  597TMC3    H1 8853   1.000   1.246  16.807  0.2238  0.9439  1.6885
  597TMC3    H2 8854   1.092   1.654  16.746  0.0958  0.9236 -1.9391
  597TMC3    C7 8855   0.942   1.491  16.884 -0.0739 -0.1866  0.1062
  597TMC3    C8 8856   1.248   1.627  16.554 -0.3465  0.5658  0.1994
  597TMC3    O1 8857   0.924   1.400  16.962  0.2721  0.2424 -0.3227
  597TMC3    O2 8858   1.188   1.733  16.559 -0.1503 -0.0551  0.2863
  598TMC3    C1 8859   4.221   2.275  15.101  0.2570  0.2472  1.0571
  598TMC3    C2 8860   4.211   2.146  15.073  0.1719 -0.1192 -0.4839
  598TMC3    C3 8861   4.117   2.113  14.984 -0.1946  0.2188 -0.0426
  598TMC3    C4 8862   4.144   2.375  15.049 -0.0849  0.1455 -0.0313
  598TMC3    C5 8863   4.051   2.341  14.956 -0.8692  0.7698  0.1257
  598TMC3    C6 8864   4.035   2.209  14.924  0.8652  0.3133 -0.5043
  598TMC3     C 8865   4.326   2.314  15.187 -0.0821  0.2234 -0.5930
  598TMC3     O 8866   4.365   2.426  15.160 -0.1293 -0.1753  0.0986
  598TMC3     H 8867   4.296   2.080  15.085 -0.3625 -0.7304 -0.0463
  598TMC3    H1 8868   4.139   2.465  15.109  0.0774  1.8116 -2.4979
  598TMC3    H2 8869   3.962   2.167  14.856 -0.1277 -2.3201  2.1870
  598TMC3    C7 8870   3.994   2.448  14.874  0.3489 -0.4983  0.0816
  598TMC3    C8 8871   4.135   1.991  14.909 -0.4647  0.0389 -0.0330
  598TMC3    O1 8872   3.905   2.411  14.796  0.3672 -0.0620  0.3453
  598TMC3    O2 8873   4.115   2.000  14.790 -0.4938 -0.1080  0.2804
  599MPD2     C 8874   4.527   0.131  16.183 -0.0672  0.7481 -0.6885
  599MPD2    C1 8875   4.429   0.039  16.151  0.2056 -0.5822 -0.1582
  599MPD2    C2 8876   4.295   0.076  16.171 -0.2803  0.6996  0.1834
  599MPD2    C3 8877   4.258   0.200  16.216 -0.2842 -0.5101  0.0275
  599MPD2    C4 8878   4.355   0.287  16.259 -1.0288 -0.6240 -0.4865
  599MPD2    C5 8879   4.486   0.249  16.237 -0.4826  0.1530  0.1798
  599MPD2     H 8880   4.224   0.001  16.140  0.8866 -0.1212 -0.4705
  599MPD2    H1 8881   4.330   0.383  16.304 -1.7271 -1.0519  0.0291
  599MPD2    H2 8882   4.633   0.125  16.163 -0.1511 -0.4884 -0.7755
  599MPD2    H3 8883   4.550   0.335  16.252 -0.6396  0.1915  0.6220
  599MPD2     N 8884   4.122   0.226  16.247  0.6947 -0.6613  0.5014
  599MPD2    H5 8885   4.111   0.310  16.302 -2.2670  0.0342 -1.1234
  599MPD2    N1 8886   4.473   4.636  16.093  0.2599 -1.0047 -0.3657
  599MPD2    H7 8887   4.572   4.632  16.072  0.6069 -2.4419  1.5237
  600TMC3    C1 8888   3.885   0.214  16.256  0.1464 -0.1179  0.1047
  600TMC3    C2 8889   3.782   0.132  16.293  0.3395 -0.2155 -0.6349
  600TMC3    C3 8890   3.670   0.187  16.341  0.1413  0.3814 -0.4086
  600TMC3    C4 8891   3.881   0.348  16.275 -0.4667  0.0078  0.0055
  600TMC3    C5 8892   3.766   0.394  16.330 -0.6506  0.7905 -0.3080
  600TMC3    C6 8893   3.657   0.319  16.366 -0.4826  0.6589 -0.6200
  600TMC3     C 8894   4.012   0.147  16.224  0.0075  0.0503 -0.0734
  600TMC3     O 8895   4.009   0.027  16.188 -0.0779  0.3834  0.1911
  600TMC3     H 8896   3.806   0.026  16.297  0.7850 -0.1256 -0.9489
  600TMC3    H1 8897   3.963   0.403  16.232 -1.1229  0.7271 -0.3105
  600TMC3    H2 8898   3.568   0.364  16.409 -0.4359 -0.8833  1.0585
  600TMC3    C7 8899   3.755   0.531  16.375  0.1166 -0.0913  0.1719
  600TMC3    C8 8900   3.563   0.110  16.403 -0.0248  0.4697  0.8328
  600TMC3    O1 8901   3.639   0.578  16.379 -0.5151  0.3229  0.1235
  600TMC3    O2 8902   3.456   0.164  16.398 -0.1389  0.2501 -0.2305
  601MPD2     C 8903   1.413   2.657   0.704  0.2334  0.3345  0.7707
  601MPD2    C1 8904   1.413   2.635   0.570 -0.7657 -0.1960  0.4007
  601MPD2    C2 8905   1.491   2.529   0.523 -0.2796  0.3843  0.1944
  601MPD2    C3 8906   1.567   2.443   0.598 -1.0430 -0.0168  0.1766
  601MPD2    C4 8907   1.547   2.457   0.731  0.5455  0.5706  0.1915
  601MPD2    C5 8908   1.484   2.567   0.783 -0.2086  0.3618  0.5506
  601MPD2     H 8909   1.488   2.525   0.414  0.4109 -0.0458  0.1982
  601MPD2    H1 8910   1.591   2.379   0.792 -0.5380 -0.0061  0.2384
  601MPD2    H2 8911   1.351   2.730   0.756  0.0787 -1.0172  2.4842
  601MPD2    H3 8912   1.475   2.582   0.890  0.0356 -0.0714  0.6306
  601MPD2     N 8913   1.655   2.341   0.548 -0.5401 -0.6004 -0.1876
  601MPD2    H5 8914   1.720   2.298   0.613 -0.0645  0.6469  0.1522
  601MPD2    N1 8915   1.338   2.709   0.481 -0.7737 -0.1603 -0.2152
  601MPD2    H7 8916   1.351   2.691   0.382 -0.1853  0.1116 -0.1856
  602TMC3    C1 8917   1.194   2.890   0.408  0.5208  0.4323 -0.7808
  602TMC3    C2 8918   1.151   3.015   0.448  0.0470  0.1363  0.3112
  602TMC3    C3 8919   1.124   3.098   0.344  0.0638  0.1323 -0.5231
  602TMC3    C4 8920   1.212   2.843   0.275  0.4050  0.2717 -0.5233
  602TMC3    C5 8921   1.174   2.933   0.182 -0.1636  0.2173  1.1298
  602TMC3    C6 8922   1.133   3.063   0.214  0.0860 -0.0770  0.4571
  602TMC3     C 8923   1.235   2.801   0.514  0.5572  0.3734  0.1989
  602TMC3     O 8924   1.201   2.845   0.627 -0.2434  0.5328  0.0009
  602TMC3     H 8925   1.143   3.063   0.545  0.3654  0.0385  0.3841
  602TMC3    H1 8926   1.254   2.747   0.249  2.3682  0.3245  2.3846
  602TMC3    H2 8927   1.106   3.129   0.131 -0.5038  0.2624  0.9190
  602TMC3    C7 8928   1.154   2.889   0.048  0.1674  0.2778 -0.3832
  602TMC3    C8 8929   1.047   3.216   0.378  0.1593  0.0251 -0.4157
  602TMC3    O1 8930   1.241   2.816   0.005 -1.0094 -0.6969  0.2888
  602TMC3    O2 8931   1.086   3.288   0.470 -0.3658  0.1259  0.1521
  603TMC3    C1 8932   4.670   3.304  10.715 -0.1613  0.5733  0.0388
  603TMC3    C2 8933   4.642   3.291  10.846 -0.4734  0.2529  1.0465
  603TMC3    C3 8934   4.607   3.403  10.922 -0.9865 -0.1642  0.0123
  603TMC3    C4 8935   4.660   3.416  10.645  0.2802 -0.1441  0.4055
  603TMC3    C5 8936   4.643   3.529  10.719 -0.2056  0.2590 -0.0272
  603TMC3    C6 8937   4.612   3.529  10.855 -0.2142  1.2916 -0.3372
  603TMC3     C 8938   4.716   3.179  10.650  0.7044  0.2958 -0.0196
  603TMC3     O 8939   4.712   3.074  10.712 -0.8817  0.8684 -0.1559
  603TMC3     H 8940   4.648   3.195  10.895 -2.1866 -0.7646 -0.7426
  603TMC3    H1 8941   4.694   3.423  10.542  1.0150  0.0334  0.6616
  603TMC3    H2 8942   4.563   3.619  10.889 -0.1542  2.3313 -3.0014
  603TMC3    C7 8943   4.635   3.654  10.649 -0.7796 -0.6497  0.2449
  603TMC3    C8 8944   4.589   3.390  11.067  0.7195  0.3882  0.2301
  603TMC3    O1 8945   4.649   3.763  10.711 -0.4762 -0.1069 -0.0965
  603TMC3    O2 8946   4.524   3.292  11.106  0.4889 -0.3169  0.4378
  604MPD2     C 8947   0.219   2.367  16.346  0.2435  0.5353  0.0020
  604MPD2    C1 8948   0.163   2.245  16.325  0.1993  0.3033  0.2762
  604MPD2    C2 8949   0.188   2.170  16.214  0.4986  0.1352  0.3574
  604MPD2    C3 8950   0.261   2.226  16.109  0.4426 -0.0414  0.9851
  604MPD2    C4 8951   0.317   2.353  16.130 -0.1113 -0.4576 -0.5741
  604MPD2    C5 8952   0.308   2.415  16.251  0.5422 -0.4935  0.1917
  604MPD2     H 8953   0.149   2.071  16.191  3.0210 -1.3169  2.3095
  604MPD2    H1 8954   0.375   2.409  16.057  1.1001 -0.2833  0.5247
  604MPD2    H2 8955   0.202   2.432  16.430  1.3750  0.8292 -0.0002
  604MPD2    H3 8956   0.373   2.501  16.267 -1.1630  0.8169  0.1235
  604MPD2     N 8957   0.284   2.150  15.999  0.0413 -0.6301 -0.2550
  604MPD2    H5 8958   0.275   2.051  16.020 -2.3222 -0.2111  0.7047
  604MPD2    N1 8959   0.066   2.208  16.424 -0.8539 -0.4455  0.4421
  604MPD2    H7 8960   0.053   2.267  16.506  0.7716 -1.8517  1.7054
  605TMC3    C1 8961   4.589   2.107  16.518  0.2904  0.1224 -0.1266
  605TMC3    C2 8962   4.632   2.141  16.642  0.0944 -0.2590  0.0277
  605TMC3    C3 8963   4.576   2.246  16.704 -0.3819  0.6095 -0.2535
  605TMC3    C4 8964   4.469   2.158  16.476  0.8202 -0.3545  0.0949
  605TMC3    C5 8965   4.401   2.254  16.539  1.2238  0.3848 -0.5685
  605TMC3    C6 8966   4.453   2.303  16.657 -0.2524  0.3901 -0.8185
  605TMC3     C 8967   4.694   2.105  16.413  0.0650  0.4275  0.5880
  605TMC3     O 8968   4.668   2.039  16.310 -0.2058 -0.3441  0.2431
  605TMC3     H 8969   0.012   2.119  16.670 -0.5333 -1.5821  1.2469
  605TMC3    H1 8970   4.417   2.109  16.393 -2.3564 -0.4166  2.1241
  605TMC3    H2 8971   4.415   2.388  16.713  0.9077 -0.4963  1.3466
  605TMC3    C7 8972   4.325   2.337  16.454  0.3892  0.0079  0.0872
  605TMC3    C8 8973   4.676   2.344  16.740  0.2893  0.6174  1.1496
  605TMC3    O1 8974   4.263   2.426  16.511 -0.2263 -0.3910  0.3445
  605TMC3    O2 8975   0.049   2.347  16.666  0.4306 -0.1931 -0.0473
  606TMC3    C1 8976   1.880   1.206  17.241  0.6908 -0.0992 -0.2172
  606TMC3    C2 8977   1.839   1.230  17.367  0.6367  0.1173  0.2201
  606TMC3    C3 8978   1.752   1.144  17.435  0.3032 -0.0462 -0.0985
  606TMC3    C4 8979   1.823   1.106  17.170  0.3869 -0.3720 -0.9952
  606TMC3    C5 8980   1.731   1.027  17.239  0.1239  0.1066 -0.1050
  606TMC3    C6 8981   1.706   1.031  17.371  0.1272  0.1758  0.3732
  606TMC3     C 8982   1.981   1.295  17.183  0.0786 -0.6365 -0.2331
  606TMC3     O 8983   1.986   1.404  17.242  0.7013 -0.1726  0.0853
  606TMC3     H 8984   1.882   1.306  17.432  1.3762 -1.0977  1.1679
  606TMC3    H1 8985   1.831   1.099  17.062  1.2446  1.1042 -1.0139
  606TMC3    H2 8986   1.635   0.967  17.420  0.2035 -1.1448 -1.2349
  606TMC3    C7 8987   1.682   0.908  17.165  0.4400  0.2955  0.0493
  606TMC3    C8 8988   1.760   1.139  17.582 -0.0079  0.8149  0.0557
  606TMC3    O1 8989   1.698   0.915  17.044 -0.1314  0.4165  0.5428
  606TMC3    O2 8990   1.773   1.032  17.644 -0.1391 -0.2163  0.2154
  607MPD2     C 8991   3.388   3.488  11.701 -0.2744 -0.4798  0.0043
  607MPD2    C1 8992   3.502   3.549  11.753  0.0563 -0.3827  0.2239
  607MPD2    C2 8993   3.542   3.517  11.878  0.0992 -0.0199 -0.1723
  607MPD2    C3 8994   3.475   3.425  11.950 -0.1444  0.2209 -0.1264
  607MPD2    C4 8995   3.355   3.372  11.904  0.7978  0.1551 -0.5899
  607MPD2    C5 8996   3.319   3.404  11.778  0.4472  0.4647  0.7311
  607MPD2     H 8997   3.635   3.558  11.914  0.7925  1.7183 -3.9620
  607MPD2    H1 8998   3.287   3.306  11.956 -0.7918  4.0589  2.3156
  607MPD2    H2 8999   3.352   3.505  11.600 -1.5714 -3.0171  0.0485
  607MPD2    H3 9000   3.223   3.371  11.740  1.0610 -0.0859 -0.3421
  607MPD2     N 9001   3.540   3.383  12.071 -0.1419  0.2169 -0.0113
  607MPD2    H5 9002   3.634   3.420  12.082  0.3576 -0.8714 -0.6582
  607MPD2    N1 9003   3.588   3.641  11.687 -0.4390 -0.3293 -0.0778
  607MPD2    H7 9004   3.652   3.687  11.751 -3.0049  2.4977  0.4428
  608TMC3    C1 9005   3.680   3.803  11.555  0.6537 -0.1407  0.4012
  608TMC3    C2 9006   3.699   3.869  11.676  0.5540 -0.1162 -0.2776
  608TMC3    C3 9007   3.827   3.916  11.709  0.3649 -0.1024 -0.0837
  608TMC3    C4 9008   3.773   3.796  11.453 -0.4481 -0.4930  0.2638
  608TMC3    C5 9009   3.895   3.838  11.491  0.3474 -0.1738  0.4158
  608TMC3    C6 9010   3.923   3.898  11.612  0.0186  0.3636 -0.9114
  608TMC3     C 9011   3.586   3.693  11.564  0.1669 -0.0264  0.2826
  608TMC3     O 9012   3.515   3.661  11.472  0.5199  0.3523 -0.0958
  608TMC3     H 9013   3.620   3.887  11.748  1.6857  0.8546  0.7296
  608TMC3    H1 9014   3.753   3.755  11.355 -0.7471  0.5286 -0.1042
  608TMC3    H2 9015   4.019   3.932  11.649  0.4813 -0.7714 -1.0809
  608TMC3    C7 9016   3.994   3.846  11.384 -0.2613  0.1191  0.0191
  608TMC3    C8 9017   3.857   3.841  11.822  0.0409  0.0276  0.1308
  608TMC3    O1 9018   3.959   3.856  11.269  0.2523 -0.2842 -0.4724
  608TMC3    O2 9019   3.799   3.732  11.825 -0.1697 -0.2466  0.2830
  609TMC3    C1 9020   2.241   2.475   9.018 -0.2214  0.5537  0.1677
  609TMC3    C2 9021   2.265   2.514   8.889 -0.3853  0.5519 -0.0319
  609TMC3    C3 9022   2.374   2.460   8.823 -0.6431 -0.1027  0.6802
  609TMC3    C4 9023   2.324   2.389   9.083 -0.3994 -0.3091  0.8056
  609TMC3    C5 9024   2.433   2.348   9.017 -0.1020 -0.2790  0.2227
  609TMC3    C6 9025   2.464   2.383   8.889 -0.4437 -0.2292  0.2384
  609TMC3     C 9026   2.131   2.534   9.104 -0.0905 -0.6624  0.5548
  609TMC3     O 9027   2.101   2.463   9.199  0.2384 -0.6667  0.2244
  609TMC3     H 9028   2.186   2.563   8.834 -0.9272 -1.2986 -0.9135
  609TMC3    H1 9029   2.286   2.355   9.179  2.4190  2.2812  2.8535
  609TMC3    H2 9030   2.556   2.358   8.837 -0.9796  0.2116 -0.9255
  609TMC3    C7 9031   2.535   2.286   9.097 -0.2689  0.2038  0.5341
  609TMC3    C8 9032   2.389   2.492   8.685  0.6023  0.1280 -0.1929
  609TMC3    O1 9033   2.527   2.291   9.222 -0.0301  0.3259  0.4551
  609TMC3    O2 9034   2.324   2.587   8.642 -0.5260 -0.4440  0.3266
  610TMC3    C1 9035   4.226   3.598  12.603  0.1115 -1.0278 -0.0147
  610TMC3    C2 9036   4.231   3.638  12.469  0.0790  0.0022  0.1016
  610TMC3    C3 9037   4.295   3.551  12.381 -0.5211  0.3804  0.4605
  610TMC3    C4 9038   4.275   3.479  12.639 -0.1100 -0.3150 -0.4782
  610TMC3    C5 9039   4.339   3.399  12.551  0.4344 -1.0576 -0.4918
  610TMC3    C6 9040   4.355   3.433  12.419  0.8919 -0.7787 -0.5900
  610TMC3     C 9041   4.130   3.667  12.686  0.0322  0.1387  0.2402
  610TMC3     O 9042   4.078   3.590  12.770  1.1492  0.3651  0.6691
  610TMC3     H 9043   4.180   3.722  12.423 -1.7572 -0.6494  0.9207
  610TMC3    H1 9044   4.256   3.433  12.736  1.2439 -0.0627 -0.0923
  610TMC3    H2 9045   4.410   3.370  12.350  0.4995 -0.7370 -0.9392
  610TMC3    C7 9046   4.380   3.270  12.600  0.1944 -0.2217 -0.6209
  610TMC3    C8 9047   4.304   3.592  12.243  0.5393  0.5668 -0.1483
  610TMC3    O1 9048   4.420   3.255  12.713 -0.4870 -0.4920 -0.4998
  610TMC3    O2 9049   4.291   3.708  12.213  0.0899 -0.1246 -0.1534
  611MPD2     C 9050   3.768   3.251  10.048 -0.0033 -0.8150 -0.8018
  611MPD2    C1 9051   3.720   3.358   9.972  0.1471 -0.1957  0.0492
  611MPD2    C2 9052   3.799   3.459   9.919 -0.5056 -0.1343 -0.8478
  611MPD2    C3 9053   3.935   3.445   9.940 -0.1646  0.3142 -0.1559
  611MPD2    C4 9054   3.991   3.335   9.993  0.0858 -0.1718  0.1532
  611MPD2    C5 9055   3.905   3.244  10.052 -0.8121  0.4631  0.0287
  611MPD2     H 9056   3.758   3.541   9.862  0.1290  0.9951  0.3277
  611MPD2    H1 9057   4.097   3.316  10.008  0.0324  0.0987  0.8928
  611MPD2    H2 9058   3.700   3.174  10.083 -0.7783  1.3544  2.5200
  611MPD2    H3 9059   3.944   3.167  10.117 -0.8368  0.3049 -0.1450
  611MPD2     N 9060   4.035   3.534   9.894 -0.1849 -0.5396  0.2097
  611MPD2    H5 9061   4.131   3.508   9.915 -0.3843  0.0176  1.7419
  611MPD2    N1 9062   3.575   3.354   9.963 -0.3326  0.3231 -0.0498
  611MPD2    H7 9063   3.523   3.276  10.002 -1.9867  2.4708  2.0365
  612TMC3    C1 9064   4.131   3.733   9.809 -1.0083  0.2845  0.5530
  612TMC3    C2 9065   4.245   3.713   9.889 -0.2709 -0.1200 -0.4526
  612TMC3    C3 9066   4.358   3.788   9.860 -0.7703 -0.5018 -0.5185
  612TMC3    C4 9067   4.134   3.830   9.707 -0.4749  0.4445 -0.0818
  612TMC3    C5 9068   4.256   3.876   9.665 -0.3183  0.3203 -0.1262
  612TMC3    C6 9069   4.368   3.862   9.741  0.2071  0.2891  0.7524
  612TMC3     C 9070   4.011   3.649   9.822 -0.6281 -0.1044 -0.0046
  612TMC3     O 9071   3.905   3.693   9.777 -0.2005 -0.4651  0.0618
  612TMC3     H 9072   4.236   3.658   9.982 -2.0503 -0.3029 -0.7311
  612TMC3    H1 9073   4.051   3.852   9.640  0.3002  1.0497 -0.8484
  612TMC3    H2 9074   4.447   3.935   9.724 -0.1881  0.8730  1.3919
  612TMC3    C7 9075   4.247   3.981   9.557 -0.4630 -0.3188 -0.6661
  612TMC3    C8 9076   4.439   3.843   9.966  0.0360 -0.2695  0.2674
  612TMC3    O1 9077   4.136   4.021   9.520 -0.0756 -0.2016  0.0910
  612TMC3    O2 9078   4.476   3.961   9.959  0.1005 -0.2334 -0.2135
  613MPD2     C 9079   2.052   0.887  16.319  0.3056 -0.3661 -0.7333
  613MPD2    C1 9080   2.119   0.783  16.267  0.1063 -0.3679 -0.2164
  613MPD2    C2 9081   2.050   0.681  16.202 -1.0168  0.5574 -0.4939
  613MPD2    C3 9082   1.919   0.700  16.165 -0.0969 -0.3323  0.6375
  613MPD2    C4 9083   1.858   0.812  16.201 -0.6227  0.0476  0.0531
  613MPD2    C5 9084   1.916   0.900  16.293  0.4919  0.0630 -1.0531
  613MPD2     H 9085   2.102   0.591  16.172 -0.6696  0.8423 -0.7559
  613MPD2    H1 9086   1.752   0.824  16.180 -1.2362 -0.4093  2.8643
  613MPD2    H2 9087   2.094   0.964  16.383 -0.4346  1.2275 -2.1699
  613MPD2    H3 9088   1.865   0.993  16.318 -0.2224 -0.6273  0.0764
  613MPD2     N 9089   1.853   0.606  16.077 -0.3489  0.1946  0.5714
  613MPD2    H5 9090   1.909   0.523  16.058 -0.8877  0.3278 -1.5650
  613MPD2    N1 9091   2.259   0.764  16.274  0.4824 -0.1678  0.3638
  613MPD2    H7 9092   2.289   0.673  16.239  0.8470  1.1125 -2.6096
  614TMC3    C1 9093   2.479   0.784  16.309  0.7693  0.0236 -0.6240
  614TMC3    C2 9094   2.473   0.646  16.290 -0.3121 -0.0766 -0.2062
  614TMC3    C3 9095   2.527   0.594  16.176 -0.3802  0.0499 -0.7888
  614TMC3    C4 9096   2.563   0.862  16.233 -0.1865 -0.4851 -0.2105
  614TMC3    C5 9097   2.636   0.797  16.137  0.5403 -0.1524  0.7727
  614TMC3    C6 9098   2.625   0.667  16.103 -0.0298 -0.1858  0.3709
  614TMC3     C 9099   2.347   0.849  16.331 -0.3452 -0.8440  0.1323
  614TMC3     O 9100   2.341   0.961  16.374  0.0479 -0.4566 -0.2366
  614TMC3     H 9101   2.397   0.592  16.344  0.1740  0.1065  0.6559
  614TMC3    H1 9102   2.544   0.969  16.237  3.2335  0.1191 -0.3264
  614TMC3    H2 9103   2.688   0.624  16.026 -0.5223  2.4022 -1.5091
  614TMC3    C7 9104   2.719   0.884  16.056  0.5690  0.0175  0.0374
  614TMC3    C8 9105   2.455   0.486  16.116  0.4217  0.4239 -0.2910
  614TMC3    O1 9106   2.759   0.985  16.105 -0.1682 -0.3143  0.1506
  614TMC3    O2 9107   2.361   0.438  16.176 -0.2967 -0.2304  0.0942
  615MPD2     C 9108   1.863   2.548  16.303  0.0712  0.2271  0.2352
  615MPD2    C1 9109   1.801   2.637  16.217  0.5578 -0.1696  0.0452
  615MPD2    C2 9110   1.719   2.582  16.121 -0.6661  0.1415  0.4847
  615MPD2    C3 9111   1.704   2.447  16.105 -0.0700 -0.6456  0.1443
  615MPD2    C4 9112   1.773   2.363  16.192  0.3533 -0.9067 -0.2349
  615MPD2    C5 9113   1.850   2.417  16.293  1.1118  0.3770  0.5696
  615MPD2     H 9114   1.655   2.647  16.063 -0.3546  0.0792  0.0699
  615MPD2    H1 9115   1.787   2.257  16.172  0.4377 -0.5638 -1.9758
  615MPD2    H2 9116   1.927   2.585  16.382  0.2723 -1.2695  0.7885
  615MPD2    H3 9117   1.907   2.357  16.364  1.2911 -2.1340 -1.6797
  615MPD2     N 9118   1.622   2.397  15.999 -0.1815 -0.3043  0.3753
  615MPD2    H5 9119   1.590   2.459  15.926  0.2052  0.5122  0.9087
  615MPD2    N1 9120   1.789   2.775  16.240  0.4695  0.2540  0.1005
  615MPD2    H7 9121   1.719   2.822  16.184 -0.1217  1.4394  1.8369
  616TMC3    C1 9122   1.827   2.983  16.343  0.5777 -0.6609 -0.5056
  616TMC3    C2 9123   1.920   3.076  16.368  0.3242 -0.1848  0.3900
  616TMC3    C3 9124   1.884   3.206  16.395  0.7428 -0.2434 -0.0144
  616TMC3    C4 9125   1.693   3.023  16.328  0.1490 -0.0474  0.7053
  616TMC3    C5 9126   1.656   3.151  16.363 -0.5699 -1.0250  0.0273
  616TMC3    C6 9127   1.752   3.241  16.392  0.2418  0.3649  0.5520
  616TMC3     C 9128   1.862   2.852  16.333  0.0432 -0.2740  0.0382
  616TMC3     O 9129   1.963   2.817  16.396 -0.2053 -0.1316  0.3411
  616TMC3     H 9130   2.021   3.050  16.340  0.4167  0.0686  0.4854
  616TMC3    H1 9131   1.624   2.955  16.280 -0.5817  2.2230 -1.4691
  616TMC3    H2 9132   1.728   3.343  16.420  0.2785  0.9445 -1.4863
  616TMC3    C7 9133   1.519   3.197  16.386  0.1702  0.6753 -0.0197
  616TMC3    C8 9134   1.984   3.316  16.389 -0.0672 -0.6336 -0.2484
  616TMC3    O1 9135   1.493   3.316  16.394 -0.1803 -0.1050  0.0298
  616TMC3    O2 9136   1.936   3.427  16.389 -0.4047 -0.3250 -0.1836
  617MPD2     C 9137   0.269   0.813  13.684 -0.4796 -0.1551  0.2973
  617MPD2    C1 9138   0.234   0.737  13.789 -0.0149  0.2593  0.3887
  617MPD2    C2 9139   0.112   0.672  13.793  0.0422  0.2390  0.5059
  617MPD2    C3 9140   0.023   0.683  13.684 -0.7588 -0.3834 -0.6310
  617MPD2    C4 9141   0.071   0.745  13.566 -0.1164 -0.1881 -0.3817
  617MPD2    C5 9142   0.187   0.808  13.577  0.2889 -0.7127 -0.6209
  617MPD2     H 9143   0.093   0.617  13.885 -1.3313 -1.1331 -0.6072
  617MPD2    H1 9144   0.013   0.757  13.475 -0.2235 -1.5687 -0.5065
  617MPD2    H2 9145   0.357   0.875  13.687  0.2907 -1.2424  0.3338
  617MPD2    H3 9146   0.220   0.874  13.497 -2.6044 -0.0964 -1.2901
  617MPD2     N 9147   4.610   0.644  13.679  0.0496 -0.1825 -0.5473
  617MPD2    H5 9148   4.556   0.655  13.593 -1.0553  0.6695  0.2593
  617MPD2    N1 9149   0.313   0.722  13.902 -0.0554 -0.3663  0.1008
  617MPD2    H7 9150   0.270   0.670  13.978 -0.5480  0.1217  0.1574
  618TMC3    C1 9151   0.494   0.711  14.039 -0.6567  0.5026  0.0052
  618TMC3    C2 9152   0.493   0.573  14.039  0.4142  0.2133 -0.3742
  618TMC3    C3 9153   0.585   0.503  14.117 -0.2721  0.5984  0.1641
  618TMC3    C4 9154   0.602   0.780  14.098  0.0219 -0.2213 -0.7128
  618TMC3    C5 9155   0.689   0.707  14.172 -0.5444 -0.3323  0.8810
  618TMC3    C6 9156   0.680   0.571  14.189 -0.2569 -0.3892  0.3286
  618TMC3     C 9157   0.426   0.788  13.935 -0.6208 -0.3095  0.1538
  618TMC3     O 9158   0.499   0.869  13.875 -0.2756 -0.2484  0.6799
  618TMC3     H 9159   0.422   0.515  13.981 -0.2000 -0.5352  1.1078
  618TMC3    H1 9160   0.609   0.888  14.090 -1.1815 -0.3503 -3.7377
  618TMC3    H2 9161   0.753   0.526  14.255  2.0380 -2.1097 -3.3944
  618TMC3    C7 9162   0.774   0.783  14.251  0.3626 -0.1924 -0.1566
  618TMC3    C8 9163   0.602   0.365  14.086  0.7724 -0.7197 -0.1196
  618TMC3    O1 9164   0.734   0.881  14.311  0.0179  0.2407  0.7315
  618TMC3    O2 9165   0.502   0.306  14.043 -0.0627 -0.2807  0.4824
  619MPD2     C 9166   1.817   2.093  13.766  0.4097  0.3651 -0.9474
  619MPD2    C1 9167   1.765   2.129  13.644 -1.1424 -0.2695 -0.0871
  619MPD2    C2 9168   1.643   2.077  13.607  0.4891  0.0556  0.2498
  619MPD2    C3 9169   1.577   1.985  13.687  0.2916 -0.5791  0.7832
  619MPD2    C4 9170   1.633   1.939  13.801  0.0293 -0.1043 -0.2153
  619MPD2    C5 9171   1.751   1.996  13.842  0.2805  1.0401 -0.2139
  619MPD2     H 9172   1.599   2.115  13.516  0.4467  1.0811  0.6913
  619MPD2    H1 9173   1.577   1.866  13.859  0.3255  1.1310  1.6342
  619MPD2    H2 9174   1.912   2.133  13.801  0.0018  1.3316 -0.9391
  619MPD2    H3 9175   1.780   1.959  13.940 -3.6198  0.3415  0.6789
  619MPD2     N 9176   1.447   1.940  13.648  0.2323  0.8695  0.1427
  619MPD2    H5 9177   1.395   1.885  13.715  0.7246 -1.2385 -1.1864
  619MPD2    N1 9178   1.828   2.216  13.556  0.3320  0.3645  0.5302
  619MPD2    H7 9179   1.770   2.233  13.475 -0.4288 -1.6647  0.6358
  620TMC3    C1 9180   1.954   2.396  13.480  0.1540 -0.5483 -0.4023
  620TMC3    C2 9181   1.860   2.403  13.379  0.2555 -0.6690 -0.1718
  620TMC3    C3 9182   1.805   2.518  13.329 -0.1523 -0.1360 -0.1000
  620TMC3    C4 9183   1.957   2.509  13.562 -0.6480 -0.5875 -0.4156
  620TMC3    C5 9184   1.888   2.623  13.527 -0.0760  0.0482 -0.1336
  620TMC3    C6 9185   1.826   2.636  13.402  0.2018 -0.4466 -0.2708
  620TMC3     C 9186   1.953   2.275  13.561  0.4167 -0.0798  0.5100
  620TMC3     O 9187   2.042   2.251  13.643 -0.1196 -0.4825  0.3445
  620TMC3     H 9188   1.831   2.312  13.327 -1.0816 -0.7030  0.6444
  620TMC3    H1 9189   2.008   2.499  13.657 -2.0706  0.4130  0.4504
  620TMC3    H2 9190   1.795   2.732  13.362  1.3359  0.5924  1.2884
  620TMC3    C7 9191   1.803   2.680  13.631  0.1602 -0.0410 -0.1102
  620TMC3    C8 9192   1.665   2.507  13.312  0.3906 -0.3500 -0.0240
  620TMC3    O1 9193   1.855   2.697  13.738 -0.5536 -0.4147 -0.2929
  620TMC3    O2 9194   1.596   2.601  13.350  0.1506 -0.0346 -0.5239
  621MPD2     C 9195   1.802   2.234  10.053  0.0651 -0.5473 -0.3778
  621MPD2    C1 9196   1.910   2.161  10.021 -0.8492  0.1480  0.5217
  621MPD2    C2 9197   1.982   2.214   9.920 -1.3408 -0.5720 -0.5142
  621MPD2    C3 9198   1.949   2.322   9.838 -0.7132 -0.1137 -0.8612
  621MPD2    C4 9199   1.838   2.400   9.875 -0.0781  0.2653 -0.4570
  621MPD2    C5 9200   1.768   2.353   9.991 -0.0367 -0.3709 -0.2458
  621MPD2     H 9201   2.062   2.146   9.893 -0.4265 -0.0389  0.8734
  621MPD2    H1 9202   1.802   2.490   9.826  0.7646 -1.1821 -3.7426
  621MPD2    H2 9203   1.727   2.204  10.126  0.2710 -0.9660 -0.3408
  621MPD2    H3 9204   1.674   2.400  10.018  1.7473  1.4266  2.8447
  621MPD2     N 9205   2.015   2.332   9.715 -0.4915 -0.1930 -0.1600
  621MPD2    H5 9206   2.086   2.263   9.694  1.2934  1.3278  0.8496
  621MPD2    N1 9207   1.959   2.050  10.093 -0.4007 -0.1032  0.4112
  621MPD2    H7 9208   2.044   2.006  10.058 -0.3349 -0.0867  0.5472
  622TMC3    C1 9209   1.961   1.871  10.244  0.4024  0.0497 -0.4984
  622TMC3    C2 9210   1.901   1.807  10.349 -0.0806  0.2790  0.1646
  622TMC3    C3 9211   1.930   1.675  10.368 -0.4396  0.0514  0.4505
  622TMC3    C4 9212   2.047   1.800  10.165  0.3657  0.6558  0.3388
  622TMC3    C5 9213   2.065   1.666  10.190  0.0257 -1.1298 -0.0823
  622TMC3    C6 9214   2.007   1.596  10.289 -0.2773 -0.1881  0.4981
  622TMC3     C 9215   1.901   1.995  10.204  0.6923  0.4294  1.1437
  622TMC3     O 9216   1.807   2.035  10.268 -0.1528 -0.1410  0.1328
  622TMC3     H 9217   1.843   1.872  10.415 -1.8859  0.8265 -1.9587
  622TMC3    H1 9218   2.112   1.863  10.105  0.9257 -0.0048  0.2543
  622TMC3    H2 9219   2.030   1.491  10.300  1.8730  0.0862 -1.3104
  622TMC3    C7 9220   2.163   1.592  10.111 -0.7729  0.3581  0.7999
  622TMC3    C8 9221   1.836   1.597  10.448 -0.6261  0.2017  0.2245
  622TMC3    O1 9222   2.220   1.490  10.148  0.0625  0.1322 -0.3343
  622TMC3    O2 9223   1.863   1.475  10.461  0.9788 -0.2040 -0.0462
  623MPD2     C 9224   0.539   2.815  15.874 -0.2238 -0.0193  0.5869
  623MPD2    C1 9225   0.453   2.740  15.950 -0.4406 -0.3750 -0.1600
  623MPD2    C2 9226   0.454   2.749  16.087  0.7665  0.3942 -0.5633
  623MPD2    C3 9227   0.534   2.835  16.153 -0.4811  0.3233 -0.0141
  623MPD2    C4 9228   0.625   2.910  16.078  0.1007  0.3255  0.8042
  623MPD2    C5 9229   0.622   2.901  15.935 -0.0139 -0.3412  0.3594
  623MPD2     H 9230   0.384   2.693  16.148 -1.3872  0.8255 -2.6528
  623MPD2    H1 9231   0.700   2.974  16.125  1.4730 -1.9345  1.6787
  623MPD2    H2 9232   0.537   2.812  15.766  4.0647 -0.2592  0.5506
  623MPD2    H3 9233   0.685   2.957  15.867 -0.3859  0.3888  0.6232
  623MPD2     N 9234   0.514   2.846  16.291  0.2368  0.3163 -0.2701
  623MPD2    H5 9235   0.441   2.786  16.328 -0.8022  1.5072 -0.4053
  623MPD2    N1 9236   0.358   2.649  15.895  0.5157  0.4664 -0.0925
  623MPD2    H7 9237   0.283   2.611  15.952  0.5924 -1.2307 -1.1306
  624TMC3    C1 9238   0.698   2.754  16.686  0.1723 -0.7287  0.0490
  624TMC3    C2 9239   0.586   2.702  16.738  0.1214 -0.2011  0.6659
  624TMC3    C3 9240   0.473   2.749  16.678  0.3340  0.5731  0.0039
  624TMC3    C4 9241   0.700   2.838  16.575 -0.2784 -0.4129  0.0916
  624TMC3    C5 9242   0.582   2.865  16.511 -0.1180  0.3361 -0.2463
  624TMC3    C6 9243   0.465   2.833  16.566 -0.7192  0.4930 -0.7316
  624TMC3     C 9244   0.818   2.673  16.719  0.4532 -0.3032  0.0704
  624TMC3     O 9245   0.824   2.614  16.823 -0.2098  0.1867 -0.0425
  624TMC3     H 9246   0.581   2.641  16.827  2.1787  1.6257  2.0051
  624TMC3    H1 9247   0.797   2.867  16.535 -0.3009 -0.8669 -0.2963
  624TMC3    H2 9248   0.372   2.859  16.517 -1.9668 -3.0083 -0.2238
  624TMC3    C7 9249   0.595   2.913  16.375 -0.3477  0.2622  0.0247
  624TMC3    C8 9250   0.342   2.697  16.715  0.6847 -0.8226 -0.2107
  624TMC3    O1 9251   0.698   2.972  16.346  0.6325  0.2915  0.1599
  624TMC3    O2 9252   0.256   2.703  16.628  0.2940  0.2037  0.2440
  625MPD2     C 9253   1.178   4.041   0.904  0.0918 -0.7501 -0.1405
  625MPD2    C1 9254   1.197   4.173   0.938 -0.3225 -0.0148  0.1804
  625MPD2    C2 9255   1.302   4.212   1.017 -0.2996 -0.4847  0.1734
  625MPD2    C3 9256   1.395   4.124   1.063  0.1694  0.2002  0.2658
  625MPD2    C4 9257   1.375   3.993   1.027 -0.5401 -0.0474  0.6124
  625MPD2    C5 9258   1.267   3.954   0.956  0.6748  0.3903 -0.0988
  625MPD2     H 9259   1.305   4.314   1.053 -0.5223 -0.3328 -0.2412
  625MPD2    H1 9260   1.447   3.916   1.053 -0.8763 -0.2667  0.9058
  625MPD2    H2 9261   1.088   4.014   0.849  0.2274 -0.8167 -0.3298
  625MPD2    H3 9262   1.265   3.846   0.941  1.9218  0.4311 -0.5427
  625MPD2     N 9263   1.512   4.163   1.135 -0.1605 -0.4379  0.0864
  625MPD2    H5 9264   1.539   4.260   1.139 -2.2648  0.2017 -1.1298
  625MPD2    N1 9265   1.107   4.277   0.891  0.0226  0.2782  0.2402
  625MPD2    H7 9266   1.110   4.372   0.928  1.7869  0.0885  0.5734
  626TMC3    C1 9267   0.961   4.382   0.738  0.2296  0.1301  0.1075
  626TMC3    C2 9268   0.910   4.379   0.615 -0.4647 -0.3798 -0.6539
  626TMC3    C3 9269   0.788   4.439   0.595  0.2657  0.1979  0.4712
  626TMC3    C4 9270   0.889   4.431   0.841  0.4588  0.0912 -0.1710
  626TMC3    C5 9271   0.768   4.493   0.819  0.3863 -0.2404  0.4476
  626TMC3    C6 9272   0.705   4.481   0.693  0.0437 -0.1862  0.3647
  626TMC3     C 9273   1.036   4.267   0.772  0.5458  0.4144 -0.5650
  626TMC3     O 9274   1.020   4.168   0.698  0.1314 -0.0948  0.1174
  626TMC3     H 9275   0.956   4.318   0.539 -0.6304 -0.8592 -0.3726
  626TMC3    H1 9276   0.920   4.421   0.945 -0.7130  1.9320  0.3588
  626TMC3    H2 9277   0.608   4.526   0.678  0.1789  0.1116  0.3820
  626TMC3    C7 9278   0.681   4.489   0.937  0.9009 -0.5677  0.1607
  626TMC3    C8 9279   0.735   4.416   0.457 -0.2394 -0.0333 -0.0823
  626TMC3    O1 9280   0.726   4.497   1.054 -0.4104 -0.2109  0.1020
  626TMC3    O2 9281   0.821   4.393   0.373  0.0556  0.1908 -0.4617
  627MPD2     C 9282   3.753   4.178  14.385  0.5984  0.7300 -0.2475
  627MPD2    C1 9283   3.834   4.160  14.491  0.5768  0.2182 -0.5347
  627MPD2    C2 9284   3.830   4.042  14.555  0.1856  0.1049 -0.3237
  627MPD2    C3 9285   3.743   3.940  14.521  0.3810 -0.1560 -0.0083
  627MPD2    C4 9286   3.649   3.963  14.421  0.1064 -0.3024  0.2682
  627MPD2    C5 9287   3.653   4.085  14.357 -0.4044  0.4293  0.2849
  627MPD2     H 9288   3.902   4.022  14.633  1.2077 -1.6114 -1.7040
  627MPD2    H1 9289   3.580   3.884  14.392 -0.0174  0.5965 -1.8734
  627MPD2    H2 9290   3.766   4.266  14.323 -1.2067 -0.4092 -2.2488
  627MPD2    H3 9291   3.578   4.091  14.279  1.3924 -1.2719 -1.5334
  627MPD2     N 9292   3.759   3.814  14.581 -0.0755  0.2645  0.0544
  627MPD2    H5 9293   3.838   3.807  14.645 -2.6986 -0.9049  3.1931
  627MPD2    N1 9294   3.936   4.249  14.509 -0.6877  0.3042  0.2513
  627MPD2    H7 9295   4.017   4.212  14.558  0.4821  3.4000  0.6864
  628TMC3    C1 9296   4.093   4.432  14.490  0.4087 -0.6532 -0.0356
  628TMC3    C2 9297   4.179   4.352  14.567  0.2496  0.1987  0.4999
  628TMC3    C3 9298   4.307   4.389  14.577 -0.3405  0.2627 -0.3886
  628TMC3    C4 9299   4.129   4.555  14.444  0.4834 -0.5565  0.0213
  628TMC3    C5 9300   4.253   4.597  14.486  0.5215 -0.1882 -1.2082
  628TMC3    C6 9301   4.343   4.520  14.550 -0.5138 -0.1857  0.2389
  628TMC3     C 9302   3.963   4.375  14.454  0.8628 -0.3340 -0.4430
  628TMC3     O 9303   3.891   4.455  14.394  0.5431  0.1067  0.4502
  628TMC3     H 9304   4.156   4.255  14.609  0.8026 -0.1885 -0.0794
  628TMC3    H1 9305   4.063   4.628  14.398 -0.4290 -0.2268  1.8452
  628TMC3    H2 9306   4.441   4.565  14.560 -0.7020  0.5086 -1.0643
  628TMC3    C7 9307   4.291   0.018  14.483  0.5889  0.0337 -0.6110
  628TMC3    C8 9308   4.388   4.300  14.652  0.0750 -0.4151  0.7517
  628TMC3    O1 9309   4.375   0.055  14.565 -0.0335  0.0747  0.6595
  628TMC3    O2 9310   4.346   4.260  14.763  0.2745 -0.4947 -0.4291
  629MPD2     C 9311   2.455   3.538  16.360  1.1693 -0.0047  0.1923
  629MPD2    C1 9312   2.473   3.401  16.390  0.1828 -0.1510  0.7376
  629MPD2    C2 9313   2.358   3.324  16.438  0.2674 -0.1413 -0.1734
  629MPD2    C3 9314   2.226   3.374  16.415  0.3513  0.2310 -0.0246
  629MPD2    C4 9315   2.211   3.511  16.396 -0.5037 -0.1324 -0.0777
  629MPD2    C5 9316   2.322   3.584  16.360  0.7094  0.3017 -0.3310
  629MPD2     H 9317   2.370   3.217  16.450  1.9355  0.1950  1.1818
  629MPD2    H1 9318   2.114   3.559  16.407  0.6092  1.8927  0.9343
  629MPD2    H2 9319   2.537   3.606  16.342  0.9747  0.9400  2.8042
  629MPD2    H3 9320   2.312   3.690  16.343  0.0581  0.2435 -0.2905
  629MPD2     N 9321   2.112   3.283  16.405 -0.1875  0.1478  0.8136
  629MPD2    H5 9322   2.129   3.184  16.419 -4.5733 -0.7856 -0.4065
  629MPD2    N1 9323   2.604   3.344  16.392  0.1778 -0.1288 -0.1472
  629MPD2    H7 9324   2.675   3.412  16.365 -0.1611 -0.3959 -1.7534
  630TMC3    C1 9325   2.788   3.190  16.446  0.3314 -0.2120 -0.2316
  630TMC3    C2 9326   2.883   3.266  16.371  0.5813  0.0748  0.6331
  630TMC3    C3 9327   3.010   3.228  16.374  0.3857 -0.1204 -0.2236
  630TMC3    C4 9328   2.828   3.069  16.501  0.1275  0.4318 -0.3974
  630TMC3    C5 9329   2.961   3.030  16.500 -0.4248 -1.0558  0.4317
  630TMC3    C6 9330   3.051   3.116  16.440  0.1142  0.2004  0.6109
  630TMC3     C 9331   2.644   3.218  16.424 -0.6586 -0.1708  0.7025
  630TMC3     O 9332   2.572   3.123  16.450 -0.3493 -0.3584  0.3482
  630TMC3     H 9333   2.848   3.361  16.332  0.4617 -0.3077 -0.1993
  630TMC3    H1 9334   2.755   3.011  16.556  1.7250 -1.5437 -0.3428
  630TMC3    H2 9335   3.158   3.097  16.435 -0.0039 -0.2273 -0.3557
  630TMC3    C7 9336   3.011   2.932  16.593  0.0422  0.0493 -0.4738
  630TMC3    C8 9337   3.113   3.336  16.346 -0.7953  0.7451  0.0720
  630TMC3    O1 9338   2.923   2.859  16.639  0.2947 -0.0655  0.1330
  630TMC3    O2 9339   3.222   3.327  16.403  0.0598  0.1928 -0.1842
  631MPD2     C 9340   0.679   2.449  15.830 -1.1631 -0.5180 -0.8475
  631MPD2    C1 9341   0.737   2.468  15.709 -0.3927  0.1974  0.2781
  631MPD2    C2 9342   0.857   2.400  15.686 -0.4992 -0.6688 -0.4259
  631MPD2    C3 9343   0.912   2.314  15.782  0.0686 -0.5981  0.1323
  631MPD2    C4 9344   0.839   2.285  15.896 -0.1562  0.3454  0.5282
  631MPD2    C5 9345   0.727   2.353  15.917  0.2287  0.7920 -0.5339
  631MPD2     H 9346   0.924   2.420  15.603 -2.5279  0.1321 -1.8663
  631MPD2    H1 9347   0.869   2.207  15.965  0.9340  0.6458  0.4005
  631MPD2    H2 9348   0.587   2.499  15.859 -1.8893 -1.7906 -0.9488
  631MPD2    H3 9349   0.655   2.329  15.994  1.8951 -2.4359 -0.0157
  631MPD2     N 9350   1.048   2.272  15.772 -0.2365  0.1616  0.3624
  631MPD2    H5 9351   1.095   2.300  15.686  1.0130 -0.1057  0.9439
  631MPD2    N1 9352   0.679   2.561  15.626  0.1125  0.3996 -0.4334
  631MPD2    H7 9353   0.602   2.622  15.654  1.4214  1.3154  1.1328
  632TMC3    C1 9354   0.684   2.691  15.422 -1.1694 -0.1437 -0.6580
  632TMC3    C2 9355   0.625   2.799  15.484 -0.4523  0.6042  0.1061
  632TMC3    C3 9356   0.591   2.911  15.416  0.6992 -0.5371  0.8426
  632TMC3    C4 9357   0.695   2.694  15.288  0.3099 -0.0611 -0.6228
  632TMC3    C5 9358   0.655   2.804  15.220  0.0655  0.0873 -0.4006
  632TMC3    C6 9359   0.607   2.914  15.278  1.0962 -0.1490 -1.2608
  632TMC3     C 9360   0.723   2.570  15.496 -0.5101  0.4777 -0.2716
  632TMC3     O 9361   0.776   2.485  15.428 -0.2592  0.6542  0.2313
  632TMC3     H 9362   0.616   2.799  15.592 -1.2209 -0.6414  0.0409
  632TMC3    H1 9363   0.733   2.615  15.225  1.7058 -0.2539  0.4659
  632TMC3    H2 9364   0.613   3.010  15.229  0.5225  1.2738  1.5059
  632TMC3    C7 9365   0.736   2.828  15.103 -0.9910 -0.2408 -0.4226
  632TMC3    C8 9366   0.577   3.031  15.491  1.2306  0.3894 -0.2716
  632TMC3    O1 9367   0.676   2.831  14.998  0.1319 -0.2188  0.2488
  632TMC3    O2 9368   0.611   3.032  15.609 -0.4748 -0.4847  0.0603
  633MPD2     C 9369   0.991   0.849  17.308 -0.5759 -0.1696 -0.3865
  633MPD2    C1 9370   0.979   0.735  17.225 -0.2459 -0.8126 -0.1662
  633MPD2    C2 9371   0.986   0.607  17.284 -0.3541 -0.3597  0.4556
  633MPD2    C3 9372   1.027   0.598  17.421  0.1813 -0.6567  0.4306
  633MPD2    C4 9373   1.047   0.718  17.494  0.3525 -0.1636  0.7993
  633MPD2    C5 9374   1.038   0.834  17.435  0.3826  0.0336 -0.1382
  633MPD2     H 9375   0.970   0.518  17.225  1.0096 -0.5972  0.4508
  633MPD2    H1 9376   1.063   0.720  17.601  2.3794 -1.5398  0.5334
  633MPD2    H2 9377   0.958   0.947  17.275 -3.3911 -0.7624  0.6462
  633MPD2    H3 9378   1.049   0.922  17.498  2.5375 -0.9613  0.8998
  633MPD2     N 9379   1.055   0.475  17.485 -0.0714 -0.4470 -0.4021
  633MPD2    H5 9380   1.117   0.485  17.565 -0.6636 -0.4181  0.0527
  633MPD2    N1 9381   0.948   0.742  17.092 -0.2484 -0.1466  0.0077
  633MPD2    H7 9382   0.927   0.658  17.040  1.9389 -0.4281 -0.4166
  634TMC3    C1 9383   0.920   0.837  16.881  0.5005  0.1277 -0.1783
  634TMC3    C2 9384   0.932   0.718  16.826 -0.5786 -0.2471 -0.0107
  634TMC3    C3 9385   0.890   0.706  16.695  0.1855 -0.2553  0.3291
  634TMC3    C4 9386   0.886   0.952  16.812 -0.7782 -0.0505 -0.0624
  634TMC3    C5 9387   0.867   0.939  16.680 -0.4459 -0.1525  0.1391
  634TMC3    C6 9388   0.869   0.818  16.619 -0.4165 -0.3422 -0.4741
  634TMC3     C 9389   0.966   0.854  17.014  0.5114 -0.1951 -0.1392
  634TMC3     O 9390   1.026   0.961  17.038  0.3580 -0.5200 -0.0721
  634TMC3     H 9391   0.976   0.636  16.881 -0.9470 -0.9544 -0.7814
  634TMC3    H1 9392   0.887   1.049  16.861 -1.3459 -1.4150  2.6423
  634TMC3    H2 9393   0.865   0.815  16.511  2.7811 -1.0544 -0.5761
  634TMC3    C7 9394   0.802   1.048  16.613  0.2135  0.5458  0.3842
  634TMC3    C8 9395   0.944   0.596  16.631  0.6638 -0.3311  0.6685
  634TMC3    O1 9396   0.838   1.075  16.500  0.3587 -0.0345  0.3539
  634TMC3    O2 9397   1.033   0.529  16.686 -0.1278  0.2363 -0.0924
  635TMC3    C1 9398   1.687   1.658  17.241  0.3187 -0.4899 -0.3771
  635TMC3    C2 9399   1.783   1.638  17.146 -0.7691  0.8527  0.5176
  635TMC3    C3 9400   1.745   1.663  17.022  0.0852 -0.4612 -0.1518
  635TMC3    C4 9401   1.555   1.683  17.226 -0.0404 -0.0101 -0.5978
  635TMC3    C5 9402   1.521   1.698  17.089 -0.3933 -0.0031 -0.3102
  635TMC3    C6 9403   1.617   1.692  16.992  0.0727 -0.2378 -0.2296
  635TMC3     C 9404   1.734   1.691  17.372 -1.0452 -0.7665 -0.2526
  635TMC3     O 9405   1.661   1.757  17.447  0.2673  0.0201 -0.8036
  635TMC3     H 9406   1.889   1.639  17.172 -0.5697  1.5728 -0.3195
  635TMC3    H1 9407   1.481   1.675  17.304 -1.2497  0.2325 -1.7184
  635TMC3    H2 9408   1.592   1.689  16.886 -2.3182  1.0613  0.2931
  635TMC3    C7 9409   1.385   1.736  17.040 -0.2855  0.7507 -0.4872
  635TMC3    C8 9410   1.847   1.638  16.919  0.4743 -0.0635 -0.4668
  635TMC3    O1 9411   1.354   1.711  16.922 -0.0542 -0.3736  0.0107
  635TMC3    O2 9412   1.936   1.563  16.960 -0.5202  0.3623 -0.1131
  636MPD2     C 9413   2.042   0.903  15.277 -0.8032  0.1331 -0.2693
  636MPD2    C1 9414   2.056   0.927  15.411  0.5251 -0.5568  0.6974
  636MPD2    C2 9415   2.003   0.849  15.504 -0.1028 -0.2830  0.0929
  636MPD2    C3 9416   1.936   0.729  15.469 -0.4196  0.4067  0.0286
  636MPD2    C4 9417   1.923   0.697  15.331 -0.1320 -0.5158 -0.4422
  636MPD2    C5 9418   1.981   0.788  15.242 -0.1605 -0.3637  0.2937
  636MPD2     H 9419   2.022   0.872  15.608  0.8600 -2.0046  0.3071
  636MPD2    H1 9420   1.865   0.613  15.295  1.3835 -1.3827 -0.8854
  636MPD2    H2 9421   2.091   0.966  15.204  0.2729  0.5733  0.8213
  636MPD2    H3 9422   1.976   0.765  15.136 -2.0156  1.9272 -0.1244
  636MPD2     N 9423   1.895   0.646  15.570 -0.5169  0.5783  0.4952
  636MPD2    H5 9424   1.921   0.682  15.661  2.7530 -2.2163  0.6786
  636MPD2    N1 9425   2.127   1.042  15.455  0.2714  0.0250  0.6630
  636MPD2    H7 9426   2.092   1.075  15.545  2.2413  0.8463  1.1283
  637TMC3    C1 9427   1.797   0.478  15.696  0.5764 -0.5847  0.0287
  637TMC3    C2 9428   1.728   0.545  15.786 -0.4840  0.6025  0.6669
  637TMC3    C3 9429   1.732   0.502  15.919 -0.5668 -1.2102 -0.3300
  637TMC3    C4 9430   1.876   0.375  15.736 -0.1456  0.2655  0.0552
  637TMC3    C5 9431   1.884   0.334  15.865 -0.1541 -0.1932 -0.7117
  637TMC3    C6 9432   1.816   0.402  15.962  0.7988  0.3432 -0.0195
  637TMC3     C 9433   1.823   0.533  15.563 -0.4091 -0.5847 -0.1414
  637TMC3     O 9434   1.774   0.479  15.468 -0.6185 -0.1856  0.3306
  637TMC3     H 9435   1.665   0.631  15.765  0.7166  1.4586  0.5074
  637TMC3    H1 9436   1.931   0.320  15.660 -0.1796  0.3702 -0.0442
  637TMC3    H2 9437   1.817   0.367  16.064 -0.1769 -0.0342 -0.1408
  637TMC3    C7 9438   2.018   0.306  15.911  0.1536  0.0449  0.1331
  637TMC3    C8 9439   1.738   0.621  15.999  0.2258 -0.0835  0.0779
  637TMC3    O1 9440   2.031   0.362  16.023  0.3646 -0.2234  0.1418
  637TMC3    O2 9441   1.650   0.706  16.006  0.4907 -0.3073 -0.5500
  638MPD2     C 9442   1.501   0.076  14.916 -0.7301 -0.4356  0.0329
  638MPD2    C1 9443   1.517   4.707  14.815 -0.7193 -0.0988 -0.5955
  638MPD2    C2 9444   1.555   4.578  14.850 -0.4182 -0.0384  0.6418
  638MPD2    C3 9445   1.567   4.536  14.983 -0.0268  0.4298 -0.6854
  638MPD2    C4 9446   1.556   4.636  15.077 -0.3934  0.4183 -0.5646
  638MPD2    C5 9447   1.528   0.041  15.044  0.3067 -0.4086 -0.3008
  638MPD2     H 9448   1.562   4.491  14.785 -2.4836 -0.4710  1.0005
  638MPD2    H1 9449   1.569   4.618  15.183  1.0307  3.0730 -0.2743
  638MPD2    H2 9450   1.475   0.178  14.890 -0.0036 -0.2110  0.1947
  638MPD2    H3 9451   1.517   0.110  15.127  0.2302 -0.3047 -0.3966
  638MPD2     N 9452   1.589   4.399  15.023 -0.1519  0.3262  0.2686
  638MPD2    H5 9453   1.601   4.325  14.954 -0.4531 -0.6913  1.3174
  638MPD2    N1 9454   1.481   0.026  14.681  0.1883  0.4722  0.7262
  638MPD2    H7 9455   1.463   0.124  14.664 -0.1261  0.2197 -0.4561
  639TMC3    C1 9456   1.613   4.204  15.151 -0.3827 -0.7536 -0.2777
  639TMC3    C2 9457   1.528   4.130  15.073  0.6093 -0.1147 -0.3115
  639TMC3    C3 9458   1.524   3.996  15.099 -0.2545 -1.0413  0.1058
  639TMC3    C4 9459   1.699   4.146  15.236  0.0826  0.8519 -0.4342
  639TMC3    C5 9460   1.693   4.017  15.266  0.0409  0.5043  1.0487
  639TMC3    C6 9461   1.603   3.937  15.197  0.2903  0.7105  0.6979
  639TMC3     C 9462   1.608   4.348  15.148  0.0687  0.2379 -0.4976
  639TMC3     O 9463   1.628   4.412  15.251  0.8373 -0.3555  0.0593
  639TMC3     H 9464   1.456   4.175  15.006 -0.9526  0.1361  1.5497
  639TMC3    H1 9465   1.771   4.207  15.290  0.2412  1.0848 -0.9113
  639TMC3    H2 9466   1.592   3.837  15.238 -0.0096  1.2598  1.9800
  639TMC3    C7 9467   1.814   3.934  15.293 -0.7102 -0.6586 -0.0844
  639TMC3    C8 9468   1.480   3.909  14.988 -0.7402  0.1046  0.4475
  639TMC3    O1 9469   1.806   3.829  15.361  0.0999 -0.6948 -0.3176
  639TMC3    O2 9470   1.470   3.962  14.882  0.2568 -0.6095 -0.5963
  640MPD2     C 9471   3.151   3.628   9.701  0.6246  1.4621 -0.0499
  640MPD2    C1 9472   3.084   3.506   9.707  0.3562  0.0980 -0.1182
  640MPD2    C2 9473   2.942   3.502   9.725 -0.5160 -0.1836 -0.0075
  640MPD2    C3 9474   2.868   3.619   9.727 -0.5634 -0.0160  0.1677
  640MPD2    C4 9475   2.941   3.736   9.711 -0.6215 -0.1379 -0.7399
  640MPD2    C5 9476   3.078   3.743   9.702  0.5505 -0.4949 -0.5079
  640MPD2     H 9477   2.893   3.406   9.715  2.3957 -1.5352 -1.3431
  640MPD2    H1 9478   2.892   3.832   9.726 -1.4911 -0.6350 -0.4595
  640MPD2    H2 9479   3.259   3.638   9.697  0.8957 -0.7624  1.5736
  640MPD2    H3 9480   3.114   3.845   9.694 -0.2992 -0.0777  1.0997
  640MPD2     N 9481   2.728   3.628   9.754 -0.0640 -0.3461 -0.1482
  640MPD2    H5 9482   2.683   3.718   9.742  2.6092  1.1956  1.3374
  640MPD2    N1 9483   3.162   3.391   9.680 -0.1210  0.1295  0.4351
  640MPD2    H7 9484   3.250   3.402   9.631 -0.6534 -1.7305 -0.9453
  641TMC3    C1 9485   3.218   3.172   9.625 -0.5005 -0.1066 -0.2714
  641TMC3    C2 9486   3.214   3.043   9.671 -0.2824 -0.5459 -0.2735
  641TMC3    C3 9487   3.305   2.950   9.623 -0.2678 -1.0548  0.8151
  641TMC3    C4 9488   3.288   3.194   9.513  0.5270  0.1593 -0.7557
  641TMC3    C5 9489   3.371   3.094   9.456  1.1453 -0.1723  0.4462
  641TMC3    C6 9490   3.378   2.970   9.511  0.2207 -0.1882 -0.3576
  641TMC3     C 9491   3.118   3.261   9.681 -0.4397  0.3855  0.4861
  641TMC3     O 9492   3.014   3.201   9.705  0.5577  0.0867  0.6600
  641TMC3     H 9493   3.151   3.020   9.756  2.2519  0.6417  1.9417
  641TMC3    H1 9494   3.273   3.288   9.461 -0.2950  0.1856 -0.4653
  641TMC3    H2 9495   3.442   2.891   9.475  1.8965  0.2233  1.7543
  641TMC3    C7 9496   3.477   3.123   9.360 -0.1906 -0.1334  0.1013
  641TMC3    C8 9497   3.300   2.819   9.674  0.2646 -0.2563 -0.2120
  641TMC3    O1 9498   3.555   3.028   9.351  0.2262 -0.2318 -0.1133
  641TMC3    O2 9499   3.341   2.723   9.607 -0.6665 -0.0887  0.4086
  642TMC3    C1 9500   3.746   4.503  12.071 -0.9982 -0.4605  0.3992
  642TMC3    C2 9501   3.802   4.517  12.197  0.6889  0.7585  0.3496
  642TMC3    C3 9502   3.815   4.398  12.268  0.4196  0.2200 -0.0540
  642TMC3    C4 9503   3.716   4.385  12.018  0.2276  0.3929 -0.1707
  642TMC3    C5 9504   3.724   4.273  12.095 -0.0024 -0.3561 -0.7523
  642TMC3    C6 9505   3.770   4.276  12.224 -0.1281  0.3671  0.2693
  642TMC3     C 9506   3.649   4.604  12.039  0.0405 -0.4969  0.6140
  642TMC3     O 9507   3.611   4.613  11.922  0.2450 -0.0470 -0.0093
  642TMC3     H 9508   3.836   4.614  12.231  1.3855 -0.0391  1.9059
  642TMC3    H1 9509   3.657   4.389  11.926 -1.2855  2.7739  0.9194
  642TMC3    H2 9510   3.789   4.180  12.272  1.0644 -0.0996 -1.1059
  642TMC3    C7 9511   3.642   4.163  12.039  0.3261 -0.6107 -0.1889
  642TMC3    C8 9512   3.900   4.391  12.383  0.0799 -0.7530 -0.2926
  642TMC3    O1 9513   3.641   4.149  11.916  0.3431 -0.4890  0.1726
  642TMC3    O2 9514   3.966   4.290  12.406  0.0556  0.3859 -0.2257
  643TMC3    C1 9515   2.650   3.736   0.539 -0.3511 -0.4191 -0.1430
  643TMC3    C2 9516   2.526   3.762   0.480 -1.0785 -0.5355  0.0885
  643TMC3    C3 9517   2.490   3.682   0.380 -0.1344  0.5997  0.4504
  643TMC3    C4 9518   2.744   3.643   0.491  0.3167 -0.9604  0.2777
  643TMC3    C5 9519   2.700   3.556   0.389 -0.2383 -0.4030 -0.5415
  643TMC3    C6 9520   2.568   3.574   0.345  0.7358 -0.3709  0.3499
  643TMC3     C 9521   2.706   3.843   0.613 -0.0503  0.3259 -0.8281
  643TMC3     O 9522   2.691   3.953   0.562 -0.6516  0.4881  0.3677
  643TMC3     H 9523   2.461   3.846   0.505 -1.0772 -0.3997 -0.3609
  643TMC3    H1 9524   2.847   3.638   0.524  0.7795  0.9383 -0.9090
  643TMC3    H2 9525   2.522   3.496   0.285 -0.5877  1.3451 -0.8426
  643TMC3    C7 9526   2.804   3.525   0.293 -0.3538  0.1793  0.2688
  643TMC3    C8 9527   2.448   3.752   0.266  0.3875 -1.0174  0.1201
  643TMC3    O1 9528   2.916   3.570   0.316 -0.2727  0.2282  0.2637
  643TMC3    O2 9529   2.417   3.679   0.173  0.3429 -0.0767  0.0955
  644MPD2     C 9530   3.414   3.861   9.474 -0.1455 -0.5480 -0.8150
  644MPD2    C1 9531   3.415   3.721   9.474  0.0605 -0.7250  0.4049
  644MPD2    C2 9532   3.304   3.659   9.408  0.6746  0.3516  0.1381
  644MPD2    C3 9533   3.190   3.724   9.362 -1.2912 -0.1045  0.3347
  644MPD2    C4 9534   3.190   3.862   9.369 -0.4482 -0.1054 -0.4775
  644MPD2    C5 9535   3.304   3.926   9.420  0.0537 -0.2056  0.1639
  644MPD2     H 9536   3.304   3.551   9.413 -1.8034  0.2591 -1.8415
  644MPD2    H1 9537   3.111   3.924   9.329 -1.4070 -0.5123  0.7575
  644MPD2    H2 9538   3.500   3.914   9.513 -0.1648  0.1277 -1.6874
  644MPD2    H3 9539   3.324   4.032   9.420  1.5606 -0.5062 -2.0529
  644MPD2     N 9540   3.077   3.648   9.344  0.0625 -0.8588 -0.5806
  644MPD2    H5 9541   3.091   3.551   9.322 -1.3396 -1.2127  0.0737
  644MPD2    N1 9542   3.523   3.653   9.536 -0.0138 -0.1421 -0.6603
  644MPD2    H7 9543   3.607   3.703   9.564  1.2988 -1.6984 -1.7679
  645TMC3    C1 9544   2.852   3.591   9.345  0.8559  0.2622 -0.5637
  645TMC3    C2 9545   2.731   3.619   9.400  0.5143  0.6508  0.2893
  645TMC3    C3 9546   2.652   3.510   9.420  0.3274  0.1745  0.0238
  645TMC3    C4 9547   2.898   3.469   9.309 -0.7644 -0.3789 -0.0552
  645TMC3    C5 9548   2.802   3.362   9.321  0.5470 -0.0818  0.4530
  645TMC3    C6 9549   2.680   3.380   9.380  0.4815 -0.5116  0.1099
  645TMC3     C 9550   2.949   3.700   9.344 -0.0135 -0.8941  0.4176
  645TMC3     O 9551   2.905   3.810   9.333 -0.2262 -0.0975  0.2425
  645TMC3     H 9552   2.711   3.715   9.446 -1.7233  1.0056 -1.4383
  645TMC3    H1 9553   2.989   3.458   9.251  0.2677 -0.5678  1.5988
  645TMC3    H2 9554   2.611   3.297   9.386 -0.7490  0.5844  1.0001
  645TMC3    C7 9555   2.863   3.237   9.325  0.4056  0.1826  0.6934
  645TMC3    C8 9556   2.507   3.540   9.446 -0.6617 -0.3327  0.2854
  645TMC3    O1 9557   2.985   3.231   9.313  0.2193  0.5474 -0.2267
  645TMC3    O2 9558   2.435   3.445   9.474 -0.0087 -0.0533  0.0087
  646MPD2     C 9559   2.207   3.481  14.581  0.9948 -0.5101  0.6051
  646MPD2    C1 9560   2.091   3.409  14.622  0.2434  0.2350  0.3631
  646MPD2    C2 9561   1.979   3.420  14.536  0.9226  0.0348 -0.0945
  646MPD2    C3 9562   1.971   3.515  14.434 -0.1145  0.9809 -0.2973
  646MPD2    C4 9563   2.088   3.569  14.393  0.1279 -0.3619 -0.4233
  646MPD2    C5 9564   2.198   3.561  14.473 -1.0677  0.9857  0.1642
  646MPD2     H 9565   1.889   3.373  14.575  0.3293  0.0205 -1.4576
  646MPD2    H1 9566   2.111   3.636  14.310 -0.8414 -0.5505 -0.8407
  646MPD2    H2 9567   2.298   3.479  14.640 -0.0093 -1.1929  2.1363
  646MPD2    H3 9568   2.282   3.620  14.440  0.2566 -1.7338 -1.2883
  646MPD2     N 9569   1.844   3.535  14.379  0.5668  0.0452 -0.0187
  646MPD2    H5 9570   1.771   3.475  14.414  0.9053  0.5087  1.4793
  646MPD2    N1 9571   2.099   3.335  14.741  0.5833  0.1754  0.0629
  646MPD2    H7 9572   2.186   3.339  14.794  0.7511  0.3303 -0.2260
  647TMC3    C1 9573   2.045   3.170  14.901 -0.6008  0.0213  0.0255
  647TMC3    C2 9574   1.951   3.103  14.966  0.3396 -0.3625  0.3359
  647TMC3    C3 9575   1.983   3.057  15.089  0.0952  0.2991 -1.4266
  647TMC3    C4 9576   2.174   3.176  14.953 -0.4164 -0.5812 -0.0200
  647TMC3    C5 9577   2.204   3.112  15.065 -1.4331 -0.4678 -0.3302
  647TMC3    C6 9578   2.108   3.059  15.139  0.9582 -0.3590 -0.2696
  647TMC3     C 9579   1.997   3.261  14.796  0.3062 -0.0824  0.9409
  647TMC3     O 9580   1.886   3.242  14.747 -0.4719  0.0900  0.2611
  647TMC3     H 9581   1.847   3.098  14.936  0.6639  0.6347 -0.9471
  647TMC3    H1 9582   2.251   3.241  14.913  0.0401 -0.6320  0.7823
  647TMC3    H2 9583   2.125   3.027  15.241  1.3699  0.0026 -0.2266
  647TMC3    C7 9584   2.346   3.101  15.105 -0.4862  0.0365 -0.5382
  647TMC3    C8 9585   1.892   2.966  15.141  0.1492 -0.0904  0.3715
  647TMC3    O1 9586   2.356   3.070  15.223  0.4758 -0.4620  0.0480
  647TMC3    O2 9587   1.777   2.959  15.094 -0.0087  0.2899  0.0874
  648TMC3    C1 9588   1.390   0.987  15.914  0.1182 -0.0956 -0.7498
  648TMC3    C2 9589   1.397   0.868  15.849  0.1916 -0.1356  0.0242
  648TMC3    C3 9590   1.380   0.866  15.715  0.1602  0.0791 -0.2573
  648TMC3    C4 9591   1.364   1.100  15.851  0.1815 -0.0109  0.3390
  648TMC3    C5 9592   1.340   1.095  15.717  0.8211 -0.1301 -0.0689
  648TMC3    C6 9593   1.360   0.978  15.644  0.3790  0.1074 -0.5354
  648TMC3     C 9594   1.391   0.997  16.061  0.3237  0.4273  0.6434
  648TMC3     O 9595   1.418   1.106  16.115  0.2396 -0.7572 -1.1060
  648TMC3     H 9596   1.440   0.791  15.912  3.4509  1.5545 -0.1139
  648TMC3    H1 9597   1.356   1.189  15.913  0.2729  1.0395 -1.1452
  648TMC3    H2 9598   1.352   0.972  15.536  0.4764 -1.8841 -0.4320
  648TMC3    C7 9599   1.249   1.197  15.663 -1.0354 -0.6492  0.1086
  648TMC3    C8 9600   1.411   0.743  15.659  0.2372  0.8135  0.5141
  648TMC3    O1 9601   1.234   1.200  15.537 -0.8342 -0.3223  0.0841
  648TMC3    O2 9602   1.451   0.738  15.543 -0.0852  0.0193  0.0039
  649TMC3    C1 9603   0.044   2.025  12.840 -0.3418 -0.9174 -0.4354
  649TMC3    C2 9604   0.151   2.065  12.766  0.1894 -0.3388  0.1712
  649TMC3    C3 9605   0.269   2.062  12.832 -0.2449  0.0876 -0.3557
  649TMC3    C4 9606   0.058   1.963  12.957  0.8543 -0.9092  0.2065
  649TMC3    C5 9607   0.183   1.948  13.007  0.1280 -0.6523  0.0355
  649TMC3    C6 9608   0.294   1.999  12.950  0.6108  0.3131 -0.3274
  649TMC3     C 9609   4.638   2.097  12.814  0.0039 -0.6232  0.2122
  649TMC3     O 9610   4.566   2.122  12.913 -0.0326  0.3362  0.0942
  649TMC3     H 9611   0.134   2.112  12.670 -0.8474  0.6963  0.8633
  649TMC3    H1 9612   4.699   1.907  13.001 -0.1935  1.6505  1.5073
  649TMC3    H2 9613   0.386   2.010  13.006 -0.2687  0.9657  0.9909
  649TMC3    C7 9614   0.195   1.873  13.131  0.3835  0.1208  0.0230
  649TMC3    C8 9615   0.378   2.128  12.764  0.4574  0.1710 -0.1551
  649TMC3    O1 9616   0.097   1.856  13.204  0.0542  0.1933  0.6740
  649TMC3    O2 9617   0.354   2.203  12.670  0.3844  0.7354 -0.4278
  650TMC3    C1 9618   3.176   3.652  12.511 -0.4776  0.0872 -0.3620
  650TMC3    C2 9619   3.170   3.761  12.587  0.3017  0.1625 -0.3746
  650TMC3    C3 9620   3.055   3.842  12.580 -0.1402 -0.2417 -0.2381
  650TMC3    C4 9621   3.086   3.624  12.418  0.0658  0.1893 -0.6430
  650TMC3    C5 9622   2.978   3.708  12.403 -0.1271  0.6566 -0.5432
  650TMC3    C6 9623   2.958   3.818  12.479 -0.4347  0.6438 -0.2884
  650TMC3     C 9624   3.290   3.572  12.547 -0.2166 -0.4099 -0.5318
  650TMC3     O 9625   3.392   3.620  12.601 -0.6072  0.0005  0.4567
  650TMC3     H 9626   3.240   3.790  12.665  0.9792 -0.9510 -0.5675
  650TMC3    H1 9627   3.094   3.534  12.358 -0.2444 -1.3300  1.6259
  650TMC3    H2 9628   2.862   3.868  12.478  0.2058  1.8648  0.1645
  650TMC3    C7 9629   2.883   3.678  12.296  0.0148 -0.4004 -0.0145
  650TMC3    C8 9630   3.036   3.958  12.661 -0.7817  0.3880 -0.5538
  650TMC3    O1 9631   2.894   3.568  12.245  0.0695 -0.5918  0.5443
  650TMC3    O2 9632   3.136   4.025  12.693 -0.4267  0.2538 -0.2087
  651MPD2     C 9633   2.103   0.565  11.337 -0.1813 -0.2041  0.9430
  651MPD2    C1 9634   2.065   0.689  11.292 -1.1234  0.3462  0.1315
  651MPD2    C2 9635   2.160   0.767  11.226  0.2441  0.2204 -0.2550
  651MPD2    C3 9636   2.283   0.713  11.190 -0.0310  0.0522 -0.0847
  651MPD2    C4 9637   2.318   0.588  11.240 -0.1681  0.1308 -0.1002
  651MPD2    C5 9638   2.229   0.517  11.313  0.4039  0.0858  0.4130
  651MPD2     H 9639   2.113   0.856  11.186  0.3580  0.1258 -0.6013
  651MPD2    H1 9640   2.410   0.540  11.209 -1.3976 -2.6425  0.5482
  651MPD2    H2 9641   2.043   0.489  11.386 -2.2822  0.0326 -1.2666
  651MPD2    H3 9642   2.240   0.414  11.345 -0.8774  0.1756  1.1640
  651MPD2     N 9643   2.348   0.787  11.087 -0.0227  0.0073  0.0459
  651MPD2    H5 9644   2.300   0.871  11.054  1.1052  1.7004  2.6985
  651MPD2    N1 9645   1.931   0.743  11.306  0.8483 -0.7571  0.5604
  651MPD2    H7 9646   1.908   0.832  11.264  0.7838 -1.1456 -0.2234
  652TMC3    C1 9647   2.696   0.944  10.825  0.4866 -0.4611 -0.1964
  652TMC3    C2 9648   2.649   0.845  10.906  0.2208  0.2609  0.9037
  652TMC3    C3 9649   2.521   0.841  10.930 -0.1435  0.2101  0.1463
  652TMC3    C4 9650   2.611   1.038  10.768  0.5613  0.7776  0.4650
  652TMC3    C5 9651   2.479   1.031  10.802 -0.2419 -0.1481 -0.1040
  652TMC3    C6 9652   2.438   0.934  10.880  0.1903 -0.1268 -0.2199
  652TMC3     C 9653   2.837   0.951  10.796 -0.1438 -0.1985 -0.7349
  652TMC3     O 9654   2.908   0.875  10.861  0.3068  0.4230 -0.5833
  652TMC3     H 9655   2.718   0.770  10.943  0.1610  0.2738  1.0393
  652TMC3    H1 9656   2.640   1.105  10.689 -0.2211 -0.8400 -1.1894
  652TMC3    H2 9657   2.331   0.919  10.883 -0.0055  1.3007 -0.1462
  652TMC3    C7 9658   2.383   1.134  10.759 -0.3268 -0.2914  0.0073
  652TMC3    C8 9659   2.470   0.751  11.034 -0.4131  0.0239  0.1455
  652TMC3    O1 9660   2.265   1.119  10.790  0.4222  0.3929 -0.4730
  652TMC3    O2 9661   2.550   0.675  11.088 -0.5959  0.6977 -1.0843
  653MPD2     C 9662   0.634   0.925  17.367  0.7288  0.0738 -0.2426
  653MPD2    C1 9663   0.515   0.993  17.334 -0.0306  0.3293  0.3348
  653MPD2    C2 9664   0.429   0.935  17.240  0.3542 -0.0911  0.4698
  653MPD2    C3 9665   0.451   0.808  17.200 -1.1677 -0.6288  0.1409
  653MPD2    C4 9666   0.562   0.735  17.251  1.0221  0.4753 -0.3591
  653MPD2    C5 9667   0.655   0.792  17.329  0.2122 -0.0476  0.4212
  653MPD2     H 9668   0.339   0.990  17.214  0.0947 -1.5513 -1.6507
  653MPD2    H1 9669   0.580   0.630  17.236 -1.4394  0.1424 -1.0616
  653MPD2    H2 9670   0.706   0.976  17.430  1.0216 -0.8196  0.1511
  653MPD2    H3 9671   0.740   0.734  17.362  0.3049 -0.7989 -1.1368
  653MPD2     N 9672   0.361   0.754  17.107  0.3147  0.3301 -0.2762
  653MPD2    H5 9673   0.283   0.818  17.092 -0.1068  0.7518  3.7517
  653MPD2    N1 9674   0.491   1.124  17.369 -0.8963  0.4621  0.1578
  653MPD2    H7 9675   0.418   1.182  17.329 -2.3652 -1.9362 -0.6900
  654TMC3    C1 9676   0.235   0.601  16.964 -0.9634  0.0171  0.1619
  654TMC3    C2 9677   0.114   0.669  16.989  0.1103  0.5516  0.3811
  654TMC3    C3 9678   0.003   0.615  16.933  0.3461  0.6913 -0.7789
  654TMC3    C4 9679   0.233   0.482  16.898  0.0839  0.8447  0.0857
  654TMC3    C5 9680   0.116   0.436  16.847 -0.2518 -0.2172 -0.1950
  654TMC3    C6 9681   4.720   0.497  16.870  0.7992  0.0042 -0.0182
  654TMC3     C 9682   0.353   0.628  17.045  0.1088  0.5984  0.1388
  654TMC3     O 9683   0.444   0.544  17.056  0.0154  0.2983  1.0272
  654TMC3     H 9684   0.107   0.772  17.024  0.3781  0.7013 -0.0035
  654TMC3    H1 9685   0.327   0.436  16.870 -0.0280 -0.8594  2.4951
  654TMC3    H2 9686   4.642   0.437  16.826  1.5453 -1.6030  0.8507
  654TMC3    C7 9687   0.116   0.302  16.787 -0.4188 -0.1274  0.5134
  654TMC3    C8 9688   4.609   0.702  16.929 -0.3460 -0.3424  0.0543
  654TMC3    O1 9689   0.034   0.268  16.701  0.0253 -0.4021  1.1391
  654TMC3    O2 9690   4.618   0.811  16.980  0.3207 -0.4158  0.0030
  655MPD2     C 9691   1.677   1.107  15.731 -0.1241  0.1175  0.3505
  655MPD2    C1 9692   1.646   1.208  15.639  0.0306  0.7131 -0.3147
  655MPD2    C2 9693   1.630   1.187  15.501 -0.6896 -0.1688  0.0122
  655MPD2    C3 9694   1.654   1.054  15.459  0.0401 -0.0172 -0.1854
  655MPD2    C4 9695   1.686   0.956  15.554  0.6397  0.1206 -0.2894
  655MPD2    C5 9696   1.703   0.985  15.685 -0.5457  0.1704  0.1100
  655MPD2     H 9697   1.614   1.263  15.425 -1.5039  0.0676  0.4270
  655MPD2    H1 9698   1.696   0.852  15.525 -0.3662  0.5067 -1.9700
  655MPD2    H2 9699   1.696   1.127  15.836  1.0527 -3.3096  0.8028
  655MPD2    H3 9700   1.755   0.916  15.750 -0.5626 -1.8289 -2.0206
  655MPD2     N 9701   1.636   1.001  15.327  0.2802  0.3185  0.5347
  655MPD2    H5 9702   1.650   0.902  15.305 -2.6724  0.1530 -0.5845
  655MPD2    N1 9703   1.623   1.342  15.689  0.4624 -0.2605 -0.1368
  655MPD2    H7 9704   1.576   1.401  15.621 -2.9929 -2.2521  0.5250
  656TMC3    C1 9705   1.596   1.517  15.834 -0.4728 -0.2093 -0.8432
  656TMC3    C2 9706   1.564   1.536  15.967 -0.0091  0.6203 -0.1630
  656TMC3    C3 9707   1.443   1.599  15.998 -0.1666 -0.5877  0.8922
  656TMC3    C4 9708   1.531   1.581  15.732  0.1865 -0.5256  0.0602
  656TMC3    C5 9709   1.416   1.655  15.767 -0.4520 -0.3720 -0.7049
  656TMC3    C6 9710   1.373   1.662  15.897  0.0407 -0.3435  0.2443
  656TMC3     C 9711   1.652   1.383  15.818  0.1841 -0.3328  0.4417
  656TMC3     O 9712   1.728   1.334  15.901 -0.0523  0.6140  0.0492
  656TMC3     H 9713   1.621   1.484  16.043  2.0087  1.2229 -1.2491
  656TMC3    H1 9714   1.569   1.577  15.631  0.2904 -0.1979  0.0859
  656TMC3    H2 9715   1.283   1.718  15.916  0.3144 -0.8377  3.0464
  656TMC3    C7 9716   1.373   1.750  15.666  0.1173  0.1843 -0.2306
  656TMC3    C8 9717   1.358   1.513  16.073 -0.2105  0.6155 -0.8142
  656TMC3    O1 9718   1.414   1.732  15.549 -0.1627  0.3386  0.2012
  656TMC3    O2 9719   1.386   1.394  16.077  0.7920 -0.2234  0.3817
  657TMC3    C1 9720   0.358   4.510  15.145  0.1645  0.9721 -0.7384
  657TMC3    C2 9721   0.466   4.487  15.228 -0.6590 -0.0495  0.6211
  657TMC3    C3 9722   0.498   4.571  15.334 -0.4082  0.0067 -0.0737
  657TMC3    C4 9723   0.284   4.622  15.171 -0.1774  0.4154  1.1685
  657TMC3    C5 9724   0.313   4.702  15.278  0.1240  0.6731  0.4404
  657TMC3    C6 9725   0.418   4.675  15.364  0.2679  0.1693  0.1804
  657TMC3     C 9726   0.332   4.422  15.029  0.2027 -0.1321 -0.3600
  657TMC3     O 9727   0.289   4.480  14.931  0.2098  0.1042  0.3611
  657TMC3     H 9728   0.544   4.419  15.195 -0.7044  0.0224  0.3671
  657TMC3    H1 9729   0.200   4.637  15.104 -0.4516  4.1495  2.3299
  657TMC3    H2 9730   0.411   0.013  15.454 -0.7121  0.5179 -0.1256
  657TMC3    C7 9731   0.225   0.095  15.296  0.3433  0.0247 -0.6950
  657TMC3    C8 9732   0.621   4.548  15.407  0.2511 -0.0751 -0.1942
  657TMC3    O1 9733   0.210   0.130  15.409  0.3271  0.5308 -0.2710
  657TMC3    O2 9734   0.684   4.443  15.392  0.0145 -0.6033 -0.5430
  658MPD2     C 9735   1.827   0.666  14.555  0.0813 -0.0772  0.1897
  658MPD2    C1 9736   1.821   0.768  14.648 -0.3083  0.0802 -0.3530
  658MPD2    C2 9737   1.893   0.884  14.629  0.5604  0.5764  0.2516
  658MPD2    C3 9738   1.965   0.901  14.515  0.5819  0.8678  0.2968
  658MPD2    C4 9739   1.981   0.795  14.432  0.1290  0.2472  0.1448
  658MPD2    C5 9740   1.909   0.681  14.452 -0.0603  0.2576  0.0077
  658MPD2     H 9741   1.885   0.968  14.697  1.8135  1.1685 -0.3468
  658MPD2    H1 9742   2.034   0.803  14.338  0.0901 -0.3702  0.0736
  658MPD2    H2 9743   1.783   0.568  14.573 -1.5673  0.2963 -1.8606
  658MPD2    H3 9744   1.926   0.594  14.389 -1.0566  0.4802 -0.5549
  658MPD2     N 9745   2.025   1.023  14.491 -0.5519 -0.2414  0.8144
  658MPD2    H5 9746   2.022   1.082  14.573  0.1449  1.3063 -0.2737
  658MPD2    N1 9747   1.742   0.747  14.764 -0.1947 -0.3712  0.1777
  658MPD2    H7 9748   1.664   0.682  14.754 -0.1386 -0.2898 -0.7949
  659TMC3    C1 9749   1.646   0.827  14.965  1.1150  0.0307 -0.0031
  659TMC3    C2 9750   1.663   0.909  15.073  0.2568  0.3787 -0.5830
  659TMC3    C3 9751   1.547   0.965  15.126  0.3886  0.1090  0.1866
  659TMC3    C4 9752   1.519   0.803  14.917 -0.1295 -0.4187 -0.7631
  659TMC3    C5 9753   1.406   0.860  14.971  0.0144 -0.5081  0.1469
  659TMC3    C6 9754   1.423   0.934  15.084  0.0172 -0.2420  0.1069
  659TMC3     C 9755   1.759   0.816  14.878 -0.3872 -0.4484  0.3915
  659TMC3     O 9756   1.862   0.873  14.908 -0.0295  0.6435 -0.0574
  659TMC3     H 9757   1.763   0.929  15.109  0.4147 -2.2777  0.4432
  659TMC3    H1 9758   1.500   0.747  14.826  2.5944  0.7515 -2.0443
  659TMC3    H2 9759   1.334   0.978  15.130 -0.1029  1.2677 -1.5819
  659TMC3    C7 9760   1.279   0.799  14.943  0.5367 -0.0699 -0.5958
  659TMC3    C8 9761   1.560   1.057  15.231  0.2402  0.1716 -0.3455
  659TMC3    O1 9762   1.280   0.693  14.884 -0.1548  0.1214 -0.5042
  659TMC3    O2 9763   1.493   1.159  15.232  0.1219 -0.5364 -0.0778
  660MPD2     C 9764   0.085   4.266  12.696  0.2793 -0.7007  0.3978
  660MPD2    C1 9765   4.695   4.256  12.614 -0.6706  0.3816  0.3602
  660MPD2    C2 9766   4.580   4.211  12.667 -0.9716  0.3546 -0.0862
  660MPD2    C3 9767   4.564   4.188  12.802  0.5367  1.2088  0.6519
  660MPD2    C4 9768   4.669   4.206  12.881  0.1012 -0.1708 -0.5454
  660MPD2    C5 9769   0.066   4.233  12.828  0.1123 -0.3870 -0.7105
  660MPD2     H 9770   4.498   4.190  12.599 -0.3389 -1.2533 -0.3521
  660MPD2    H1 9771   4.663   4.177  12.985 -1.5454 -2.0120 -1.1665
  660MPD2    H2 9772   0.183   4.298  12.662  0.7584 -0.1131  2.3118
  660MPD2    H3 9773   0.140   4.246  12.906  0.3530  2.4007 -1.4121
  660MPD2     N 9774   4.450   4.134  12.870  0.8570 -0.3505  0.4525
  660MPD2    H5 9775   4.448   4.124  12.971 -3.9509 -0.9996  0.3202
  660MPD2    N1 9776   4.715   4.278  12.481  0.3943  0.0402  0.5714
  660MPD2    H7 9777   0.085   4.261  12.444  0.1512 -0.6742  0.3021
  661TMC3    C1 9778   4.670   4.305  12.256 -0.0268 -0.4530  0.0727
  661TMC3    C2 9779   0.069   4.253  12.231  0.5656  0.6041 -0.3656
  661TMC3    C3 9780   0.120   4.275  12.110 -0.1036 -0.2509 -0.5730
  661TMC3    C4 9781   4.596   4.357  12.155  0.3297 -0.0450  0.2288
  661TMC3    C5 9782   4.647   4.361  12.028 -0.0796  0.5200  0.5807
  661TMC3    C6 9783   0.050   4.318  12.006  0.0309  0.0657  0.3036
  661TMC3     C 9784   4.615   4.305  12.394 -0.2608  0.0080  0.3057
  661TMC3     O 9785   4.496   4.334  12.400  0.3594  0.2129 -0.2568
  661TMC3     H 9786   0.121   4.185  12.298  1.3641 -0.3578 -1.9817
  661TMC3    H1 9787   4.500   4.401  12.179  0.3623 -0.3945  0.9898
  661TMC3    H2 9788   0.080   4.286  11.907 -0.2136  0.1454  0.2022
  661TMC3    C7 9789   4.558   4.377  11.913  0.1654  0.1324 -0.5797
  661TMC3    C8 9790   0.269   4.267  12.102 -0.1689 -0.2477 -0.7257
  661TMC3    O1 9791   4.583   4.308  11.817  0.2567  0.4817  0.1399
  661TMC3    O2 9792   0.328   4.251  12.210  0.0350  0.2219 -0.1236
  662MPD2     C 9793   0.082   4.482  17.100  0.5296 -0.7234 -0.3997
  662MPD2    C1 9794   0.099   4.452  17.238 -0.7933 -0.3045  0.3105
  662MPD2    C2 9795   0.063   4.545  17.333 -0.0950  0.0974 -0.0040
  662MPD2    C3 9796   0.023   4.673  17.295 -0.3171 -0.2238  0.2734
  662MPD2    C4 9797   0.014   4.700  17.155  0.1176 -1.2321  0.0309
  662MPD2    C5 9798   0.035   4.601  17.062 -0.8393 -0.1009  0.1184
  662MPD2     H 9799   0.081   4.515  17.435 -1.9775 -3.0917 -0.5857
  662MPD2    H1 9800   4.715   0.079  17.126 -0.5478 -0.9218  1.6114
  662MPD2    H2 9801   0.091   4.410  17.019  0.2962  0.1528 -1.2062
  662MPD2    H3 9802   0.023   4.621  16.956  0.5903 -2.2973 -0.4657
  662MPD2     N 9803   4.710   0.053  17.387 -0.8223 -0.2631 -0.7994
  662MPD2    H5 9804   4.679   0.142  17.348 -0.7793  0.9966  2.0106
  662MPD2    N1 9805   0.142   4.324  17.281  0.5896 -0.0699 -1.0407
  662MPD2    H7 9806   0.142   4.318  17.382 -0.5527  0.0695 -1.0380
  663TMC3    C1 9807   0.176   4.101  17.278 -0.0490 -0.2690  0.8575
  663TMC3    C2 9808   0.213   4.117  17.410  0.5095 -0.0707 -0.4377
  663TMC3    C3 9809   0.200   4.007  17.489 -0.1391  0.1486  1.3075
  663TMC3    C4 9810   0.119   3.995  17.224 -0.8367  0.3587 -0.6653
  663TMC3    C5 9811   0.103   3.887  17.306  0.6508 -0.1460 -0.5459
  663TMC3    C6 9812   0.133   3.895  17.441  0.2455 -0.0084  0.4608
  663TMC3     C 9813   0.155   4.215  17.196 -0.2183  1.0347 -0.1371
  663TMC3     O 9814   0.128   4.201  17.081  0.3801 -0.1418  0.0075
  663TMC3     H 9815   0.274   4.200  17.442 -0.9701 -0.0430  2.3451
  663TMC3    H1 9816   0.086   3.987  17.121 -0.9705  0.5711 -0.6373
  663TMC3    H2 9817   0.140   3.810  17.507 -1.4840 -0.6021 -0.1175
  663TMC3    C7 9818   0.047   3.776  17.239  0.2629 -0.0531 -0.4426
  663TMC3    C8 9819   0.184   4.060  17.630 -0.3954  0.0653 -0.1500
  663TMC3    O1 9820   0.012   3.779  17.120 -0.0932  0.0756  0.7626
  663TMC3    O2 9821   0.263   4.154  17.658  0.5463 -0.7740  0.0149
  664MPD2     C 9822   2.283   2.696  17.280 -0.5822  0.0992 -0.5672
  664MPD2    C1 9823   2.405   2.701  17.345  0.4252  0.8865  0.3779
  664MPD2    C2 9824   2.418   2.617  17.459 -0.4144 -0.7907  0.2946
  664MPD2    C3 9825   2.321   2.523  17.499 -0.3310  0.2533 -0.6215
  664MPD2    C4 9826   2.208   2.523  17.431  0.3265 -0.6403 -0.1644
  664MPD2    C5 9827   2.184   2.606  17.321 -0.4926  0.0569 -0.4826
  664MPD2     H 9828   2.509   2.620  17.518  1.3356 -1.3554 -2.3775
  664MPD2    H1 9829   2.130   2.448  17.443  1.0285 -0.9440  2.3860
  664MPD2    H2 9830   2.266   2.751  17.189 -1.5252  2.2933  0.9288
  664MPD2    H3 9831   2.093   2.590  17.264 -0.1531 -0.3179 -0.9138
  664MPD2     N 9832   2.340   2.453  17.620 -0.0016 -0.5257 -0.4109
  664MPD2    H5 9833   2.425   2.477  17.670  0.5175 -0.1434 -1.4822
  664MPD2    N1 9834   2.507   2.777  17.305 -0.6949  0.0140  0.0274
  664MPD2    H7 9835   2.598   2.747  17.338 -0.5573  0.0079 -0.3563
  665TMC3    C1 9836   2.304   2.337   0.117 -0.4037  0.0160  0.7624
  665TMC3    C2 9837   2.208   2.335   0.207  0.6360  0.2413  0.0946
  665TMC3    C3 9838   2.238   2.340   0.336 -0.9649 -0.0965  0.0555
  665TMC3    C4 9839   2.437   2.362   0.146  0.5242  0.3253  0.6577
  665TMC3    C5 9840   2.472   2.371   0.281  0.9323  0.2695 -0.3521
  665TMC3    C6 9841   2.370   2.353   0.377 -0.2886 -0.3594  0.6035
  665TMC3     C 9842   2.253   2.370  17.680  0.0503 -0.5469  0.4167
  665TMC3     O 9843   2.144   2.332  17.638 -0.5619  0.1122  0.2836
  665TMC3     H 9844   2.104   2.328   0.176  0.4981  1.2711  0.3352
  665TMC3    H1 9845   2.517   2.355   0.074 -0.8989  1.0556 -1.0008
  665TMC3    H2 9846   2.391   2.379   0.480 -0.0968 -0.2525  0.5363
  665TMC3    C7 9847   2.558   2.479   0.303 -0.3335 -0.5621 -0.5699
  665TMC3    C8 9848   2.139   2.381   0.432  0.5584 -0.7530  0.4828
  665TMC3    O1 9849   2.568   2.544   0.203 -0.3370  0.4687  0.2939
  665TMC3    O2 9850   2.178   2.373   0.550  0.7669  0.5012 -0.0049
  666TMC3    C1 9851   2.108   2.430   9.530 -0.4997  0.5322  0.0813
  666TMC3    C2 9852   2.216   2.341   9.548  0.7278  0.7642  0.2142
  666TMC3    C3 9853   2.346   2.382   9.534 -0.3447 -0.3955 -1.2325
  666TMC3    C4 9854   2.131   2.557   9.480 -0.0743 -0.3813  0.0479
  666TMC3    C5 9855   2.261   2.599   9.474  0.5591 -0.6326  0.3759
  666TMC3    C6 9856   2.370   2.507   9.484  0.0065 -0.0820  0.5718
  666TMC3     C 9857   1.997   2.428   9.619  0.1440  0.3996 -0.4054
  666TMC3     O 9858   1.913   2.512   9.608  0.3682 -0.0912  0.3556
  666TMC3     H 9859   2.194   2.239   9.579 -0.3145  0.9051 -0.0410
  666TMC3    H1 9860   2.056   2.634   9.465  1.6779  1.0280 -1.3981
  666TMC3    H2 9861   2.470   2.549   9.475 -0.0338 -0.0535  0.2636
  666TMC3    C7 9862   2.272   2.708   9.569  0.0928  0.2106  0.2609
  666TMC3    C8 9863   2.435   2.325   9.640 -0.7729 -0.0115  0.3275
  666TMC3    O1 9864   2.169   2.738   9.621 -0.1551  0.5037  0.2579
  666TMC3    O2 9865   2.383   2.245   9.716  0.1768 -0.2958  0.4053
  667MPD2     C 9866   3.395   2.619  14.691 -0.1980 -0.7567 -0.3177
  667MPD2    C1 9867   3.407   2.622  14.826 -0.1783  0.1704  0.3443
  667MPD2    C2 9868   3.306   2.572  14.906  0.0696 -0.6162 -0.4014
  667MPD2    C3 9869   3.196   2.501  14.855  0.0335 -0.0436 -0.1568
  667MPD2    C4 9870   3.183   2.492  14.718 -0.8824 -0.3350 -0.3589
  667MPD2    C5 9871   3.288   2.548  14.645 -0.0852 -0.4119 -0.1860
  667MPD2     H 9872   3.323   2.582  15.012 -0.6639 -0.8160 -0.2693
  667MPD2    H1 9873   3.094   2.449  14.673 -0.0785 -0.9012 -1.4195
  667MPD2    H2 9874   3.466   2.669  14.626 -1.1958  0.2480 -0.6378
  667MPD2    H3 9875   3.285   2.523  14.540 -2.1743 -0.2577 -0.1734
  667MPD2     N 9876   3.100   2.440  14.935  0.1614  0.0169  0.5815
  667MPD2    H5 9877   3.023   2.392  14.889 -0.1987 -0.8313  2.1007
  667MPD2    N1 9878   3.513   2.682  14.889 -0.6864 -0.3472 -0.3663
  667MPD2    H7 9879   3.510   2.676  14.990 -0.6143 -1.1353 -0.4106
  668TMC3    C1 9880   3.722   2.762  14.926  0.4159  0.4301  0.0990
  668TMC3    C2 9881   3.803   2.869  14.901  0.6128  0.4592 -1.3282
  668TMC3    C3 9882   3.909   2.884  14.990  0.4818 -0.4082  0.2422
  668TMC3    C4 9883   3.741   2.675  15.034  0.5577  0.0448 -0.5472
  668TMC3    C5 9884   3.844   2.702  15.123  0.0257  0.9774 -0.0113
  668TMC3    C6 9885   3.925   2.807  15.105  0.2181 -0.3001 -0.1651
  668TMC3     C 9886   3.622   2.732  14.825 -0.4938 -0.3301  0.4542
  668TMC3     O 9887   3.657   2.755  14.712 -0.0999  0.5265 -0.9529
  668TMC3     H 9888   3.797   2.927  14.810 -1.1080  1.7871 -0.3893
  668TMC3    H1 9889   3.672   2.593  15.049 -1.3138  1.2175 -2.6894
  668TMC3    H2 9890   4.013   2.822  15.166  1.7251 -1.3114 -2.0904
  668TMC3    C7 9891   3.874   2.608  15.228  0.2538  0.4107 -0.4917
  668TMC3    C8 9892   4.008   2.987  14.984  0.0612  0.0719 -0.1791
  668TMC3    O1 9893   3.952   2.640  15.313  0.0432 -1.0496 -0.7715
  668TMC3    O2 9894   4.103   2.987  15.057  0.5379 -0.3518 -0.7504
  669TMC3    C1 9895   1.880   2.917  14.470 -0.8046 -0.7163  0.6844
  669TMC3    C2 9896   1.775   2.868  14.403 -0.1675  0.0553  0.7349
  669TMC3    C3 9897   1.786   2.856  14.269  0.7044 -0.1274 -0.1456
  669TMC3    C4 9898   1.993   2.961  14.408  0.9221 -0.1393 -0.1814
  669TMC3    C5 9899   1.999   2.953  14.274  0.0832 -0.6106 -0.0267
  669TMC3    C6 9900   1.900   2.891  14.204  0.2583 -0.6578  0.7687
  669TMC3     C 9901   1.882   2.886  14.613  0.3579 -1.2257  0.1357
  669TMC3     O 9902   1.775   2.887  14.671  0.3290 -0.1541 -0.0326
  669TMC3     H 9903   1.688   2.828  14.453 -1.1112 -0.7044 -1.5463
  669TMC3    H1 9904   2.072   3.008  14.465  0.7458  0.9979 -0.8743
  669TMC3    H2 9905   1.909   2.899  14.096  0.0110  1.9618  0.9410
  669TMC3    C7 9906   2.103   3.023  14.207  0.0650  0.3860 -0.3216
  669TMC3    C8 9907   1.669   2.832  14.189  0.1315  0.0977 -0.4611
  669TMC3    O1 9908   2.128   3.124  14.268 -0.3583  0.0775  0.5604
  669TMC3    O2 9909   1.686   2.796  14.075 -0.0724 -0.1327 -0.7284
  670MPD2     C 9910   0.270   0.436  13.404 -0.6772  0.1552  0.7638
  670MPD2    C1 9911   0.329   0.394  13.524  0.4522  0.4256 -0.2626
  670MPD2    C2 9912   0.250   0.344  13.626  0.1751 -0.5788 -0.4156
  670MPD2    C3 9913   0.111   0.333  13.610 -0.4301  1.2146 -0.0716
  670MPD2    C4 9914   0.058   0.377  13.492  0.3270  0.1950 -0.3564
  670MPD2    C5 9915   0.134   0.427  13.390 -0.3738  0.1529 -0.0581
  670MPD2     H 9916   0.298   0.312  13.718 -0.1199  1.0773  0.3337
  670MPD2    H1 9917   4.675   0.365  13.471 -0.0120 -1.4996  2.2695
  670MPD2    H2 9918   0.327   0.446  13.312  0.4620 -0.5205  1.3892
  670MPD2    H3 9919   0.086   0.447  13.295 -2.2244  3.7741  1.6531
  670MPD2     N 9920   0.034   0.275  13.712  0.1105 -0.1164 -0.3934
  670MPD2    H5 9921   0.080   0.257  13.801  0.2928  1.1699 -0.2286
  670MPD2    N1 9922   0.470   0.387  13.540  0.4510  0.8688 -0.1481
  670MPD2    H7 9923   0.505   0.337  13.620 -1.0909  3.8401  2.3903
  671TMC3    C1 9924   4.590   0.179  13.832  0.0463  0.1634  0.0340
  671TMC3    C2 9925   4.676   0.104  13.898 -0.1513  0.6561  0.1455
  671TMC3    C3 9926   4.637   0.017  13.997 -0.1689 -0.1215  0.3104
  671TMC3    C4 9927   4.452   0.166  13.858 -0.2706  0.5093 -0.6164
  671TMC3    C5 9928   4.413   0.083  13.964  0.1690 -0.3066  0.0679
  671TMC3    C6 9929   4.509   0.016  14.033  0.8429 -0.3654 -0.2281
  671TMC3     C 9930   4.621   0.240  13.708  0.2669 -0.0334  0.6052
  671TMC3     O 9931   4.544   0.225  13.614 -0.0501  0.4286  0.4785
  671TMC3     H 9932   0.045   0.074  13.849  0.1876  0.3635  0.9589
  671TMC3    H1 9933   4.378   0.218  13.798 -0.9494  0.8082  0.4838
  671TMC3    H2 9934   4.485   4.684  14.123 -0.7342 -0.2003 -0.5459
  671TMC3    C7 9935   4.325   4.705  13.915  0.4727 -0.5788  0.2558
  671TMC3    C8 9936   0.003   4.631  14.036 -0.8718 -0.3412  0.1153
  671TMC3    O1 9937   4.369   4.590  13.894 -0.3981  0.1064  0.1185
  671TMC3    O2 9938   0.075   4.596  13.940  0.0429  0.5726  0.3406
  672MPD2     C 9939   1.503   0.725   0.426 -0.5619 -0.3267 -0.7212
  672MPD2    C1 9940   1.426   0.665   0.523 -0.1921  0.0696  0.5412
  672MPD2    C2 9941   1.422   0.716   0.652 -0.8254 -0.2673 -0.3107
  672MPD2    C3 9942   1.496   0.828   0.672 -0.6241 -0.1839 -0.9330
  672MPD2    C4 9943   1.577   0.887   0.578  0.1669 -0.1145 -0.2874
  672MPD2    C5 9944   1.583   0.838   0.454 -0.6431 -0.0302  0.5283
  672MPD2     H 9945   1.368   0.658   0.725  0.5123 -0.6162  0.4135
  672MPD2    H1 9946   1.642   0.970   0.604 -0.9362  0.7426 -0.3015
  672MPD2    H2 9947   1.506   0.686   0.325 -2.9154  2.2993 -1.7900
  672MPD2    H3 9948   1.648   0.887   0.382 -3.5708  1.2098 -1.2313
  672MPD2     N 9949   1.501   0.892   0.802  0.4919 -0.1349 -0.2044
  672MPD2    H5 9950   1.543   0.984   0.816  1.3737 -0.9959  2.6973
  672MPD2    N1 9951   1.337   0.559   0.495 -0.2277  0.3640  0.0986
  672MPD2    H7 9952   1.307   0.504   0.575  0.7162 -0.9820 -0.4850
  673TMC3    C1 9953   1.166   0.454   0.378  0.0693  0.0811  0.0586
  673TMC3    C2 9954   1.180   0.330   0.444  0.0036  0.3261  0.6688
  673TMC3    C3 9955   1.117   0.223   0.397 -0.0997 -0.2849 -0.0704
  673TMC3    C4 9956   1.078   0.459   0.271 -0.1135 -0.1832 -0.4857
  673TMC3    C5 9957   1.001   0.348   0.243 -0.1265  0.3642  0.1002
  673TMC3    C6 9958   1.023   0.232   0.304 -0.8900  0.1242 -0.0873
  673TMC3     C 9959   1.279   0.547   0.375  0.1028  0.1736  0.2180
  673TMC3     O 9960   1.290   0.621   0.276 -0.1510  0.2395  0.2446
  673TMC3     H 9961   1.265   0.317   0.510  1.0962 -1.0533 -1.0000
  673TMC3    H1 9962   1.077   0.547   0.208 -0.3007 -0.6783 -1.1705
  673TMC3    H2 9963   0.990   0.136   0.266 -2.9584  0.3652  1.0594
  673TMC3    C7 9964   0.896   0.359   0.148 -0.5361  0.3818  1.1535
  673TMC3    C8 9965   1.140   0.091   0.458 -0.4363  0.3904 -0.4468
  673TMC3    O1 9966   0.858   0.262   0.087 -0.2795 -0.3122 -0.4430
  673TMC3    O2 9967   1.080   4.720   0.404 -0.3369 -0.1481 -0.3104
  674MPD2     C 9968   0.196   0.718   0.134 -0.5168  0.6897  0.1327
  674MPD2    C1 9969   0.268   0.659   0.234  0.7681 -0.3084 -0.4578
  674MPD2    C2 9970   0.251   0.704   0.357  0.2106  0.5518 -0.1683
  674MPD2    C3 9971   0.157   0.802   0.385  0.6524  0.4804 -0.0024
  674MPD2    C4 9972   0.094   0.875   0.282 -0.6853  0.4395  0.0824
  674MPD2    C5 9973   0.116   0.830   0.154 -0.0793 -0.3358 -0.1427
  674MPD2     H 9974   0.286   0.654   0.446 -0.4325 -2.4073 -1.5720
  674MPD2    H1 9975   0.017   0.950   0.301 -1.3015 -0.4671  1.1710
  674MPD2    H2 9976   0.215   0.690   0.031 -0.7552 -0.5632  0.4337
  674MPD2    H3 9977   0.059   0.872   0.072  1.6022  0.6628 -0.8018
  674MPD2     N 9978   0.129   0.821   0.522  0.7116 -0.0432  0.2152
  674MPD2    H5 9979   0.163   0.746   0.582 -1.9147 -1.1321  0.3248
  674MPD2    N1 9980   0.343   0.546   0.197 -0.1706 -0.4419  0.3937
  674MPD2    H7 9981   0.323   0.512   0.103 -2.0588 -1.2067  1.0667
  675TMC3    C1 9982   0.464   0.347   0.238  0.4678 -1.0292 -0.6594
  675TMC3    C2 9983   0.369   0.264   0.188  0.5682 -0.1299 -0.6166
  675TMC3    C3 9984   0.373   0.136   0.231  0.2527  0.2966 -0.3133
  675TMC3    C4 9985   0.572   0.301   0.310  0.1389  0.7009  0.2633
  675TMC3    C5 9986   0.579   0.165   0.349  0.2082  0.2515 -0.4617
  675TMC3    C6 9987   0.466   0.089   0.313 -0.4059 -0.4516 -0.0282
  675TMC3     C 9988   0.426   0.482   0.287  0.1518 -0.8237 -0.2741
  675TMC3     O 9989   0.471   0.518   0.394 -0.2132  0.0160  0.0944
  675TMC3     H 9990   0.283   0.310   0.140 -0.3649  0.8789  1.9532
  675TMC3    H1 9991   0.654   0.372   0.317 -0.8158  2.0205 -1.8077
  675TMC3    H2 9992   0.458   4.709   0.346 -0.9393  0.0889  1.5343
  675TMC3    C7 9993   0.661   0.122   0.459 -0.4398 -0.3326  0.2442
  675TMC3    C8 9994   0.254   0.057   0.208 -0.3039  0.2702 -0.0824
  675TMC3    O1 9995   0.629   0.017   0.509 -0.3387 -0.0223  0.0608
  675TMC3    O2 9996   0.213   0.080   0.096  0.3336 -0.2583 -0.0080
  676MPD2     C 9997   2.824   3.728  10.833  0.5353  0.0894 -0.0560
  676MPD2    C1 9998   2.726   3.672  10.916 -0.0954  0.1348 -0.0854
  676MPD2    C2 9999   2.692   3.542  10.885 -1.0574 -0.1022 -0.7137
  676MPD2    C310000   2.744   3.474  10.778 -0.6445 -0.0028  0.0947
  676MPD2    C410001   2.835   3.536  10.697 -0.2862  0.0683 -0.5590
  676MPD2    C510002   2.885   3.659  10.728 -0.5034  0.1497  0.1254
  676MPD2     H10003   2.619   3.500  10.952 -0.8975  1.0737  0.1904
  676MPD2    H110004   2.873   3.483  10.610 -1.2585  0.3592 -1.1653
  676MPD2    H210005   2.854   3.832  10.841  0.3504 -0.0871  2.9558
  676MPD2    H310006   2.956   3.717  10.669 -0.3829 -0.0389  0.0865
  676MPD2     N10007   2.714   3.334  10.757 -0.0247 -0.3611 -0.1679
  676MPD2    H510008   2.747   3.292  10.671  0.0988  1.5363 -1.0314
  676MPD2    N110009   2.662   3.738  11.026 -0.1871 -0.5869 -0.4138
  676MPD2    H710010   2.583   3.694  11.073  0.1851  0.8650  1.5893
  677TMC3    C110011   2.603   3.930  11.161 -0.1193  0.3677  0.3359
  677TMC3    C210012   2.488   3.864  11.178  0.7746 -0.1461 -0.1008
  677TMC3    C310013   2.434   3.852  11.306  0.2228 -0.5918 -0.6171
  677TMC3    C410014   2.664   4.000  11.264  0.1511 -0.6047  0.2997
  677TMC3    C510015   2.600   4.003  11.385 -0.1954 -0.2037  0.4338
  677TMC3    C610016   2.486   3.923  11.409  0.1225  0.1407  0.1771
  677TMC3     C10017   2.692   3.868  11.067 -0.2338  0.2820  0.1139
  677TMC3     O10018   2.796   3.930  11.040  0.2354 -0.4673 -0.5310
  677TMC3     H10019   2.441   3.821  11.090  1.0796  0.3500 -0.5047
  677TMC3    H110020   2.767   4.032  11.254 -0.7070  2.0938  0.0841
  677TMC3    H210021   2.431   3.918  11.502  2.9961 -2.2477  1.7269
  677TMC3    C710022   2.662   4.044  11.512  0.1668 -0.2883  0.8927
  677TMC3    C810023   2.318   3.770  11.318  0.9655 -0.3718  0.0229
  677TMC3    O110024   2.606   4.030  11.619  0.1372 -0.2036  0.0338
  677TMC3    O210025   2.228   3.791  11.242  0.3132 -0.6077 -0.1420
  678MPD2     C10026   3.722   2.807   1.359  0.4037  0.4837  0.0296
  678MPD2    C110027   3.732   2.858   1.231 -0.2010 -0.7810  0.4490
  678MPD2    C210028   3.623   2.910   1.170 -0.9929  0.1450 -0.1510
  678MPD2    C310029   3.511   2.935   1.235  0.2649 -0.1955 -0.2170
  678MPD2    C410030   3.499   2.896   1.363  0.8822 -0.7057  0.1580
  678MPD2    C510031   3.598   2.819   1.416  0.2973 -0.2658 -0.4108
  678MPD2     H10032   3.630   2.930   1.064 -0.5790 -0.0704 -0.1629
  678MPD2    H110033   3.413   2.905   1.428 -0.5803 -2.4625 -1.5121
  678MPD2    H210034   3.802   2.753   1.408 -2.5776 -3.2733  0.7196
  678MPD2    H310035   3.587   2.782   1.518 -0.1614  1.4317  0.1610
  678MPD2     N10036   3.417   3.011   1.170  0.0915 -0.2482 -0.0087
  678MPD2    H510037   3.440   3.032   1.073 -0.4245 -0.4606 -0.1782
  678MPD2    N110038   3.836   2.830   1.139  0.4676  0.3616 -0.7734
  678MPD2    H710039   3.820   2.855   1.042  0.2677  1.0649 -0.5577
  679TMC3    C110040   4.252   2.706   0.974 -0.2103  0.5309  0.4431
  679TMC3    C210041   4.136   2.672   1.037  0.8397  0.1100 -0.4127
  679TMC3    C310042   4.049   2.773   1.061 -0.5562  0.4848  0.3552
  679TMC3    C410043   4.279   2.830   0.931 -0.5611  0.4813  0.2575
  679TMC3    C510044   4.180   2.927   0.942 -0.1755 -0.1299 -0.5159
  679TMC3    C610045   4.062   2.900   1.006  0.3733 -0.1644  0.9418
  679TMC3     C10046   4.354   2.612   0.950  0.0488 -0.1656  0.2598
  679TMC3     O10047   4.442   2.637   0.869 -0.2948 -0.6648 -0.1673
  679TMC3     H10048   4.121   2.571   1.073  1.3795 -0.8706 -2.9490
  679TMC3    H110049   4.380   2.860   0.904 -0.4060  0.8467  1.2468
  679TMC3    H210050   4.005   2.990   1.028 -0.4005 -0.7879  1.4970
  679TMC3    C710051   4.194   3.039   0.848  0.5146  0.4207  0.4903
  679TMC3    C810052   3.948   2.756   1.169 -0.6659 -0.3947 -1.3442
  679TMC3    O110053   4.139   3.148   0.877  0.3261 -0.1611 -0.7939
  679TMC3    O210054   3.976   2.678   1.264  0.7238  0.0761 -0.8606
  680MPD2     C10055   4.407   2.006  13.946  0.1684 -0.7567 -0.8299
  680MPD2    C110056   4.548   2.011  13.929  0.4530  0.2667  0.2330
  680MPD2    C210057   4.605   2.126  13.890  0.6270  0.3314  0.5488
  680MPD2    C310058   4.534   2.245  13.890  0.5517  0.7799  0.1527
  680MPD2    C410059   4.399   2.243  13.916 -0.1014 -0.3081 -0.8402
  680MPD2    C510060   4.339   2.123  13.941  0.5678  0.2012  1.3172
  680MPD2     H10061   4.707   2.124  13.853  0.6139  1.2578  0.4488
  680MPD2    H110062   4.343   2.336  13.913 -0.0622 -0.2264  1.1877
  680MPD2    H210063   4.369   1.908  13.973  0.1687 -0.3783  0.4947
  680MPD2    H310064   4.233   2.121  13.965  0.3431  1.8386  0.4720
  680MPD2     N10065   4.621   2.351  13.875  0.0448 -0.0965 -0.7426
  680MPD2    H510066   4.717   2.324  13.858 -0.0086 -1.4087  1.1673
  680MPD2    N110067   4.621   1.890  13.951 -0.2646  0.3024 -0.2698
  680MPD2    H710068   4.566   1.806  13.962  0.3234  0.1811  1.8302
  681TMC3    C110069   0.080   1.735  13.950 -0.2204  0.5284 -0.1517
  681TMC3    C210070   0.134   1.732  14.074  0.5784  0.2834  0.1841
  681TMC3    C310071   0.268   1.745  14.076 -0.7638  0.0928  0.1033
  681TMC3    C410072   0.158   1.697  13.840  0.1693 -0.5872  0.0262
  681TMC3    C510073   0.290   1.708  13.854  0.1396 -0.3466 -0.0582
  681TMC3    C610074   0.351   1.714  13.974  0.6499 -0.2921  0.0789
  681TMC3     C10075   0.034   1.870  13.934  0.4493 -0.3976 -0.2676
  681TMC3     O10076   0.124   1.950  13.911 -0.0792  0.2471 -0.3002
  681TMC3     H10077   0.073   1.773  14.153  0.6081  0.2237  0.2378
  681TMC3    H110078   0.114   1.697  13.741  1.4006  0.1388 -0.5114
  681TMC3    H210079   0.458   1.699  13.977  0.3861 -2.9435 -3.0405
  681TMC3    C710080   0.382   1.747  13.746  0.5871  0.3566 -0.1377
  681TMC3    C810081   0.323   1.774  14.205 -0.9434  0.1557 -0.3020
  681TMC3    O110082   0.502   1.755  13.777 -0.0599 -0.5551 -0.0133
  681TMC3    O210083   0.286   1.704  14.295 -0.1588  0.5338  0.7020
  682MPD2     C10084   1.975   3.551  10.634  0.7442 -0.7988 -0.3619
  682MPD2    C110085   1.998   3.416  10.619 -0.1101 -0.1161 -0.1153
  682MPD2    C210086   1.965   3.326  10.722  0.4385 -0.0312  0.6107
  682MPD2    C310087   1.920   3.371  10.843  0.1424 -0.3446 -0.2011
  682MPD2    C410088   1.887   3.504  10.857  0.5648  0.1758  0.1018
  682MPD2    C510089   1.917   3.588  10.754  0.0561 -0.5109 -0.1417
  682MPD2     H10090   1.989   3.222  10.703 -0.0067  0.1965 -1.1785
  682MPD2    H110091   1.843   3.539  10.950  0.3559  2.0483 -0.7100
  682MPD2    H210092   1.993   3.621  10.552 -2.7508 -1.9035 -2.0631
  682MPD2    H310093   1.877   3.689  10.755 -1.0232 -0.9374 -0.2139
  682MPD2     N10094   1.870   3.278  10.946 -0.2915 -0.3241  0.1614
  682MPD2    H510095   1.823   3.325  11.022 -0.9180  1.9588 -1.6610
  682MPD2    N110096   2.066   3.357  10.510 -0.2093  0.3537 -0.0143
  682MPD2    H710097   2.095   3.261  10.521 -1.2409 -0.0676 -0.9901
  683TMC3    C110098   1.721   3.092  11.256  0.2190  0.3774 -0.1085
  683TMC3    C210099   1.631   2.989  11.225  0.2162 -0.5192  0.4341
  683TMC3    C310100   1.647   2.925  11.109 -0.1385  0.1359  0.5076
  683TMC3    C410101   1.815   3.135  11.169 -0.1451  0.6395 -0.5169
  683TMC3    C510102   1.816   3.069  11.046  0.4192  0.0693  0.1731
  683TMC3    C610103   1.740   2.958  11.019 -0.3816  0.0535  0.1059
  683TMC3     C10104   1.707   3.174  11.375  0.3989 -0.5996  0.2181
  683TMC3     O10105   1.793   3.261  11.396  0.2076  0.4197 -0.4099
  683TMC3     H10106   1.551   2.956  11.291  0.1100 -0.1891  0.4714
  683TMC3    H110107   1.886   3.212  11.197 -0.6343  1.5801 -1.8299
  683TMC3    H210108   1.736   2.911  10.922  1.7669  0.7718 -0.3333
  683TMC3    C710109   1.876   3.140  10.928  0.4748 -0.2114 -0.1768
  683TMC3    C810110   1.577   2.801  11.075 -0.5590  0.7616 -1.7412
  683TMC3    O110111   1.898   3.065  10.832  0.4140  0.3232 -0.1040
  683TMC3    O210112   1.566   2.763  10.956 -0.0237  0.8378 -0.0286
  684MPD2     C10113   4.655   2.554  16.309 -0.5763  0.0721  0.3405
  684MPD2    C110114   4.638   2.656  16.214  0.5136  0.3018  0.9109
  684MPD2    C210115   4.616   2.788  16.264  0.6046 -0.2576  0.5009
  684MPD2    C310116   4.591   2.808  16.395  0.1750 -0.2344  0.7330
  684MPD2    C410117   4.595   2.703  16.486  0.3319  0.4683  0.3599
  684MPD2    C510118   4.631   2.579  16.448 -0.6625  0.4634  0.6363
  684MPD2     H10119   4.606   2.864  16.187 -1.0315 -2.0350 -1.0299
  684MPD2    H110120   4.569   2.718  16.590  0.8831  0.2968  0.5203
  684MPD2    H210121   4.684   2.452  16.284 -0.1813  0.5385 -1.1092
  684MPD2    H310122   4.638   2.498  16.520 -0.1292  1.3050  1.5202
  684MPD2     N10123   4.559   2.937  16.443 -0.1673  0.0582  0.3226
  684MPD2    H510124   4.542   2.948  16.542  0.6480  1.0697  0.3528
  684MPD2    N110125   4.656   2.631  16.076  0.0841  0.3324 -0.6088
  684MPD2    H710126   4.644   2.710  16.013  0.8143 -1.1392 -2.6022
  685TMC3    C110127   0.023   2.546  15.881  0.4736  0.1257  0.3169
  685TMC3    C210128   4.669   2.612  15.791 -0.3976  0.2201  0.1923
  685TMC3    C310129   0.013   2.643  15.672  0.4226  0.0517  0.5626
  685TMC3    C410130   0.154   2.510  15.860  0.5167 -0.2267 -0.7740
  685TMC3    C510131   0.214   2.560  15.744  0.6462 -0.3400 -0.6197
  685TMC3    C610132   0.142   2.610  15.638  0.1751  0.5572 -0.1847
  685TMC3     C10133   4.706   2.516  16.016  0.2278  0.5460  0.4086
  685TMC3     O10134   4.713   2.399  16.057 -0.4900  0.4803 -0.1736
  685TMC3     H10135   4.563   2.625  15.809 -0.0835  1.8044  0.8486
  685TMC3    H110136   0.202   2.462  15.944 -0.1484  0.6799  0.1273
  685TMC3    H210137   0.185   2.648  15.546  1.7887 -0.0820  0.3037
  685TMC3    C710138   0.340   2.620  15.762  0.1252 -0.0651  0.6465
  685TMC3    C810139   4.654   2.703  15.569  0.2509 -0.1250 -0.0427
  685TMC3    O110140   0.404   2.644  15.658  0.6425  0.6216 -0.0641
  685TMC3    O210141   4.678   2.678  15.455 -0.6731 -0.4615 -0.0371
  686MPD2     C10142   1.077   2.653  15.462 -1.3850  0.1356  0.5040
  686MPD2    C110143   1.153   2.618  15.573  0.0028 -0.3186 -0.2296
  686MPD2    C210144   1.255   2.517  15.570  0.4519  0.8220 -0.2775
  686MPD2    C310145   1.264   2.438  15.458  0.2613 -0.2448 -0.5817
  686MPD2    C410146   1.192   2.473  15.346 -0.0437 -0.3681 -0.0933
  686MPD2    C510147   1.103   2.578  15.347 -0.4256  0.4444 -0.2932
  686MPD2     H10148   1.313   2.499  15.660 -1.0024  0.9857  0.6977
  686MPD2    H110149   1.205   2.424  15.250  1.3117 -2.6017  1.2324
  686MPD2    H210150   0.996   2.726  15.465 -0.9656  0.5824  0.9785
  686MPD2    H310151   1.034   2.593  15.264  1.3630  2.6299 -1.3838
  686MPD2     N10152   1.364   2.337  15.439 -0.1537 -0.7462  0.8836
  686MPD2    H510153   1.371   2.316  15.340  0.7828 -0.9617  1.0021
  686MPD2    N110154   1.116   2.686  15.690 -0.4417 -0.0916 -0.0908
  686MPD2    H710155   1.059   2.770  15.686  0.1331  0.3538  0.9226
  687TMC3    C110156   1.411   2.282  15.660 -0.1785 -0.8230  0.9508
  687TMC3    C210157   1.291   2.227  15.691  0.5056 -0.3883  0.4760
  687TMC3    C310158   1.268   2.199  15.821 -0.0083 -0.4223  0.1694
  687TMC3    C410159   1.512   2.298  15.752  0.1213  0.4154  0.1039
  687TMC3    C510160   1.485   2.255  15.878 -0.5938 -0.2075  0.4692
  687TMC3    C610161   1.366   2.201  15.911 -0.4596 -0.3330 -0.0808
  687TMC3     C10162   1.454   2.300  15.528  0.0285 -0.2652  0.0931
  687TMC3     O10163   1.560   2.241  15.506  0.2313  0.0766 -0.5968
  687TMC3     H10164   1.217   2.206  15.615  0.8172 -1.9598  0.5959
  687TMC3    H110165   1.609   2.340  15.729 -0.4337 -1.3776 -5.5909
  687TMC3    H210166   1.346   2.183  16.016 -0.9968 -1.1933 -0.3259
  687TMC3    C710167   1.575   2.270  15.986  0.2083  0.0830 -0.0040
  687TMC3    C810168   1.129   2.207  15.863 -0.3476 -0.6321 -0.0875
  687TMC3    O110169   1.573   2.186  16.075 -0.3482  1.0966 -0.4403
  687TMC3    O210170   1.113   2.184  15.982  0.1447 -0.0604  0.2721
  688MPD2     C10171   0.528   1.759  17.048 -0.6742  0.2399  0.2576
  688MPD2    C110172   0.590   1.648  17.092  0.1399 -0.0949  0.2026
  688MPD2    C210173   0.717   1.610  17.043  0.2781  0.2659 -0.0595
  688MPD2    C310174   0.773   1.676  16.933 -0.1606 -0.3187  0.0098
  688MPD2    C410175   0.703   1.790  16.882  0.9698 -0.4814 -0.0704
  688MPD2    C510176   0.581   1.822  16.943  0.3871  0.4787 -0.4734
  688MPD2     H10177   0.759   1.522  17.090 -1.0678 -0.8251 -0.9114
  688MPD2    H110178   0.747   1.836  16.794 -0.4199 -0.1566 -0.6026
  688MPD2    H210179   0.428   1.790  17.078 -0.0465  2.4875 -0.0193
  688MPD2    H310180   0.529   1.911  16.909  3.1197  2.4264  0.4218
  688MPD2     N10181   0.887   1.620  16.866 -0.1016  0.6728  0.3740
  688MPD2    H510182   0.905   1.663  16.776  0.7940  1.2038  0.8015
  688MPD2    N110183   0.550   1.583  17.207 -0.6620 -0.2812 -0.0449
  688MPD2    H710184   0.605   1.503  17.237 -2.1587 -1.7582 -1.1826
  689TMC3    C110185   0.431   1.526  17.399  0.5330  0.8774 -0.1909
  689TMC3    C210186   0.405   1.581  17.522 -0.5193  0.9068  0.1356
  689TMC3    C310187   0.432   1.500  17.634  0.2746 -0.2585  0.0904
  689TMC3    C410188   0.472   1.392  17.386  0.1401 -0.3383 -0.3845
  689TMC3    C510189   0.494   1.317  17.500  0.0750 -0.2508  0.3032
  689TMC3    C610190   0.478   1.373  17.624  0.2478  0.0851 -0.1180
  689TMC3     C10191   0.450   1.618  17.292  0.6343 -0.0429  0.3650
  689TMC3     O10192   0.366   1.707  17.294 -0.1251 -0.0520 -0.2353
  689TMC3     H10193   0.371   1.684  17.523 -3.1342  0.0335  0.3637
  689TMC3    H110194   0.500   1.350  17.290 -0.5564  0.9046 -1.1328
  689TMC3    H210195   0.513   1.313   0.014 -1.7189  0.2660  0.8161
  689TMC3    C710196   0.554   1.186  17.474  0.3855 -0.4618 -0.2758
  689TMC3    C810197   0.434   1.553   0.073  0.5755  0.1651 -0.7370
  689TMC3    O110198   0.628   1.146  17.563  0.0606 -0.4233  0.2725
  689TMC3    O210199   0.480   1.489   0.166 -0.4900  0.1914 -0.0270
  690MPD2     C10200   2.913   3.685  15.833 -0.3746  0.5333  0.2969
  690MPD2    C110201   2.853   3.645  15.718 -0.3146 -0.0834  0.0415
  690MPD2    C210202   2.901   3.690  15.598  0.5334  0.1064  0.0491
  690MPD2    C310203   3.014   3.783  15.592 -0.6704 -0.6175 -0.1911
  690MPD2    C410204   3.065   3.822  15.716  0.3332 -0.3979 -0.0813
  690MPD2    C510205   3.009   3.783  15.833  0.5336 -0.0723  0.4575
  690MPD2     H10206   2.848   3.663  15.508  1.1932 -1.5776  0.1736
  690MPD2    H110207   3.138   3.901  15.731 -0.6651  0.8675 -1.9037
  690MPD2    H210208   2.881   3.651  15.931  1.7743 -1.1912  0.3966
  690MPD2    H310209   3.065   3.811  15.921  0.8403  2.8100 -0.6661
  690MPD2     N10210   3.078   3.824  15.473 -0.0316 -0.2823 -0.0228
  690MPD2    H510211   3.031   3.788  15.391 -1.0895  1.4167 -0.1575
  690MPD2    N110212   2.743   3.552  15.702 -0.4479  0.3096 -0.3742
  690MPD2    H710213   2.719   3.514  15.611 -1.3886  1.0523 -0.4360
  691TMC3    C110214   2.563   3.398  15.765 -0.2385  0.2231  0.2541
  691TMC3    C210215   2.462   3.379  15.855  0.2463  0.9735  0.5576
  691TMC3    C310216   2.408   3.251  15.856  0.2242 -0.4950 -0.7331
  691TMC3    C410217   2.616   3.301  15.678  0.2779  0.0557  0.5098
  691TMC3    C510218   2.561   3.179  15.698 -0.2378  1.0907  0.4110
  691TMC3    C610219   2.456   3.150  15.777  0.5502 -1.0282  0.4283
  691TMC3     C10220   2.656   3.506  15.799  0.2162 -0.4053 -0.0345
  691TMC3     O10221   2.647   3.539  15.923 -0.2213  0.7204 -0.6703
  691TMC3     H10222   2.435   3.452  15.931 -1.5026  0.1605  0.7184
  691TMC3    H110223   2.704   3.315  15.616 -0.6474  0.3919 -0.7343
  691TMC3    H210224   2.411   3.052  15.789 -0.1947 -0.7197  0.1139
  691TMC3    C710225   2.619   3.071  15.618 -0.3104 -0.3780 -0.0645
  691TMC3    C810226   2.292   3.222  15.941  0.3508  0.2169 -0.7574
  691TMC3    O110227   2.679   3.117  15.518 -0.3558 -0.3793 -0.0566
  691TMC3    O210228   2.282   3.110  15.992 -0.2727  1.0230 -0.1017
  692TMC3    C110229   4.478   4.424  15.986 -0.9413  0.6830 -0.3177
  692TMC3    C210230   4.614   4.427  16.024  0.8659 -0.1237  0.3369
  692TMC3    C310231   4.689   4.307  16.040  1.1034  0.4072 -0.5370
  692TMC3    C410232   4.429   4.294  15.978  0.3454  0.7764 -0.5884
  692TMC3    C510233   4.499   4.178  15.994  0.0801 -0.5451 -0.9189
  692TMC3    C610234   4.635   4.191  16.037 -0.6619  0.7379 -0.4659
  692TMC3     C10235   4.394   4.526  16.053  0.1307  0.5082  0.0548
  692TMC3     O10236   4.270   4.516  16.042 -0.0213 -0.5615  0.0866
  692TMC3     H10237   4.673   4.515  16.000  1.3527 -0.8767 -1.2158
  692TMC3    H110238   4.328   4.290  15.937  0.6072 -1.9644 -1.0337
  692TMC3    H210239   4.699   4.103  16.039 -0.0954  1.1589 -0.2755
  692TMC3    C710240   4.452   4.052  15.945 -0.1894 -0.2340 -0.2964
  692TMC3    C810241   0.064   4.319  16.147  0.7046 -0.4866  0.1954
  692TMC3    O110242   4.363   4.055  15.864  0.9137 -0.0361  0.0405
  692TMC3    O210243   0.060   4.237  16.235 -0.6743 -0.2472 -0.5517
  693MPD2     C10244   3.971   2.736  10.702  0.1429 -0.1044 -0.4011
  693MPD2    C110245   3.962   2.609  10.655 -0.4855  0.4502  0.2466
  693MPD2    C210246   4.074   2.528  10.654 -0.2583 -0.6493  0.1868
  693MPD2    C310247   4.197   2.579  10.691 -0.6484 -0.3131  0.0839
  693MPD2    C410248   4.204   2.703  10.748  0.0692  0.0984  0.7237
  693MPD2    C510249   4.091   2.781  10.750  0.3406 -0.2373 -0.3645
  693MPD2     H10250   4.077   2.428  10.612 -1.0914  0.3154 -2.1620
  693MPD2    H110251   4.292   2.739  10.799  0.4582  1.2738 -0.7815
  693MPD2    H210252   3.880   2.794  10.707  0.2624  0.1158 -0.7553
  693MPD2    H310253   4.090   2.884  10.785 -0.3811  0.5693 -2.7376
  693MPD2     N10254   4.311   2.497  10.708 -0.7473 -0.3111 -0.2705
  693MPD2    H510255   4.386   2.533  10.766 -1.8230 -0.0023  0.9235
  693MPD2    N110256   3.830   2.561  10.645 -0.4409 -0.1926 -0.3973
  693MPD2    H710257   3.751   2.615  10.677  1.5374  1.3774  1.8370
  694TMC3    C110258   3.690   2.373  10.673 -0.3152 -0.3369 -0.1364
  694TMC3    C210259   3.664   2.249  10.634 -0.1493 -0.9814 -0.0583
  694TMC3    C310260   3.611   2.159  10.721  0.4041 -0.2711 -0.3994
  694TMC3    C410261   3.661   2.422  10.799  0.1977 -0.7320 -0.7302
  694TMC3    C510262   3.621   2.330  10.897  0.0380 -0.1166 -0.2933
  694TMC3    C610263   3.600   2.199  10.859  0.1102 -0.0965  0.9677
  694TMC3     C10264   3.796   2.437  10.597  0.2433  0.4173  0.4170
  694TMC3     O10265   3.844   2.370  10.505 -0.2414  0.2170  0.1395
  694TMC3     H10266   3.694   2.202  10.541 -0.9106 -0.6707 -0.4569
  694TMC3    H110267   3.671   2.526  10.829  0.3224 -1.1967  0.8294
  694TMC3    H210268   3.555   2.127  10.926 -2.8828  0.3369 -0.5430
  694TMC3    C710269   3.604   2.366  11.037  0.2937 -0.3533 -0.4444
  694TMC3    C810270   3.563   2.023  10.684  0.4690 -0.1064 -1.2081
  694TMC3    O110271   3.634   2.479  11.062 -0.0029 -0.0384  0.4165
  694TMC3    O210272   3.521   1.950  10.772 -0.2037 -0.0688  0.4636
  695MPD2     C10273   0.237   3.920  13.415  0.3083  0.4812 -0.7460
  695MPD2    C110274   0.186   3.980  13.525 -0.5285 -0.5690 -0.1210
  695MPD2    C210275   0.070   4.058  13.516  0.4561 -0.0626 -0.0412
  695MPD2    C310276   4.721   4.068  13.395 -0.5781 -0.4233 -0.1381
  695MPD2    C410277   0.061   4.006  13.289  0.0450  0.3791  0.1300
  695MPD2    C510278   0.166   3.924  13.299 -0.5232  0.2502  0.2678
  695MPD2     H10279   0.032   4.107  13.605  1.4936 -0.7558  0.7901
  695MPD2    H110280   0.034   4.025  13.185  1.6615 -2.3258 -0.7756
  695MPD2    H210281   0.335   3.875  13.409  0.1988 -0.0876  1.5904
  695MPD2    H310282   0.208   3.892  13.204  2.1246  1.7382  0.9380
  695MPD2     N10283   4.596   4.129  13.395  0.4318  0.1413 -0.4788
  695MPD2    H510284   4.574   4.173  13.484  0.7560 -1.4454  0.3724
  695MPD2    N110285   0.255   3.981  13.648  0.4016 -0.7501  0.5873
  695MPD2    H710286   0.213   4.031  13.725  0.2008  0.0707 -0.0492
  696TMC3    C110287   4.389   4.223  13.304  0.1640  0.1260 -0.3165
  696TMC3    C210288   4.312   4.215  13.421  0.0120 -0.0899 -0.4735
  696TMC3    C310289   4.212   4.306  13.436  1.0252  0.5092 -0.5307
  696TMC3    C410290   4.360   4.305  13.199 -0.2075  0.1695  0.1289
  696TMC3    C510291   4.257   4.395  13.229  0.4342  0.6195 -0.0320
  696TMC3    C610292   4.171   4.384  13.332  0.1690  0.5152  0.0655
  696TMC3     C10293   4.515   4.145  13.286  0.0136 -0.3372 -0.3003
  696TMC3     O10294   4.548   4.123  13.171 -0.1100 -0.0926 -0.4115
  696TMC3     H10295   4.347   4.149  13.500  2.1424 -0.3719 -1.6656
  696TMC3    H110296   4.418   4.323  13.110  1.4946 -2.3686  0.7481
  696TMC3    H210297   4.088   4.453  13.346 -0.9464 -0.3492 -2.2897
  696TMC3    C710298   4.271   4.517  13.162 -0.2680  0.2409 -0.4634
  696TMC3    C810299   4.174   4.342  13.572  0.0129 -0.3798  0.0553
  696TMC3    O110300   4.333   4.513  13.055 -0.8387  1.1244 -0.1783
  696TMC3    O210301   4.243   4.315  13.668 -0.0119 -0.3588  0.0567
  697MPD2     C10302   4.099   1.300  15.964 -0.2717  0.2861 -0.0183
  697MPD2    C110303   4.107   1.235  15.840 -0.0167  0.2168  0.0191
  697MPD2    C210304   4.180   1.297  15.742  0.1511  0.2227 -0.3887
  697MPD2    C310305   4.228   1.431  15.763  1.2394  0.2789 -0.0314
  697MPD2    C410306   4.200   1.499  15.880  0.1644 -0.1580 -0.0846
  697MPD2    C510307   4.138   1.430  15.979 -0.0522  0.6839  0.2540
  697MPD2     H10308   4.202   1.250  15.647 -0.9379  1.5001 -1.2794
  697MPD2    H110309   4.246   1.595  15.902 -1.0523  0.3767  0.1457
  697MPD2    H210310   4.042   1.244  16.038  0.8445 -1.1820 -0.2720
  697MPD2    H310311   4.117   1.473  16.076 -0.8693 -1.2669  0.9526
  697MPD2     N10312   4.303   1.489  15.663  1.3629 -0.0532 -0.8766
  697MPD2    H510313   4.314   1.430  15.582 -2.1635 -1.4533 -0.3465
  697MPD2    N110314   4.057   1.101  15.814  0.0064  0.7486  0.3355
  697MPD2    H710315   4.057   1.075  15.716  1.1668  0.2112  0.4814
  698TMC3    C110316   4.444   1.622  15.553  0.0497 -0.8435 -0.3523
  698TMC3    C210317   4.498   1.742  15.528  0.0578 -0.4171 -0.3657
  698TMC3    C310318   4.596   1.750  15.428  0.4326 -0.1263 -0.3967
  698TMC3    C410319   4.481   1.509  15.486 -0.8969 -0.7077  0.4992
  698TMC3    C510320   4.584   1.509  15.393  0.5007 -1.0470  0.2962
  698TMC3    C610321   4.647   1.631  15.377  0.0651 -0.0466 -0.6052
  698TMC3     C10322   4.367   1.607  15.668  0.5258  1.5696  1.0910
  698TMC3     O10323   4.365   1.695  15.752  0.1421  0.8205  0.4230
  698TMC3     H10324   4.463   1.841  15.551  0.0456 -0.3565 -0.6478
  698TMC3    H110325   4.454   1.408  15.515  0.7390 -0.6190  2.3572
  698TMC3    H210326   0.011   1.628  15.312  0.6022 -1.1382  0.1610
  698TMC3    C710327   4.595   1.415  15.280  0.5851 -0.4555 -0.2701
  698TMC3    C810328   4.543   1.832  15.321 -0.4128 -0.1180 -0.4539
  698TMC3    O110329   4.695   1.421  15.211 -0.1550 -0.5301  0.2572
  698TMC3    O210330   4.438   1.795  15.270 -0.0846  0.4699 -0.6856
  699TMC3    C110331   4.230   4.093  12.911 -0.2059 -0.2180 -0.2579
  699TMC3    C210332   4.250   3.989  12.996 -0.1703  0.0016 -0.6130
  699TMC3    C310333   4.154   3.964  13.084 -0.2243  0.1363 -0.1950
  699TMC3    C410334   4.116   4.168  12.902 -0.3175  0.7460  0.7074
  699TMC3    C510335   4.022   4.151  13.000 -0.3423  0.0268  0.2056
  699TMC3    C610336   4.041   4.039  13.084 -0.2113 -0.3252  0.6902
  699TMC3     C10337   4.329   4.121  12.809  0.5949  0.3480  0.1638
  699TMC3     O10338   4.294   4.171  12.699 -0.2677  0.5783 -0.5352
  699TMC3     H10339   4.336   3.926  12.981 -0.0743  0.3876 -1.7231
  699TMC3    H110340   4.109   4.243  12.823  0.6568  0.1915  0.0960
  699TMC3    H210341   3.967   4.025  13.162 -1.1047 -2.0064 -0.4469
  699TMC3    C710342   3.935   4.262  13.040 -0.3609 -0.5734 -0.3143
  699TMC3    C810343   4.162   3.868  13.198 -0.8263 -0.4926 -0.0788
  699TMC3    O110344   3.882   4.258  13.151  0.4117  0.1532  0.0534
  699TMC3    O210345   4.058   3.822  13.245  0.3918 -0.2873 -0.0886
  700TMC3    C110346   3.139   2.149  17.048  0.1599  0.2452  0.4627
  700TMC3    C210347   3.199   2.027  17.024  0.0422  0.5660  0.1126
  700TMC3    C310348   3.301   1.993  17.108  0.0769 -0.0307  0.7306
  700TMC3    C410349   3.182   2.236  17.141  0.9260  0.1029 -0.2647
  700TMC3    C510350   3.287   2.200  17.216 -0.1703  0.7402 -0.2232
  700TMC3    C610351   3.344   2.071  17.213  0.3053 -0.2712 -0.1206
  700TMC3     C10352   3.101   2.208  16.929  0.4911 -1.0251 -0.5100
  700TMC3     O10353   2.985   2.230  16.905  0.2959  0.0698 -0.1342
  700TMC3     H10354   3.185   1.987  16.924  1.3030  0.2375  0.0744
  700TMC3    H110355   3.154   2.340  17.132  2.0903  0.4346 -0.0660
  700TMC3    H210356   3.436   2.043  17.262  0.9131  1.7064 -0.1451
  700TMC3    C710357   3.371   2.306  17.275  0.8562 -0.3950  0.0288
  700TMC3    C810358   3.358   1.858  17.097  0.2633 -0.3670  0.0040
  700TMC3    O110359   3.441   2.274  17.374 -0.2639 -0.5058  0.1145
  700TMC3    O210360   3.452   1.831  17.168 -0.0227  0.6230 -0.2981
  701TMC3    C110361   3.076   0.753  15.671  0.6379 -0.0700 -0.0638
  701TMC3    C210362   3.019   0.779  15.549 -0.4183  0.0513  0.2575
  701TMC3    C310363   3.093   0.863  15.468 -0.1341 -0.3588 -0.2605
  701TMC3    C410364   3.187   0.810  15.733 -1.0120  0.2910 -0.8035
  701TMC3    C510365   3.253   0.897  15.647  0.4829  0.1292 -0.0533
  701TMC3    C610366   3.208   0.909  15.520  0.1381 -0.4175 -0.0164
  701TMC3     C10367   3.024   0.636  15.745 -0.1031  0.5738 -1.2371
  701TMC3     O10368   3.036   0.629  15.869  0.4339  0.1770  0.1176
  701TMC3     H10369   2.924   0.736  15.519 -0.7800  0.5467  0.7040
  701TMC3    H110370   3.205   0.801  15.840 -3.5258  1.8859 -0.2555
  701TMC3    H210371   3.269   0.976  15.459  1.4057 -1.1492  0.4466
  701TMC3    C710372   3.342   1.002  15.699  0.1795 -0.2434  1.1611
  701TMC3    C810373   3.063   0.875  15.325  0.4102 -0.3522  0.1870
  701TMC3    O110374   3.365   1.100  15.629 -0.0603  0.4197  0.2227
  701TMC3    O210375   3.129   0.964  15.268  0.3424  0.3371  0.8130
  702MPD2     C10376   2.823   2.826  10.286  0.6125  0.8250  0.0084
  702MPD2    C110377   2.832   2.948  10.359  0.0588  0.2424  0.1319
  702MPD2    C210378   2.903   3.047  10.312 -0.4629 -0.3309 -0.2203
  702MPD2    C310379   2.984   3.024  10.198  0.3972  0.0384 -0.1769
  702MPD2    C410380   2.988   2.901  10.135  0.2996 -0.2179 -0.1109
  702MPD2    C510381   2.904   2.806  10.179 -0.6892 -0.1937  0.7381
  702MPD2     H10382   2.913   3.144  10.359  0.3385  0.1131 -1.2866
  702MPD2    H110383   3.051   2.884  10.049  0.0324 -1.5041 -0.0431
  702MPD2    H210384   2.752   2.749  10.315  1.4742 -0.1026 -0.3508
  702MPD2    H310385   2.892   2.707  10.137  2.7085 -0.0428 -0.5817
  702MPD2     N10386   3.064   3.135  10.163  0.8889 -0.4611  0.1256
  702MPD2    H510387   3.054   3.216  10.223 -0.4914 -1.1251  0.8074
  702MPD2    N110388   2.744   2.980  10.469 -0.2984 -0.0434 -0.9226
  702MPD2    H710389   2.747   3.077  10.498  2.2664  0.2588 -2.1752
  703TMC3    C110390   3.200   3.278  10.042 -0.4839  0.5616 -0.2374
  703TMC3    C210391   3.118   3.381  10.086  0.6965  0.5054 -0.6557
  703TMC3    C310392   3.171   3.512  10.081  0.4582 -0.5996 -0.1037
  703TMC3    C410393   3.318   3.295   9.977 -0.2862 -0.3940 -0.2283
  703TMC3    C510394   3.360   3.429   9.973 -0.8364  0.0359  0.6583
  703TMC3    C610395   3.291   3.534  10.022 -0.0622  0.4075  0.6448
  703TMC3     C10396   3.151   3.142  10.053 -0.2501  1.2612 -0.0783
  703TMC3     O10397   3.196   3.056   9.976  0.1149 -0.0221  0.0281
  703TMC3     H10398   3.019   3.374  10.129  1.4746 -1.0265  0.8819
  703TMC3    H110399   3.379   3.212   9.944 -0.1057 -0.0631 -0.7216
  703TMC3    H210400   3.329   3.635  10.015 -3.3139  1.5553 -0.7100
  703TMC3    C710401   3.495   3.456   9.926  0.0865 -0.1070  0.4730
  703TMC3    C810402   3.109   3.618  10.160 -0.2510 -0.3432 -0.1422
  703TMC3    O110403   3.519   3.574   9.901 -0.2185  0.1687  0.1072
  703TMC3    O210404   3.162   3.731  10.139 -0.1680  0.4348 -0.4026
  704TMC3    C110405   0.465   1.297  12.776  0.0086 -0.4698  0.5942
  704TMC3    C210406   0.588   1.366  12.769  0.0165  0.1048 -1.1259
  704TMC3    C310407   0.690   1.299  12.825 -0.5345  0.4693  0.1848
  704TMC3    C410408   0.444   1.183  12.852 -0.5103  0.3695  0.5159
  704TMC3    C510409   0.555   1.127  12.909  0.0678 -0.0615  0.6263
  704TMC3    C610410   0.678   1.176  12.888  0.9133 -0.1414  0.6686
  704TMC3     C10411   0.375   1.309  12.663 -0.4566  0.3704  0.6558
  704TMC3     O10412   0.255   1.320  12.688  0.5334  0.2583  0.5008
  704TMC3     H10413   0.605   1.450  12.702  0.4740  0.4519 -0.5759
  704TMC3    H110414   0.354   1.126  12.833 -1.1124  1.8410 -0.9677
  704TMC3    H210415   0.761   1.129  12.940  2.0130 -0.4811 -1.3896
  704TMC3    C710416   0.545   0.982  12.909 -0.4465 -0.2268 -0.1935
  704TMC3    C810417   0.800   1.303  12.730 -0.1361  0.1103 -0.8088
  704TMC3    O110418   0.648   0.930  12.866 -0.4389  0.0370  0.6080
  704TMC3    O210419   0.762   1.320  12.614  0.8401  0.2172  0.0517
  705MPD2     C10420   0.184   4.002  16.666  1.0321 -0.3424  0.5763
  705MPD2    C110421   0.121   4.072  16.560 -0.7952 -0.7742 -0.0104
  705MPD2    C210422   4.716   4.127  16.585  0.5066 -0.5317 -0.2403
  705MPD2    C310423   4.659   4.117  16.715  0.0541 -0.0186  1.0577
  705MPD2    C410424   4.723   4.042  16.816 -0.0731 -0.3493  0.1720
  705MPD2    C510425   0.118   3.982  16.779  0.3322 -0.0468  0.5045
  705MPD2     H10426   4.677   4.202  16.517  0.3066  0.3835  0.8958
  705MPD2    H110427   4.688   4.031  16.918  1.9467 -2.1448  0.6646
  705MPD2    H210428   0.283   3.959  16.652 -0.1316 -1.7024 -3.4899
  705MPD2    H310429   0.176   3.943  16.862 -1.0543 -1.7235  0.6761
  705MPD2     N10430   4.536   4.186  16.745  0.7184  0.2088 -0.1763
  705MPD2    H510431   4.514   4.178  16.844 -0.7271 -1.9132 -0.6604
  705MPD2    N110432   0.183   4.078  16.431  0.2493 -0.7111  1.0991
  705MPD2    H710433   0.147   4.140  16.360 -1.3322  0.0352  2.5593
  706TMC3    C110434   0.458   3.995  16.055 -0.3616  0.0630  0.2013
  706TMC3    C210435   0.474   4.132  16.029 -0.4639  0.7403 -0.3813
  706TMC3    C310436   0.438   4.210  16.138 -0.3156  0.1544  0.2876
  706TMC3    C410437   0.401   3.948  16.172  0.4718 -0.1976  0.0240
  706TMC3    C510438   0.352   4.043  16.268  0.7206  0.4712 -0.3346
  706TMC3    C610439   0.369   4.172  16.254 -0.2730  0.4439  0.2542
  706TMC3     C10440   0.487   3.892  15.956 -0.1405 -0.0665  0.0261
  706TMC3     O10441   0.524   3.783  16.003  0.5969  0.0373  0.0534
  706TMC3     H10442   0.517   4.171  15.937 -1.4949  0.2243 -1.0884
  706TMC3    H110443   0.400   3.842  16.196  1.3422 -0.3276 -0.4984
  706TMC3    H210444   0.315   4.238  16.321 -0.1313  0.3467  0.4636
  706TMC3    C710445   0.284   3.991  16.384 -0.3545  0.1850  0.1665
  706TMC3    C810446   0.446   4.354  16.126  0.5620 -0.5447  0.3291
  706TMC3    O110447   0.341   3.901  16.448 -0.6986  0.0432 -0.5945
  706TMC3    O210448   0.462   4.401  16.013 -0.3419  0.6224  0.2621
  707TMC3    C110449   1.900   3.458   1.754  0.2616 -0.5170  0.8398
  707TMC3    C210450   1.861   3.435   1.628  0.7314  0.6605  0.3622
  707TMC3    C310451   1.753   3.508   1.583  0.1369 -0.4014  0.6598
  707TMC3    C410452   1.838   3.545   1.846  0.2259 -0.2626  0.7745
  707TMC3    C510453   1.726   3.610   1.796 -0.0494 -0.0911 -0.9308
  707TMC3    C610454   1.676   3.587   1.671 -0.2456 -0.6195  0.6059
  707TMC3     C10455   2.010   3.380   1.804  0.2980 -0.2880 -0.5360
  707TMC3     O10456   2.029   3.272   1.739  0.0695  0.5833 -0.0552
  707TMC3     H10457   1.919   3.379   1.556 -0.1096  0.9478 -0.5497
  707TMC3    H110458   1.877   3.574   1.943  0.2163  1.5170  0.2578
  707TMC3    H210459   1.580   3.625   1.639 -1.0782 -1.1817  2.4856
  707TMC3    C710460   1.674   3.713   1.885 -0.4108 -0.4923 -0.6200
  707TMC3    C810461   1.692   3.473   1.459 -0.0389  0.7387 -0.1147
  707TMC3    O110462   1.717   3.722   2.002  0.2384  0.7808  0.5029
  707TMC3    O210463   1.607   3.551   1.405  0.3694  0.8316  0.4215
  708MPD2     C10464   3.174   2.133  14.067 -0.6240 -0.6015 -0.5769
  708MPD2    C110465   3.054   2.118  13.997 -0.2883 -0.3324  0.3353
  708MPD2    C210466   2.939   2.090  14.070  0.0462 -0.1242 -0.1004
  708MPD2    C310467   2.949   2.085  14.210  0.4612  0.2120  0.7095
  708MPD2    C410468   3.068   2.101  14.280  0.2853 -0.1757 -0.4466
  708MPD2    C510469   3.184   2.123  14.202  0.5427 -0.0885  0.0286
  708MPD2     H10470   2.837   2.079  14.037 -0.3734  2.2515  0.3827
  708MPD2    H110471   3.087   2.105  14.387  1.8677  0.2127 -0.7388
  708MPD2    H210472   3.270   2.147  14.018 -0.8937 -2.9773 -1.7622
  708MPD2    H310473   3.286   2.119  14.238 -0.1337  0.5738  1.9935
  708MPD2     N10474   2.820   2.087  14.283 -0.3455  0.5787  0.5619
  708MPD2    H510475   2.739   2.090  14.223 -0.4238  0.6064  0.6686
  708MPD2    N110476   3.059   2.149  13.858  0.3437 -0.2227  0.4103
  708MPD2    H710477   3.150   2.178  13.822  0.9708 -0.6548  1.6657
  709TMC3    C110478   2.969   2.200  13.638  0.0862 -0.5677 -0.5878
  709TMC3    C210479   3.077   2.282  13.623 -0.4360 -0.0996 -0.4186
  709TMC3    C310480   3.057   2.380  13.524 -0.0121  0.1294 -0.7003
  709TMC3    C410481   2.852   2.223  13.583 -0.4854  0.1422  0.3480
  709TMC3    C510482   2.837   2.332  13.498  0.0248 -0.4074 -0.0041
  709TMC3    C610483   2.944   2.410  13.459 -0.3110 -0.2802  0.0108
  709TMC3     C10484   2.955   2.138  13.771  0.1513 -0.2071  0.1750
  709TMC3     O10485   2.839   2.110  13.795  0.0395 -0.1294 -0.2537
  709TMC3     H10486   3.175   2.272  13.669 -0.4414  1.1463 -0.1466
  709TMC3    H110487   2.776   2.145  13.578 -0.2769 -0.0510  0.2367
  709TMC3    H210488   2.921   2.501  13.405 -1.5467  0.1420  1.2519
  709TMC3    C710489   2.736   2.413  13.551  0.2444  0.4621  0.2808
  709TMC3    C810490   3.181   2.451  13.485 -0.5049  0.6668  0.6223
  709TMC3    O110491   2.708   2.516  13.492 -0.1224  0.3667  0.2076
  709TMC3    O210492   3.277   2.451  13.557  0.0029  0.4681 -0.7960
  710TMC3    C110493   4.181   3.835   0.635  0.4001  1.0765 -0.3928
  710TMC3    C210494   4.234   3.900   0.520 -0.4124 -0.4012 -0.5913
  710TMC3    C310495   4.289   3.818   0.424 -0.5740 -0.3595 -0.2614
  710TMC3    C410496   4.160   3.703   0.642 -0.5889 -0.0551 -0.5865
  710TMC3    C510497   4.199   3.632   0.538  0.3665  0.0647  0.4684
  710TMC3    C610498   4.258   3.685   0.425  0.3774 -0.6629  0.0324
  710TMC3     C10499   4.109   3.912   0.730 -0.5296 -0.5430 -0.0135
  710TMC3     O10500   4.140   4.030   0.737 -0.7874  0.3404 -0.2471
  710TMC3     H10501   4.251   4.007   0.512 -0.4187 -0.6467 -3.9896
  710TMC3    H110502   4.138   3.645   0.731  0.3455 -0.8810 -0.9067
  710TMC3    H210503   4.302   3.623   0.347  0.7730  0.8592 -0.9766
  710TMC3    C710504   4.193   3.487   0.562  0.4421  0.3411 -0.4900
  710TMC3    C810505   4.387   3.858   0.328  0.1091  0.4710  0.7305
  710TMC3    O110506   4.107   3.447   0.637  0.4087 -0.4857  0.6751
  710TMC3    O210507   4.398   3.797   0.226 -0.3115  0.4067  0.7021
  711TMC3    C110508   4.143   0.005  15.017  0.2155 -0.2962 -0.1177
  711TMC3    C210509   4.114   0.063  15.139 -0.5352 -0.0667  0.4287
  711TMC3    C310510   4.209   0.136  15.203  0.4274  0.1788 -0.1315
  711TMC3    C410511   4.259   0.035  14.953  0.0231  0.2511  0.4014
  711TMC3    C510512   4.351   0.112  15.018  0.5450 -0.4191 -0.3572
  711TMC3    C610513   4.332   0.169  15.140  0.1896 -0.1148 -0.4741
  711TMC3     C10514   4.031   4.714  14.928  0.1298 -0.1660  0.6558
  711TMC3     O10515   3.925   4.676  14.971  0.0986  0.3672  0.0342
  711TMC3     H10516   4.017   0.045  15.184 -0.3032  0.4417  1.1381
  711TMC3    H110517   4.283   0.001  14.853 -0.1756  2.8629 -0.5361
  711TMC3    H210518   4.398   0.247  15.175  2.3124 -2.1471  0.0129
  711TMC3    C710519   4.435   0.191  14.931 -0.4670  1.0823 -0.4009
  711TMC3    C810520   4.191   0.154  15.344  0.4785  0.1377  0.2507
  711TMC3    O110521   4.382   0.293  14.894  0.2733  0.2987 -0.0204
  711TMC3    O210522   4.086   0.124  15.392 -0.2167  0.1965  0.1131
  712MPD2     C10523   1.142   1.223  13.991  0.7196  0.6641 -0.3291
  712MPD2    C110524   1.103   1.213  13.857 -0.2114  0.6322  0.1443
  712MPD2    C210525   1.092   1.332  13.778 -0.1612 -0.1284 -0.1215
  712MPD2    C310526   1.147   1.447  13.830  0.0065 -0.0401  0.3607
  712MPD2    C410527   1.213   1.441  13.953  0.0662 -0.3008 -0.2531
  712MPD2    C510528   1.209   1.330  14.033  0.4624  0.6403 -0.5241
  712MPD2     H10529   1.053   1.334  13.677  0.2061 -1.8741 -0.3012
  712MPD2    H110530   1.269   1.525  13.993 -0.4870  0.9841 -2.2198
  712MPD2    H210531   1.144   1.140  14.061 -0.9386  0.4521 -0.5264
  712MPD2    H310532   1.254   1.335  14.132 -0.0600 -1.2982 -0.1872
  712MPD2     N10533   1.138   1.573  13.763 -0.5873 -0.4993 -0.1272
  712MPD2    H510534   1.192   1.647  13.805 -1.9986 -0.9872  2.5497
  712MPD2    N110535   1.050   1.093  13.802 -0.6017 -0.0750 -0.1391
  712MPD2    H710536   1.040   1.097  13.701 -1.1554  0.8160 -0.0499
  713TMC3    C110537   1.090   1.740  13.594  0.7288  0.2614 -0.9039
  713TMC3    C210538   1.223   1.787  13.593 -0.4407  0.3254 -0.0491
  713TMC3    C310539   1.245   1.911  13.530 -0.0104  0.5420  0.5714
  713TMC3    C410540   0.994   1.792  13.501  0.1924 -0.0064 -0.1056
  713TMC3    C510541   1.024   1.908  13.442 -0.7147 -0.9317 -0.4586
  713TMC3    C610542   1.148   1.975  13.461 -0.5064  0.1111 -0.0656
  713TMC3     C10543   1.066   1.604  13.646  0.5222  0.2156 -0.8414
  713TMC3     O10544   0.987   1.539  13.580  0.6230  0.1536  0.0432
  713TMC3     H10545   1.294   1.730  13.653 -1.4655  0.2368  1.0725
  713TMC3    H110546   0.903   1.736  13.481  0.2893  0.0371 -0.6863
  713TMC3    H210547   1.153   2.072  13.413  0.7854  0.2443  0.3462
  713TMC3    C710548   0.939   1.961  13.340  0.0570 -0.4845 -1.1537
  713TMC3    C810549   1.371   1.984  13.546  0.2074  0.0146 -0.3346
  713TMC3    O110550   0.993   2.003  13.236  0.1786  0.6790  0.0125
  713TMC3    O210551   1.379   2.085  13.479  0.6427  0.2125  0.4366
  714MPD2     C10552   2.614   0.231   1.879  0.6475  0.0392 -0.6400
  714MPD2    C110553   2.651   0.136   1.786 -0.1230 -0.0068  0.9677
  714MPD2    C210554   2.577   0.131   1.669 -0.2867  0.0882 -0.0251
  714MPD2    C310555   2.459   0.196   1.646 -0.9281  0.1280  0.9829
  714MPD2    C410556   2.419   0.285   1.742 -0.4156 -0.3217  0.3789
  714MPD2    C510557   2.494   0.298   1.858 -0.2906 -0.2172 -0.3029
  714MPD2     H10558   2.610   0.057   1.596  2.5657  0.0431  1.3213
  714MPD2    H110559   2.326   0.340   1.745  0.0902  0.6369 -1.3789
  714MPD2    H210560   2.661   0.248   1.975  1.3539  2.9052 -1.4916
  714MPD2    H310561   2.458   0.375   1.925 -0.5809 -1.0866  0.5374
  714MPD2     N10562   2.382   0.169   1.529  0.2248  0.0612  0.5288
  714MPD2    H510563   2.410   0.091   1.471  0.2515  0.0676  0.5335
  714MPD2    N110564   2.757   0.051   1.805 -0.7011  0.0128  0.0758
  714MPD2    H710565   2.804   0.069   1.894 -1.8844  3.2300  0.0612
  715TMC3    C110566   2.902   4.588   1.784 -0.1681  0.0114  0.7397
  715TMC3    C210567   2.927   4.459   1.744  0.6138 -1.3487 -0.4714
  715TMC3    C310568   3.033   4.385   1.789 -0.3577  0.3722 -0.0081
  715TMC3    C410569   2.991   4.649   1.877  0.5749  0.0322  0.2773
  715TMC3    C510570   3.104   4.572   1.912  0.4139 -0.0685  0.3379
  715TMC3    C610571   3.126   4.441   1.873 -0.0777  0.7102  0.9684
  715TMC3     C10572   2.786   4.653   1.741  0.2508  0.3343 -0.3023
  715TMC3     O10573   2.722   4.594   1.655  0.3456  0.4257 -0.2919
  715TMC3     H10574   2.850   4.413   1.684  1.1092  0.9635 -2.9181
  715TMC3    H110575   2.986   0.033   1.892  3.3830  0.0387  1.2933
  715TMC3    H210576   3.218   4.388   1.896 -1.4209 -2.0649  0.0103
  715TMC3    C710577   3.221   4.627   1.974  0.7499  0.6031  0.0152
  715TMC3    C810578   3.046   4.251   1.739 -0.5079  0.3614 -0.2377
  715TMC3    O110579   3.329   4.581   1.948  0.0258 -0.2486 -0.3682
  715TMC3    O210580   2.996   4.210   1.635 -0.3908  0.0137 -0.5808
  716MPD2     C10581   3.264   2.675  10.004  0.0738  0.2688 -0.2507
  716MPD2    C110582   3.237   2.677   9.867  0.1154  0.0044  0.5190
  716MPD2    C210583   3.206   2.562   9.804 -0.0474 -0.2227  0.0851
  716MPD2    C310584   3.190   2.440   9.876 -0.3264 -0.8836 -0.1547
  716MPD2    C410585   3.198   2.448  10.016 -0.4331 -0.3196 -0.2226
  716MPD2    C510586   3.239   2.566  10.074  0.5350 -0.2645  0.0858
  716MPD2     H10587   3.184   2.555   9.698  0.7626  1.4947 -0.1927
  716MPD2    H110588   3.186   2.365  10.084  0.5354 -0.3407 -0.0842
  716MPD2    H210589   3.291   2.764  10.058  0.8394 -0.8041  1.1389
  716MPD2    H310590   3.248   2.569  10.182 -0.3222 -0.8228  0.1772
  716MPD2     N10591   3.149   2.320   9.808 -0.3778  0.0130  0.0835
  716MPD2    H510592   3.114   2.338   9.714  1.7808  0.3800 -0.6489
  716MPD2    N110593   3.260   2.803   9.802 -0.1958 -0.2711 -0.2472
  716MPD2    H710594   3.275   2.886   9.858 -1.1293  0.0775 -0.5076
  717TMC3    C110595   3.103   2.094   9.769  1.0406 -0.4450  1.2423
  717TMC3    C210596   3.016   2.123   9.669  0.8340 -0.1218 -0.2394
  717TMC3    C310597   2.994   2.026   9.571  0.5651 -0.4476  0.3527
  717TMC3    C410598   3.155   1.968   9.784 -0.3189 -0.0482 -0.4807
  717TMC3    C510599   3.134   1.875   9.678  0.7155 -0.1948 -0.1400
  717TMC3    C610600   3.045   1.901   9.577  0.3986 -0.0179  0.3340
  717TMC3     C10601   3.145   2.194   9.861  0.4073 -0.5375 -0.1326
  717TMC3     O10602   3.190   2.151   9.960  0.1589 -0.2576 -0.3366
  717TMC3     H10603   2.958   2.214   9.662  1.8096  0.5218  0.0522
  717TMC3    H110604   3.222   1.936   9.862 -0.8602  0.2677  0.1087
  717TMC3    H210605   3.035   1.828   9.498 -0.4821  0.3443  0.1130
  717TMC3    C710606   3.223   1.759   9.691  0.3715 -0.0261  0.4734
  717TMC3    C810607   2.907   2.060   9.459 -0.3999 -0.1367 -0.0619
  717TMC3    O110608   3.304   1.757   9.782 -0.3389  0.0305  0.7378
  717TMC3    O210609   2.828   2.149   9.475  0.3908  0.3107  0.0333
  718MPD2     C10610   1.887   2.340  11.917  0.3555 -0.1082  0.2718
  718MPD2    C110611   1.990   2.260  11.866  0.1516 -0.4457  0.5264
  718MPD2    C210612   2.038   2.163  11.948 -0.1294 -0.3476  0.4941
  718MPD2    C310613   1.983   2.128  12.072  0.5857  0.3916 -0.0919
  718MPD2    C410614   1.871   2.203  12.113 -0.1998 -0.1247  0.0217
  718MPD2    C510615   1.833   2.314  12.042 -1.1929  0.3995  0.2116
  718MPD2     H10616   2.125   2.106  11.917  0.0039 -0.1746  0.5483
  718MPD2    H110617   1.813   2.191  12.204  0.8719  2.3930  1.0758
  718MPD2    H210618   1.845   2.415  11.850 -0.9696 -1.9799 -0.9889
  718MPD2    H310619   1.744   2.364  12.080 -1.9195 -0.9105  0.2136
  718MPD2     N10620   2.036   2.020  12.141 -0.5917 -0.3312  0.3735
  718MPD2    H510621   2.130   1.992  12.115 -0.8504  0.3920 -1.3328
  718MPD2    N110622   2.062   2.286  11.748  0.7531 -0.0821 -0.7042
  718MPD2    H710623   2.052   2.380  11.711 -2.3746  0.3505  1.2541
  719TMC3    C110624   2.181   2.222  11.551 -0.4208  0.0631  0.2099
  719TMC3    C210625   2.221   2.109  11.482 -0.4840 -0.2402  0.1800
  719TMC3    C310626   2.351   2.103  11.435 -0.2536 -0.1834  0.3908
  719TMC3    C410627   2.285   2.326  11.568 -0.1874 -0.3896  0.0628
  719TMC3    C510628   2.408   2.312  11.508 -0.1601  0.3518  0.6518
  719TMC3    C610629   2.443   2.198  11.446  0.2945  0.8472  0.4259
  719TMC3     C10630   2.125   2.183  11.677  0.3667 -0.2967 -0.5886
  719TMC3     O10631   2.136   2.061  11.691  0.2354  0.1478 -0.2667
  719TMC3     H10632   2.157   2.028  11.450  0.0335  0.8630 -3.5660
  719TMC3    H110633   2.258   2.419  11.616  0.4047  1.0979 -2.4532
  719TMC3    H210634   2.539   2.192  11.397 -1.4315 -0.4845 -2.7800
  719TMC3    C710635   2.523   2.392  11.558 -0.3598  0.7739  0.2239
  719TMC3    C810636   2.420   1.981  11.464  0.0426 -0.2433 -0.4566
  719TMC3    O110637   2.635   2.352  11.519 -0.0013 -0.5308  0.2060
  719TMC3    O210638   2.539   1.961  11.439  0.3403  1.0019  0.7645
  720MPD2     C10639   0.493   3.227  13.906  0.2790  0.2036 -0.2027
  720MPD2    C110640   0.601   3.191  13.841  0.0950 -0.2531 -0.7625
  720MPD2    C210641   0.715   3.146  13.915 -1.0804  0.2160 -0.4702
  720MPD2    C310642   0.705   3.139  14.050 -0.0751 -0.5838 -0.5934
  720MPD2    C410643   0.593   3.182  14.113  0.2545 -0.8598 -0.4927
  720MPD2    C510644   0.485   3.218  14.041  1.1849 -0.3075 -0.1303
  720MPD2     H10645   0.806   3.109  13.870 -0.7869 -1.5336  1.5589
  720MPD2    H110646   0.587   3.196  14.221 -0.0371  0.2817 -0.6589
  720MPD2    H210647   0.411   3.276  13.855  0.3124  0.7360  0.2620
  720MPD2    H310648   0.398   3.257  14.093  2.4786  2.8452 -0.2848
  720MPD2     N10649   0.821   3.100  14.120  0.0626 -0.5898 -0.0666
  720MPD2    H510650   0.903   3.102  14.061  0.5787 -0.4896  0.6666
  720MPD2    N110651   0.627   3.218  13.705 -0.3716 -0.1677  0.1724
  720MPD2    H710652   0.720   3.223  13.664  0.0271  0.1564  1.1247
  721TMC3    C110653   0.964   3.103  14.305  0.1631  0.3713 -0.1529
  721TMC3    C210654   0.976   3.102  14.440  0.4719  0.7967 -0.0478
  721TMC3    C310655   1.099   3.094  14.494 -0.2158 -0.5216 -0.2891
  721TMC3    C410656   1.073   3.105  14.224 -0.0684  0.6300  0.5504
  721TMC3    C510657   1.191   3.144  14.281  0.7595  1.4597 -1.1050
  721TMC3    C610658   1.206   3.114  14.415 -0.0249  0.2297 -0.1110
  721TMC3     C10659   0.832   3.090  14.256  0.2708 -0.3169 -0.2324
  721TMC3     O10660   0.744   3.089  14.339  0.0802 -0.0287 -0.0883
  721TMC3     H10661   0.889   3.130  14.500  1.1404 -0.1937  1.3660
  721TMC3    H110662   1.061   3.119  14.117  0.3342  1.4331  0.6102
  721TMC3    H210663   1.301   3.120  14.466 -0.2521 -2.1344  0.6082
  721TMC3    C710664   1.304   3.185  14.201  0.0368 -0.6043 -0.4433
  721TMC3    C810665   1.122   3.109  14.634  0.6030 -0.4415 -0.0319
  721TMC3    O110666   1.282   3.208  14.084  0.5808 -0.1640 -0.1584
  721TMC3    O210667   1.206   3.192  14.670 -0.2177  0.0461  0.3481
  722MPD2     C10668   4.549   1.697  13.688  0.0532 -0.1295 -0.3930
  722MPD2    C110669   4.476   1.807  13.647  1.0634  0.2842 -0.8957
  722MPD2    C210670   4.340   1.798  13.638  0.3877  0.1336  0.0601
  722MPD2    C310671   4.274   1.686  13.678  0.0960 -0.1290 -0.4120
  722MPD2    C410672   4.346   1.584  13.737 -0.8845  0.4092  0.4873
  722MPD2    C510673   4.481   1.591  13.744 -0.5287 -0.0179 -0.1726
  722MPD2     H10674   4.288   1.884  13.597  0.7709  1.2513  1.9453
  722MPD2    H110675   4.289   1.494  13.758  1.3102 -1.0722  0.1061
  722MPD2    H210676   4.656   1.686  13.704  0.4378  1.7723 -1.6073
  722MPD2    H310677   4.543   1.507  13.770 -1.4988 -0.3394  1.0955
  722MPD2     N10678   4.132   1.680  13.650 -0.1652 -0.3740 -0.0031
  722MPD2    H510679   4.090   1.731  13.572 -1.3969  0.6059  1.2930
  722MPD2    N110680   4.542   1.920  13.583  0.1660 -0.1598  0.1683
  722MPD2    H710681   4.476   1.978  13.533 -1.6515 -1.9673  0.4891
  723TMC3    C110682   3.913   1.584  13.650  0.1371 -0.1255  0.2494
  723TMC3    C210683   3.857   1.462  13.672  0.1089 -0.1052  0.2032
  723TMC3    C310684   3.772   1.412  13.579  0.0923 -0.2691 -0.2957
  723TMC3    C410685   3.875   1.666  13.544 -0.0047 -0.8336  0.7330
  723TMC3    C510686   3.783   1.617  13.454 -0.3920  0.2190 -0.0597
  723TMC3    C610687   3.738   1.487  13.475 -0.4273 -0.0590  0.0527
  723TMC3     C10688   4.046   1.600  13.717 -0.7870 -0.3566  0.4581
  723TMC3     O10689   4.073   1.530  13.810  0.1243 -0.6684 -0.4387
  723TMC3     H10690   3.879   1.405  13.761  1.4273  1.6563  1.0038
  723TMC3    H110691   3.914   1.767  13.542  2.0187 -1.6191 -0.0324
  723TMC3    H210692   3.655   1.453  13.414 -0.5230  0.4313 -0.0922
  723TMC3    C710693   3.754   1.681  13.325 -0.4903  0.5230 -0.3722
  723TMC3    C810694   3.736   1.276  13.600 -0.2318 -0.2687 -0.5320
  723TMC3    O110695   3.674   1.625  13.254 -0.4996 -0.1173 -0.0761
  723TMC3    O210696   3.725   1.232  13.714  0.1628  0.0854 -0.0177
  724TMC3    C110697   0.386   0.401   9.089  0.3830 -0.4696  0.1397
  724TMC3    C210698   0.435   0.291   9.145 -0.9096  0.0476 -0.3857
  724TMC3    C310699   0.550   0.304   9.215 -0.2334 -0.5393 -0.6691
  724TMC3    C410700   0.450   0.524   9.097  0.4539 -0.7265 -0.0218
  724TMC3    C510701   0.570   0.530   9.156  0.6048  0.4544  0.5748
  724TMC3    C610702   0.625   0.419   9.211 -0.2764  0.2810  0.0972
  724TMC3     C10703   0.251   0.388   9.028 -0.4572 -0.2959 -0.5632
  724TMC3     O10704   0.181   0.291   9.067 -0.3403 -0.4725  0.0743
  724TMC3     H10705   0.382   0.196   9.149  0.5303 -0.7508 -0.0330
  724TMC3    H110706   0.399   0.617   9.075 -1.5776 -1.4873  1.4535
  724TMC3    H210707   0.726   0.420   9.250  0.0459 -3.2629 -0.6615
  724TMC3    C710708   0.626   0.663   9.158  0.1065 -0.7154 -0.2891
  724TMC3    C810709   0.617   0.193   9.288 -0.6703  1.2309  0.5293
  724TMC3    O110710   0.551   0.754   9.128 -0.5510 -0.0434 -0.2482
  724TMC3    O210711   0.610   0.085   9.241  0.1216  0.3018  0.0484
  725TMC3    C110712   1.213   3.386  12.744 -0.3103 -0.6832  0.1813
  725TMC3    C210713   1.138   3.356  12.635  0.1468 -0.0587 -0.1394
  725TMC3    C310714   1.188   3.255  12.558  0.0230  1.0886 -0.4651
  725TMC3    C410715   1.326   3.320  12.782 -0.3556  0.3215  0.1008
  725TMC3    C510716   1.362   3.212  12.701  0.2601 -0.5175 -0.4481
  725TMC3    C610717   1.299   3.184  12.587 -0.7781 -0.5799 -0.4941
  725TMC3     C10718   1.175   3.505  12.819  0.3971  0.3139 -0.2842
  725TMC3     O10719   1.055   3.527  12.839  0.2287 -0.2304  0.2147
  725TMC3     H10720   1.050   3.416  12.612 -1.3526 -2.4180 -0.5119
  725TMC3    H110721   1.389   3.352  12.864  0.1604 -0.3679 -0.0277
  725TMC3    H210722   1.342   3.116  12.514 -0.5847 -1.3380  0.3295
  725TMC3    C710723   1.504   3.189  12.700  0.1958 -0.2632  0.4357
  725TMC3    C810724   1.138   3.245  12.425 -0.3277  0.0616  0.6247
  725TMC3    O110725   1.553   3.188  12.588 -0.0824  0.0791  0.6067
  725TMC3    O210726   1.138   3.132  12.378  0.4264  0.2012  0.2940
  726MPD2     C10727   4.333   4.658  10.102  0.6255  0.4544 -0.2846
  726MPD2    C110728   4.298   0.062  10.146  1.1193 -0.3281  0.8848
  726MPD2    C210729   4.179   0.089  10.212 -0.3709  0.0491  0.1481
  726MPD2    C310730   4.090   4.721  10.221 -0.0704 -0.4585  0.1592
  726MPD2    C410731   4.120   4.591  10.176  0.0926  0.2721 -1.3223
  726MPD2    C510732   4.241   4.562  10.123 -1.1617 -0.1397 -0.0220
  726MPD2     H10733   4.160   0.189  10.249  2.1277  0.6626 -0.2026
  726MPD2    H110734   4.054   4.507  10.192 -0.8100  1.2294  0.0255
  726MPD2    H210735   4.430   4.643  10.057  0.5492  0.6274 -0.5088
  726MPD2    H310736   4.266   4.462  10.092  1.3752  0.6769 -0.6173
  726MPD2     N10737   3.966   0.015  10.294  0.3632  0.3987 -0.1197
  726MPD2    H510738   3.900   4.660  10.296  1.8713 -0.8928 -1.3198
  726MPD2    N110739   4.386   0.167  10.122 -0.0417 -0.0691  0.0439
  726MPD2    H710740   4.349   0.262  10.132  0.7269  0.3446 -1.0461
  727TMC3    C110741   4.575   0.291  10.069  0.5365  0.5613 -0.4557
  727TMC3    C210742   4.704   0.318  10.103 -0.4104  0.6207 -0.7731
  727TMC3    C310743   0.041   0.440  10.075 -0.5662 -0.3720 -0.9517
  727TMC3    C410744   4.504   0.382   9.997  0.3523  0.1234  0.3165
  727TMC3    C510745   4.564   0.503   9.969 -0.1159  0.2264 -0.3917
  727TMC3    C610746   4.691   0.532  10.006 -0.0736 -1.0947 -0.0703
  727TMC3     C10747   4.520   0.162  10.107  0.2950  0.4330  0.0856
  727TMC3     O10748   4.599   0.078  10.145  0.0675  0.0252  0.0820
  727TMC3     H10749   0.030   0.236  10.155  0.1406  1.4822  0.0621
  727TMC3    H110750   4.407   0.350   9.963 -0.1354  1.5646  0.3640
  727TMC3    H210751   0.009   0.630   9.987 -0.1903 -1.0821 -0.2625
  727TMC3    C710752   4.469   0.598   9.911 -0.8015 -0.3709 -0.0193
  727TMC3    C810753   0.153   0.485  10.154 -0.3451  0.1354 -0.7212
  727TMC3    O110754   4.366   0.550   9.862  0.2608 -0.2259  0.0909
  727TMC3    O210755   0.186   0.419  10.255  0.1599  0.6696 -0.1398
  728TMC3    C110756   3.228   3.934  15.327 -0.5741  0.1958 -0.3285
  728TMC3    C210757   3.353   3.984  15.318 -0.3771 -0.0028  0.6762
  728TMC3    C310758   3.396   4.030  15.196  0.0616  0.2413  0.1154
  728TMC3    C410759   3.148   3.911  15.215  0.0690  0.0587  0.6057
  728TMC3    C510760   3.181   3.979  15.101  0.3158 -0.1882 -0.7277
  728TMC3    C610761   3.309   4.034  15.089  0.4286  0.0385  0.1559
  728TMC3     C10762   3.185   3.904  15.464 -0.6971 -0.6180 -0.4315
  728TMC3     O10763   3.245   3.953  15.560  0.1282 -0.1612  0.2199
  728TMC3     H10764   3.405   4.011  15.409 -0.9114 -2.0535  1.5923
  728TMC3    H110765   3.044   3.884  15.213  0.3548 -1.2460  3.6231
  728TMC3    H210766   3.353   4.049  14.991 -0.8846 -0.0486 -0.4591
  728TMC3    C710767   3.104   3.966  14.975  0.0143 -0.4140  0.7167
  728TMC3    C810768   3.508   4.120  15.203 -0.2113 -0.0843 -0.0568
  728TMC3    O110769   3.051   3.856  14.962 -0.3779  0.2029 -0.4208
  728TMC3    O210770   3.490   4.230  15.152 -0.2687 -0.3397 -0.1533
  729MPD2     C10771   0.879   4.567  16.910 -0.0314 -0.1079 -0.2979
  729MPD2    C110772   1.013   4.560  16.925 -0.5517  0.7016 -0.4225
  729MPD2    C210773   1.064   4.584  17.049  0.3970 -0.3462  0.2317
  729MPD2    C310774   0.982   4.602  17.159  0.1464 -0.8084  0.2142
  729MPD2    C410775   0.851   4.592  17.147 -0.1944 -0.8767 -0.2814
  729MPD2    C510776   0.802   4.590  17.021  0.2071  0.7476 -0.3294
  729MPD2     H10777   1.171   4.601  17.051  1.0909 -4.3445 -2.1721
  729MPD2    H110778   0.790   4.618  17.233  2.9842  0.0122  1.7127
  729MPD2    H210779   0.823   4.553  16.817 -0.4831  1.5540 -0.2804
  729MPD2    H310780   0.695   4.606  17.011 -0.0405  0.4229  1.8809
  729MPD2     N10781   1.025   4.641  17.283  0.3453 -1.3910 -0.4192
  729MPD2    H510782   0.957   4.671  17.352  0.5776  0.6407 -1.0903
  729MPD2    N110783   1.093   4.567  16.809  0.3389 -0.0180 -0.0005
  729MPD2    H710784   1.041   4.571  16.722  3.2498 -0.2234 -1.7433
  730TMC3    C110785   1.182   0.041  17.423 -1.2572 -1.1900 -0.5757
  730TMC3    C210786   1.321   0.074  17.418  0.1175 -0.3877 -0.1248
  730TMC3    C310787   1.354   0.203  17.434 -0.0438 -0.3347 -1.0815
  730TMC3    C410788   1.083   0.135  17.443 -0.2903  0.8325  0.5442
  730TMC3    C510789   1.129   0.260  17.483 -0.9635  0.5206  0.1260
  730TMC3    C610790   1.266   0.297  17.472 -0.4545  0.4570  0.3388
  730TMC3     C10791   1.156   4.673  17.311 -0.1212  0.2463 -0.6787
  730TMC3     O10792   1.261   4.640  17.250  0.8693 -0.6415 -0.1373
  730TMC3     H10793   1.397   0.001  17.392  1.2125  1.5540 -2.3702
  730TMC3    H110794   0.979   0.108  17.434  0.6518 -3.1410  1.5235
  730TMC3    H210795   1.293   0.401  17.491  0.7001  0.7862 -3.0566
  730TMC3    C710796   1.038   0.360  17.427  0.1620  0.4194 -0.6983
  730TMC3    C810797   1.442   0.248  17.333 -0.1529  0.0275  0.6391
  730TMC3    O110798   0.955   0.316  17.348 -0.2758  0.3571 -0.3217
  730TMC3    O210799   1.465   0.169  17.243  0.1828 -0.4151 -0.1338
  731MPD2     C10800   0.766   3.093  11.864  0.6657 -0.0672  0.4154
  731MPD2    C110801   0.881   3.025  11.909  0.3392  0.6279  0.2359
  731MPD2    C210802   0.884   2.994  12.039 -0.2528 -0.2574 -0.9576
  731MPD2    C310803   0.796   3.033  12.137 -0.0756 -0.3944  0.4690
  731MPD2    C410804   0.697   3.121  12.093 -0.3721 -0.8569 -0.4397
  731MPD2    C510805   0.679   3.144  11.957 -0.1907 -0.5053  0.6523
  731MPD2     H10806   0.965   2.929  12.071 -0.4710 -0.4947 -0.8824
  731MPD2    H110807   0.622   3.163  12.160 -0.3760 -1.3534 -0.1330
  731MPD2    H210808   0.752   3.106  11.757  1.2769  0.4534  0.3964
  731MPD2    H310809   0.597   3.208  11.926  0.9167  0.5531 -0.1101
  731MPD2     N10810   0.827   2.993  12.267  0.2918 -0.1158  0.9290
  731MPD2    H510811   0.902   2.926  12.277  0.3884 -0.0285  0.7868
  731MPD2    N110812   0.961   2.974  11.811  0.1219 -0.0193  0.3492
  731MPD2    H710813   0.930   3.006  11.720  0.0303  1.5062  0.9070
  732TMC3    C110814   1.148   2.884  11.696  0.1285 -0.4288  0.0097
  732TMC3    C210815   1.065   2.838  11.597  0.2145 -0.2858  0.3282
  732TMC3    C310816   1.124   2.760  11.506 -0.1918  0.2187 -0.6958
  732TMC3    C410817   1.283   2.865  11.698  0.1373  0.3561  0.2198
  732TMC3    C510818   1.341   2.801  11.593 -0.2873  0.5158  1.2004
  732TMC3    C610819   1.258   2.745  11.500 -0.0719  0.0496 -0.4936
  732TMC3     C10820   1.090   2.929  11.821  0.1266  0.4352  0.2418
  732TMC3     O10821   1.174   2.946  11.911 -0.0481 -0.1481 -0.4732
  732TMC3     H10822   0.958   2.844  11.609  0.2781  2.3993 -0.4484
  732TMC3    H110823   1.347   2.912  11.772 -0.2028  2.5760 -0.9072
  732TMC3    H210824   1.303   2.687  11.421  0.2620 -1.7426  1.0034
  732TMC3    C710825   1.482   2.815  11.576 -0.5520 -0.4957  0.1636
  732TMC3    C810826   1.047   2.669  11.425  0.3501  0.7082  0.1829
  732TMC3    O110827   1.540   2.804  11.463 -0.0174  0.7935 -0.0005
  732TMC3    O210828   1.102   2.606  11.337  0.3978  0.2470 -0.1495
  733TMC3    C110829   2.141   1.691  12.437  0.0704 -0.4755  0.5537
  733TMC3    C210830   2.057   1.798  12.408  0.1516  0.0959 -0.8079
  733TMC3    C310831   2.062   1.837  12.279  0.6894  0.3857 -0.2398
  733TMC3    C410832   2.217   1.628  12.332 -0.2118 -0.6029 -0.3543
  733TMC3    C510833   2.211   1.679  12.202 -0.7155 -0.0379  0.0933
  733TMC3    C610834   2.116   1.772  12.173 -0.2126  0.0747 -0.1645
  733TMC3     C10835   2.109   1.619  12.559 -0.6324 -0.0861  1.0076
  733TMC3     O10836   2.038   1.683  12.636 -0.4231  0.1996 -0.4803
  733TMC3     H10837   2.007   1.857  12.484  0.9701  0.1167 -0.2745
  733TMC3    H110838   2.290   1.549  12.345  1.8779  0.9218 -3.1027
  733TMC3    H210839   2.091   1.791  12.070 -0.3323 -1.2456 -0.3881
  733TMC3    C710840   2.311   1.639  12.095  0.0010 -0.2339 -0.1418
  733TMC3    C810841   1.988   1.958  12.253  0.3421 -0.3602  0.1429
  733TMC3    O110842   2.337   1.521  12.097  0.7116  0.3106  0.3754
  733TMC3    O210843   1.894   1.997  12.325  0.4959  0.3869 -0.8231
  734MPD2     C10844   3.911   3.808  12.337 -0.1391 -0.3949  0.2961
  734MPD2    C110845   3.886   3.717  12.241 -0.2681  0.6213 -0.7304
  734MPD2    C210846   3.869   3.757  12.111  0.1853  0.1572  0.5105
  734MPD2    C310847   3.911   3.880  12.060  0.0623  0.0632 -0.3356
  734MPD2    C410848   3.942   3.976  12.159 -0.3552 -0.3403  0.5973
  734MPD2    C510849   3.941   3.934  12.288  0.7584 -0.2870  0.4037
  734MPD2     H10850   3.839   3.681  12.039  0.7390  0.0691  0.3679
  734MPD2    H110851   3.977   4.076  12.138 -1.4646 -0.0592  0.0620
  734MPD2    H210852   3.925   3.792  12.444  0.0420  2.9864  0.7955
  734MPD2    H310853   3.964   4.010  12.362  1.7853 -0.1366 -0.0740
  734MPD2     N10854   3.905   3.924  11.923  0.1687  0.9815 -0.1159
  734MPD2    H510855   3.935   4.013  11.886  0.0472  0.6687 -0.9593
  734MPD2    N110856   3.847   3.586  12.269 -0.1897  0.0559  0.2781
  734MPD2    H710857   3.814   3.531  12.190  2.0557 -0.4196 -0.3329
  735TMC3    C110858   3.764   3.393  12.381  0.5006  0.0697 -0.6857
  735TMC3    C210859   3.649   3.387  12.308 -0.5090 -0.4745  0.5546
  735TMC3    C310860   3.603   3.270  12.258 -0.8644  0.2010  0.5060
  735TMC3    C410861   3.840   3.277  12.390  0.0549 -0.5263 -0.6406
  735TMC3    C510862   3.802   3.164  12.331  0.3299 -0.1048  0.0802
  735TMC3    C610863   3.679   3.155  12.264 -0.1409  0.0887 -0.5167
  735TMC3     C10864   3.836   3.525  12.391 -0.3277  0.3235  1.0405
  735TMC3     O10865   3.855   3.568  12.506 -0.6492  0.1860  0.2997
  735TMC3     H10866   3.598   3.481  12.293  1.4134  0.5629  0.5705
  735TMC3    H110867   3.934   3.284  12.442 -1.8733 -3.8693  3.3052
  735TMC3    H210868   3.647   3.062  12.219  1.7358  0.4658 -2.5952
  735TMC3    C710869   3.902   3.096  12.253 -0.3901 -0.4400  1.0399
  735TMC3    C810870   3.506   3.278  12.154  0.0157 -0.0269 -0.9401
  735TMC3    O110871   3.989   3.168  12.200 -0.7249 -0.2678 -0.0668
  735TMC3    O210872   3.412   3.203  12.148  0.4015  0.1573 -0.1797
  736MPD2     C10873   3.957   2.728  12.225 -0.4918  0.7145  0.1211
  736MPD2    C110874   3.986   2.862  12.195  0.2786  0.4351 -0.8398
  736MPD2    C210875   4.098   2.904  12.123 -0.2626 -0.4831 -0.3649
  736MPD2    C310876   4.185   2.813  12.068  0.0876 -0.6237  0.0061
  736MPD2    C410877   4.157   2.677  12.101  0.7609  0.4419  0.8661
  736MPD2    C510878   4.048   2.641  12.178  0.3203  0.3509  0.0262
  736MPD2     H10879   4.116   3.010  12.107  0.1929 -0.8173 -2.0869
  736MPD2    H110880   4.220   2.598  12.061  0.0158  1.2703 -1.9287
  736MPD2    H210881   3.875   2.704  12.292  0.4428 -1.1976  0.5874
  736MPD2    H310882   4.028   2.534  12.186 -0.4104  0.4088 -1.0142
  736MPD2     N10883   4.287   2.850  11.975  0.1903  0.7375 -0.0438
  736MPD2    H510884   4.315   2.775  11.912 -3.3312 -0.3689 -0.3271
  736MPD2    N110885   3.884   2.959  12.239 -0.2053 -0.2750 -0.8766
  736MPD2    H710886   3.804   2.924  12.289  1.6292 -2.5395  0.4613
  737TMC3    C110887   4.452   2.985  11.858 -0.0813  0.2653 -0.9231
  737TMC3    C210888   4.509   3.111  11.841 -0.0842 -0.1460 -0.4907
  737TMC3    C310889   4.586   3.135  11.727  0.0109  0.4645 -0.0762
  737TMC3    C410890   4.462   2.891  11.754  0.2613  0.7219  0.4183
  737TMC3    C510891   4.537   2.921  11.639 -0.5715 -0.3261  0.6148
  737TMC3    C610892   4.604   3.043  11.624 -0.4865  0.3828  0.0371
  737TMC3     C10893   4.354   2.969  11.966 -0.0588 -0.2197 -0.6597
  737TMC3     O10894   4.332   3.066  12.036  0.0597 -0.9270  0.1095
  737TMC3     H10895   4.497   3.187  11.917  0.0489  0.3314 -0.9487
  737TMC3    H110896   4.403   2.801  11.750  1.8573 -0.4033  2.0179
  737TMC3    H210897   4.678   3.058  11.546  2.0561 -1.9841  2.0075
  737TMC3    C710898   4.581   2.805  11.559  0.2438 -0.0778 -0.1206
  737TMC3    C810899   4.621   3.268  11.700  0.2697 -0.2149 -0.3647
  737TMC3    O110900   4.523   2.698  11.589 -0.0707  0.3886  0.0687
  737TMC3    O210901   4.638   3.348  11.794  0.4596 -0.1790  1.2278
  738MPD2     C10902   4.552   1.951  15.050  0.2349 -0.7547  0.5598
  738MPD2    C110903   4.616   2.001  15.165 -0.3793 -0.1161  0.5881
  738MPD2    C210904   4.680   2.120  15.153  0.3360 -0.5668 -1.2510
  738MPD2    C310905   4.678   2.190  15.032  0.0013 -0.5079 -0.5894
  738MPD2    C410906   4.601   2.145  14.923 -0.3742 -0.4753  0.9014
  738MPD2    C510907   4.548   2.017  14.935  0.0519  0.3794  0.2027
  738MPD2     H10908   0.019   2.166  15.229  0.8611 -1.8578 -0.9132
  738MPD2    H110909   4.606   2.193  14.826  2.6135  0.2177  1.3826
  738MPD2    H210910   4.513   1.850  15.046 -3.5455  0.7911 -1.7563
  738MPD2    H310911   4.491   1.964  14.859 -0.3702  0.9911  0.0905
  738MPD2     N10912   0.025   2.312  15.016 -0.1447 -0.1090 -0.3670
  738MPD2    H510913   0.012   2.358  14.926 -1.0347 -2.8656 -1.6487
  738MPD2    N110914   4.624   1.935  15.284  0.0686 -0.4083 -0.3558
  738MPD2    H710915   4.702   1.962  15.343 -0.7399 -1.7024  1.3030
  739TMC3    C110916   0.083   2.523  15.067 -0.0187  0.3365 -0.5811
  739TMC3    C210917   0.094   2.555  14.929 -0.1640  0.2170 -0.3109
  739TMC3    C310918   0.115   2.683  14.889  0.3461  0.7129 -0.1216
  739TMC3    C410919   0.111   2.620  15.158 -0.9624 -0.0236 -0.3458
  739TMC3    C510920   0.147   2.745  15.114  0.4647 -0.7605  0.1663
  739TMC3    C610921   0.144   2.782  14.974  0.0165 -0.6078  0.3183
  739TMC3     C10922   0.080   2.389  15.115 -0.6228 -0.9050  0.1018
  739TMC3     O10923   0.112   2.372  15.233  0.1358 -0.7382  0.1416
  739TMC3     H10924   0.097   2.480  14.850 -0.1081  0.3363 -0.4204
  739TMC3    H110925   0.105   2.599  15.265  3.0475  0.7430  0.0315
  739TMC3    H210926   0.149   2.889  14.962 -1.9481 -0.5961 -0.3996
  739TMC3    C710927   0.100   2.852  15.203  0.0386  0.0688  0.9654
  739TMC3    C810928   0.136   2.714  14.747 -1.1795 -0.9153 -0.8649
  739TMC3    O110929   0.016   2.932  15.168  0.5093 -0.2891 -0.1543
  739TMC3    O210930   0.068   2.648  14.666 -0.1792 -0.1463 -0.0791
  740TMC3    C110931   0.501   3.563  14.114  0.5237 -0.1231  0.7610
  740TMC3    C210932   0.548   3.534  14.243 -0.2555  0.8029 -0.9273
  740TMC3    C310933   0.680   3.506  14.260  0.0839  0.1735 -0.0665
  740TMC3    C410934   0.587   3.573  14.007 -0.0014  0.7858  0.1255
  740TMC3    C510935   0.719   3.530  14.024  0.4103 -0.1084  0.0572
  740TMC3    C610936   0.762   3.494  14.152 -0.3292  0.1949 -0.4995
  740TMC3     C10937   0.369   3.527  14.078 -0.2939 -0.1253  0.1438
  740TMC3     O10938   0.352   3.512  13.956 -0.3013 -0.6473  0.2613
  740TMC3     H10939   0.486   3.534  14.331  0.3458 -0.0955 -0.5008
  740TMC3    H110940   0.554   3.586  13.904  0.8660  1.6058 -0.0546
  740TMC3    H210941   0.859   3.447  14.164  0.1354  0.2254 -4.1061
  740TMC3    C710942   0.795   3.483  13.911 -0.3338 -0.0376 -0.9801
  740TMC3    C810943   0.730   3.470  14.388 -0.2719 -0.0894 -0.2191
  740TMC3    O110944   0.889   3.407  13.936 -0.5192 -0.1589  0.1388
  740TMC3    O210945   0.840   3.512  14.414  0.2529  0.2241 -0.5233
  741TMC3    C110946   0.028   3.011  14.257  0.1486  0.6533  0.1993
  741TMC3    C210947   4.658   2.913  14.287 -0.2377  0.2567 -0.2750
  741TMC3    C310948   4.617   2.887  14.418  0.2161 -0.1631 -0.2780
  741TMC3    C410949   0.087   3.069  14.365 -0.3610 -0.2233  0.2100
  741TMC3    C510950   0.047   3.038  14.497 -0.0415 -0.4541  0.5900
  741TMC3    C610951   4.664   2.948  14.532 -0.0317 -0.3088 -0.0684
  741TMC3     C10952   0.091   3.036  14.123 -0.3406 -0.1870 -0.6099
  741TMC3     O10953   0.194   3.101  14.132  0.2301 -0.4165 -0.1648
  741TMC3     H10954   4.613   2.856  14.207  0.4538 -0.3281 -0.2467
  741TMC3    H110955   0.166   3.141  14.349 -0.4251 -0.1793  0.0929
  741TMC3    H210956   4.628   2.930  14.632 -1.8939  0.9353 -0.5084
  741TMC3    C710957   0.119   3.115  14.596 -0.4570  0.6936  0.1510
  741TMC3    C810958   4.525   2.779  14.430  0.5523 -0.0892  0.6446
  741TMC3    O110959   0.217   3.182  14.563 -0.1919  0.1895  0.3984
  741TMC3    O210960   4.461   2.744  14.331  0.0736  1.0260 -0.3426
  742TMC3    C110961   4.542   0.998  15.472  0.3706  0.1151 -0.2626
  742TMC3    C210962   4.431   0.967  15.393 -0.1128 -0.4559  0.3616
  742TMC3    C310963   4.442   0.886  15.286 -0.8460  0.5833  0.6375
  742TMC3    C410964   4.660   0.930  15.458  0.4360  0.2678 -0.0392
  742TMC3    C510965   4.668   0.847  15.346  0.0869 -0.3608  0.6975
  742TMC3    C610966   4.563   0.828  15.259 -0.1205 -0.9351 -0.2243
  742TMC3     C10967   4.544   1.105  15.568  0.5785 -0.0074  0.2479
  742TMC3     O10968   4.436   1.124  15.626  0.0230 -0.2622  0.1524
  742TMC3     H10969   4.346   1.034  15.392  0.4524  0.2954  1.3465
  742TMC3    H110970   0.026   0.941  15.520 -0.5649  0.4134  1.3582
  742TMC3    H210971   4.572   0.769  15.168 -1.6172  0.1773 -1.0942
  742TMC3    C710972   0.058   0.764  15.322 -0.3044  0.0713 -0.0848
  742TMC3    C810973   4.331   0.871  15.192 -0.3219 -0.3691  0.2511
  742TMC3    O110974   0.097   0.751  15.205  0.4689 -0.0950  0.6245
  742TMC3    O210975   4.354   0.820  15.085 -0.0781 -0.1899 -0.6412
  743MPD2     C10976   2.306   2.628   1.603 -0.7285  0.0377 -0.3954
  743MPD2    C110977   2.305   2.554   1.486 -0.0586  0.0355 -1.0107
  743MPD2    C210978   2.397   2.455   1.458 -0.5375  0.0067 -0.0628
  743MPD2    C310979   2.501   2.443   1.546  0.3302  0.2920 -0.6012
  743MPD2    C410980   2.501   2.510   1.663 -0.5604  0.3199  0.5670
  743MPD2    C510981   2.402   2.596   1.692 -0.5997  1.2932 -0.2448
  743MPD2     H10982   2.403   2.399   1.365  1.1196 -1.4568  0.9243
  743MPD2    H110983   2.577   2.482   1.734  0.0231 -0.7049 -0.4620
  743MPD2    H210984   2.245   2.714   1.624  1.5328  1.5099  0.1542
  743MPD2    H310985   2.418   2.653   1.783  1.4449  2.5917 -1.3900
  743MPD2     N10986   2.591   2.339   1.519  0.2509  0.3926 -0.1836
  743MPD2    H510987   2.572   2.296   1.429 -4.1448  0.5930  0.6731
  743MPD2    N110988   2.203   2.587   1.396  0.6222  0.3787 -0.0351
  743MPD2    H710989   2.140   2.656   1.434  1.4796  0.3757  1.3624
  744TMC3    C110990   2.070   2.576   1.203  0.4413 -0.0320  0.3900
  744TMC3    C210991   2.004   2.688   1.253  0.3143 -0.1919  0.4736
  744TMC3    C310992   1.915   2.752   1.171 -0.3545 -0.0413  0.1423
  744TMC3    C410993   2.044   2.531   1.079  0.4510 -0.4310  0.3027
  744TMC3    C510994   1.940   2.592   1.010  0.0735  1.1908 -0.4336
  744TMC3    C610995   1.876   2.706   1.051 -0.3786 -0.3347  0.5519
  744TMC3     C10996   2.185   2.526   1.273  0.3768  0.6348 -0.6523
  744TMC3     O10997   2.231   2.422   1.224 -0.4981  0.2692 -0.0264
  744TMC3     H10998   2.019   2.725   1.354  3.8302  1.6637 -0.6955
  744TMC3    H110999   2.106   2.449   1.044  0.8599  1.0728 -2.5823
  744TMC3    H211000   1.789   2.741   0.996  0.1438 -0.7083 -0.5179
  744TMC3    C711001   1.917   2.538   0.876  0.3770  0.0559  0.8581
  744TMC3    C811002   1.862   2.882   1.223 -0.0108  0.5807  0.2743
  744TMC3    O111003   1.969   2.427   0.858 -0.1092 -0.1007 -0.7088
  744TMC3    O211004   1.902   2.911   1.332  0.2573 -0.8510 -0.0504
  745TMC3    C111005   0.967   0.884  13.775  0.6973  0.0717  0.5074
  745TMC3    C211006   0.827   0.883  13.774 -0.1043 -0.1561 -0.1097
  745TMC3    C311007   0.760   0.843  13.661  0.1090  0.1094  0.3135
  745TMC3    C411008   1.039   0.858  13.655  0.2367  0.0819  0.1449
  745TMC3    C511009   0.964   0.819  13.541  0.1159  0.0338 -0.1239
  745TMC3    C611010   0.825   0.819  13.546  0.0957  0.2578 -0.3666
  745TMC3     C11011   1.016   0.980  13.870 -0.2246 -0.1010  0.2789
  745TMC3     O11012   0.985   0.971  13.988 -0.2618  0.6343  0.0707
  745TMC3     H11013   0.770   0.898  13.865 -1.4863  2.5420 -1.4199
  745TMC3    H111014   1.144   0.836  13.665  0.1478  0.1761  1.2164
  745TMC3    H211015   0.774   0.791  13.455  0.5201 -0.3484 -0.4155
  745TMC3    C711016   1.032   0.810  13.412 -0.3151 -0.0279 -0.9214
  745TMC3    C811017   0.647   0.926  13.633  0.2411  0.0695  0.2802
  745TMC3    O111018   0.969   0.755  13.320 -0.2137 -0.5294 -0.4883
  745TMC3    O211019   0.580   0.911  13.533  0.2618 -0.0477  0.2396
  746TMC3    C111020   2.616   3.120  10.819  0.4361  0.2051  0.0114
  746TMC3    C211021   2.663   3.070  10.699  0.6049 -0.1861 -0.4621
  746TMC3    C311022   2.600   2.953  10.653 -0.6016  0.4707 -0.5584
  746TMC3    C411023   2.531   3.053  10.901  0.9042 -0.1123  0.0511
  746TMC3    C511024   2.461   2.946  10.848 -0.3334 -0.2922  1.1191
  746TMC3    C611025   2.501   2.890  10.727  0.3800 -0.6568 -0.5733
  746TMC3     C11026   2.656   3.256  10.859 -0.1687 -0.4876 -0.1116
  746TMC3     O11027   2.648   3.283  10.976 -0.2985  0.4844  0.4259
  746TMC3     H11028   2.751   3.111  10.651  1.6310 -0.0635  1.5445
  746TMC3    H111029   2.518   3.103  10.996 -0.7137  0.1406 -0.3053
  746TMC3    H211030   2.454   2.795  10.704 -1.6068  0.2826 -0.3915
  746TMC3    C711031   2.337   2.899  10.901  0.1573  0.8981 -0.0951
  746TMC3    C811032   2.662   2.891  10.533  0.3544 -0.2006 -0.5341
  746TMC3    O111033   2.273   2.830  10.817  0.0655 -0.3762 -0.6256
  746TMC3    O211034   2.626   2.778  10.512  0.4368  0.3086  0.2059
  747TMC3    C111035   0.491   2.819  10.696 -0.1235 -0.2891  0.4263
  747TMC3    C211036   0.387   2.760  10.767  0.6493 -0.3278  0.8820
  747TMC3    C311037   0.388   2.754  10.897  0.2855 -0.8141  0.2554
  747TMC3    C411038   0.594   2.877  10.771 -0.3820 -0.1342  0.3276
  747TMC3    C511039   0.585   2.862  10.910 -0.1112 -0.0763 -0.3612
  747TMC3    C611040   0.490   2.802  10.978  0.8139 -0.2683  0.7000
  747TMC3     C11041   0.497   2.802  10.555 -0.6043 -0.0137 -0.3961
  747TMC3     O11042   0.535   2.904  10.495 -0.1015 -0.5623 -0.2133
  747TMC3     H11043   0.296   2.729  10.717 -0.1732  3.8906 -0.2954
  747TMC3    H111044   0.669   2.939  10.723  0.0554 -1.9235 -1.2902
  747TMC3    H211045   0.496   2.791  11.086  2.1635  1.8360  0.8252
  747TMC3    C711046   0.695   2.917  10.984 -0.1414 -0.1906  0.1695
  747TMC3    C811047   0.263   2.702  10.955  0.0454  0.2208 -0.3307
  747TMC3    O111048   0.665   2.989  11.082 -0.1718  0.3001  0.6397
  747TMC3    O211049   0.212   2.611  10.894 -0.0831 -0.0487  0.0651
  748MPD2     C11050   2.727   3.764   2.340 -0.3355 -0.1436 -0.2328
  748MPD2    C111051   2.751   3.648   2.276 -0.0289  0.5581 -0.1568
  748MPD2    C211052   2.679   3.624   2.165 -0.1060  0.8423  0.2653
  748MPD2    C311053   2.592   3.713   2.108  0.0440  0.0080  0.0595
  748MPD2    C411054   2.582   3.837   2.171 -0.3399  0.0860  0.0631
  748MPD2    C511055   2.647   3.858   2.290  0.8302 -0.1459 -0.1632
  748MPD2     H11056   2.684   3.526   2.118  0.4546  1.9786 -2.0121
  748MPD2    H111057   2.516   3.916   2.137 -1.2907 -1.6104 -2.0228
  748MPD2    H211058   2.773   3.791   2.434 -0.0258 -0.6384 -0.2420
  748MPD2    H311059   2.619   3.942   2.352 -0.1657  0.7519 -1.8455
  748MPD2     N11060   2.530   3.676   1.986  0.5232 -0.2613 -0.2286
  748MPD2    H511061   2.559   3.594   1.934 -0.1006 -0.8028  0.2748
  748MPD2    N111062   2.842   3.557   2.335  0.5181  0.4545 -0.5987
  748MPD2    H711063   2.896   3.588   2.416  0.6300 -1.1439 -0.0495
  749TMC3    C111064   2.415   3.679   1.778  0.0877 -0.6506 -0.0112
  749TMC3    C211065   2.465   3.554   1.770  0.4658 -0.6638 -0.1182
  749TMC3    C311066   2.521   3.520   1.646  0.6845  0.0506  0.0244
  749TMC3    C411067   2.391   3.756   1.669 -0.4873  0.1609 -0.3849
  749TMC3    C511068   2.453   3.718   1.548  0.0064  0.1026  0.3910
  749TMC3    C611069   2.516   3.596   1.534 -0.4667  1.4434 -0.0854
  749TMC3     C11070   2.447   3.750   1.903 -0.7154 -0.2181  0.3745
  749TMC3     O11071   2.406   3.867   1.914  0.3846  0.0652  0.6049
  749TMC3     H11072   2.491   3.487   1.851 -0.5545 -1.4595 -0.4454
  749TMC3    H111073   2.360   3.859   1.682 -1.3375  0.0433 -1.3830
  749TMC3    H211074   2.571   3.570   1.444 -2.1920 -1.0235 -0.4467
  749TMC3    C711075   2.468   3.821   1.443  0.0586  0.3071 -0.7701
  749TMC3    C811076   2.637   3.441   1.665  0.2543  0.0442  0.0626
  749TMC3    O111077   2.457   3.935   1.481 -0.9592  0.2111 -0.1993
  749TMC3    O211078   2.690   3.450   1.774  0.0176 -0.2189 -0.3147
  750MPD2     C11079   3.349   0.259  11.144 -0.2159 -0.4255 -0.0836
  750MPD2    C111080   3.219   0.238  11.160 -0.0614  0.1588  0.3236
  750MPD2    C211081   3.151   0.121  11.112  0.0360 -0.8413  0.1554
  750MPD2    C311082   3.228   0.038  11.033  0.7203  0.0165  0.4002
  750MPD2    C411083   3.359   0.056  11.010 -0.2378  0.4638 -0.0045
  750MPD2    C511084   3.419   0.165  11.069 -0.3836  0.4344  0.1574
  750MPD2     H11085   3.045   0.110  11.129 -0.3008 -0.6403 -1.8090
  750MPD2    H111086   3.415   4.704  10.955  0.2446 -1.2273  2.7906
  750MPD2    H211087   3.396   0.349  11.183 -0.1903  0.1614 -1.4451
  750MPD2    H311088   3.525   0.180  11.049  0.0687 -0.0795  2.0926
  750MPD2     N11089   3.173   4.640  10.984  0.1809  0.1938 -0.2816
  750MPD2    H511090   3.226   4.597  10.908  2.1182  0.3175  1.0010
  750MPD2    N111091   3.164   0.353  11.222 -0.2316 -0.1096 -0.7178
  750MPD2    H711092   3.222   0.434  11.241  1.5408 -1.1714 -1.6009
  751TMC3    C111093   3.020   4.455  10.943  0.2968 -0.7238 -0.4180
  751TMC3    C211094   2.893   4.408  10.967  0.3132  0.3159 -0.3354
  751TMC3    C311095   2.886   4.274  10.934 -0.1831 -0.2723 -0.6382
  751TMC3    C411096   3.113   4.391  10.869 -0.9000 -0.2669 -0.0094
  751TMC3    C511097   3.084   4.266  10.826  0.7404  0.1082  0.5766
  751TMC3    C611098   2.972   4.203  10.858  0.6066  0.0576 -0.0030
  751TMC3     C11099   3.045   4.590  11.002  0.4962 -0.3147 -0.3027
  751TMC3     O11100   2.958   4.624  11.079  0.2379 -0.5654 -0.5114
  751TMC3     H11101   2.817   4.455  11.028  1.3821 -0.3204  1.4655
  751TMC3    H111102   3.214   4.426  10.851 -0.3925 -1.3808  0.7048
  751TMC3    H211103   2.943   4.105  10.822  0.0259  0.2590 -0.0836
  751TMC3    C711104   3.181   4.191  10.747  0.1171 -0.0844 -0.0876
  751TMC3    C811105   2.753   4.227  10.910 -0.6713  0.2826 -0.7507
  751TMC3    O111106   3.244   4.261  10.668 -0.1584 -0.0632 -0.3622
  751TMC3    O211107   2.748   4.168  10.800 -0.1177  0.1582  0.2917
  752TMC3    C111108   1.940   0.521  17.110 -0.5835 -0.2348  0.0635
  752TMC3    C211109   1.879   0.445  17.201  0.0963  0.3841  0.7829
  752TMC3    C311110   1.884   0.481  17.330  0.8535 -0.2866 -0.0730
  752TMC3    C411111   1.990   0.646  17.148 -0.0034  0.2859  0.1139
  752TMC3    C511112   1.973   0.689  17.276 -0.3918  0.4826 -0.0184
  752TMC3    C611113   1.940   0.598  17.376 -0.1800  0.1003  0.2357
  752TMC3     C11114   1.940   0.489  16.967 -0.6851 -0.0124  1.1085
  752TMC3     O11115   1.979   0.580  16.900 -0.3751 -0.1039  0.3218
  752TMC3     H11116   1.839   0.349  17.174  0.4848  0.3103  0.4733
  752TMC3    H111117   2.023   0.721  17.076  1.0334 -1.0576 -0.8193
  752TMC3    H211118   1.927   0.632  17.478 -0.6953  0.2894  0.1067
  752TMC3    C711119   2.025   0.820  17.309  0.5732  0.0023  0.1655
  752TMC3    C811120   1.832   0.399  17.431  0.7887  0.6323 -0.7082
  752TMC3    O111121   2.051   0.893  17.213  0.6748 -0.1413 -0.1759
  752TMC3    O211122   1.792   0.452  17.533 -0.3528  0.0204 -0.4006
  753TMC3    C111123   3.342   1.227  13.792 -0.2324 -0.6462 -0.0261
  753TMC3    C211124   3.383   1.173  13.914 -0.5491  0.1559 -0.7101
  753TMC3    C311125   3.389   1.037  13.932 -0.4078  0.3110  0.5364
  753TMC3    C411126   3.293   1.151  13.691 -0.5866 -0.2806 -0.6756
  753TMC3    C511127   3.290   1.019  13.713 -0.2054  0.6586 -0.3033
  753TMC3    C611128   3.337   0.957  13.829  0.1447  0.3623  0.3369
  753TMC3     C11129   3.390   1.360  13.767 -0.1113 -0.0680  0.0764
  753TMC3     O11130   3.342   1.410  13.665  0.6703  0.4832 -0.3285
  753TMC3     H11131   3.397   1.228  14.006 -0.9293 -0.9236 -0.0157
  753TMC3    H111132   3.271   1.198  13.595  1.7960  0.1691 -1.0009
  753TMC3    H211133   3.320   0.850  13.835  1.3865  0.1431 -0.1401
  753TMC3    C711134   3.224   0.938  13.611 -0.5501  0.1340 -0.8461
  753TMC3    C811135   3.382   0.979  14.067 -1.3202 -0.0756 -0.0038
  753TMC3    O111136   3.215   0.989  13.501  0.0124 -0.0717  0.0263
  753TMC3    O211137   3.306   0.883  14.084 -0.2004  0.4692 -0.3374
  754MPD2     C11138   2.175   3.884  12.512  0.7151 -0.2026  0.0871
  754MPD2    C111139   2.191   3.973  12.616  0.0333  1.0875 -0.4342
  754MPD2    C211140   2.096   4.072  12.635 -0.3650  0.3499  0.0064
  754MPD2    C311141   1.985   4.083  12.545  0.6693  0.5995 -0.1511
  754MPD2    C411142   1.985   4.006  12.434 -0.1377 -0.2884  0.0570
  754MPD2    C511143   2.085   3.912  12.413 -0.0587 -0.3219  0.3063
  754MPD2     H11144   2.109   4.136  12.721 -1.4211  0.3583  0.1684
  754MPD2    H111145   1.895   4.007  12.374  0.3840 -2.8814 -0.7868
  754MPD2    H211146   2.243   3.802  12.489 -1.1635 -2.0579  1.1053
  754MPD2    H311147   2.084   3.852  12.323 -0.3714 -1.7190  1.2419
  754MPD2     N11148   1.867   4.158  12.575  0.1883  0.0681 -0.3522
  754MPD2    H511149   1.781   4.141  12.524  0.8710 -0.7961 -1.1929
  754MPD2    N111150   2.275   3.947  12.721  0.1234  0.5146 -0.0919
  754MPD2    H711151   2.323   3.858  12.724  0.8264  0.9199  0.4577
  755MPD2     C11152   1.498   0.253  13.212 -0.1545 -0.6296 -0.0642
  755MPD2    C111153   1.515   0.137  13.285  0.4132 -0.0846 -0.6354
  755MPD2    C211154   1.537   0.020  13.220 -0.4384 -0.0495  0.2512
  755MPD2    C311155   1.566   0.011  13.083  0.4039  0.7010 -0.0006
  755MPD2    C411156   1.546   0.130  13.011 -0.1967  0.6425  0.3763
  755MPD2    C511157   1.513   0.245  13.076  0.6722  0.4025 -0.2591
  755MPD2     H11158   1.532   4.650  13.275 -0.2929 -0.2927 -0.1523
  755MPD2    H111159   1.550   0.140  12.903  1.4394 -0.8833  0.2968
  755MPD2    H211160   1.478   0.352  13.251  2.0679 -0.7039  1.3004
  755MPD2    H311161   1.501   0.337  13.020 -1.4654  1.3146  1.6678
  755MPD2     N11162   1.601   4.612  13.026 -0.4482 -0.3232 -0.0395
  755MPD2    H511163   1.602   4.536  13.093  0.2303 -0.3630 -0.0932
  755MPD2    N111164   1.496   0.131  13.426 -0.0966 -0.6706  0.2142
  755MPD2    H711165   1.479   0.036  13.456  1.3613 -1.9804 -3.1153
  756MPD2     C11166   2.599   0.596   9.410 -0.6061  0.2119  1.0178
  756MPD2    C111167   2.565   0.643   9.537 -1.0715 -0.4105 -0.8408
  756MPD2    C211168   2.436   0.634   9.581  0.2925  0.3975 -0.1289
  756MPD2    C311169   2.336   0.591   9.500  0.4967 -0.1611 -0.0019
  756MPD2    C411170   2.360   0.553   9.369 -0.6588 -0.1037  0.1450
  756MPD2    C511171   2.493   0.564   9.326 -0.8842  0.4154 -0.1783
  756MPD2     H11172   2.411   0.634   9.686  0.1312  1.6956 -0.1665
  756MPD2    H111173   2.276   0.530   9.304 -0.1320 -0.1089 -0.5403
  756MPD2    H211174   2.700   0.599   9.371 -2.3402  0.3073 -3.3766
  756MPD2    H311175   2.517   0.540   9.223 -1.9094 -0.3387 -0.2417
  756MPD2     N11176   2.208   0.599   9.551 -0.2633 -0.0561 -1.0416
  756MPD2    H511177   2.199   0.596   9.652  1.2029 -1.1861 -0.9368
  756MPD2    N111178   2.658   0.685   9.636  0.0631 -0.0686  0.1902
  756MPD2    H711179   2.624   0.709   9.728 -3.3966  1.9538 -1.6441
  757MPD2     C11180   1.941   0.003  10.092 -0.5009 -0.2971  0.5515
  757MPD2    C111181   1.987   4.717   9.963 -0.0091 -0.6706 -0.2341
  757MPD2    C211182   1.979   0.107   9.885  0.0889 -0.3344 -0.4605
  757MPD2    C311183   1.952   0.234   9.939  0.4763 -0.4696  0.0113
  757MPD2    C411184   1.923   0.242  10.073 -0.8764 -0.5903 -0.0050
  757MPD2    C511185   1.916   0.128  10.148 -0.8048  0.2745 -0.1578
  757MPD2     H11186   2.008   0.099   9.781  1.9780  3.5979 -0.2440
  757MPD2    H111187   1.893   0.329  10.130  2.7065  0.5504  0.1220
  757MPD2    H211188   1.945   4.636  10.152  0.6848 -0.6766 -0.0858
  757MPD2    H311189   1.878   0.135  10.249 -0.2272  1.4944 -0.0277
  757MPD2     N11190   1.947   0.344   9.860  0.2579 -0.2816  0.6984
  757MPD2    H511191   1.974   0.331   9.763  0.8574  2.2716  0.4953
  757MPD2    N111192   2.027   4.588   9.909 -0.0402  0.8571  0.3591
  757MPD2    H711193   2.031   4.509   9.972 -0.0442  1.2798  0.8899
  758MPD2     C11194   2.198   3.829  16.034  0.2851  0.4223 -0.2381
  758MPD2    C111195   2.325   3.864  16.077  0.1151  0.0204  0.0674
  758MPD2    C211196   2.351   3.917  16.200 -0.0944  0.7797  0.2276
  758MPD2    C311197   2.249   3.948  16.285 -0.3159 -0.1117  0.8350
  758MPD2    C411198   2.123   3.933  16.234 -0.6376  0.4407  0.2124
  758MPD2    C511199   2.091   3.870  16.116 -0.2718  0.6310 -0.3528
  758MPD2     H11200   2.453   3.941  16.228  0.3139  2.4943 -2.7283
  758MPD2    H111201   2.034   3.959  16.291  0.4831  1.0599  1.6556
  758MPD2    H211202   2.178   3.759  15.954  1.1330 -0.1510  0.0542
  758MPD2    H311203   1.990   3.839  16.093 -0.9033  2.3827  0.0090
  758MPD2     N11204   2.260   3.989  16.415  0.7134  0.4068  0.6728
  758MPD2    H511205   2.179   4.015  16.469 -1.7874 -3.4022 -1.1949
  758MPD2    N111206   2.432   3.862  15.991 -0.1538 -0.4656  0.0404
  758MPD2    H711207   2.523   3.885  16.029 -0.5636 -1.0200  1.3500
  759MPD2     C11208   1.433   2.010  10.068 -0.1584  0.6081 -0.0742
  759MPD2    C111209   1.352   2.117  10.090 -0.4284 -0.6445 -0.2995
  759MPD2    C211210   1.360   2.233  10.017 -0.1039  0.2762  0.0030
  759MPD2    C311211   1.440   2.251   9.901  0.0906 -0.8685  0.2701
  759MPD2    C411212   1.516   2.143   9.875  0.3178  0.9310  0.4661
  759MPD2    C511213   1.509   2.030   9.958 -0.1539  0.0769  0.4629
  759MPD2     H11214   1.294   2.313  10.050  1.2008  1.0024  0.8810
  759MPD2    H111215   1.590   2.148   9.796 -2.0254 -1.0214 -1.8817
  759MPD2    H211216   1.418   1.914  10.117 -0.5323  0.3022 -0.7901
  759MPD2    H311217   1.574   1.947   9.932 -0.3455  0.3016 -0.6889
  759MPD2     N11218   1.438   2.375   9.834  0.1023  0.1854  0.3724
  759MPD2    H511219   1.395   2.456   9.876  0.3825  0.7686 -0.4509
  759MPD2    N111220   1.254   2.115  10.194  0.3413 -0.2969 -0.2646
  759MPD2    H711221   1.194   2.197  10.191 -0.1239 -0.6974 -1.9223
  760MPD2     C11222   1.051   4.609  12.003  0.9292  1.0095  0.1991
  760MPD2    C111223   1.157   4.614  11.913  0.2449  0.1874  0.6131
  760MPD2    C211224   1.210   4.493  11.866  0.2676  0.2846  0.2516
  760MPD2    C311225   1.174   4.376  11.929  0.4522  0.1369 -0.0978
  760MPD2    C411226   1.067   4.373  12.016  0.2498 -0.9663  0.0251
  760MPD2    C511227   1.008   4.487  12.049 -0.1109 -0.2377  0.0067
  760MPD2     H11228   1.285   4.497  11.787 -0.3385  1.1671 -0.2696
  760MPD2    H111229   1.011   4.288  12.053 -0.8552  0.0495  0.6930
  760MPD2    H211230   0.998   4.701  12.024 -2.2966 -0.7690 -0.0900
  760MPD2    H311231   0.925   4.485  12.119 -1.4636 -0.2934 -1.6161
  760MPD2     N11232   1.227   4.260  11.878 -0.0295 -0.2198  0.3643
  760MPD2    H511233   1.281   4.275  11.793 -1.0312 -1.5442 -0.5069
  760MPD2    N111234   1.210   0.014  11.875 -0.5154  0.1900 -0.1578
  760MPD2    H711235   1.280   0.011  11.802 -0.9617  2.1576 -0.6687
  761MPD2     C11236   2.276   4.091  11.063 -0.2752  0.5461  0.7766
  761MPD2    C111237   2.352   4.062  10.955 -0.0144 -0.0182 -0.5150
  761MPD2    C211238   2.476   4.114  10.937 -0.5505  0.1262 -0.0387
  761MPD2    C311239   2.529   4.191  11.026  0.0061  0.0169 -0.6845
  761MPD2    C411240   2.456   4.243  11.129  0.0508 -0.1806 -0.3082
  761MPD2    C511241   2.333   4.190  11.143 -0.1103  0.5767  0.4528
  761MPD2     H11242   2.540   4.067  10.863 -0.5264 -0.3616  0.2917
  761MPD2    H111243   2.484   4.318  11.202  1.4172  0.0718 -1.0895
  761MPD2    H211244   2.178   4.050  11.085  0.4019 -0.6920  1.4841
  761MPD2    H311245   2.279   4.238  11.223 -0.6691 -1.6330  1.3956
  761MPD2     N11246   2.665   4.241  11.012 -0.1551 -0.0550  0.6744
  761MPD2    H511247   2.695   4.292  11.095 -0.2109 -0.8910  1.2222
  761MPD2    N111248   2.303   3.948  10.880  0.7075 -0.3048  0.3164
  761MPD2    H711249   2.216   3.912  10.917  0.0735  0.7205 -0.1993
  762MPD2     C11250   2.783   3.847  10.481  0.0551  0.1443  0.2992
  762MPD2    C111251   2.732   3.727  10.456 -0.1221  1.1935 -0.1062
  762MPD2    C211252   2.808   3.635  10.386  0.1372 -0.2234  0.8860
  762MPD2    C311253   2.941   3.670  10.341 -0.6161  0.0566  0.2469
  762MPD2    C411254   2.992   3.796  10.371  0.3697 -0.7629 -0.8041
  762MPD2    C511255   2.909   3.881  10.435 -0.8655  0.0880 -0.1437
  762MPD2     H11256   2.762   3.544  10.351  0.7197  0.0840 -0.6701
  762MPD2    H111257   3.088   3.832  10.335 -0.1664  0.5260 -0.9435
  762MPD2    H211258   2.730   3.920  10.541 -0.7978  0.0060 -0.2739
  762MPD2    H311259   2.953   3.977  10.459 -0.5323 -0.4315  1.3362
  762MPD2     N11260   3.001   3.583  10.244 -0.3078 -0.0102 -0.5993
  762MPD2    H511261   2.958   3.492  10.232 -2.1350  0.3873  2.8610
  762MPD2    N111262   2.597   3.708  10.507  0.9982 -0.3420 -0.3753
  762MPD2    H711263   2.565   3.786  10.563  1.1791  1.0034 -2.1564
  763MPD2     C11264   4.179   3.890  16.167 -0.2356  1.4269  0.4082
  763MPD2    C111265   4.139   3.989  16.079  0.6740 -0.1740 -0.0533
  763MPD2    C211266   4.148   4.117  16.131 -0.7092  0.0012  0.1008
  763MPD2    C311267   4.202   4.143  16.259 -0.8034 -0.2457 -0.1123
  763MPD2    C411268   4.257   4.038  16.337 -0.2803 -0.7996 -0.5914
  763MPD2    C511269   4.235   3.906  16.289  0.0321  0.2742 -0.4425
  763MPD2     H11270   4.120   4.200  16.067 -1.7267  0.9721  1.8218
  763MPD2    H111271   4.313   4.057  16.427 -1.2136  0.5506 -0.2945
  763MPD2    H211272   4.167   3.785  16.142 -3.5362  1.7704  0.5926
  763MPD2    H311273   4.281   3.823  16.342  0.8288  0.2780 -1.1271
  763MPD2     N11274   4.217   4.275  16.317  0.3207  0.0507  0.5389
  763MPD2    H511275   4.286   4.293  16.390 -0.4504 -0.1552  1.3186
  763MPD2    N111276   4.085   3.970  15.950  0.0648  0.7435  0.1727
  763MPD2    H711277   4.098   4.046  15.884  0.7850  1.4044  1.0781
  764MPD2     C11278   2.748   1.336   0.218  0.5206 -0.4032  0.0379
  764MPD2    C111279   2.620   1.351   0.162 -0.5152  0.4203  0.2642
  764MPD2    C211280   2.512   1.324   0.238  0.0039 -0.6123 -0.6332
  764MPD2    C311281   2.527   1.277   0.368 -0.3590  0.0729  0.2070
  764MPD2    C411282   2.652   1.260   0.416 -0.3162  0.1989  0.0789
  764MPD2    C511283   2.761   1.276   0.340  0.7082 -0.6643 -0.8388
  764MPD2     H11284   2.414   1.330   0.192 -0.0092 -1.7098 -0.7531
  764MPD2    H111285   2.668   1.216   0.514 -0.1284  2.8568  1.2287
  764MPD2    H211286   2.835   1.353   0.156  1.3520 -0.7102  1.1088
  764MPD2    H311287   2.858   1.261   0.386 -1.2002 -0.1406  3.3681
  764MPD2     N11288   2.410   1.223   0.433  0.7650  0.3943 -0.1302
  764MPD2    H511289   2.321   1.248   0.390 -0.1187 -0.6148  1.1099
  764MPD2    N111290   2.603   1.393   0.028  0.3365  0.0702 -0.4461
  764MPD2    H711291   2.685   1.408  17.664 -1.6347  1.4075 -2.8911
  765MPD2     C11292   1.795   3.318  16.020 -0.4698  0.2699 -0.0974
  765MPD2    C111293   1.852   3.438  15.975 -0.1388 -0.6639 -0.0597
  765MPD2    C211294   1.985   3.434  15.945  1.0843  0.0815 -0.0109
  765MPD2    C311295   2.063   3.323  15.968  0.5235  0.6150  0.0769
  765MPD2    C411296   2.009   3.210  16.029  0.1823  0.4945  0.3427
  765MPD2    C511297   1.870   3.211  16.047 -0.2445 -0.2595 -0.6490
  765MPD2     H11298   2.021   3.530  15.911  0.8693  0.2757  0.3023
  765MPD2    H111299   2.069   3.122  16.052 -0.4546 -0.2154 -0.7174
  765MPD2    H211300   1.687   3.313  16.034 -0.4519  1.8133  0.6063
  765MPD2    H311301   1.819   3.118  16.073 -0.6919  0.4066  0.8752
  765MPD2     N11302   2.198   3.326  15.926  0.6466 -0.5574 -0.0510
  765MPD2    H511303   2.224   3.416  15.888 -0.4181  0.5603  1.8821
  765MPD2    N111304   1.762   3.543  15.950 -0.1435  0.0922 -0.3872
  765MPD2    H711305   1.663   3.529  15.971 -0.0108  0.9313  0.7996
  766MPD2     C11306   1.534   3.438  15.239 -0.9557 -0.0175  0.0385
  766MPD2    C111307   1.614   3.554  15.260  0.5393 -0.3744  0.6717
  766MPD2    C211308   1.690   3.602  15.156 -0.4868  0.1518  0.4170
  766MPD2    C311309   1.696   3.532  15.041  0.1143  0.3259  0.5744
  766MPD2    C411310   1.623   3.423  15.018  0.4121 -0.7361 -0.8796
  766MPD2    C511311   1.553   3.370  15.116  0.5341  0.1024 -0.5423
  766MPD2     H11312   1.746   3.693  15.171 -0.1703  0.2259 -1.1871
  766MPD2    H111313   1.626   3.371  14.923  0.3283 -1.9501 -0.2235
  766MPD2    H211314   1.491   3.378  15.319 -1.1107  1.3749  0.9946
  766MPD2    H311315   1.503   3.274  15.115 -1.1330  0.9509  0.7274
  766MPD2     N11316   1.757   3.582  14.927  0.0240  0.3494 -0.0963
  766MPD2    H511317   1.720   3.535  14.844  0.9673 -0.4309 -0.0820
  766MPD2    N111318   1.629   3.622  15.385  0.1540  0.1513  0.0546
  766MPD2    H711319   1.666   3.717  15.392  1.4755 -0.2755 -1.0303
  767MPD2     C11320   1.317   3.570  14.976  0.3746 -0.4584  0.1460
  767MPD2    C111321   1.389   3.686  14.934 -0.5956  0.1431  0.0089
  767MPD2    C211322   1.430   3.689  14.797  0.2540  0.4046  0.1706
  767MPD2    C311323   1.378   3.595  14.709  0.6069 -0.3174  0.0557
  767MPD2    C411324   1.295   3.489  14.756  0.4447  0.1887 -0.4355
  767MPD2    C511325   1.282   3.468  14.889 -0.4656  0.4616 -0.4466
  767MPD2     H11326   1.475   3.778  14.755 -2.4599  1.3492 -0.7882
  767MPD2    H111327   1.242   3.421  14.691 -1.1478  2.8947 -1.9651
  767MPD2    H211328   1.291   3.553  15.080  0.2015 -2.4372 -0.2314
  767MPD2    H311329   1.235   3.382  14.936 -0.1506  0.6195  0.1643
  767MPD2     N11330   1.414   3.604  14.572 -0.1087  0.8700 -0.1032
  767MPD2    H511331   1.482   3.679  14.563 -0.5579  0.7297 -4.3350
  767MPD2    N111332   1.438   3.786  15.025 -0.2356 -0.2167 -0.2589
  767MPD2    H711333   1.427   3.773  15.125 -0.8523  1.7786 -0.0697
  768MPD2     C11334   2.079   1.896  11.128  0.2941  0.4945  0.1019
  768MPD2    C111335   2.120   2.018  11.071  0.0277 -0.1174  0.2750
  768MPD2    C211336   2.258   2.046  11.069  0.2715  0.1548 -0.2400
  768MPD2    C311337   2.348   1.952  11.115  0.4199  0.0295 -0.1549
  768MPD2    C411338   2.303   1.830  11.166  0.1574  0.0119  0.0007
  768MPD2    C511339   2.169   1.805  11.177 -0.4107 -0.3745  0.5895
  768MPD2     H11340   2.301   2.137  11.026  0.7939 -0.8943 -1.9437
  768MPD2    H111341   2.369   1.754  11.207  1.0242 -0.7684 -2.8713
  768MPD2    H211342   1.972   1.881  11.141  0.4362 -0.3362  0.3137
  768MPD2    H311343   2.132   1.715  11.225  0.1609 -2.4233 -2.7577
  768MPD2     N11344   2.486   1.965  11.122 -0.0006 -0.3474  0.1473
  768MPD2    H511345   2.532   1.878  11.146  0.2387 -0.1343  0.4600
  768MPD2    N111346   2.019   2.108  11.025  0.2068  0.3216  0.0607
  768MPD2    H711347   1.923   2.096  11.053  0.7597  0.0966  1.8608
  769MPD2     C11348   2.796   0.835  14.886  0.0532 -0.2529  0.2351
  769MPD2    C111349   2.766   0.725  14.968 -0.5506 -0.0642  0.4533
  769MPD2    C211350   2.827   0.719  15.090 -0.0270  0.1030 -0.2185
  769MPD2    C311351   2.914   0.816  15.136 -0.0086  0.0447  0.1685
  769MPD2    C411352   2.959   0.912  15.050  0.2793  0.7405 -0.1694
  769MPD2    C511353   2.895   0.922  14.926 -0.3865  0.4333 -0.1065
  769MPD2     H11354   2.787   0.646  15.160 -3.3722  2.0083 -0.1729
  769MPD2    H111355   3.032   0.991  15.066 -0.4605  1.7260 -1.5421
  769MPD2    H211356   2.766   0.846  14.783 -0.7517 -3.7966  0.0843
  769MPD2    H311357   2.924   1.004  14.861  1.7729 -1.1210 -1.1128
  769MPD2     N11358   2.969   0.793  15.268 -0.3160  0.2494 -0.2476
  769MPD2    H511359   2.949   0.703  15.312 -1.5086  0.7867  0.3119
  769MPD2    N111360   2.663   0.643  14.921 -0.3857  0.2310  0.1012
  769MPD2    H711361   2.613   0.670  14.838 -2.7478  0.1393  1.5090
  770MPD2     C11362   2.245   4.358  15.049 -0.1383  0.2525  0.7722
  770MPD2    C111363   2.329   4.390  14.944  0.5472 -0.5495 -0.4218
  770MPD2    C211364   2.372   4.520  14.918  0.3551 -0.3829 -0.1550
  770MPD2    C311365   2.324   4.628  14.995  0.6311 -0.9138  0.0169
  770MPD2    C411366   2.240   4.599  15.100  0.6156 -0.4792  0.7718
  770MPD2    C511367   2.203   4.465  15.122  0.0704 -0.7394  0.3136
  770MPD2     H11368   2.443   4.554  14.844  0.8007 -2.1353 -0.5435
  770MPD2    H111369   2.189   4.682  15.148 -2.2293 -2.0072  0.3899
  770MPD2    H211370   2.210   4.257  15.067  0.3218 -0.0805 -0.2560
  770MPD2    H311371   2.130   4.445  15.199 -1.0781 -1.7301 -1.0310
  770MPD2     N11372   2.366   0.035  14.967 -0.1778  0.0727  0.4946
  770MPD2    H511373   2.430   0.041  14.888 -2.3052 -0.4675 -1.2693
  770MPD2    N111374   2.370   4.285  14.865  0.1364 -0.0093  0.2960
  770MPD2    H711375   2.309   4.204  14.871 -1.2136  0.7118 -3.5172
  771MPD2     C11376   3.892   2.880  13.807  0.5006 -0.0657 -0.2377
  771MPD2    C111377   3.947   2.958  13.714 -0.0675  0.0772 -0.1374
  771MPD2    C211378   4.003   2.900  13.600 -0.3750 -0.3062 -0.0891
  771MPD2    C311379   3.993   2.762  13.583 -0.1676 -0.3837  0.1558
  771MPD2    C411380   3.939   2.681  13.678 -0.2984 -0.7813 -0.2778
  771MPD2    C511381   3.889   2.745  13.789  0.0057 -0.0284  0.0474
  771MPD2     H11382   4.037   2.953  13.512 -2.8647  0.1533 -0.7739
  771MPD2    H111383   3.934   2.573  13.668 -0.1825 -0.6728 -1.5149
  771MPD2    H211384   3.846   2.922  13.896  2.4477  1.7508 -0.0835
  771MPD2    H311385   3.853   2.677  13.865 -0.8348  1.7356  1.2171
  771MPD2     N11386   4.021   2.721  13.448 -0.3814 -0.1650  0.5259
  771MPD2    H511387   4.036   2.793  13.378  0.3211  0.5003  1.3597
  771MPD2    N111388   3.977   3.098  13.739 -0.5237 -0.4427  0.3710
  771MPD2    H711389   4.038   3.138  13.669  0.4250  1.0592  2.0679
  772MPD2     C11390   3.572   3.767  14.011  0.0768 -0.0107 -0.1006
  772MPD2    C111391   3.565   3.673  13.908 -0.6676  0.6913  0.2662
  772MPD2    C211392   3.436   3.632  13.867 -0.2016 -0.0860 -0.3029
  772MPD2    C311393   3.321   3.679  13.926 -0.3300 -0.7174 -0.0465
  772MPD2    C411394   3.335   3.764  14.030 -0.1142 -0.3424 -0.8611
  772MPD2    C511395   3.459   3.805  14.071 -0.1733  0.0076 -0.6645
  772MPD2     H11396   3.438   3.564  13.783 -0.4425 -0.0520 -0.3389
  772MPD2    H111397   3.255   3.806  14.090  0.0872  0.1431 -0.9357
  772MPD2    H211398   3.666   3.811  14.043 -0.2315  2.1035 -2.0333
  772MPD2    H311399   3.468   3.881  14.147  0.3499 -1.2031  0.4673
  772MPD2     N11400   3.191   3.640  13.887  0.5832  0.0315 -0.3613
  772MPD2    H511401   3.118   3.699  13.927 -0.5827 -0.6765 -1.4109
  772MPD2    N111402   3.679   3.611  13.848  1.1103  0.1769  1.0731
  772MPD2    H711403   3.667   3.530  13.788  0.6835  0.8929  0.1897
  773MPD2     C11404   3.178   4.510   0.659 -0.0444 -0.1077  0.2237
  773MPD2    C111405   3.115   4.411   0.589 -0.3123  0.0454 -0.2693
  773MPD2    C211406   3.137   4.278   0.625 -0.4250  0.7027  0.0128
  773MPD2    C311407   3.240   4.248   0.710  0.7944 -0.3667 -0.1977
  773MPD2    C411408   3.292   4.352   0.786  0.0257 -0.2800 -0.8220
  773MPD2    C511409   3.260   4.481   0.759  0.0053 -0.5793 -0.5265
  773MPD2     H11410   3.083   4.200   0.572  0.4592 -1.2165  1.9182
  773MPD2    H111411   3.358   4.336   0.871 -1.1029 -1.6298 -0.2000
  773MPD2    H211412   3.157   4.612   0.629 -0.6729 -0.7213 -1.4453
  773MPD2    H311413   3.304   4.559   0.820 -3.1789 -0.5097  1.7172
  773MPD2     N11414   3.285   4.118   0.727 -0.3984 -0.2020 -0.4401
  773MPD2    H511415   3.235   4.044   0.678 -1.4772  0.4984 -0.3943
  773MPD2    N111416   3.009   4.433   0.501  0.3093  0.4299  0.2116
  773MPD2    H711417   2.969   4.346   0.469  0.5237  1.2688 -2.3775
  774MPD2     C11418   1.765   3.326  13.174  0.3805  0.4375  0.7024
  774MPD2    C111419   1.866   3.324  13.271  0.3651  0.0251 -0.3266
  774MPD2    C211420   1.979   3.403  13.250  0.4504 -0.0408 -0.0883
  774MPD2    C311421   1.992   3.481  13.138 -0.9129  0.3652  0.4242
  774MPD2    C411422   1.895   3.477  13.039  0.0584  0.1597  0.2734
  774MPD2    C511423   1.783   3.406  13.069  0.7113  0.3696  0.0889
  774MPD2     H11424   2.052   3.412  13.329  0.3428 -0.9461  0.1211
  774MPD2    H111425   1.903   3.534  12.946  0.0486 -0.2829  0.0023
  774MPD2    H211426   1.672   3.269  13.177 -0.3826  1.5506 -1.5841
  774MPD2    H311427   1.713   3.399  12.986  0.8368  0.7911 -0.0520
  774MPD2     N11428   2.108   3.562  13.126 -0.4789 -0.1179  0.0063
  774MPD2    H511429   2.173   3.559  13.204  0.2235  0.1536 -0.5614
  774MPD2    N111430   1.868   3.240  13.379 -0.1391 -0.5552 -0.1410
  774MPD2    H711431   1.946   3.250  13.444 -0.1813 -0.7759 -0.0574
  775MPD2     C11432   3.581   0.109  15.990 -0.3052  0.1748 -0.1193
  775MPD2    C111433   3.539   0.236  16.025  0.0871  0.3034  0.7754
  775MPD2    C211434   3.615   0.346  15.996  0.2518 -0.2489  0.3430
  775MPD2    C311435   3.740   0.323  15.953 -0.1432  0.0752  0.4703
  775MPD2    C411436   3.786   0.199  15.922 -0.0310  0.1235 -1.0925
  775MPD2    C511437   3.704   0.096  15.947 -0.5930  0.3367 -0.0566
  775MPD2     H11438   3.587   0.444  16.032 -1.3568 -0.9198  0.9265
  775MPD2    H111439   3.880   0.166  15.881 -0.0893 -0.8130 -0.4609
  775MPD2    H211440   3.516   0.022  16.001  0.5410 -0.3989  0.3823
  775MPD2    H311441   3.736   4.717  15.931 -1.4424 -0.3208  2.4367
  775MPD2     N11442   3.816   0.438  15.915  0.1649  0.1350  0.0761
  775MPD2    H511443   3.902   0.406  15.871 -0.6859 -1.9607 -0.0558
  775MPD2    N111444   3.408   0.243  16.075  0.0711 -0.2084 -0.5825
  775MPD2    H711445   3.350   0.162  16.093  0.3048 -0.4119 -0.7523
  776MPD2     C11446   3.119   1.053  11.126  0.1151  0.1904 -0.0955
  776MPD2    C111447   3.172   1.004  11.243 -0.1028  0.3036 -0.6598
  776MPD2    C211448   3.254   1.088  11.311  0.0746 -0.2152  0.3235
  776MPD2    C311449   3.292   1.207  11.253  0.4674 -0.1368  0.6677
  776MPD2    C411450   3.244   1.242  11.126 -0.3739  0.0525 -0.1159
  776MPD2    C511451   3.168   1.160  11.060  0.1248  0.0643 -0.3324
  776MPD2     H11452   3.290   1.054  11.407  3.0865  0.1884 -0.6735
  776MPD2    H111453   3.267   1.336  11.075 -0.6718  0.1455 -0.0769
  776MPD2    H211454   3.040   0.994  11.083  1.2053 -0.8479 -0.6683
  776MPD2    H311455   3.137   1.183  10.959  0.4127  1.5891 -0.0627
  776MPD2     N11456   3.376   1.299  11.319  0.5217 -0.1192 -0.0499
  776MPD2    H511457   3.396   1.383  11.266  0.6623 -0.6884 -0.8980
  776MPD2    N111458   3.131   0.875  11.283  0.3683  0.3599 -0.1183
  776MPD2    H711459   3.060   0.825  11.230 -1.3576  2.0383  0.6043
  777MPD2     C11460   2.621   2.867   0.626  0.2586 -0.0218  0.1207
  777MPD2    C111461   2.672   2.754   0.687  0.6729  0.2669  0.2555
  777MPD2    C211462   2.662   2.634   0.618  0.3974 -0.2975 -0.3841
  777MPD2    C311463   2.609   2.623   0.494  0.2166 -0.3827 -0.1717
  777MPD2    C411464   2.565   2.736   0.440 -0.3878 -0.4887 -0.0506
  777MPD2    C511465   2.572   2.856   0.498  0.8942  0.3727 -0.2117
  777MPD2     H11466   2.707   2.541   0.650  1.3284  0.0666 -0.6321
  777MPD2    H111467   2.533   2.734   0.336  0.0215 -1.8085 -0.1470
  777MPD2    H211468   2.626   2.964   0.675  0.9623  0.7478 -1.4584
  777MPD2    H311469   2.550   2.945   0.440 -3.7262  0.0618  1.1136
  777MPD2     N11470   2.593   2.497   0.434  0.0709 -0.7494  0.3200
  777MPD2    H511471   2.588   2.417   0.497 -0.0907  0.1976  1.4991
  777MPD2    N111472   2.747   2.772   0.813 -0.0015 -0.0689 -0.2263
  777MPD2    H711473   2.749   2.867   0.850 -1.3895  0.6265 -1.8998
  778MPD2     C11474   4.103   3.262  14.984 -0.2599 -0.5838 -0.4030
  778MPD2    C111475   4.059   3.190  14.872 -1.1222 -0.1610 -0.4295
  778MPD2    C211476   4.049   3.254  14.751  0.1111 -0.3882 -0.3565
  778MPD2    C311477   4.092   3.381  14.740  0.1519 -0.4315 -0.1093
  778MPD2    C411478   4.163   3.439  14.837  0.1735  0.5309 -0.4558
  778MPD2    C511479   4.156   3.390  14.961  0.0551  0.5780 -0.4022
  778MPD2     H11480   4.005   3.199  14.668  0.5602 -2.0862  0.5433
  778MPD2    H111481   4.208   3.537  14.831  0.3899  0.3736 -1.2843
  778MPD2    H211482   4.105   3.227  15.087 -1.8253 -0.0203 -0.1826
  778MPD2    H311483   4.203   3.447  15.041  1.6373 -1.6492  0.2697
  778MPD2     N11484   4.058   3.448  14.618  0.5198  0.2993 -0.4462
  778MPD2    H511485   4.004   3.388  14.557  1.6027 -0.3026 -0.8045
  778MPD2    N111486   3.988   3.075  14.884 -0.2791  0.4789  0.1280
  778MPD2    H711487   3.934   3.034  14.808  1.0547  0.7705 -0.9961
  779MPD2     C11488   3.725   1.834  14.934 -0.5715  1.5543 -0.0441
  779MPD2    C111489   3.803   1.812  14.815  0.2768  0.3518 -0.5008
  779MPD2    C211490   3.818   1.919  14.728  0.3125 -0.8003 -0.8421
  779MPD2    C311491   3.751   2.039  14.746  0.0194 -0.3589 -0.1992
  779MPD2    C411492   3.675   2.060  14.867 -0.0191  0.2015 -0.2347
  779MPD2    C511493   3.665   1.953  14.953 -0.1294 -1.1919  0.0904
  779MPD2     H11494   3.869   1.900  14.634  0.0303 -0.8280 -0.9882
  779MPD2    H111495   3.627   2.154  14.892 -0.7050 -0.4041  0.7182
  779MPD2    H211496   3.706   1.746  14.994  0.2028  1.7070  0.4215
  779MPD2    H311497   3.612   1.969  15.046 -2.5090 -0.1694 -1.4280
  779MPD2     N11498   3.767   2.138  14.642 -0.3466 -0.5736  0.8704
  779MPD2    H511499   3.838   2.120  14.572 -2.5066 -3.1943 -0.6452
  779MPD2    N111500   3.859   1.684  14.778 -0.1490 -0.0013 -0.1596
  779MPD2    H711501   3.907   1.672  14.689  0.3996 -0.0737  0.1488
  780MPD2     C11502   3.099   2.004   0.763 -0.3164  0.1242  0.4101
  780MPD2    C111503   3.034   1.926   0.671 -0.2925  0.8838  0.4022
  780MPD2    C211504   3.047   1.958   0.536  0.7505 -0.2443  0.2006
  780MPD2    C311505   3.133   2.059   0.502 -0.0782 -0.1836 -1.7791
  780MPD2    C411506   3.210   2.127   0.599  0.5674  0.1577 -0.3947
  780MPD2    C511507   3.191   2.100   0.728 -1.2695  0.0884  0.3021
  780MPD2     H11508   2.989   1.908   0.459  1.9097  0.3296 -1.0359
  780MPD2    H111509   3.263   2.218   0.575  0.1980  0.7198  0.9008
  780MPD2    H211510   3.079   1.989   0.869  0.1999  2.0676  0.7827
  780MPD2    H311511   3.232   2.163   0.807 -1.0220 -1.3372  1.3189
  780MPD2     N11512   3.143   2.097   0.365  0.0879 -0.2712  0.0004
  780MPD2    H511513   3.102   2.038   0.292  1.7031  2.3166 -2.9991
  780MPD2    N111514   2.965   1.815   0.722 -0.5678 -0.2424  0.3294
  780MPD2    H711515   2.956   1.809   0.823  1.1709  0.9325  0.5552
  781MPD2     C11516   0.502   3.556  11.583 -0.7347 -0.1064  0.7335
  781MPD2    C111517   0.589   3.530  11.686 -0.6237  0.0381 -0.5324
  781MPD2    C211518   0.717   3.493  11.647  0.0500  0.3677 -0.5224
  781MPD2    C311519   0.756   3.480  11.519 -0.1220  0.8779 -0.0137
  781MPD2    C411520   0.666   3.502  11.420  0.9935 -0.0615  0.2850
  781MPD2    C511521   0.536   3.535  11.452  0.3113 -0.3164  0.1502
  781MPD2     H11522   0.787   3.484  11.729  0.6059 -1.9542 -1.2416
  781MPD2    H111523   0.698   3.493  11.317  0.9939  2.0287  0.1028
  781MPD2    H211524   0.402   3.596  11.595 -1.2574 -0.9550 -0.8170
  781MPD2    H311525   0.472   3.566  11.371 -0.0610  1.0224  0.9597
  781MPD2     N11526   0.890   3.446  11.478  0.0866 -0.0762 -0.0618
  781MPD2    H511527   0.904   3.442  11.377 -0.9813  1.2299 -0.2601
  781MPD2    N111528   0.546   3.513  11.826 -0.2248  0.3065  0.4625
  781MPD2    H711529   0.612   3.495  11.901  1.3684 -0.1442 -1.0535
  782MPD2     C11530   3.340   4.375   9.928  0.1843  0.6755  0.4600
  782MPD2    C111531   3.429   4.322  10.011  0.2317  0.3999 -0.4842
  782MPD2    C211532   3.479   4.410  10.097 -0.6289 -0.1291 -0.2104
  782MPD2    C311533   3.450   4.542  10.101 -0.9164 -0.0900  0.4541
  782MPD2    C411534   3.373   4.592  10.009  0.0992 -0.0704 -0.0918
  782MPD2    C511535   3.310   4.508   9.923  0.0767  0.3500 -0.3705
  782MPD2     H11536   3.563   4.368  10.151 -1.0974 -1.8492 -0.8022
  782MPD2    H111537   3.344   4.696  10.008  1.1764  0.2227 -0.6509
  782MPD2    H211538   3.288   4.321   9.850  0.5208 -1.6419  1.8391
  782MPD2    H311539   3.248   4.543   9.841 -2.3367  1.8887  2.0832
  782MPD2     N11540   3.497   4.617  10.210  0.4987  0.1269  0.2008
  782MPD2    H511541   3.503   4.717  10.199 -0.8984  0.5350  3.1694
  782MPD2    N111542   3.462   4.190  10.009 -0.2564  0.3021 -0.5427
  782MPD2    H711543   3.405   4.125   9.956  1.0364 -1.7615  0.6294
  783MPD2     C11544   3.206   3.836  10.781  1.1182  0.5650 -0.2999
  783MPD2    C111545   3.232   3.956  10.715 -0.4840  0.4309 -0.3616
  783MPD2    C211546   3.286   3.967  10.592 -0.3248  0.3230 -0.4296
  783MPD2    C311547   3.319   3.852  10.531  0.3430 -0.0237 -0.3265
  783MPD2    C411548   3.279   3.727  10.585 -0.2930  0.1603  0.1728
  783MPD2    C511549   3.221   3.723  10.710  0.7663  0.3163  0.1597
  783MPD2     H11550   3.306   4.056  10.534 -0.5807  1.0302  0.5635
  783MPD2    H111551   3.302   3.636  10.531  4.0861  1.3190  0.0141
  783MPD2    H211552   3.151   3.826  10.874 -1.2516  2.5097 -1.5138
  783MPD2    H311553   3.189   3.626  10.744 -0.9013  0.1521 -1.8590
  783MPD2     N11554   3.391   3.868  10.406  0.1840 -0.0837 -0.9174
  783MPD2    H511555   3.406   3.964  10.376  1.1146 -0.8354 -2.8235
  783MPD2    N111556   3.182   4.061  10.788  0.4076 -0.4850 -0.3187
  783MPD2    H711557   3.134   4.030  10.871  0.1784 -1.4654 -0.8078
  784MPD2     C11558   1.373   4.480   0.780  0.2430  0.2986  0.3715
  784MPD2    C111559   1.381   4.607   0.831 -0.6137 -0.1757  0.6636
  784MPD2    C211560   1.326   4.709   0.759 -0.5802  0.5062 -0.7953
  784MPD2    C311561   1.259   4.696   0.637 -0.4526 -0.1615 -0.0738
  784MPD2    C411562   1.255   4.573   0.588  0.0322  0.8456  0.0946
  784MPD2    C511563   1.309   4.466   0.658 -0.0347  0.0575 -0.7401
  784MPD2     H11564   1.339   0.084   0.804  0.2274  0.3245 -0.6327
  784MPD2    H111565   1.223   4.543   0.489  2.5584 -1.2580 -0.1066
  784MPD2    H211566   1.414   4.393   0.830 -1.5042  0.0805  1.4331
  784MPD2    H311567   1.297   4.369   0.612 -0.5251 -0.3371  0.2198
  784MPD2     N11568   1.208   0.091   0.577  0.2705  0.8032 -0.1124
  784MPD2    H511569   1.243   0.184   0.595 -0.5163  1.0374  0.2110
  784MPD2    N111570   1.419   4.644   0.966  0.6120 -0.0476  0.4566
  784MPD2    H711571   1.392   0.013   0.999  1.3109  0.1635  0.4565
  785MPD2     C11572   1.523   2.525  10.443  0.1272 -0.7993 -0.5866
  785MPD2    C111573   1.435   2.617  10.498 -0.3243  0.0636  0.1572
  785MPD2    C211574   1.306   2.613  10.456 -0.7101 -0.3426  0.2689
  785MPD2    C311575   1.244   2.517  10.381  0.9128 -0.6612  0.1121
  785MPD2    C411576   1.331   2.422  10.338 -0.1046 -0.4255  0.1185
  785MPD2    C511577   1.462   2.429  10.365 -0.7812  0.0408 -0.1186
  785MPD2     H11578   1.249   2.700  10.490  1.6895  0.4520  2.2299
  785MPD2    H111579   1.294   2.343  10.274 -1.6001  0.2623  0.1315
  785MPD2    H211580   1.629   2.534  10.464 -0.4498  0.9415  1.6238
  785MPD2    H311581   1.520   2.346  10.327  0.2284  1.0893 -0.8775
  785MPD2     N11582   1.102   2.515  10.350 -0.1362 -0.1302  0.5186
  785MPD2    H511583   1.048   2.591  10.392  1.1613  0.2987  1.4284
  785MPD2    N111584   1.496   2.713  10.589  0.4113  0.5011  0.1685
  785MPD2    H711585   1.597   2.719  10.592  0.6091 -3.4745  1.0752
  786MPD2     C11586   3.851   0.792  15.032 -0.2183  0.3803  0.1942
  786MPD2    C111587   3.971   0.818  14.964 -0.4686 -0.2320  0.4460
  786MPD2    C211588   4.085   0.851  15.027  0.1522  0.4478 -0.0911
  786MPD2    C311589   4.089   0.850  15.166 -0.4183  0.2580 -0.1987
  786MPD2    C411590   3.965   0.827  15.232  0.5312  0.0122 -0.1735
  786MPD2    C511591   3.850   0.795  15.165 -0.3841 -0.6694 -0.4046
  786MPD2     H11592   4.173   0.874  14.969  0.2621 -1.1184 -0.5571
  786MPD2    H111593   3.960   0.822  15.340  0.3627  0.9075 -0.1367
  786MPD2    H211594   3.755   0.766  14.990 -0.0687  0.5818 -0.2738
  786MPD2    H311595   3.754   0.777  15.211 -1.2851 -0.3885 -2.1584
  786MPD2     N11596   4.205   0.880  15.244  0.1727  0.3512  0.0926
  786MPD2    H511597   4.200   0.871  15.345  0.4467  0.7036  0.1370
  786MPD2    N111598   3.987   0.804  14.827 -0.0169  0.2332 -0.2652
  786MPD2    H711599   4.084   0.814  14.802  0.5134 -0.5154  1.5062
  787MPD2     C11600   4.443   0.846  14.121 -0.2577 -0.0895 -0.7373
  787MPD2    C111601   4.424   0.863  14.259 -0.0697  0.3958 -0.4676
  787MPD2    C211602   4.543   0.857  14.332 -0.6771  0.1892 -0.0717
  787MPD2    C311603   4.669   0.833  14.272  0.0062  0.0904 -0.3737
  787MPD2    C411604   4.682   0.836  14.134 -0.6831  0.0754 -0.2947
  787MPD2    C511605   4.563   0.844  14.058  0.9885  0.2536  0.0838
  787MPD2     H11606   4.547   0.870  14.440  1.4232 -1.1510  0.0239
  787MPD2    H111607   0.053   0.831  14.081 -2.0653 -0.2761 -2.6895
  787MPD2    H211608   4.358   0.852  14.055 -1.2166  0.0145  0.5186
  787MPD2    H311609   4.570   0.835  13.950  0.9397 -2.0456  0.2669
  787MPD2     N11610   0.060   0.818  14.355 -0.6105  0.3584 -0.1994
  787MPD2    H511611   0.047   0.824  14.456  0.7928 -4.7770  0.3340
  787MPD2    N111612   4.295   0.879  14.302  0.3908  0.2574  0.1670
  787MPD2    H711613   4.231   0.877  14.224  0.2687 -0.6371  0.2860
  788MPD2     C11614   1.818   0.034   1.221 -0.3372 -0.2458 -0.1033
  788MPD2    C111615   1.809   4.687   1.103 -0.3622 -0.1705  0.0771
  788MPD2    C211616   1.776   0.035   0.985 -0.0682 -0.3356 -0.4416
  788MPD2    C311617   1.746   0.172   0.994  0.3549 -1.2852  0.8042
  788MPD2    C411618   1.753   0.239   1.112  0.9704 -0.1713 -0.3004
  788MPD2    C511619   1.782   0.162   1.227 -0.2754 -0.5311  0.2232
  788MPD2     H11620   1.778   4.706   0.890 -2.3740  0.4071 -0.8854
  788MPD2    H111621   1.737   0.346   1.118 -3.4498 -0.8640  0.7258
  788MPD2    H211622   1.850   4.718   1.317  1.0940  1.1263 -0.0202
  788MPD2    H311623   1.781   0.211   1.324  0.7893  1.5713 -0.8233
  788MPD2     N11624   1.710   0.248   0.883 -0.2662  0.2850 -0.0825
  788MPD2    H511625   1.686   0.346   0.892 -2.1729 -0.0859 -1.0858
  788MPD2    N111626   1.840   4.552   1.098 -0.0836  0.3121  0.2705
  788MPD2    H711627   1.842   4.509   1.006 -1.9529  2.7990 -0.9304
  789MPD2     C11628   2.242   3.879  16.849 -0.1453  0.5839  0.8313
  789MPD2    C111629   2.143   3.796  16.810 -0.0839 -0.4379  1.0215
  789MPD2    C211630   2.012   3.838  16.828  0.7488  1.0412  0.3118
  789MPD2    C311631   1.983   3.966  16.872  0.5435 -0.0691 -0.0763
  789MPD2    C411632   2.083   4.033  16.934 -0.1201  0.2225 -0.3811
  789MPD2    C511633   2.210   3.989  16.920  0.0748 -0.8034  0.1739
  789MPD2     H11634   1.940   3.772  16.780  1.7374 -1.2941  1.9938
  789MPD2    H111635   2.067   4.124  16.991  0.1824  0.7388 -1.1221
  789MPD2    H211636   2.348   3.860  16.836  0.0879  2.1669  0.4828
  789MPD2    H311637   2.297   4.033  16.969 -1.0005  0.2662  1.1216
  789MPD2     N11638   1.855   4.026  16.868 -0.0601  0.1568  0.1555
  789MPD2    H511639   1.850   4.117  16.912 -1.1401 -0.1575  0.6784
  789MPD2    N111640   2.171   3.669  16.753 -0.1723  0.3780  0.5615
  789MPD2    H711641   2.093   3.607  16.734  1.4052 -0.9872 -1.5555
  790MPD2     C11642   2.748   0.770  13.763 -0.5115  0.1232 -0.1030
  790MPD2    C111643   2.728   0.637  13.730  0.1216 -0.4851  0.2005
  790MPD2    C211644   2.685   0.603  13.603 -0.3992 -0.0936 -0.2155
  790MPD2    C311645   2.671   0.695  13.497  0.7927  0.0501 -0.5206
  790MPD2    C411646   2.682   0.832  13.533 -1.0105  0.2214  0.2731
  790MPD2    C511647   2.710   0.865  13.666  0.9938 -0.7279  0.0102
  790MPD2     H11648   2.680   0.498  13.577 -3.5896 -0.1741  0.6307
  790MPD2    H111649   2.668   0.911  13.461 -0.9134 -0.5296 -0.5701
  790MPD2    H211650   2.771   0.811  13.861  2.2202  1.0489 -1.1337
  790MPD2    H311651   2.720   0.972  13.678  1.8765 -0.8665  0.4935
  790MPD2     N11652   2.646   0.654  13.365  0.1724  0.4311 -0.6267
  790MPD2    H511653   2.632   0.553  13.368  0.9334  0.3112 -1.1664
  790MPD2    N111654   2.747   0.528  13.822  0.3170 -0.1572  0.1208
  790MPD2    H711655   2.708   0.435  13.806 -0.4496  0.1301  0.3125
  791MPD2     C11656   2.145   0.822  12.745 -0.4035 -0.8455  0.4951
  791MPD2    C111657   2.207   0.701  12.758 -0.2941  0.1788 -0.4545
  791MPD2    C211658   2.132   0.588  12.730 -0.1868  0.3148 -0.2355
  791MPD2    C311659   2.010   0.601  12.660  0.6168 -0.1357  0.3817
  791MPD2    C411660   1.953   0.721  12.642  0.1862  0.1616  0.5298
  791MPD2    C511661   2.023   0.833  12.679  0.0288  0.3998  0.3732
  791MPD2     H11662   2.174   0.489  12.743 -2.6416 -0.5296  1.2511
  791MPD2    H111663   1.853   0.731  12.600  0.8336  1.8497 -0.6403
  791MPD2    H211664   2.198   0.911  12.776 -0.0278 -1.4250  1.4963
  791MPD2    H311665   1.980   0.931  12.665  0.4163  0.5960  0.5576
  791MPD2     N11666   1.936   0.478  12.634  0.5185  0.2176 -0.4403
  791MPD2    H511667   1.974   0.391  12.670  1.4278  0.7630 -0.0806
  791MPD2    N111668   2.330   0.694  12.823 -0.5656  0.2547  0.3095
  791MPD2    H711669   2.371   0.782  12.853  0.7777 -0.2145 -0.1543
  792MPD2     C11670   3.624   0.500  10.700  0.3271  1.0271 -0.3917
  792MPD2    C111671   3.553   0.557  10.803 -0.6071  0.0514  0.5824
  792MPD2    C211672   3.431   0.513  10.848  0.1032  0.2716 -0.4422
  792MPD2    C311673   3.367   0.424  10.765  0.0206 -0.3449 -0.2345
  792MPD2    C411674   3.437   0.354  10.669 -0.0395  0.0317  0.0771
  792MPD2    C511675   3.561   0.388  10.639  0.0812 -0.4575 -0.2799
  792MPD2     H11676   3.375   0.557  10.930  1.5873  1.3946 -0.0249
  792MPD2    H111677   3.395   0.272  10.612 -0.0489 -1.2802  1.9248
  792MPD2    H211678   3.720   0.539  10.668 -0.5367  2.0145 -1.7829
  792MPD2    H311679   3.601   0.331  10.556 -0.6205  1.1300 -1.6923
  792MPD2     N11680   3.230   0.397  10.776 -0.0627 -0.0783  0.3247
  792MPD2    H511681   3.194   0.323  10.717  0.4189  0.7318 -0.9931
  792MPD2    N111682   3.610   0.675  10.865 -0.2556 -0.6106 -0.0358
  792MPD2    H711683   3.680   0.719  10.807  0.7111 -1.2493  0.6474
  793MPD2     C11684   2.624   0.910  10.308  0.3324 -0.2245 -0.0700
  793MPD2    C111685   2.744   0.841  10.286 -0.1919 -0.8712  0.1245
  793MPD2    C211686   2.799   0.768  10.396  0.3261 -0.4210 -0.4832
  793MPD2    C311687   2.722   0.748  10.513  0.4058 -0.1203 -0.0532
  793MPD2    C411688   2.609   0.815  10.537  0.5955 -0.2605  0.3647
  793MPD2    C511689   2.563   0.900  10.434  1.1072 -0.1806  0.3761
  793MPD2     H11690   2.893   0.716  10.384  0.7598  0.3478 -0.4573
  793MPD2    H111691   2.550   0.803  10.627 -0.5709  1.7857 -0.1213
  793MPD2    H211692   2.593   0.990  10.241 -1.6862 -0.9283  0.0242
  793MPD2    H311693   2.479   0.963  10.462  0.3380 -0.0475 -2.2153
  793MPD2     N11694   2.777   0.664  10.607  0.0122  0.0600 -0.3880
  793MPD2    H511695   2.873   0.632  10.591  1.1248  2.1526  2.2531
  793MPD2    N111696   2.816   0.847  10.166  0.3580 -0.5578 -0.2812
  793MPD2    H711697   2.906   0.800  10.169  0.8027  0.2785 -0.4659
  794MPD2     C11698   2.663   0.393   0.088  0.0845 -0.7193 -0.4965
  794MPD2    C111699   2.611   0.279   0.029  0.2021  0.4060  0.7606
  794MPD2    C211700   2.544   0.292  17.603  1.0788 -0.5537  0.6934
  794MPD2    C311701   2.530   0.421  17.543  0.6065  0.5891  0.7405
  794MPD2    C411702   2.570   0.531  17.620  0.3890 -0.0784 -0.4861
  794MPD2    C511703   2.637   0.517   0.042 -0.5870 -0.5672  0.2812
  794MPD2     H11704   2.505   0.205  17.550 -1.2131 -0.5673  2.3681
  794MPD2    H111705   2.560   0.635  17.591  1.1524  0.5487  1.5205
  794MPD2    H211706   2.728   0.384   0.174 -2.7981 -1.4353  1.6278
  794MPD2    H311707   2.688   0.601   0.087 -1.1554 -0.2328  0.2965
  794MPD2     N11708   2.466   0.447  17.424  0.3597 -0.1972 -0.0576
  794MPD2    H511709   2.466   0.541  17.386 -0.7560 -0.9545 -1.8585
  794MPD2    N111710   2.647   0.149   0.077 -0.0872 -0.4712  0.2367
  794MPD2    H711711   2.630   0.067   0.019 -3.6439  0.7088 -0.4245
  795MPD2     C11712   0.494   2.171  13.206  0.2186 -0.1226  0.8006
  795MPD2    C111713   0.480   2.135  13.334 -0.0475 -0.2960 -0.3223
  795MPD2    C211714   0.584   2.069  13.397  0.1892 -0.0623 -0.0568
  795MPD2    C311715   0.698   2.042  13.328  0.0994 -0.4171 -0.2707
  795MPD2    C411716   0.711   2.086  13.199 -0.1387 -0.0777 -0.2346
  795MPD2    C511717   0.609   2.153  13.138 -0.0901 -0.1489  0.4362
  795MPD2     H11718   0.577   2.040  13.501  1.6153  0.7435  0.2506
  795MPD2    H111719   0.803   2.076  13.143 -0.7040  1.4505 -1.4541
  795MPD2    H211720   0.422   2.225  13.145 -0.9508 -1.2383  1.1908
  795MPD2    H311721   0.633   2.194  13.040 -0.3906 -1.2952 -0.1150
  795MPD2     N11722   0.806   1.972  13.390 -0.0162 -0.3636 -1.0099
  795MPD2    H511723   0.787   1.955  13.489 -0.9668  2.6548 -0.6806
  795MPD2    N111724   0.361   2.162  13.407  0.3596 -0.7746  0.0358
  795MPD2    H711725   0.348   2.126  13.502  1.8240 -0.9174  0.1800
  796MPD2     C11726   4.353   3.554  16.033 -0.7262  0.1590  0.4083
  796MPD2    C111727   4.428   3.598  16.136  1.2549  0.3646 -0.0791
  796MPD2    C211728   4.482   3.729  16.136 -0.8402 -0.0687 -0.2568
  796MPD2    C311729   4.451   3.813  16.031 -0.6892  0.1193  0.1220
  796MPD2    C411730   4.375   3.766  15.927 -0.5410  0.6191 -0.3639
  796MPD2    C511731   4.328   3.636  15.925  0.2185 -0.1637 -0.4015
  796MPD2     H11732   4.518   3.769  16.230  0.2256  0.0779 -0.7261
  796MPD2    H111733   4.357   3.833  15.843  1.0271  1.2412 -0.2202
  796MPD2    H211734   4.316   3.452  16.032 -1.2492  0.3521  0.1506
  796MPD2    H311735   4.275   3.597  15.839 -0.6881  0.8581 -0.3178
  796MPD2     N11736   4.499   3.948  16.029  0.2558 -0.1786  0.3452
  796MPD2    H511737   4.574   3.968  16.095 -1.0900  2.3438  1.1022
  796MPD2    N111738   4.440   3.508  16.245  0.5602  0.2040  0.4481
  796MPD2    H711739   4.388   3.421  16.252  0.2195  0.1452 -2.6653
  797MPD2     C11740   1.087   2.906  17.451  0.2284  0.8034  0.2463
  797MPD2    C111741   1.003   2.948  17.556  0.0224  0.0762  0.0685
  797MPD2    C211742   0.885   3.018  17.529 -0.2381  0.7069 -0.4369
  797MPD2    C311743   0.842   3.042  17.400 -0.0060 -0.2678  0.6141
  797MPD2    C411744   0.929   3.009  17.296  0.1123  0.3496  0.4404
  797MPD2    C511745   1.047   2.947  17.325  0.5604 -0.3115 -0.8156
  797MPD2     H11746   0.823   3.054  17.611  0.2674  1.3302 -0.3329
  797MPD2    H111747   0.907   3.048  17.197 -3.0210  1.4016  1.5514
  797MPD2    H211748   1.174   2.843  17.464  0.2388  0.6041 -0.8337
  797MPD2    H311749   1.114   2.915  17.246  0.9336 -0.0331 -0.6103
  797MPD2     N11750   0.722   3.110  17.366  0.3095 -0.3591  0.2831
  797MPD2    H511751   0.709   3.142  17.271  0.5707 -0.2173  0.2958
  797MPD2    N111752   1.039   2.940  17.687 -0.1837  0.6625  0.0533
  797MPD2    H711753   0.970   2.972   0.060  1.0063 -0.4037  1.7967
  798MPD2     C11754   0.780   3.587   0.142 -0.4437 -0.1541 -0.1269
  798MPD2    C111755   0.738   3.469   0.096 -0.5694 -1.0268 -0.2850
  798MPD2    C211756   0.806   3.360   0.145 -0.0077 -0.2352  0.1208
  798MPD2    C311757   0.896   3.362   0.244  0.3258 -0.1503  0.1797
  798MPD2    C411758   0.940   3.487   0.288  0.2208  0.4950 -0.7111
  798MPD2    C511759   0.875   3.601   0.238 -0.1973 -0.6675 -0.3217
  798MPD2     H11760   0.785   3.262   0.105 -1.3285  0.4680 -0.8807
  798MPD2    H111761   1.016   3.490   0.365 -1.1512 -0.6359  0.7186
  798MPD2    H211762   0.734   3.681   0.113 -0.1286 -0.0143 -0.1756
  798MPD2    H311763   0.894   3.698   0.282  1.3114 -0.8768 -0.5066
  798MPD2     N11764   0.953   3.238   0.279  0.5456 -0.6494 -0.4163
  798MPD2    H511765   0.921   3.157   0.227  1.0179 -1.9833  1.3745
  798MPD2    N111766   0.634   3.450   0.005 -0.1267 -0.4460 -0.2560
  798MPD2    H711767   0.611   3.352  17.689 -2.0078 -0.1007  0.6222
  799MPD2     C11768   4.278   0.317  14.461  0.6575 -0.2882  0.3284
  799MPD2    C111769   4.238   0.228  14.357  0.3191  0.0703  0.4035
  799MPD2    C211770   4.199   0.274  14.234  0.0989  0.0559 -0.0695
  799MPD2    C311771   4.215   0.409  14.206 -0.4259 -0.4950 -0.2176
  799MPD2    C411772   4.254   0.495  14.302 -0.4567  0.3821 -0.6102
  799MPD2    C511773   4.282   0.453  14.429  0.4430  0.1857  0.0336
  799MPD2     H11774   4.163   0.208  14.156 -0.3944  1.5242 -1.0791
  799MPD2    H111775   4.259   0.602  14.285  1.4630 -0.1277 -3.3663
  799MPD2    H211776   4.299   0.284  14.562  0.2915  1.3556  0.9475
  799MPD2    H311777   4.321   0.525  14.500 -0.5976  1.7342 -0.9795
  799MPD2     N11778   4.181   0.473  14.080  0.2445  0.6876 -0.3281
  799MPD2    H511779   4.196   0.571  14.061  2.3611  0.7299  1.5623
  799MPD2    N111780   4.230   0.088  14.377 -0.0385  0.4206  0.4907
  799MPD2    H711781   4.175   0.042  14.306 -0.3802  0.7556  0.5390
  800MPD2     C11782   0.476   1.403  13.669  0.3885  0.6987 -0.3536
  800MPD2    C111783   0.596   1.391  13.733  0.0465  0.6970 -0.8836
  800MPD2    C211784   0.666   1.273  13.733 -0.4637  0.6903 -0.0490
  800MPD2    C311785   0.603   1.164  13.673  0.1959  0.3098 -0.0960
  800MPD2    C411786   0.491   1.178  13.601  0.0035 -0.4151 -0.0283
  800MPD2    C511787   0.428   1.302  13.593  0.6998 -0.0912 -1.1919
  800MPD2     H11788   0.759   1.259  13.788 -0.9651  0.7600  0.8103
  800MPD2    H111789   0.443   1.094  13.553 -1.8089 -0.3687  1.6989
  800MPD2    H211790   0.417   1.493  13.662  0.6972  1.0462  1.3595
  800MPD2    H311791   0.331   1.305  13.545 -0.4177 -0.4139  1.0551
  800MPD2     N11792   0.670   1.038  13.695 -0.7030  0.3358 -0.4646
  800MPD2    H511793   0.752   1.056  13.752 -1.0104 -0.5121  0.2410
  800MPD2    N111794   0.654   1.505  13.793  0.1101  0.7452 -0.4170
  800MPD2    H711795   0.620   1.600  13.781  0.4117  0.9749  0.5133
  801MPD2     C11796   0.786   2.234  13.695 -0.3540  0.1183  0.5305
  801MPD2    C111797   0.769   2.189  13.826 -0.6042  0.2846  0.6318
  801MPD2    C211798   0.734   2.282  13.924 -0.9755 -0.6095 -0.4748
  801MPD2    C311799   0.728   2.417  13.899 -0.3521  0.2566 -0.0332
  801MPD2    C411800   0.749   2.460  13.768  0.0568  0.0164  0.2533
  801MPD2    C511801   0.772   2.363  13.669  0.2529 -0.6485 -0.2221
  801MPD2     H11802   0.733   2.238  14.023 -4.2602  1.3287  0.3604
  801MPD2    H111803   0.732   2.559  13.727 -0.0372 -0.8094 -1.7202
  801MPD2    H211804   0.813   2.166  13.615 -0.9158 -0.9466  1.2502
  801MPD2    H311805   0.781   2.384  13.563 -0.2695  0.9082  0.0555
  801MPD2     N11806   0.710   2.513  13.998  0.4798 -0.4781  0.0320
  801MPD2    H511807   0.756   2.603  13.990 -1.5633  0.6671  1.3589
  801MPD2    N111808   0.803   2.059  13.870  0.2376  0.7970 -0.0758
  801MPD2    H711809   0.794   2.035  13.968  0.2066 -0.1382 -0.3162
  802MPD2     C11810   4.051   2.731   0.636  0.4674  0.0628  0.8655
  802MPD2    C111811   4.089   2.808   0.529  0.3383 -0.0715 -0.1977
  802MPD2    C211812   4.187   2.760   0.451 -0.7089 -0.3657  0.3498
  802MPD2    C311813   4.248   2.634   0.462  0.5486  0.1599 -0.0415
  802MPD2    C411814   4.201   2.559   0.567 -0.0615 -0.1468 -0.7005
  802MPD2    C511815   4.105   2.608   0.653 -0.0341 -0.2021 -0.1221
  802MPD2     H11816   4.225   2.822   0.371 -2.2851 -0.2929 -0.3471
  802MPD2    H111817   4.220   2.453   0.573 -0.5268 -0.2608 -1.2287
  802MPD2    H211818   3.963   2.756   0.695 -1.1046 -1.3032 -0.8852
  802MPD2    H311819   4.061   2.544   0.729 -0.8326  0.5995  0.0897
  802MPD2     N11820   4.339   2.595   0.363 -0.5651 -0.5842  0.5993
  802MPD2    H511821   4.361   2.656   0.285 -2.0058 -0.0367  0.6146
  802MPD2    N111822   4.012   2.917   0.480  0.2804 -0.2169 -0.1966
  802MPD2    H711823   4.025   2.941   0.383  2.5044 -0.4378  0.0300
  803MPD2     C11824   0.622   0.785  12.058  0.2939  0.2642 -0.5232
  803MPD2    C111825   0.741   0.747  12.118 -0.3069 -0.1143 -0.8446
  803MPD2    C211826   0.736   0.649  12.219 -0.7360  0.5281  0.4553
  803MPD2    C311827   0.619   0.592  12.264  0.1034  0.5383 -0.1517
  803MPD2    C411828   0.503   0.634  12.203  0.1337 -0.2921 -0.2689
  803MPD2    C511829   0.505   0.728  12.104 -1.2262 -0.1984 -0.5241
  803MPD2     H11830   0.836   0.615  12.245 -1.4619 -0.4910  1.9450
  803MPD2    H111831   0.410   0.586  12.232 -0.2233  0.5209 -0.0635
  803MPD2    H211832   0.618   0.857  11.976 -2.9548 -1.1754 -1.6157
  803MPD2    H311833   0.405   0.751  12.068 -1.7135  0.2193  1.1037
  803MPD2     N11834   0.605   0.498  12.369 -0.0498 -0.0916  0.0460
  803MPD2    H511835   0.513   0.460  12.386 -0.2491  0.2666 -0.2370
  803MPD2    N111836   0.865   0.808  12.091  0.0554  0.7093 -0.0738
  803MPD2    H711837   0.946   0.782  12.147 -0.2091 -0.6815 -0.3407
  804MPD2     C11838   0.266   1.795  16.592  0.0454  0.2309 -0.2129
  804MPD2    C111839   0.252   1.768  16.719  0.2094  0.6570 -0.1158
  804MPD2    C211840   0.253   1.877  16.807  0.2695  0.8252 -0.5816
  804MPD2    C311841   0.282   2.009  16.763  0.3277  0.2979 -0.3689
  804MPD2    C411842   0.304   2.027  16.629  0.6511 -0.0255 -0.0922
  804MPD2    C511843   0.286   1.925  16.544  0.5569 -0.2571 -0.1574
  804MPD2     H11844   0.231   1.859  16.911 -1.9459  1.6517 -0.9083
  804MPD2    H111845   0.328   2.121  16.579 -0.6749  0.0890 -0.5026
  804MPD2    H211846   0.252   1.721  16.514 -1.4653 -0.9974  1.2234
  804MPD2    H311847   0.286   1.952  16.439  3.1625 -0.4785 -0.2114
  804MPD2     N11848   0.283   2.114  16.857  0.3137  0.3141  0.8386
  804MPD2    H511849   0.276   2.090  16.955 -1.1154 -1.4665  0.2920
  804MPD2    N111850   0.229   1.641  16.774 -0.8339  0.2400 -0.4072
  804MPD2    H711851   0.237   1.624  16.874  2.6817 -0.3978 -0.7702
  805MPD2     C11852   4.264   0.104  15.629 -0.1144  0.2714 -0.1344
  805MPD2    C111853   4.347   0.168  15.537 -0.1575 -0.2401 -0.6492
  805MPD2    C211854   4.478   0.193  15.574  0.2030  0.5400  0.0956
  805MPD2    C311855   4.520   0.167  15.707 -0.3799 -0.5997 -0.8467
  805MPD2    C411856   4.439   0.098  15.794  0.3214  0.2391 -0.3063
  805MPD2    C511857   4.309   0.075  15.754  0.1185 -0.2013  0.1343
  805MPD2     H11858   4.547   0.235  15.501 -0.2309  3.3308  1.3175
  805MPD2    H111859   4.461   0.076  15.898  0.7811  1.2755 -0.1820
  805MPD2    H211860   4.159   0.082  15.612 -0.2649  1.4473 -0.7771
  805MPD2    H311861   4.241   0.035  15.828 -2.2185  0.0328 -1.8763
  805MPD2     N11862   4.646   0.211  15.750  0.1986  0.3113  0.4079
  805MPD2    H511863   4.700   0.280  15.699  1.1070 -0.6757  0.0197
  805MPD2    N111864   4.308   0.197  15.406  0.2957 -0.1265  0.1777
  805MPD2    H711865   4.390   0.221  15.352 -2.0320  1.9748 -2.3787
  806MPD2     C11866   4.570   4.486   0.308  0.0264  0.0930 -0.2042
  806MPD2    C111867   4.626   4.521   0.428  0.0295 -0.0648 -0.3750
  806MPD2    C211868   0.010   4.613   0.424  0.4948 -0.0109  0.3650
  806MPD2    C311869   0.078   4.647   0.307  1.0459  0.2701 -0.4733
  806MPD2    C411870   0.021   4.599   0.186  0.5064 -0.4791 -0.3136
  806MPD2    C511871   4.635   4.517   0.191  0.5884 -0.1967 -0.0140
  806MPD2     H11872   0.046   4.656   0.516  0.5177  0.1921  0.2615
  806MPD2    H111873   0.066   4.628   0.092 -0.0666 -0.7652 -0.6734
  806MPD2    H211874   4.485   4.421   0.294  0.2941 -0.2314 -0.3319
  806MPD2    H311875   4.600   4.477   0.096 -1.8574 -0.3898  0.9583
  806MPD2     N11876   0.198   0.000   0.316 -0.0605 -0.0789 -0.4503
  806MPD2    H511877   0.251   0.019   0.401  0.4999 -0.4880 -0.7047
  806MPD2    N111878   4.562   4.469   0.548 -0.5472 -0.0285  0.1834
  806MPD2    H711879   4.486   4.403   0.538 -0.5770  0.1562 -0.7561
  807MPD2     C11880   4.527   3.787   0.701  0.3937 -0.4701 -0.1820
  807MPD2    C111881   4.447   3.823   0.810  0.0631 -0.7716 -0.4952
  807MPD2    C211882   4.402   3.723   0.899 -0.0885 -0.3493  0.2436
  807MPD2    C311883   4.442   3.588   0.878  0.0129 -0.2120  0.2597
  807MPD2    C411884   4.503   3.553   0.758 -0.7758  0.1157  0.2006
  807MPD2    C511885   4.549   3.652   0.673 -0.1630  0.3137  0.6632
  807MPD2     H11886   4.349   3.759   0.987 -3.2214 -0.7220 -1.4893
  807MPD2    H111887   4.522   3.454   0.718  0.1002  0.7530 -0.9648
  807MPD2    H211888   4.566   3.869   0.641 -0.2834 -1.3594 -1.8455
  807MPD2    H311889   4.612   3.622   0.589  0.6565  1.3678  0.9039
  807MPD2     N11890   4.390   3.489   0.966  0.0340 -0.6540 -0.1209
  807MPD2    H511891   4.341   3.524   1.047 -1.7194 -1.8404 -0.6502
  807MPD2    N111892   4.431   3.959   0.845  0.1373 -0.4018 -0.2510
  807MPD2    H711893   4.379   3.976   0.930  0.2994 -1.2831  0.0187
  808MPD2     C11894   1.394   0.944   9.939 -1.0239  0.1211  0.5009
  808MPD2    C111895   1.261   0.908   9.899 -0.6744  0.8848 -0.1707
  808MPD2    C211896   1.173   1.002   9.834 -0.5024  0.4857  0.5674
  808MPD2    C311897   1.228   1.123   9.802 -0.6744 -0.4446  0.7816
  808MPD2    C411898   1.354   1.165   9.845 -0.2849  0.1982 -0.0758
  808MPD2    C511899   1.435   1.075   9.915 -0.2970 -0.2031  0.7515
  808MPD2     H11900   1.075   0.990   9.788  0.4840  0.6591 -1.5731
  808MPD2    H111901   1.377   1.271   9.840  1.1770 -0.1693 -1.0772
  808MPD2    H211902   1.469   0.887   9.993 -1.9149 -2.7485 -1.2588
  808MPD2    H311903   1.528   1.110   9.958 -0.0560  1.5453 -1.1864
  808MPD2     N11904   1.155   1.227   9.738 -0.2123  0.5016 -0.0268
  808MPD2    H511905   1.210   1.311   9.722  0.6251 -0.3830 -1.8094
  808MPD2    N111906   1.212   0.779   9.919  0.2253  0.0896  0.5334
  808MPD2    H711907   1.131   0.761   9.861 -0.4639 -0.1214  1.5555
  809MPD2     C11908   1.456   1.973   9.189 -0.4680 -0.1462  0.0245
  809MPD2    C111909   1.511   1.852   9.233  0.0081 -0.6803 -0.9002
  809MPD2    C211910   1.419   1.766   9.296  0.3619 -0.5313  0.2891
  809MPD2    C311911   1.281   1.795   9.311  0.0018 -0.2221  0.0595
  809MPD2    C411912   1.238   1.907   9.249  0.2696 -0.2266 -0.1683
  809MPD2    C511913   1.318   1.997   9.191 -0.2228  0.6512  0.3603
  809MPD2     H11914   1.465   1.683   9.348 -0.7882 -0.1987  1.8567
  809MPD2    H111915   1.133   1.930   9.265  0.5997  1.3161 -0.1914
  809MPD2    H211916   1.507   2.053   9.137  0.1280  0.1886  1.1245
  809MPD2    H311917   1.277   2.079   9.134 -3.1900 -1.8797 -1.1362
  809MPD2     N11918   1.183   1.728   9.388  0.1300 -0.3558 -0.5245
  809MPD2    H511919   1.092   1.772   9.400  1.1311  1.8554 -0.9151
  809MPD2    N111920   1.647   1.823   9.234  0.1925  0.0639  0.6363
  809MPD2    H711921   1.692   1.752   9.291 -0.1812  0.2067  1.1002
  810MPD2     C11922   0.728   0.409  10.015 -0.4597 -0.1085 -0.7349
  810MPD2    C111923   0.676   0.330  10.114 -0.5567 -0.4764 -0.0584
  810MPD2    C211924   0.713   0.370  10.244 -0.2014  0.5578  0.2664
  810MPD2    C311925   0.782   0.487  10.268 -1.0337 -0.6114 -0.1817
  810MPD2    C411926   0.825   0.569  10.161 -1.2390 -0.1034 -0.4112
  810MPD2    C511927   0.805   0.518  10.035 -0.6152  0.3933  0.2966
  810MPD2     H11928   0.678   0.319  10.333 -0.2766 -0.3470 -0.2710
  810MPD2    H111929   0.883   0.661  10.161  0.5749 -1.2400  2.2266
  810MPD2    H211930   0.717   0.373   9.914 -0.9424 -2.3898  0.1332
  810MPD2    H311931   0.839   0.568   9.945  2.6408 -0.7015  0.9248
  810MPD2     N11932   0.820   0.524  10.397  0.0648  0.1757 -0.2210
  810MPD2    H511933   0.877   0.606  10.414 -1.7878  0.9183  2.4290
  810MPD2    N111934   0.589   0.226  10.081  0.1381  0.5013 -0.5644
  810MPD2    H711935   0.592   0.197   9.984  0.9331 -0.8542 -0.1243
  811MPD2     C11936   4.540   0.135   9.767 -0.2155 -0.1406 -0.4335
  811MPD2    C111937   4.671   0.180   9.769  0.4933  0.1206 -0.2993
  811MPD2    C211938   4.705   0.296   9.705  0.7056 -0.5017 -0.1024
  811MPD2    C311939   4.610   0.382   9.648 -0.1407 -0.1429 -0.2013
  811MPD2    C411940   4.477   0.337   9.643 -0.0810  0.4022 -0.2795
  811MPD2    C511941   4.448   0.214   9.701 -0.2009 -0.2351  0.4256
  811MPD2     H11942   0.083   0.331   9.719  1.1293 -2.0874  0.7417
  811MPD2    H111943   4.396   0.394   9.599  0.0671  1.2502  0.5436
  811MPD2    H211944   4.509   0.046   9.821 -0.4649  0.0394 -0.2826
  811MPD2    H311945   4.341   0.195   9.707  0.1502 -2.9329 -1.9298
  811MPD2     N11946   4.653   0.506   9.596  0.1986  0.3152 -0.1229
  811MPD2    H511947   0.031   0.515   9.595  0.0681  1.1973 -3.9695
  811MPD2    N111948   0.036   0.105   9.848  0.5175  0.1634  0.4516
  811MPD2    H711949   0.003   0.057   9.931  2.1304 -3.5305 -1.0772
  812MPD2     C11950   3.829   0.442  12.207  0.2435  0.2435  0.0955
  812MPD2    C111951   3.750   0.489  12.316 -0.2023 -0.6631  0.1979
  812MPD2    C211952   3.711   0.410  12.423 -0.7624  0.0123  0.7506
  812MPD2    C311953   3.739   0.271  12.425  0.1831  0.4797  0.7117
  812MPD2    C411954   3.810   0.220  12.312 -0.2028 -0.1051  0.1030
  812MPD2    C511955   3.861   0.305  12.213 -0.8983 -0.1074  0.1116
  812MPD2     H11956   3.659   0.439  12.513  0.7863 -1.0269  1.9667
  812MPD2    H111957   3.840   0.117  12.298  2.1474  0.4629  1.0263
  812MPD2    H211958   3.874   0.498  12.126 -0.6743  0.3746 -0.3233
  812MPD2    H311959   3.934   0.263  12.143  1.6788  3.6408  0.5330
  812MPD2     N11960   3.684   0.183  12.521  0.0104  0.3912 -0.4196
  812MPD2    H511961   3.646   0.217  12.609  1.5135  0.0710  0.3535
  812MPD2    N111962   3.728   0.632  12.327  0.2836  0.3227  0.2495
  812MPD2    H711963   3.687   0.672  12.411  0.6150  0.2482  0.4497
  813MPD2     C11964   2.860   2.173  12.511 -0.7998 -0.3932 -0.7051
  813MPD2    C111965   2.868   2.310  12.541 -0.1219  0.0028  0.1274
  813MPD2    C211966   2.769   2.354  12.629 -0.3083 -0.2304  0.5662
  813MPD2    C311967   2.674   2.270  12.681  0.0723 -0.7617 -0.0092
  813MPD2    C411968   2.663   2.138  12.638 -0.3937 -0.3785 -0.6454
  813MPD2    C511969   2.751   2.094  12.543  0.6787  0.0121  0.5905
  813MPD2     H11970   2.780   2.455  12.667  1.4323 -0.2630  0.1922
  813MPD2    H111971   2.590   2.066  12.672 -0.6278  0.3553  0.3976
  813MPD2    H211972   2.929   2.126  12.441  1.5287  0.5945  0.9585
  813MPD2    H311973   2.752   1.987  12.525  1.0152  0.4474 -1.9641
  813MPD2     N11974   2.596   2.329  12.784  0.0062 -0.0778  0.7172
  813MPD2    H511975   2.601   2.430  12.798 -1.3829  0.2285 -0.8935
  813MPD2    N111976   2.978   2.388  12.491 -0.1140  0.3280  0.4507
  813MPD2    H711977   3.064   2.347  12.456  0.3973  2.0882 -0.3747
  814MPD2     C11978   3.345   3.757  12.071 -0.4868 -0.1609 -0.2314
  814MPD2    C111979   3.353   3.847  11.968 -0.2432  0.3418  0.1941
  814MPD2    C211980   3.438   3.957  11.987  0.7214  0.4767 -0.0138
  814MPD2    C311981   3.494   3.980  12.109  0.0123 -0.4058  0.2376
  814MPD2    C411982   3.471   3.895  12.214 -0.6410 -0.1157  0.4195
  814MPD2    C511983   3.392   3.779  12.195  0.2188 -0.7498  0.4405
  814MPD2     H11984   3.450   4.024  11.903  0.5036  1.6776  0.9162
  814MPD2    H111985   3.512   3.920  12.311  0.0863 -1.4613  0.4514
  814MPD2    H211986   3.290   3.664  12.056  0.9471 -1.1216  0.4707
  814MPD2    H311987   3.362   3.715  12.277 -1.1524  0.8442  1.1763
  814MPD2     N11988   3.588   4.084  12.136 -0.6662  1.0718  1.1252
  814MPD2    H511989   3.624   4.101  12.230  1.1802 -0.2441  0.6556
  814MPD2    N111990   3.283   3.840  11.843 -0.0529 -0.0115 -0.0376
  814MPD2    H711991   3.299   3.911  11.773 -2.1870  3.2556  2.7795
  815MPD2     C11992   3.862   2.754  11.440  0.2170  0.1977 -0.0957
  815MPD2    C111993   3.869   2.628  11.499 -0.0787 -0.2710 -0.0238
  815MPD2    C211994   3.780   2.599  11.597  0.1870  0.3982  0.2799
  815MPD2    C311995   3.674   2.684  11.620 -0.8099 -0.0306  0.0572
  815MPD2    C411996   3.659   2.803  11.559 -0.3496 -0.4244 -0.0219
  815MPD2    C511997   3.765   2.845  11.474  0.7719  0.1135 -0.0836
  815MPD2     H11998   3.784   2.505  11.650  0.7503 -0.0617 -0.5773
  815MPD2    H111999   3.582   2.873  11.591  1.5206  0.1227  3.3544
  815MPD2    H212000   3.938   2.777  11.367  1.3292 -1.8919  0.4019
  815MPD2    H312001   3.760   2.947  11.436 -2.6733  0.2155  0.5919
  815MPD2     N12002   3.579   2.638  11.716  0.3396  0.6847  0.3865
  815MPD2    H512003   3.607   2.547  11.750  1.5973  0.7726 -0.3929
  815MPD2    N112004   3.956   2.533  11.449  0.7590  0.0532  0.0556
  815MPD2    H712005   4.013   2.555  11.368  0.0335  0.2175 -0.4102
  816MPD2     C12006   3.233   1.542  16.972  0.2087  0.5930  0.5689
  816MPD2    C112007   3.326   1.640  17.000 -0.0660 -0.1848  0.5773
  816MPD2    C212008   3.462   1.601  17.003  0.4611 -0.2392 -0.0294
  816MPD2    C312009   3.505   1.474  16.978  0.3136  0.4169 -0.6432
  816MPD2    C412010   3.408   1.379  16.945  0.2280  0.6591 -0.1445
  816MPD2    C512011   3.273   1.416  16.947  0.1515 -0.7700 -0.5273
  816MPD2     H12012   3.540   1.673  17.026  0.6096 -0.5000  0.2994
  816MPD2    H112013   3.445   1.281  16.915 -0.8284  0.6031 -1.2520
  816MPD2    H212014   3.129   1.562  16.953  0.0935  0.9900  1.6217
  816MPD2    H312015   3.193   1.350  16.916  0.1808 -1.0280 -0.0404
  816MPD2     N12016   3.643   1.439  16.980  0.1789  0.0723  0.4579
  816MPD2    H512017   3.707   1.513  17.005  1.9033 -0.9181 -0.9674
  816MPD2    N112018   3.275   1.771  17.023  0.1702 -0.1828 -0.1425
  816MPD2    H712019   3.177   1.793  17.012  0.7018  2.5308  0.4376
  817MPD2     C12020   3.975   2.693   9.839  0.3092  0.6827 -0.4889
  817MPD2    C112021   4.072   2.789   9.829 -0.4391 -0.7588 -0.2251
  817MPD2    C212022   4.047   2.907   9.768 -0.4918 -0.1854  0.0322
  817MPD2    C312023   3.919   2.944   9.726 -0.0496  0.0468  0.3620
  817MPD2    C412024   3.816   2.852   9.751 -0.2284  0.2251 -0.4589
  817MPD2    C512025   3.850   2.727   9.797 -0.5956 -0.1865 -0.8472
  817MPD2     H12026   4.122   2.984   9.755 -0.2365 -0.8650 -2.6709
  817MPD2    H112027   3.713   2.879   9.731 -0.3479 -0.1993 -0.4180
  817MPD2    H212028   4.001   2.598   9.884  0.7307  1.6179  1.2332
  817MPD2    H312029   3.776   2.648   9.808 -1.2718  0.5860  0.0988
  817MPD2     N12030   3.897   3.078   9.689  0.0094  0.0669 -0.2264
  817MPD2    H512031   3.974   3.143   9.703  1.2368 -1.1493 -1.3769
  817MPD2    N112032   4.193   2.757   9.885  0.1853 -0.1873  0.2304
  817MPD2    H712033   4.201   2.663   9.922  0.5978 -0.1898  0.1300
  818MPD2     C12034   2.464   3.110   9.801  0.2656  0.1954 -0.1672
  818MPD2    C112035   2.345   3.052   9.816  0.0786 -0.4717 -0.0341
  818MPD2    C212036   2.314   2.947   9.740 -0.6391  0.0115 -0.8804
  818MPD2    C312037   2.411   2.886   9.659  0.2094 -0.1832  0.7527
  818MPD2    C412038   2.543   2.933   9.660 -0.4259 -0.3577 -0.3604
  818MPD2    C512039   2.555   3.051   9.720  0.2292  0.0715 -0.2615
  818MPD2     H12040   2.216   2.901   9.749  0.6901 -2.8335 -0.8925
  818MPD2    H112041   2.620   2.903   9.590 -1.2291 -2.6123 -0.2699
  818MPD2    H212042   2.495   3.199   9.856 -2.0074  2.3303 -2.3602
  818MPD2    H312043   2.655   3.094   9.713 -0.2548  1.2340 -0.0749
  818MPD2     N12044   2.391   2.776   9.573 -0.2377 -0.1300 -0.5340
  818MPD2    H512045   2.466   2.750   9.510  1.5476  1.0600  1.1092
  818MPD2    N112046   2.254   3.108   9.904  0.0859  0.5122 -0.0134
  818MPD2    H712047   2.173   3.048   9.917 -0.5114  1.3039 -0.0996
  819MPD2     C12048   0.428   0.152  15.701 -0.3045  0.1525  0.3336
  819MPD2    C112049   0.372   0.034  15.737 -0.4931 -0.3355  0.3017
  819MPD2    C212050   0.443   4.679  15.829  0.3019 -0.5929 -0.7327
  819MPD2    C312051   0.571   4.712  15.866  0.2254  0.0691 -0.4258
  819MPD2    C412052   0.624   0.110  15.832 -0.0144  0.0348 -0.0522
  819MPD2    C512053   0.557   0.186  15.742 -0.2085 -0.3191  0.3028
  819MPD2     H12054   0.398   4.588  15.867  0.2690 -0.6006 -0.7899
  819MPD2    H112055   0.723   0.143  15.861  0.5738 -1.2040 -0.6359
  819MPD2    H212056   0.378   0.224  15.637  1.5840  0.7316 -0.4932
  819MPD2    H312057   0.597   0.280  15.706 -0.5436  0.3693  1.7101
  819MPD2     N12058   0.641   4.609  15.939  0.4107  0.0894 -0.4961
  819MPD2    H512059   0.585   4.527  15.963  2.3379 -1.1944 -0.3538
  819MPD2    N112060   0.248   0.002  15.690 -0.5215 -0.5360 -0.1600
  819MPD2    H712061   0.203   0.056  15.616 -0.4996 -0.9095 -0.4461
  820MPD2     C12062   4.600   4.608  14.815 -0.2442  0.1812  0.0246
  820MPD2    C112063   4.564   4.702  14.910 -0.1593  0.3032 -0.9200
  820MPD2    C212064   4.589   4.679  15.042  0.5493  0.1779  0.0565
  820MPD2    C312065   4.637   4.556  15.092  0.4673 -0.3201 -0.0109
  820MPD2    C412066   4.678   4.461  14.996 -0.0826 -0.3878  0.2294
  820MPD2    C512067   4.651   4.488  14.858 -0.2147 -0.0527  0.6206
  820MPD2     H12068   4.578   0.045  15.102 -2.2785  0.8188 -1.4126
  820MPD2    H112069   4.713   4.365  15.032 -0.5721 -1.4097 -1.9936
  820MPD2    H212070   4.582   4.625  14.710 -0.7296  1.0128  0.2354
  820MPD2    H312071   4.670   4.416  14.779 -0.6646 -0.4699  0.8929
  820MPD2     N12072   4.658   4.529  15.223 -0.1198 -0.2947 -0.5677
  820MPD2    H512073   4.687   4.436  15.250  1.7254 -0.2466 -2.3933
  820MPD2    N112074   4.510   0.099  14.858  0.2053  0.1816 -0.2902
  820MPD2    H712075   4.508   0.111  14.757 -0.2240  0.2804 -0.2664
  821MPD2     C12076   1.159   0.905  13.157 -0.4315 -0.0125  0.1647
  821MPD2    C112077   1.212   0.928  13.286  0.2939  0.1817  0.3126
  821MPD2    C212078   1.325   1.008  13.294 -0.3523 -0.3778 -0.7042
  821MPD2    C312079   1.381   1.073  13.185  0.0272  0.3588 -0.1415
  821MPD2    C412080   1.324   1.048  13.058 -0.0132  0.0977 -0.0475
  821MPD2    C512081   1.213   0.966  13.045  0.6214 -0.4162 -0.1256
  821MPD2     H12082   1.369   1.019  13.392 -0.5511  0.8126 -0.7556
  821MPD2    H112083   1.368   1.080  12.965 -2.6315  1.5922 -0.7732
  821MPD2    H212084   1.075   0.837  13.142 -1.3049  1.2151 -0.5621
  821MPD2    H312085   1.171   0.956  12.946 -2.1370  1.5873  0.8710
  821MPD2     N12086   1.496   1.160  13.190 -0.1407  0.1991  0.1567
  821MPD2    H512087   1.515   1.211  13.104 -0.6983  1.2238  0.6486
  821MPD2    N112088   1.152   0.877  13.404 -0.5531 -0.0942  0.3521
  821MPD2    H712089   1.202   0.906  13.487 -0.9591  0.4655  0.4005
  822MPD2     C12090   1.104   1.453  15.630  0.2380  0.0823 -0.3634
  822MPD2    C112091   1.096   1.378  15.747  0.0535  0.0813  0.2411
  822MPD2    C212092   1.023   1.429  15.851  0.8116  0.2900  0.9054
  822MPD2    C312093   0.951   1.550  15.832 -0.4647 -0.2838 -1.0396
  822MPD2    C412094   0.955   1.618  15.709 -0.3145  0.2398 -0.6548
  822MPD2    C512095   1.030   1.564  15.611  0.0659 -0.2572 -0.1866
  822MPD2     H12096   1.023   1.378  15.947  0.2790 -0.1638  0.6590
  822MPD2    H112097   0.895   1.707  15.693 -2.2595 -0.9044  0.3048
  822MPD2    H212098   1.175   1.436  15.551 -1.1870  0.9147 -1.8218
  822MPD2    H312099   1.035   1.628  15.523  2.2803 -2.0262 -1.3743
  822MPD2     N12100   0.879   1.588  15.945 -0.1452  0.4309  0.3634
  822MPD2    H512101   0.884   1.524  16.024 -3.8205  0.9393  0.9959
  822MPD2    N112102   1.179   1.260  15.765 -0.0053  0.1408 -0.2410
  822MPD2    H712103   1.190   1.219  15.857  0.0508 -1.8547 -1.1492
  823MPD2     C12104   0.545   1.487  16.721 -0.0073  0.1478  0.2754
  823MPD2    C112105   0.595   1.449  16.594 -0.3744 -0.2622  0.6323
  823MPD2    C212106   0.668   1.328  16.593  0.2642  0.2795  0.4153
  823MPD2    C312107   0.669   1.241  16.702 -0.4502 -0.3110  0.3103
  823MPD2    C412108   0.604   1.277  16.822 -0.1222  0.1302 -0.0467
  823MPD2    C512109   0.539   1.400  16.825 -0.2015 -0.0252 -0.2798
  823MPD2     H12110   0.720   1.287  16.508 -1.3398 -0.8069 -0.0284
  823MPD2    H112111   0.604   1.213  16.909 -1.3037 -3.4003 -2.6402
  823MPD2    H212112   0.503   1.586  16.738 -0.2652  0.5592 -2.8417
  823MPD2    H312113   0.477   1.429  16.909 -1.7165 -2.3128 -0.5916
  823MPD2     N12114   0.729   1.111  16.704 -1.3124 -0.3025  0.2923
  823MPD2    H512115   0.719   1.056  16.789  1.1423 -0.0632  0.7407
  823MPD2    N112116   0.594   1.541  16.480 -0.4975 -0.2237 -0.4430
  823MPD2    H712117   0.571   1.637  16.503  2.1496 -0.1565  1.9793
  824MPD2     C12118   1.266   0.425  15.774  0.0160 -0.0386  0.1091
  824MPD2    C112119   1.352   0.508  15.702 -0.1893 -0.0111 -0.3267
  824MPD2    C212120   1.431   0.450  15.599 -0.1407  0.5569  0.2408
  824MPD2    C312121   1.433   0.310  15.580 -0.3704 -0.1128 -0.0172
  824MPD2    C412122   1.346   0.232  15.655 -0.1406 -0.0299 -0.2402
  824MPD2    C512123   1.263   0.292  15.751  1.2955 -0.0090 -0.3387
  824MPD2     H12124   1.504   0.504  15.541  1.1862 -0.1910  1.2106
  824MPD2    H112125   1.354   0.125  15.644 -0.0292 -0.0308 -0.1461
  824MPD2    H212126   1.207   0.468  15.854  1.6021  1.5640  0.3972
  824MPD2    H312127   1.206   0.234  15.823 -0.8045 -1.6093 -3.3123
  824MPD2     N12128   1.524   0.263  15.480  0.3848  0.5881  0.4286
  824MPD2    H512129   1.572   0.337  15.429 -2.0731  0.9611 -1.3316
  824MPD2    N112130   1.353   0.644  15.736 -0.4317 -0.8031 -0.0627
  824MPD2    H712131   1.291   0.661  15.814  0.0584  0.8532 -0.0367
  825MPD2     C12132   1.974   0.473  14.926 -0.6644  0.4639  0.4023
  825MPD2    C112133   2.022   0.467  15.058 -0.1168  1.1900 -0.4624
  825MPD2    C212134   2.128   0.552  15.094  0.0358 -1.0959 -0.6118
  825MPD2    C312135   2.181   0.646  14.995  0.0419 -0.2212  0.0632
  825MPD2    C412136   2.130   0.642  14.864  0.0175 -0.2804  0.3924
  825MPD2    C512137   2.023   0.563  14.839  0.4482  0.1343  0.7031
  825MPD2     H12138   2.173   0.540  15.192  0.9477  3.0543 -0.5203
  825MPD2    H112139   2.163   0.714  14.790  0.0703  0.0084  0.6994
  825MPD2    H212140   1.878   0.432  14.897 -1.5593  1.9313  1.2171
  825MPD2    H312141   1.988   0.568  14.737 -0.5357  1.4030  1.1140
  825MPD2     N12142   2.288   0.739  15.014 -0.2183 -0.3630 -0.1347
  825MPD2    H512143   2.311   0.790  14.929  2.0755 -0.9289  0.1402
  825MPD2    N112144   1.974   0.366  15.151  0.4289 -0.1256  0.1285
  825MPD2    H712145   2.033   0.352  15.232  2.0536  2.7509 -0.5740
  826MPD2     C12146   2.031   0.330  13.733 -0.3778  0.2699 -0.0731
  826MPD2    C112147   1.941   0.383  13.645  0.1047  0.0425 -0.6259
  826MPD2    C212148   1.842   0.466  13.684 -0.9952  0.4430  0.3496
  826MPD2    C312149   1.820   0.495  13.814  0.8218 -0.0500 -0.2314
  826MPD2    C412150   1.913   0.461  13.896 -0.3487  0.2752  0.2431
  826MPD2    C512151   2.022   0.382  13.858 -0.2164 -1.2905  0.0902
  826MPD2     H12152   1.776   0.500  13.605 -3.3034 -0.1152  2.0548
  826MPD2    H112153   1.924   0.500  13.997 -0.8632 -0.8505  0.7369
  826MPD2    H212154   2.116   0.270  13.704 -0.2405 -0.0280  0.9483
  826MPD2    H312155   2.102   0.373  13.930  0.1147  0.4809 -0.0480
  826MPD2     N12156   1.720   0.581  13.859  0.3998 -0.2394  0.6731
  826MPD2    H512157   1.732   0.626  13.950 -1.0666  0.1413  0.6788
  826MPD2    N112158   1.961   0.345  13.507  0.6605 -0.4085 -0.5028
  826MPD2    H712159   2.031   0.273  13.496  0.1025 -0.7176 -2.0547
  827MPD2     C12160   2.888   1.293  10.165  0.9124  0.3949  0.5503
  827MPD2    C112161   2.806   1.319  10.267  0.4171 -0.5719 -0.2166
  827MPD2    C212162   2.671   1.298  10.244  0.4037  0.2767 -0.1055
  827MPD2    C312163   2.617   1.258  10.124 -0.6402 -0.7391 -0.1121
  827MPD2    C412164   2.704   1.232  10.023 -0.1431  0.0194  0.1469
  827MPD2    C512165   2.837   1.257  10.043 -0.1350  0.8522 -0.1290
  827MPD2     H12166   2.600   1.328  10.320 -1.2783 -1.0106 -1.1810
  827MPD2    H112167   2.658   1.210   9.927  2.4963  0.1337 -1.1558
  827MPD2    H212168   2.996   1.303  10.163  0.8326  0.6000 -2.4560
  827MPD2    H312169   2.901   1.259   9.956 -1.9293  0.0863 -1.4700
  827MPD2     N12170   2.481   1.247  10.110  0.2958 -0.2429  0.0596
  827MPD2    H512171   2.431   1.250  10.198 -0.6773  1.2032 -0.5324
  827MPD2    N112172   2.858   1.369  10.392  0.5958  0.3961  0.3783
  827MPD2    H712173   2.947   1.417  10.390  0.4424  0.6558 -0.3078
  828MPD2     C12174   0.771   1.736  12.969 -0.0300  0.4861  0.5200
  828MPD2    C112175   0.779   1.682  12.842 -0.1070 -0.3870 -0.4298
  828MPD2    C212176   0.896   1.626  12.798 -0.2438 -0.3994 -0.2679
  828MPD2    C312177   1.012   1.623  12.881 -0.3699  1.0919  0.2758
  828MPD2    C412178   0.996   1.670  13.010  0.3790 -0.0155 -0.2846
  828MPD2    C512179   0.879   1.725  13.051  0.1443 -0.9015  0.0775
  828MPD2     H12180   0.908   1.571  12.706  0.3311  0.3515 -0.6421
  828MPD2    H112181   1.079   1.671  13.080 -1.7041 -0.7766  2.2104
  828MPD2    H212182   0.685   1.788  13.011  0.2251 -0.2477  1.9311
  828MPD2    H312183   0.876   1.759  13.153  0.1183 -0.5882 -0.0288
  828MPD2     N12184   1.134   1.562  12.836  1.2990  0.3838 -0.9558
  828MPD2    H512185   1.195   1.523  12.907 -0.9895 -0.8862  0.3427
  828MPD2    N112186   0.675   1.699  12.749  0.0828 -0.1891  0.1979
  828MPD2    H712187   0.683   1.650  12.660  1.2596 -2.3352  1.4873
  829MPD2     C12188   0.824   1.750  11.957 -0.3909 -0.6721 -0.5776
  829MPD2    C112189   0.699   1.809  11.952  0.0417  0.1546  0.1211
  829MPD2    C212190   0.619   1.801  12.058  0.8304 -0.8245 -0.1227
  829MPD2    C312191   0.665   1.738  12.176  0.7548 -0.1914  0.4526
  829MPD2    C412192   0.797   1.685  12.181 -0.5533 -0.3058 -0.7037
  829MPD2    C512193   0.876   1.692  12.075  0.3050 -0.1001 -0.3039
  829MPD2     H12194   0.522   1.848  12.061  1.3124  0.0395  1.9906
  829MPD2    H112195   0.840   1.638  12.268  0.8494 -1.1274 -1.8335
  829MPD2    H212196   0.896   1.756  11.876 -2.9053 -1.0095 -2.8597
  829MPD2    H312197   0.979   1.656  12.075  0.6899  0.9710 -1.9539
  829MPD2     N12198   0.582   1.732  12.289 -0.3362  0.1915 -0.5408
  829MPD2    H512199   0.621   1.700  12.377 -0.2346  0.3251 -0.5374
  829MPD2    N112200   0.666   1.876  11.831 -0.0149 -0.1086  0.2637
  829MPD2    H712201   0.743   1.883  11.764 -1.1114  0.5996 -0.9162
  830MPD2     C12202   0.912   3.816  15.784 -0.0214 -0.7373  0.7114
  830MPD2    C112203   0.890   3.946  15.747  0.3984 -0.3196  0.5040
  830MPD2    C212204   0.884   3.976  15.610  0.3620 -0.1453  0.0009
  830MPD2    C312205   0.885   3.875  15.514 -1.6945  0.4947  0.5445
  830MPD2    C412206   0.930   3.753  15.558 -0.1614  0.4201 -0.3102
  830MPD2    C512207   0.930   3.720  15.687 -0.4385  0.2544  0.0122
  830MPD2     H12208   0.871   4.074  15.565  0.9466 -0.4780 -0.8910
  830MPD2    H112209   0.932   3.666  15.494 -0.9387  0.2972 -0.1638
  830MPD2    H212210   0.927   3.777  15.884  0.1561 -0.3994  0.8174
  830MPD2    H312211   0.945   3.617  15.715  1.0988  0.5780  0.3809
  830MPD2     N12212   0.858   3.911  15.382  0.1428  0.3582  0.1533
  830MPD2    H512213   0.835   4.008  15.366  0.1146 -0.1884 -3.1422
  830MPD2    N112214   0.867   4.044  15.845 -0.5324  0.3926 -0.0015
  830MPD2    H712215   0.875   4.017  15.942 -0.7180  1.3334  0.2740
  831MPD2     C12216   1.068   1.578  16.274  0.2198  0.2873  0.0340
  831MPD2    C112217   1.153   1.505  16.192  0.0741  0.6231 -1.0013
  831MPD2    C212218   1.136   1.374  16.172 -0.2779 -0.0527 -0.4287
  831MPD2    C312219   1.036   1.298  16.240 -0.0485  0.1726  0.0440
  831MPD2    C412220   0.969   1.368  16.336 -0.3813  0.1985 -0.0056
  831MPD2    C512221   0.980   1.502  16.349 -0.0120 -0.2845  0.2878
  831MPD2     H12222   1.188   1.319  16.094  1.0191  1.1109 -0.3860
  831MPD2    H112223   0.896   1.319  16.399  1.5746 -0.6374  1.6094
  831MPD2    H212224   1.082   1.683  16.298 -2.8838  0.4857  0.9852
  831MPD2    H312225   0.934   1.548  16.435  1.5709  0.0541  0.9608
  831MPD2     N12226   0.991   1.162  16.225 -0.2552  0.4126 -0.5440
  831MPD2    H512227   0.920   1.124  16.287  1.0792 -1.3725 -0.0894
  831MPD2    N112228   1.256   1.577  16.130 -0.0083 -0.1740 -0.1885
  831MPD2    H712229   1.262   1.678  16.140 -0.1781 -0.0850 -1.0188
  832MPD2     C12230   4.098   2.565  17.417  0.6224  0.4460 -0.3663
  832MPD2    C112231   4.118   2.694  17.376 -0.6777  0.3643 -0.7815
  832MPD2    C212232   4.053   2.740  17.256  0.3475  0.4934 -0.2864
  832MPD2    C312233   3.967   2.654  17.183 -0.2133  0.8027  0.4835
  832MPD2    C412234   3.943   2.529  17.228 -0.2156  0.2170 -0.7570
  832MPD2    C512235   4.007   2.483  17.344  0.2099  0.5557 -0.1626
  832MPD2     H12236   4.083   2.834  17.211 -0.9436  2.0763  2.1658
  832MPD2    H112237   3.878   2.456  17.181 -0.6266 -0.5105  0.9290
  832MPD2    H212238   4.167   2.520  17.487  0.7065  3.6596  1.6114
  832MPD2    H312239   4.011   2.379  17.373 -2.5989  0.6847  0.6640
  832MPD2     N12240   3.912   2.694  17.060 -0.4884  0.6712  0.7628
  832MPD2    H512241   3.862   2.628  17.000 -0.4686  1.3554 -0.0114
  832MPD2    N112242   4.218   2.767  17.444 -0.9587 -0.0632  0.5195
  832MPD2    H712243   4.287   2.722  17.503  0.1308  0.5479 -0.2997
  833MPD2     C12244   1.296   3.901  12.559 -0.0140 -0.2682  0.0649
  833MPD2    C112245   1.407   3.968  12.519  0.4493  0.2205  0.5542
  833MPD2    C212246   1.515   3.895  12.469 -0.4551 -0.7801  0.0068
  833MPD2    C312247   1.509   3.759  12.450  0.1790  0.2820  0.0909
  833MPD2    C412248   1.399   3.692  12.500  0.4818  1.0761  0.2974
  833MPD2    C512249   1.296   3.765  12.552  0.1549 -0.6156  0.5555
  833MPD2     H12250   1.602   3.954  12.441 -1.3584  0.7020  0.3427
  833MPD2    H112251   1.400   3.584  12.487  1.2349  1.0327  0.7315
  833MPD2    H212252   1.204   3.957  12.575  0.2703  0.1258  0.3186
  833MPD2    H312253   1.207   3.706  12.570  0.6444 -1.9378 -1.2677
  833MPD2     N12254   1.614   3.683  12.387 -0.3053  0.3505  0.4257
  833MPD2    H512255   1.609   3.582  12.394  1.1763  0.2538  0.0253
  833MPD2    N112256   1.405   4.112  12.534  0.1990  0.7228 -0.5047
  833MPD2    H712257   1.320   4.157  12.567  0.4834  1.1368 -0.3330
  834MPD2     C12258   1.417   3.160  11.597 -0.9185 -0.2102 -0.4135
  834MPD2    C112259   1.548   3.191  11.553 -0.6220 -0.1682 -0.7113
  834MPD2    C212260   1.630   3.260  11.643 -0.4661  0.4568  0.1992
  834MPD2    C312261   1.576   3.309  11.760 -0.0587 -0.6863  0.5122
  834MPD2    C412262   1.442   3.283  11.794  0.2648  0.5165 -0.2984
  834MPD2    C512263   1.373   3.208  11.706 -0.3492 -0.3163  0.5959
  834MPD2     H12264   1.733   3.279  11.617 -0.7339  1.1614 -0.3528
  834MPD2    H112265   1.394   3.324  11.882 -0.5833  1.1540 -1.0541
  834MPD2    H212266   1.361   3.099  11.527  0.6112  0.1494 -1.9798
  834MPD2    H312267   1.266   3.201  11.726 -0.3066 -1.8481  0.2677
  834MPD2     N12268   1.653   3.395  11.836  0.0923 -0.1545  0.0525
  834MPD2    H512269   1.742   3.428  11.801  0.4386  1.2422  2.2457
  834MPD2    N112270   1.582   3.150  11.427  0.2288  0.1842 -0.3774
  834MPD2    H712271   1.513   3.116  11.360  1.5351 -0.5844 -1.3303
  835MPD2     C12272   2.222   1.517  10.956 -0.9063 -0.4086 -0.1277
  835MPD2    C112273   2.109   1.507  11.029 -0.1371  0.1509 -0.8959
  835MPD2    C212274   2.119   1.453  11.156 -0.3043  0.6277  0.2900
  835MPD2    C312275   2.238   1.419  11.214 -0.2909 -0.1381  0.1477
  835MPD2    C412276   2.351   1.425  11.141 -0.3524 -0.5059  0.1105
  835MPD2    C512277   2.341   1.479  11.016 -0.3864 -0.5253  0.1379
  835MPD2     H12278   2.026   1.455  11.211  0.1397  1.8938  0.9768
  835MPD2    H112279   2.447   1.394  11.181 -0.4523 -0.5600  0.3047
  835MPD2    H212280   2.227   1.551  10.853 -0.3843 -0.3273 -0.0745
  835MPD2    H312281   2.435   1.490  10.964  0.4964 -1.6648  1.4977
  835MPD2     N12282   2.241   1.386  11.349 -0.2375 -0.3448 -0.0873
  835MPD2    H512283   2.330   1.391  11.397 -1.0416  1.4309  1.2304
  835MPD2    N112284   1.980   1.551  10.984 -0.0095 -0.3706 -0.5810
  835MPD2    H712285   1.901   1.548  11.048 -0.6933 -1.7060 -1.4905
  836MPD2     C12286   1.876   1.867  11.716  0.6925  0.3808 -0.1241
  836MPD2    C112287   1.899   1.771  11.816  0.0197 -0.1431 -0.0557
  836MPD2    C212288   1.830   1.768  11.935  0.7636 -0.3040  0.2773
  836MPD2    C312289   1.736   1.867  11.957 -0.2662  0.3414 -1.1081
  836MPD2    C412290   1.711   1.967  11.869  0.3649  0.9030 -0.0366
  836MPD2    C512291   1.778   1.966  11.748  0.0349 -0.0746  0.0827
  836MPD2     H12292   1.852   1.696  12.013 -0.3925 -1.4860 -0.4916
  836MPD2    H112293   1.644   2.051  11.887 -1.7413 -0.7926 -0.0336
  836MPD2    H212294   1.918   1.854  11.617  1.6885  1.7819  0.1124
  836MPD2    H312295   1.756   2.049  11.682  0.2112 -0.2931 -0.2552
  836MPD2     N12296   1.648   1.858  12.072 -0.5860 -0.3303  0.6895
  836MPD2    H512297   1.557   1.903  12.070 -1.4254 -2.1043 -0.3341
  836MPD2    N112298   1.978   1.659  11.774 -0.1311 -0.6282  0.7450
  836MPD2    H712299   2.000   1.661  11.675 -2.6822  2.6339  0.2370
  837MPD2     C12300   0.261   1.074   9.986 -0.3477  0.3097  0.7194
  837MPD2    C112301   0.139   1.111   9.924 -0.5158 -0.4624  0.0854
  837MPD2    C212302   0.093   1.240   9.933 -0.4513  0.7262  0.8711
  837MPD2    C312303   0.160   1.335  10.016 -0.7007 -0.2643  0.4512
  837MPD2    C412304   0.283   1.298  10.068 -0.2879 -0.0719 -0.0033
  837MPD2    C512305   0.332   1.170  10.049  1.2098 -0.2016  0.3121
  837MPD2     H12306   0.003   1.272   9.882 -0.2524 -0.2753 -0.1094
  837MPD2    H112307   0.348   1.373  10.113 -0.8573 -0.7977  2.0195
  837MPD2    H212308   0.308   0.977   9.974  0.7556  0.9367 -0.0494
  837MPD2    H312309   0.424   1.134  10.095  0.2796 -1.5345  1.1133
  837MPD2     N12310   0.105   1.460  10.021  0.3174 -0.5851 -0.3325
  837MPD2    H512311   0.011   1.472   9.985  0.3565 -1.2578 -0.6649
  837MPD2    N112312   0.078   1.032   9.827  0.3079 -0.1884  0.3209
  837MPD2    H712313   4.716   1.071   9.789  0.4937  1.2235  1.3398
  838MPD2     C12314   2.997   0.067  11.495 -0.2549  0.1820  0.5815
  838MPD2    C112315   3.047   4.698  11.585 -0.6334 -0.3293  0.0925
  838MPD2    C212316   2.962   4.607  11.644  0.4354  0.4735 -0.6587
  838MPD2    C312317   2.832   4.585  11.593  0.4750 -0.8141 -0.0092
  838MPD2    C412318   2.782   4.673  11.496  0.0825  0.7045  0.4004
  838MPD2    C512319   2.866   0.054  11.460 -0.1568  0.4034  0.0309
  838MPD2     H12320   3.005   4.548  11.725 -2.2712  1.1974  1.2750
  838MPD2    H112321   2.686   4.670  11.446 -0.1329  1.7337  0.7570
  838MPD2    H212322   3.059   0.145  11.453  1.0326 -0.6345  0.9368
  838MPD2    H312323   2.829   0.117  11.380  0.7800  1.5960  0.5394
  838MPD2     N12324   2.747   4.493  11.654 -0.1847 -0.3520 -0.2350
  838MPD2    H512325   2.770   4.463  11.748  0.6731 -2.2189 -1.0517
  838MPD2    N112326   3.180   4.693  11.626  0.6047 -0.9370  0.2213
  838MPD2    H712327   3.207   4.619  11.689  1.4699 -1.7724 -1.1374
  839MPD2     C12328   2.878   4.081  11.723  0.7075 -0.1276 -0.8145
  839MPD2    C112329   2.885   4.132  11.590 -0.0464 -0.1342  0.7151
  839MPD2    C212330   2.995   4.203  11.556  0.0852 -0.5804  0.1198
  839MPD2    C312331   3.100   4.226  11.649 -0.1332  0.3009  0.6362
  839MPD2    C412332   3.087   4.172  11.778  0.0385 -0.4743 -0.1093
  839MPD2    C512333   2.977   4.103  11.816 -0.5021 -0.4933 -0.0813
  839MPD2     H12334   2.998   4.240  11.454 -0.2397  2.3419  1.1691
  839MPD2    H112335   3.169   4.192  11.846 -0.0255 -0.1510 -0.1240
  839MPD2    H212336   2.802   4.011  11.754 -1.5400  1.7500 -2.0903
  839MPD2    H312337   2.974   4.060  11.916  1.3174  2.1424  1.0976
  839MPD2     N12338   3.210   4.303  11.623 -0.1195  0.4332 -0.2155
  839MPD2    H512339   3.264   4.339  11.701  0.8825  1.0041 -1.1835
  839MPD2    N112340   2.785   4.103  11.491  0.6594 -0.2374 -0.3698
  839MPD2    H712341   2.811   4.143  11.402 -0.8695  0.0028 -0.6998
  840MPD2     C12342   3.281   1.770  10.343 -0.1584 -0.0685  0.2763
  840MPD2    C112343   3.276   1.768  10.474 -0.0224  0.4484 -0.3644
  840MPD2    C212344   3.354   1.857  10.545 -0.0801  0.4552 -1.1356
  840MPD2    C312345   3.437   1.948  10.489 -0.8056  0.4469 -0.0161
  840MPD2    C412346   3.449   1.943  10.351 -0.1921  0.2329  0.3040
  840MPD2    C512347   3.365   1.861  10.280 -0.3234 -0.5864  0.1565
  840MPD2     H12348   3.339   1.873  10.651 -0.6606  1.0124 -1.3011
  840MPD2    H112349   3.527   2.000  10.300 -1.6364  1.8401 -0.1214
  840MPD2    H212350   3.211   1.709  10.287 -1.2494  0.9159  0.5531
  840MPD2    H312351   3.360   1.869  10.172 -2.4510  0.3082  0.3232
  840MPD2     N12352   3.529   2.032  10.551  0.4800 -0.0926 -0.0975
  840MPD2    H512353   3.584   2.089  10.487 -0.1597 -0.4396 -0.9654
  840MPD2    N112354   3.174   1.685  10.529  0.1747  0.4454  0.0084
  840MPD2    H712355   3.131   1.624  10.461 -0.4054 -1.6998  2.3050
  841MPD2     C12356   2.491   1.969  14.592 -0.0130  0.0555 -0.0236
  841MPD2    C112357   2.625   1.924  14.614 -0.2565  0.2349  0.0019
  841MPD2    C212358   2.692   1.982  14.719 -0.2978  0.1443  0.7516
  841MPD2    C312359   2.629   2.078  14.804 -0.0897 -0.6750 -0.3361
  841MPD2    C412360   2.495   2.112  14.783  0.1051 -0.4850  0.7522
  841MPD2    C512361   2.431   2.055  14.675 -0.0417 -0.4287 -0.6562
  841MPD2     H12362   2.788   1.953  14.762 -1.2783 -0.6848  2.3850
  841MPD2    H112363   2.439   2.185  14.840  0.0159  1.1188 -1.3897
  841MPD2    H212364   2.436   1.934  14.506 -0.5989  1.6121 -0.2781
  841MPD2    H312365   2.328   2.077  14.648 -0.2627  2.0582  2.2326
  841MPD2     N12366   2.714   2.142  14.903 -0.1501 -0.0784 -0.5381
  841MPD2    H512367   2.814   2.126  14.897 -0.1163  0.4648 -1.5296
  841MPD2    N112368   2.693   1.832  14.537 -0.7212 -0.3448  0.3833
  841MPD2    H712369   2.789   1.813  14.565 -0.2447  1.3283 -0.0869
  842MPD2     C12370   3.313   2.959  16.804  0.9048  0.1997 -0.3663
  842MPD2    C112371   3.183   2.938  16.774 -0.1855  0.4216 -0.0203
  842MPD2    C212372   3.103   2.905  16.881 -0.3295  0.3824  0.2622
  842MPD2    C312373   3.148   2.919  17.012 -0.9868  0.1811  0.3672
  842MPD2    C412374   3.276   2.957  17.036  0.4667 -0.1300  1.1787
  842MPD2    C512375   3.356   2.974  16.934 -0.5138 -0.3118 -1.1490
  842MPD2     H12376   2.997   2.902  16.858  0.2218  0.3845 -2.2346
  842MPD2    H112377   3.311   2.982  17.136  1.8995 -0.5188  0.7763
  842MPD2    H212378   3.383   2.982  16.725 -0.9418  0.9277 -1.7782
  842MPD2    H312379   3.461   2.997  16.949 -1.0903  1.1921  0.4680
  842MPD2     N12380   3.057   2.928  17.114  0.6976  0.2402 -0.5937
  842MPD2    H512381   3.083   2.982  17.196  1.2794  0.1526 -0.7276
  842MPD2    N112382   3.140   2.958  16.641  0.4946 -0.1167  0.2613
  842MPD2    H712383   3.197   3.003  16.571  1.6381  2.0093  2.5791
  843MPD2     C12384   0.402   3.885   0.317 -0.2875  0.1092  0.1777
  843MPD2    C112385   0.509   3.803   0.348  0.2593 -0.0585 -0.5018
  843MPD2    C212386   0.638   3.852   0.370  0.6337  0.0005 -0.0054
  843MPD2    C312387   0.672   3.980   0.329 -0.1561  0.3079  0.2410
  843MPD2    C412388   0.573   4.051   0.276  0.4279 -0.0040  0.1621
  843MPD2    C512389   0.438   4.007   0.265 -0.3588 -0.3646  0.3102
  843MPD2     H12390   0.716   3.783   0.400 -0.9175 -2.9193 -2.6214
  843MPD2    H112391   0.592   4.143   0.222 -0.1467  0.2150  0.3310
  843MPD2    H212392   0.300   3.860   0.292  0.3633 -2.4023  0.0834
  843MPD2    H312393   0.357   4.056   0.212 -0.3842  0.9730  1.5939
  843MPD2     N12394   0.799   4.041   0.319 -0.3342 -0.4406 -0.4593
  843MPD2    H512395   0.811   4.136   0.285 -0.1127 -0.2238  0.2161
  843MPD2    N112396   0.467   3.673   0.365  0.4032 -0.2449 -0.5660
  843MPD2    H712397   0.374   3.657   0.327  0.5262 -1.0127 -0.5408
  844MPD2     C12398   3.750   2.145  16.484  0.0407  0.0478 -0.4056
  844MPD2    C112399   3.876   2.177  16.432  0.3867  0.1436 -0.0341
  844MPD2    C212400   3.950   2.287  16.472 -0.9492 -0.0103 -0.3118
  844MPD2    C312401   3.920   2.338  16.601  0.0969  0.3301 -0.4629
  844MPD2    C412402   3.801   2.301  16.659 -0.1561 -0.2321 -0.3897
  844MPD2    C512403   3.719   2.215  16.597 -0.0555 -0.5897  0.1854
  844MPD2     H12404   4.039   2.316  16.416 -1.4312  2.3854  0.1768
  844MPD2    H112405   3.780   2.358  16.749  0.1919  0.1484 -0.5536
  844MPD2    H212406   3.684   2.068  16.444 -0.5667  0.5640 -0.4071
  844MPD2    H312407   3.620   2.194  16.634  0.0345  2.0399  1.9398
  844MPD2     N12408   4.021   2.423  16.655  0.2957  0.6578 -0.1451
  844MPD2    H512409   4.101   2.451  16.599  1.4941 -2.3394  0.0382
  844MPD2    N112410   3.925   2.106  16.317 -0.2326 -0.4666 -1.0895
  844MPD2    H712411   4.008   2.140  16.271 -0.6262 -0.2891 -1.6662
  845MPD2     C12412   4.234   3.352  16.683  0.2214 -0.3052 -0.1746
  845MPD2    C112413   4.304   3.301  16.792 -0.3116  0.2341  0.1655
  845MPD2    C212414   4.337   3.173  16.796 -0.7697 -0.0364  0.1704
  845MPD2    C312415   4.283   3.089  16.700  0.2743 -0.0502 -0.3655
  845MPD2    C412416   4.206   3.136  16.595  0.4339 -0.0699  0.2864
  845MPD2    C512417   4.190   3.268  16.584 -0.6003  0.3066 -0.4399
  845MPD2     H12418   4.397   3.135  16.878  0.0775  1.3284  0.1885
  845MPD2    H112419   4.164   3.069  16.520  0.5540  1.3482 -1.0571
  845MPD2    H212420   4.212   3.457  16.669 -0.1583 -0.6469 -2.2080
  845MPD2    H312421   4.133   3.308  16.501  0.8637 -0.6018 -1.8840
  845MPD2     N12422   4.299   2.945  16.728 -0.4953  0.1929 -0.8522
  845MPD2    H512423   4.345   2.939  16.818 -1.9219  1.0925 -0.0565
  845MPD2    N112424   4.334   3.392  16.891  0.2852  0.3009  0.1918
  845MPD2    H712425   4.299   3.486  16.871 -0.6366  0.1529  1.0812
  846MPD2     C12426   0.929   3.472  13.410  0.2841 -0.1428 -0.2776
  846MPD2    C112427   0.839   3.580  13.432 -0.6193  0.3049  0.0292
  846MPD2    C212428   0.805   3.614  13.561 -0.2303 -0.5996  0.0651
  846MPD2    C312429   0.829   3.529  13.665 -0.1503 -0.0759  0.0548
  846MPD2    C412430   0.909   3.412  13.640  0.2118 -0.0605  0.0588
  846MPD2    C512431   0.957   3.388  13.518  0.2881 -0.5704 -0.0591
  846MPD2     H12432   0.749   3.705  13.581  1.8588  1.0415 -1.5824
  846MPD2    H112433   0.946   3.344  13.716 -1.1922 -0.2792  0.5434
  846MPD2    H212434   0.974   3.446  13.315  2.0380  0.2651  0.4372
  846MPD2    H312435   1.027   3.305  13.509 -0.9325 -1.5620 -0.3509
  846MPD2     N12436   0.773   3.553  13.795  0.5120 -0.3696 -0.2124
  846MPD2    H512437   0.693   3.615  13.795  1.5687  0.9909  1.3147
  846MPD2    N112438   0.809   3.673  13.331 -0.1960 -0.1742  0.4685
  846MPD2    H712439   0.761   3.759  13.357  0.6009  0.1205  0.9388
  847MPD2     C12440   1.018   4.353  14.243 -0.4282  0.5706  0.0153
  847MPD2    C112441   1.084   4.341  14.361 -0.4483 -0.5498 -0.0884
  847MPD2    C212442   1.113   4.217  14.415 -0.4388  0.7101 -0.0186
  847MPD2    C312443   1.059   4.103  14.355 -0.3375  0.5423  0.5478
  847MPD2    C412444   0.985   4.119  14.248 -0.1986  0.3584  0.1750
  847MPD2    C512445   0.966   4.235  14.187  0.1504  0.0749  0.2832
  847MPD2     H12446   1.176   4.198  14.501 -0.3809  2.0428  0.2337
  847MPD2    H112447   0.951   4.030  14.196  3.9944 -0.6704 -0.8510
  847MPD2    H212448   1.004   4.449  14.194 -1.1050  0.1866 -0.5558
  847MPD2    H312449   0.908   4.241  14.095  1.9205 -2.8668 -1.0128
  847MPD2     N12450   1.053   3.985  14.425 -0.0278  0.1042  0.1964
  847MPD2    H512451   1.016   3.901  14.383  2.0503 -0.3634 -0.6870
  847MPD2    N112452   1.115   4.451  14.445 -0.5884 -0.0700  0.4796
  847MPD2    H712453   1.179   4.427  14.520  0.5208 -0.3795 -0.5624
  848MPD2     C12454   3.898   3.161  16.334  0.5160  0.3823 -1.2784
  848MPD2    C112455   3.856   3.178  16.464 -0.1860  0.2707 -0.5699
  848MPD2    C212456   3.824   3.308  16.502 -0.1235 -0.8241  0.1608
  848MPD2    C312457   3.823   3.412  16.407 -0.3118  0.0318 -0.0573
  848MPD2    C412458   3.841   3.381  16.274  0.2695 -0.4565 -0.8029
  848MPD2    C512459   3.892   3.261  16.239  0.5376 -0.8638  0.6276
  848MPD2     H12460   3.803   3.327  16.607 -0.1599 -0.7978  0.1489
  848MPD2    H112461   3.829   3.453  16.193  2.1393  1.5180  0.6556
  848MPD2    H212462   3.939   3.064  16.313 -0.6064 -0.6562  1.2630
  848MPD2    H312463   3.925   3.249  16.137 -2.6031 -0.4480 -0.4419
  848MPD2     N12464   3.800   3.551  16.437 -0.1744 -0.0234 -0.1101
  848MPD2    H512465   3.801   3.606  16.351 -0.5789  0.8817  0.4690
  848MPD2    N112466   3.853   3.074  16.558  0.2851 -0.5065  0.7554
  848MPD2    H712467   3.816   3.093  16.651  0.9293 -1.1448  1.1393
  849MPD2     C12468   2.540   2.532  13.745  0.1616 -0.2809 -0.1289
  849MPD2    C112469   2.612   2.422  13.777 -0.2942 -0.0327  0.3234
  849MPD2    C212470   2.609   2.363  13.903 -0.3068 -0.3863  0.1883
  849MPD2    C312471   2.520   2.415  13.997  0.2488 -0.2565  0.5426
  849MPD2    C412472   2.444   2.525  13.968 -0.3910 -0.1960  0.1897
  849MPD2    C512473   2.467   2.588  13.850  0.4616  0.7427  1.1798
  849MPD2     H12474   2.675   2.278  13.912  1.4943  1.1997  1.7724
  849MPD2    H112475   2.375   2.572  14.037 -0.3616 -1.4981  1.0909
  849MPD2    H212476   2.540   2.569  13.643 -0.6253  1.2732  0.4362
  849MPD2    H312477   2.399   2.670  13.827  1.4073  0.3872 -3.0111
  849MPD2     N12478   2.508   2.342  14.122  0.1467 -0.3518 -0.4986
  849MPD2    H512479   2.565   2.258  14.120  0.0503 -0.3738 -2.1369
  849MPD2    N112480   2.699   2.362  13.684  0.3533 -0.3667 -0.0436
  849MPD2    H712481   2.745   2.274  13.706  0.4882 -0.3972 -0.4376
  850MPD2     C12482   0.771   0.816  14.888  0.5901 -0.1216 -0.5412
  850MPD2    C112483   0.845   0.705  14.922  0.1610  0.0298 -0.0555
  850MPD2    C212484   0.976   0.720  14.953 -0.2191 -0.2026  0.5900
  850MPD2    C312485   1.038   0.850  14.956 -0.5387 -0.7322 -0.5023
  850MPD2    C412486   0.960   0.962  14.927 -0.1009 -0.0660 -0.2442
  850MPD2    C512487   0.830   0.935  14.889 -0.4390  0.0518  0.1866
  850MPD2     H12488   1.043   0.639  14.980  1.0733  1.3814  2.1331
  850MPD2    H112489   0.996   1.064  14.920  0.4067 -0.2209  0.0896
  850MPD2    H212490   0.668   0.811  14.853 -0.2278  0.6058  1.7943
  850MPD2    H312491   0.774   1.021  14.852  1.0631  1.5190  1.2955
  850MPD2     N12492   1.174   0.878  14.978 -0.2147 -0.2520 -0.0523
  850MPD2    H512493   1.200   0.975  14.989 -0.2751 -0.2222 -0.1719
  850MPD2    N112494   0.776   0.584  14.926 -0.7421  0.2741  0.6600
  850MPD2    H712495   0.679   0.588  14.895 -0.8029 -0.0166  0.8120
  851MPD2     C12496   0.777   4.545  14.672  0.8778 -0.0150  0.1129
  851MPD2    C112497   0.790   4.557  14.812 -0.0791 -0.2212  0.8823
  851MPD2    C212498   0.804   4.442  14.890 -0.0227  0.0179  0.2720
  851MPD2    C312499   0.819   4.315  14.830 -0.4033 -0.6030  0.0469
  851MPD2    C412500   0.806   4.304  14.693 -0.3364 -0.4795  0.1012
  851MPD2    C512501   0.790   4.418  14.614 -0.8750 -0.3609  0.5339
  851MPD2     H12502   0.801   4.448  14.998 -1.6978 -0.6748  0.2753
  851MPD2    H112503   0.812   4.212  14.636 -0.4707 -0.2279 -0.3227
  851MPD2    H212504   0.741   4.626  14.609  2.1747  0.9675  0.6239
  851MPD2    H312505   0.768   4.409  14.508 -1.0515 -1.6201  0.6788
  851MPD2     N12506   0.813   4.195  14.909  0.1896 -0.9437  0.2727
  851MPD2    H512507   0.806   4.211  15.009  0.4495  0.8757 -0.0084
  851MPD2    N112508   0.769   4.687  14.862  0.3998 -0.3556 -0.3766
  851MPD2    H712509   0.761   0.044  14.801  1.1589 -0.5784 -0.7671
  852MPD2     C12510   1.005   2.850   9.687 -0.3786 -0.5213 -0.4837
  852MPD2    C112511   1.078   2.862   9.805  0.4542  0.0613  0.0579
  852MPD2    C212512   1.204   2.922   9.803  0.3920 -0.7224  0.3353
  852MPD2    C312513   1.261   2.974   9.688 -0.3023 -0.8102  0.1216
  852MPD2    C412514   1.182   2.964   9.573  0.4803 -0.3792  0.5074
  852MPD2    C512515   1.059   2.906   9.575  0.5949 -1.0919  0.3565
  852MPD2     H12516   1.255   2.920   9.899  0.5708 -1.6424  0.2202
  852MPD2    H112517   1.208   3.006   9.477  0.6219  0.6471  0.9978
  852MPD2    H212518   0.902   2.818   9.685 -0.2588 -0.8448 -1.2933
  852MPD2    H312519   0.999   2.906   9.485 -0.4466  0.1703  1.0413
  852MPD2     N12520   1.378   3.051   9.699  0.4646  0.6679  0.2440
  852MPD2    H512521   1.419   3.057   9.791 -0.9774  1.3512  0.8517
  852MPD2    N112522   1.020   2.810   9.924 -1.2716  0.2261 -0.5417
  852MPD2    H712523   1.063   2.840  10.011 -2.5651  0.9115 -0.1360
  853MPD2     C12524   2.848   3.194  12.220  0.4695  0.7134  0.2595
  853MPD2    C112525   2.721   3.231  12.166  0.7636 -0.0876 -0.2160
  853MPD2    C212526   2.685   3.177  12.042  0.1305 -0.3396 -0.1767
  853MPD2    C312527   2.779   3.108  11.962 -1.2568 -0.5729  0.1896
  853MPD2    C412528   2.899   3.088  12.015 -0.1607  0.4348 -0.9004
  853MPD2    C512529   2.937   3.126  12.139  0.1365  0.0139  0.2597
  853MPD2     H12530   2.581   3.191  12.014  0.2317  2.5238  0.8714
  853MPD2    H112531   2.980   3.053  11.952  1.3078  0.0767  1.2241
  853MPD2    H212532   2.865   3.205  12.327 -1.7918  1.0356  0.5758
  853MPD2    H312533   3.038   3.097  12.166  0.8051  2.0234 -0.0587
  853MPD2     N12534   2.765   3.070  11.828 -0.8650 -0.4090 -0.0035
  853MPD2    H512535   2.843   3.025  11.781  0.1016 -0.5840  1.7727
  853MPD2    N112536   2.624   3.285  12.256  0.9891  0.8646  0.2051
  853MPD2    H712537   2.664   3.301  12.348 -2.9294  0.2024  2.0011
  854MPD2     C12538   4.298   2.965  12.408  0.9442 -0.6242 -0.1965
  854MPD2    C112539   4.360   3.040  12.506 -0.1126 -0.0905  0.9268
  854MPD2    C212540   4.447   2.981  12.589 -0.8062  0.3055  0.0658
  854MPD2    C312541   4.479   2.843  12.576  0.0516 -0.0977 -0.3641
  854MPD2    C412542   4.418   2.775  12.474  0.0112 -0.8175 -0.1411
  854MPD2    C512543   4.324   2.832  12.397  0.1511  0.0047  0.5650
  854MPD2     H12544   4.491   3.036  12.671 -0.8875  3.7582 -2.2102
  854MPD2    H112545   4.437   2.669  12.458  0.3416 -0.9446  1.0918
  854MPD2    H212546   4.229   3.009  12.338  0.6532 -2.8816 -1.3191
  854MPD2    H312547   4.276   2.772  12.320  0.3411  1.0168 -0.3445
  854MPD2     N12548   4.578   2.774  12.649  0.3296 -0.1682  0.4244
  854MPD2    H512549   4.622   2.695  12.602  1.7251 -0.7089  2.6402
  854MPD2    N112550   4.348   3.181  12.503 -0.3113 -0.5206  0.1240
  854MPD2    H712551   4.300   3.214  12.420  0.7004  0.6468 -0.0111
  855MPD2     C12552   0.470   2.521  13.511 -0.0760  0.4821 -0.7222
  855MPD2    C112553   0.346   2.580  13.517  0.6237  0.1030  0.4117
  855MPD2    C212554   0.298   2.623  13.394 -0.7862 -0.1801  0.1545
  855MPD2    C312555   0.370   2.610  13.277  0.3884 -0.4638  0.7089
  855MPD2    C412556   0.488   2.543  13.278  0.9544 -0.1680 -0.3029
  855MPD2    C512557   0.539   2.497  13.395 -0.8558 -0.8534  0.1512
  855MPD2     H12558   0.209   2.686  13.396 -0.1969  0.6859 -0.5838
  855MPD2    H112559   0.537   2.529  13.183 -0.8335 -0.7339 -1.1385
  855MPD2    H212560   0.524   2.498  13.603  0.7040 -0.2347 -1.3630
  855MPD2    H312561   0.642   2.463  13.400 -0.1284  0.7533 -3.8601
  855MPD2     N12562   0.319   2.637  13.153  0.3794  0.1918  0.3077
  855MPD2    H512563   0.375   2.611  13.073 -0.2314  0.1045 -0.0901
  855MPD2    N112564   0.267   2.598  13.635 -0.2668 -0.1595  0.6904
  855MPD2    H712565   0.182   2.649  13.616  0.1113 -0.4751 -1.8105
  856MPD2     C12566   1.619   3.666  13.803  0.2588 -0.4719  0.4176
  856MPD2    C112567   1.738   3.734  13.801 -0.4129  0.6649  0.9512
  856MPD2    C212568   1.758   3.851  13.742 -0.6186 -0.4779  0.3953
  856MPD2    C312569   1.660   3.897  13.659  0.2777 -0.1459 -0.7709
  856MPD2    C412570   1.548   3.819  13.643 -0.1688 -0.2680  0.3085
  856MPD2    C512571   1.527   3.699  13.714 -0.6243 -0.2961 -0.2172
  856MPD2     H12572   1.852   3.901  13.764 -1.5203  0.9510  0.9557
  856MPD2    H112573   1.469   3.866  13.586 -0.7456  0.5123  1.7426
  856MPD2    H212574   1.609   3.578  13.866 -1.4985  0.8157  1.9216
  856MPD2    H312575   1.434   3.642  13.711 -1.1846  0.4658  2.9888
  856MPD2     N12576   1.661   4.022  13.603  0.6541 -0.2503 -0.3859
  856MPD2    H512577   1.576   4.057  13.561  0.9241  0.1438 -0.6034
  856MPD2    N112578   1.856   3.700  13.879  0.0369 -0.4026 -0.8943
  856MPD2    H712579   1.937   3.760  13.869 -2.1193  2.3684 -1.5626
  857MPD2     C12580   3.541   0.834  13.434  0.0387  0.4721  0.4502
  857MPD2    C112581   3.597   0.894  13.323  0.0664  0.1825 -0.7942
  857MPD2    C212582   3.652   1.022  13.339 -1.2734  0.2511  0.1427
  857MPD2    C312583   3.664   1.076  13.466  0.4095 -0.3053 -0.2314
  857MPD2    C412584   3.614   1.010  13.573  0.5908 -0.4925 -0.1109
  857MPD2    C512585   3.555   0.892  13.561  0.0608 -1.0112  0.8101
  857MPD2     H12586   3.683   1.079  13.252 -1.1019 -0.3947 -0.2200
  857MPD2    H112587   3.626   1.046  13.675  0.3588 -2.8105  0.7373
  857MPD2    H212588   3.486   0.741  13.420  1.0689 -0.2406  1.1244
  857MPD2    H312589   3.507   0.849  13.649 -2.6297  1.3943  0.5241
  857MPD2     N12590   3.717   1.207  13.481  1.0078 -0.8841 -0.2258
  857MPD2    H512591   3.733   1.253  13.392  1.7519 -1.6829 -0.4989
  857MPD2    N112592   3.598   0.821  13.198 -0.1935  0.4936  0.2184
  857MPD2    H712593   3.553   0.731  13.184  1.3799  0.2646 -3.3073
  858MPD2     C12594   3.833   0.191  16.723  0.4834  0.0329 -0.0661
  858MPD2    C112595   3.968   0.175  16.752  0.0826  0.2533 -0.1988
  858MPD2    C212596   4.037   0.262  16.831  0.4674  0.0536 -0.4262
  858MPD2    C312597   3.967   0.356  16.900 -0.4261 -0.4685  0.3079
  858MPD2    C412598   3.833   0.368  16.879  0.8132 -0.2402  0.0745
  858MPD2    C512599   3.766   0.286  16.791 -0.2507  0.1537 -0.3580
  858MPD2     H12600   4.141   0.239  16.851  0.2773  0.9356  1.5987
  858MPD2    H112601   3.764   0.432  16.932  2.7035 -0.6262  2.9744
  858MPD2    H212602   3.774   0.132  16.653  2.5312 -1.3994 -0.5746
  858MPD2    H312603   3.659   0.293  16.779 -0.2606 -0.4581 -0.6603
  858MPD2     N12604   4.021   0.455  16.987  0.4981 -0.0221  0.1519
  858MPD2    H512605   3.956   0.527  17.016 -1.4142 -1.3700 -0.7597
  858MPD2    N112606   4.040   0.072  16.685 -0.3912 -0.2201 -0.1105
  858MPD2    H712607   4.141   0.075  16.697 -0.3864  0.9410 -0.4688
  859MPD2     C12608   2.781   3.114  15.973 -0.1612  0.1656  0.2508
  859MPD2    C112609   2.852   3.004  15.927  0.1421 -0.1997  0.6141
  859MPD2    C212610   2.828   2.876  15.979 -1.2536 -0.5820  0.3201
  859MPD2    C312611   2.749   2.851  16.086 -0.4021 -0.5482  0.1391
  859MPD2    C412612   2.678   2.957  16.130  0.4679 -1.1416  0.2565
  859MPD2    C512613   2.697   3.084  16.081 -0.5542  0.0231  0.2460
  859MPD2     H12614   2.866   2.797  15.916  0.2347  1.7389 -1.6973
  859MPD2    H112615   2.607   2.941  16.211 -2.1454 -0.8844 -1.9761
  859MPD2    H212616   2.795   3.216  15.940 -0.8844 -0.4117 -1.8212
  859MPD2    H312617   2.653   3.170  16.130  0.1789  1.0581 -0.9140
  859MPD2     N12618   2.718   2.727  16.140  0.4884 -0.9984  0.1950
  859MPD2    H512619   2.648   2.721  16.213 -1.3940 -0.1502 -1.5417
  859MPD2    N112620   2.925   3.006  15.809  0.3482 -0.1319 -0.8612
  859MPD2    H712621   2.975   2.923  15.779  0.7607 -0.0081 -0.5077
  860MPD2     C12622   0.793   2.595  11.282  0.1030  0.4674 -1.1671
  860MPD2    C112623   0.811   2.594  11.417  0.0520 -0.3428  0.8325
  860MPD2    C212624   0.705   2.558  11.496  0.9001  0.4670 -0.3296
  860MPD2    C312625   0.579   2.520  11.445 -0.7501 -0.1667  0.0112
  860MPD2    C412626   0.565   2.515  11.306 -0.3984 -0.2350  0.6745
  860MPD2    C512627   0.674   2.547  11.230 -0.3802 -0.4399 -0.3043
  860MPD2     H12628   0.722   2.538  11.601 -0.5441  1.1309  0.0287
  860MPD2    H112629   0.477   2.490  11.248  1.0109  0.1037 -1.6434
  860MPD2    H212630   0.876   2.622  11.219  1.9343  0.5101  1.2604
  860MPD2    H312631   0.663   2.557  11.122  1.6212 -1.8902 -0.6394
  860MPD2     N12632   0.473   2.497  11.536  0.5600 -0.7294  0.1402
  860MPD2    H512633   0.490   2.485  11.635 -0.5093  1.3389  0.5732
  860MPD2    N112634   0.926   2.647  11.484  0.1401  0.2560 -0.2937
  860MPD2    H712635   0.904   2.681  11.577 -1.5067  3.5043 -1.8613
  861MPD2     C12636   4.031   0.923  11.132  0.0553 -0.1378  0.1844
  861MPD2    C112637   4.080   1.052  11.152  0.4629 -0.1405 -0.6417
  861MPD2    C212638   4.050   1.153  11.064  0.2063  0.3278  0.3191
  861MPD2    C312639   3.967   1.133  10.958  0.2144 -0.2574  0.3639
  861MPD2    C412640   3.914   1.008  10.933 -0.1679 -0.4323 -0.1050
  861MPD2    C512641   3.947   0.908  11.019 -0.2767  0.0747  0.6234
  861MPD2     H12642   4.096   1.251  11.077 -0.3468  0.9864 -2.5162
  861MPD2    H112643   3.846   0.980  10.853  0.5197 -0.4113 -0.7044
  861MPD2    H212644   4.061   0.834  11.186  0.2795 -1.1190 -1.5579
  861MPD2    H312645   3.914   0.808  10.994  1.8228 -0.2081 -1.0633
  861MPD2     N12646   3.933   1.234  10.866 -0.3285  0.5148  0.6990
  861MPD2    H512647   3.970   1.321  10.904  0.1200  0.5301  0.2313
  861MPD2    N112648   4.158   1.079  11.265 -0.0045  0.1767  0.2056
  861MPD2    H712649   4.208   1.167  11.260 -0.8538  0.5498 -1.7632
  862MPD2     C12650   3.680   1.357  10.058 -0.3867 -0.3146  0.3114
  862MPD2    C112651   3.750   1.294  10.161 -0.2761 -0.0460  0.5155
  862MPD2    C212652   3.806   1.169  10.143  0.2744 -0.3465  0.3688
  862MPD2    C312653   3.799   1.103  10.022  0.1327  0.5821 -0.0810
  862MPD2    C412654   3.716   1.159   9.923  0.2124 -0.6009 -0.0720
  862MPD2    C512655   3.652   1.278   9.946 -0.1085 -0.1957  0.3363
  862MPD2     H12656   3.860   1.121  10.224 -0.0468 -0.2406  0.6487
  862MPD2    H112657   3.698   1.100   9.834 -0.3423 -0.8853  0.2314
  862MPD2    H212658   3.631   1.453  10.056  1.5853  0.6792 -1.1941
  862MPD2    H312659   3.594   1.316   9.863  1.1868  1.4400  0.1746
  862MPD2     N12660   3.864   0.986   9.996 -0.0396 -0.0840  0.1611
  862MPD2    H512661   3.863   0.949   9.901 -0.1802  1.8319 -0.5922
  862MPD2    N112662   3.774   1.344  10.283  0.7109 -0.4052 -0.3214
  862MPD2    H712663   3.833   1.296  10.350 -2.2868  0.0969  2.6891
  863MPD2     C12664   2.808   4.420  17.020  0.3362  0.4833  0.6374
  863MPD2    C112665   2.799   4.289  16.974  0.1176  0.0074 -0.2104
  863MPD2    C212666   2.883   4.190  17.020  0.0578 -0.1763 -0.1857
  863MPD2    C312667   2.981   4.225  17.110 -0.2359  0.5986 -0.3538
  863MPD2    C412668   2.995   4.356  17.151  0.3920 -0.1745  0.4478
  863MPD2    C512669   2.904   4.451  17.110  0.1578  0.5342  0.7266
  863MPD2     H12670   2.868   4.085  16.999  0.8625  0.1984 -2.6238
  863MPD2    H112671   3.070   4.387  17.222 -0.6546 -1.3800  2.0764
  863MPD2    H212672   2.734   4.488  16.981 -0.9052 -1.0380  0.3230
  863MPD2    H312673   2.912   4.553  17.145  1.2137  1.3774 -2.0251
  863MPD2     N12674   3.064   4.128  17.165  0.1636  0.7084 -0.2784
  863MPD2    H512675   3.138   4.168  17.220  1.0284 -0.5509 -0.5376
  863MPD2    N112676   2.697   4.268  16.880 -0.8149 -0.3524 -0.2869
  863MPD2    H712677   2.633   4.346  16.868 -0.7340 -0.1651  0.5238
  864MPD2     C12678   2.903   0.934  17.199  0.0526 -0.1490 -1.0090
  864MPD2    C112679   3.006   0.845  17.175 -0.2761  0.0173 -0.2656
  864MPD2    C212680   3.089   0.872  17.065 -0.3942 -0.9136 -0.2849
  864MPD2    C312681   3.075   0.997  17.003 -1.4057 -0.3423  0.0790
  864MPD2    C412682   2.962   1.080  17.024  0.2996 -0.3159 -0.3621
  864MPD2    C512683   2.878   1.042  17.121 -0.0926 -0.0317 -0.0941
  864MPD2     H12684   3.161   0.796  17.037 -0.0531 -0.8241  0.3385
  864MPD2    H112685   2.935   1.169  16.968 -1.7009  0.3764  1.6711
  864MPD2    H212686   2.826   0.907  17.271 -0.1380 -0.2996 -1.2696
  864MPD2    H312687   2.791   1.105  17.138  0.3263  1.2448 -2.6838
  864MPD2     N12688   3.163   1.044  16.892 -0.2077 -0.3681  0.7075
  864MPD2    H512689   3.132   1.128  16.843 -0.4162 -1.0619 -0.3427
  864MPD2    N112690   3.016   0.723  17.246 -0.1651 -0.4588  0.9596
  864MPD2    H712691   3.076   0.650  17.209  2.0785  2.7889 -1.8528
  865MPD2     C12692   3.091   0.937  16.073 -0.3268 -0.2859  0.2999
  865MPD2    C112693   3.107   0.862  16.186 -0.4185  0.1816  0.6484
  865MPD2    C212694   3.185   0.914  16.288 -0.1205  0.1119 -0.2638
  865MPD2    C312695   3.238   1.041  16.291 -0.2026  0.5442  1.0678
  865MPD2    C412696   3.211   1.119  16.186 -0.2417 -0.1482 -0.8812
  865MPD2    C512697   3.142   1.066  16.076 -0.3260 -0.6666 -0.3138
  865MPD2     H12698   3.222   0.840  16.358 -0.6795  0.0804 -0.0012
  865MPD2    H112699   3.265   1.211  16.165 -2.3176  0.9972 -1.2302
  865MPD2    H212700   3.048   0.901  15.980  0.3857  1.2237 -0.6209
  865MPD2    H312701   3.130   1.124  15.985  1.3649 -1.2707 -0.9199
  865MPD2     N12702   3.300   1.077  16.407 -0.4327  0.0594 -0.3831
  865MPD2    H512703   3.307   1.000  16.472  0.1231  0.7358  0.3473
  865MPD2    N112704   3.075   0.726  16.180 -0.6698  0.1757  0.1515
  865MPD2    H712705   3.058   0.691  16.087  1.2913  2.1053 -0.9247
  866MPD2     C12706   0.104   1.776  11.413 -0.1859  0.1336  0.1759
  866MPD2    C112707   0.099   1.721  11.288 -0.5139  0.2568  0.6888
  866MPD2    C212708   4.710   1.742  11.217  0.8859  0.3862  0.6149
  866MPD2    C312709   4.595   1.798  11.271 -0.1549 -0.1845  0.8930
  866MPD2    C412710   4.589   1.821  11.407  0.2538 -0.4005  0.3513
  866MPD2    C512711   4.708   1.808  11.472 -0.4351 -0.3325 -0.3641
  866MPD2     H12712   4.721   1.715  11.112 -1.6404  0.9523  0.2017
  866MPD2    H112713   4.505   1.864  11.460 -0.4331 -3.2617  1.5927
  866MPD2    H212714   0.191   1.765  11.476 -0.8456  1.6071  1.3532
  866MPD2    H312715   4.720   1.839  11.575  1.5684  0.6455 -0.9026
  866MPD2     N12716   4.471   1.811  11.191 -0.1318  0.0586  0.8604
  866MPD2    H512717   4.384   1.840  11.233  0.1457  1.6691  0.3470
  866MPD2    N112718   0.217   1.657  11.238  0.4969 -0.1893  0.0268
  866MPD2    H712719   0.300   1.653  11.297 -0.0971 -0.9364  0.8043
  867MPD2     C12720   2.555   0.937  16.832  0.1104  1.1775  0.5498
  867MPD2    C112721   2.487   0.921  16.953  0.1102  0.0443  0.5252
  867MPD2    C212722   2.479   1.024  17.050  0.2126  0.5356  0.0604
  867MPD2    C312723   2.535   1.146  17.022  0.3725  0.7900  0.2295
  867MPD2    C412724   2.593   1.165  16.897  0.1225 -0.2846  0.0456
  867MPD2    C512725   2.606   1.063  16.808  1.1654  0.0622 -0.5509
  867MPD2     H12726   2.427   1.003  17.143 -2.7765  0.4404 -1.6204
  867MPD2    H112727   2.644   1.259  16.879 -0.9503  0.4417  0.7685
  867MPD2    H212728   2.561   0.857  16.760  2.0907  1.8228 -0.0184
  867MPD2    H312729   2.662   1.084  16.717  0.5663  0.2367 -0.8792
  867MPD2     N12730   2.530   1.252  17.120  0.8251 -0.9839 -0.3338
  867MPD2    H512731   2.544   1.348  17.091  1.0819 -1.2299 -1.0187
  867MPD2    N112732   2.415   0.797  16.967 -0.1115 -0.3595  0.2132
  867MPD2    H712733   2.429   0.732  16.890 -1.1805 -1.5542  1.0399
  868MPD2     C12734   4.004   4.619  12.990  0.2068 -0.0512 -0.2588
  868MPD2    C112735   3.935   4.508  13.030 -1.0686 -0.7006 -0.4976
  868MPD2    C212736   3.820   4.535  13.113 -0.0870 -0.2865  0.4540
  868MPD2    C312737   3.791   4.654  13.167  0.1959 -0.2999 -0.6449
  868MPD2    C412738   3.872   0.043  13.130  0.9144  1.0416 -0.1792
  868MPD2    C512739   3.974   0.018  13.043 -0.1691 -0.1237  0.0171
  868MPD2     H12740   3.765   4.446  13.142  1.7677 -2.5303 -3.0296
  868MPD2    H112741   3.841   0.140  13.167  3.0483  1.7213 -0.1746
  868MPD2    H212742   4.085   4.611  12.917 -0.8298  0.6661 -1.4948
  868MPD2    H312743   4.034   0.102  13.010  1.1575 -0.7541  0.8176
  868MPD2     N12744   3.674   4.665  13.255 -0.6103 -0.2136  0.8718
  868MPD2    H512745   3.607   4.589  13.251 -1.7528  0.7929  0.6834
  868MPD2    N112746   3.968   4.380  12.980 -0.2243  0.2774 -0.2698
  868MPD2    H712747   4.034   4.374  12.902 -0.7215  0.6282 -0.7153
  869MPD2     C12748   0.658   1.818   1.279 -0.3906  0.2176 -0.0840
  869MPD2    C112749   0.723   1.850   1.164  0.1355  0.0878 -0.0849
  869MPD2    C212750   0.659   1.928   1.072 -0.4335  0.6651  0.1730
  869MPD2    C312751   0.529   1.969   1.094  0.1719 -0.3774  0.0435
  869MPD2    C412752   0.461   1.934   1.206 -0.3743  0.1238  0.6083
  869MPD2    C512753   0.525   1.859   1.306  0.4087 -0.3586 -0.5104
  869MPD2     H12754   0.701   1.941   0.973 -0.0966  0.9691  0.3566
  869MPD2    H112755   0.355   1.951   1.216 -0.3928  0.1777  0.3148
  869MPD2    H212756   0.696   1.738   1.342  0.0227 -0.0851 -0.7179
  869MPD2    H312757   0.472   1.829   1.396  2.4790 -0.8647  0.5387
  869MPD2     N12758   0.453   2.053   1.005  0.1304  0.3582 -0.2026
  869MPD2    H512759   0.354   2.072   1.020 -0.9347 -2.5901 -3.4192
  869MPD2    N112760   0.851   1.792   1.148  0.3513  0.6783  0.2743
  869MPD2    H712761   0.887   1.732   1.222 -2.0261  0.9487  1.6456
  870MPD2     C12762   0.683   0.878   1.606 -0.0255  0.5253 -1.0192
  870MPD2    C112763   0.569   0.841   1.661  0.0248 -0.2651 -0.0068
  870MPD2    C212764   0.453   0.886   1.604  0.1902 -0.2591  0.6501
  870MPD2    C312765   0.453   0.980   1.502  0.4949  1.0140  0.2977
  870MPD2    C412766   0.573   1.028   1.455  0.1733 -0.4337 -0.5087
  870MPD2    C512767   0.688   0.973   1.505  0.6610 -0.3095  0.0035
  870MPD2     H12768   0.356   0.843   1.629 -1.2348  1.6606 -1.6187
  870MPD2    H112769   0.584   1.107   1.383 -2.3781  0.2534 -0.1324
  870MPD2    H212770   0.773   0.824   1.636 -0.2691  1.2932  1.1018
  870MPD2    H312771   0.786   1.007   1.472 -0.9761  1.4099 -3.0523
  870MPD2     N12772   0.329   1.028   1.461  0.1834 -0.3060  0.0869
  870MPD2    H512773   0.248   1.007   1.518 -0.3529  0.3469 -0.4348
  870MPD2    N112774   0.580   0.748   1.762  0.1679  0.0686  0.4326
  870MPD2    H712775   0.675   0.740   1.796  0.4657  2.8664  0.3065
  871MPD2     C12776   0.791   0.390  16.376  0.0208 -0.4780  0.5181
  871MPD2    C112777   0.893   0.433  16.448  0.4161 -0.0562 -0.8238
  871MPD2    C212778   1.003   0.350  16.455  0.2418 -0.2594  0.2996
  871MPD2    C312779   1.004   0.233  16.388 -0.6647  1.2671 -0.5924
  871MPD2    C412780   0.906   0.196  16.300  0.1883 -0.0339  0.2666
  871MPD2    C512781   0.797   0.280  16.294 -0.1347 -0.4523  0.5650
  871MPD2     H12782   1.084   0.374  16.523 -0.1748  1.4877  0.1706
  871MPD2    H112783   0.914   0.108  16.238 -1.1768  1.0583 -1.4470
  871MPD2    H212784   0.701   0.450  16.366  0.6870  0.1534 -1.7786
  871MPD2    H312785   0.709   0.258  16.235  0.0522 -0.1320  0.1670
  871MPD2     N12786   1.113   0.149  16.409  0.2576 -0.1286 -0.2677
  871MPD2    H512787   1.188   0.179  16.470  1.2244  2.7060 -2.8895
  871MPD2    N112788   0.873   0.555  16.520 -0.0526 -0.5429 -0.1857
  871MPD2    H712789   0.788   0.604  16.493  0.3958  1.0937  1.4146
  872MPD2     C12790   1.806   3.222  14.149  0.0691  0.2856 -1.0639
  872MPD2    C112791   1.713   3.192  14.060  0.1010 -0.2129 -0.2887
  872MPD2    C212792   1.583   3.199  14.096 -0.5041  0.6720  0.2508
  872MPD2    C312793   1.550   3.219  14.227  0.0308  0.1688 -0.3112
  872MPD2    C412794   1.649   3.229  14.322 -0.7229 -0.6922  0.3690
  872MPD2    C512795   1.777   3.238  14.279 -0.1223  0.3355 -0.4127
  872MPD2     H12796   1.515   3.161  14.021 -0.6760  0.5955  0.4454
  872MPD2    H112797   1.622   3.238  14.426 -0.0871  0.7188  0.4016
  872MPD2    H212798   1.911   3.243  14.132  0.5716 -2.0227 -0.7830
  872MPD2    H312799   1.860   3.272  14.338 -0.4719  0.9321 -0.2724
  872MPD2     N12800   1.419   3.200  14.274  0.6800 -0.3725 -0.1376
  872MPD2    H512801   1.417   3.185  14.374 -0.3367 -0.7290 -0.2103
  872MPD2    N112802   1.749   3.163  13.924  0.0886 -0.1431  0.3988
  872MPD2    H712803   1.671   3.154  13.861 -0.6198 -0.1532  1.2758
  873MPD2     C12804   2.875   3.132   0.519  0.0103  0.2624 -0.5971
  873MPD2    C112805   2.967   3.055   0.588 -0.1172  0.8617 -0.1387
  873MPD2    C212806   2.988   2.930   0.532  0.0436 -0.0729  0.0968
  873MPD2    C312807   2.935   2.886   0.414 -0.5998 -0.3839  0.1919
  873MPD2    C412808   2.882   2.977   0.329  0.5966  0.7329  0.1760
  873MPD2    C512809   2.841   3.091   0.393  0.3141 -0.0286 -0.1053
  873MPD2     H12810   3.037   2.857   0.597  1.0482 -0.1748 -0.7653
  873MPD2    H112811   2.838   2.947   0.234 -0.9571  2.4860  0.3481
  873MPD2    H212812   2.837   3.228   0.551 -0.2551 -0.1724  0.3847
  873MPD2    H312813   2.786   3.153   0.323  1.5829  1.6068  0.3339
  873MPD2     N12814   2.926   2.745   0.383 -0.0537  0.0918  0.3136
  873MPD2    H512815   2.860   2.721   0.310  0.2007 -0.7099  0.3378
  873MPD2    N112816   3.006   3.098   0.717  0.1096 -0.5791 -0.1479
  873MPD2    H712817   2.983   3.195   0.733  0.1509 -1.0527  2.6947
  874MPD2     C12818   3.067   3.660  16.183 -0.0894  0.1461  0.5869
  874MPD2    C112819   3.138   3.568  16.260 -0.3108  0.9546 -0.1829
  874MPD2    C212820   3.245   3.612  16.339 -0.2481 -0.2795 -0.0784
  874MPD2    C312821   3.283   3.741  16.335 -0.0037 -0.0813 -0.6890
  874MPD2    C412822   3.208   3.839  16.274 -0.0684 -0.2246 -0.5278
  874MPD2    C512823   3.104   3.800  16.189 -0.3954 -0.4239  0.2900
  874MPD2     H12824   3.302   3.535  16.389 -2.6401 -1.0745  1.4217
  874MPD2    H112825   3.232   3.944  16.286  2.1383 -0.8170  0.1793
  874MPD2    H212826   2.980   3.627  16.128  1.8950 -0.2972 -2.3337
  874MPD2    H312827   3.060   3.873  16.122  1.5549 -0.0537 -0.5826
  874MPD2     N12828   3.395   3.771  16.420  0.3695  1.1212  0.2096
  874MPD2    H512829   3.454   3.693  16.446 -0.7947  0.3698  0.6024
  874MPD2    N112830   3.074   3.441  16.270 -0.0507  0.4221 -0.7331
  874MPD2    H712831   2.986   3.439  16.220 -0.0595  1.2832 -0.7488
  875MPD2     C12832   4.386   1.116  14.918  0.4593  0.1423 -0.3116
  875MPD2    C112833   4.292   1.187  14.990  0.2989  0.0088  0.0494
  875MPD2    C212834   4.324   1.246  15.108  0.4898 -0.5270 -0.2549
  875MPD2    C312835   4.455   1.261  15.144 -0.4265 -0.7826  0.9411
  875MPD2    C412836   4.556   1.199  15.074 -0.2457  0.4026  0.5547
  875MPD2    C512837   4.516   1.118  14.970  0.2712  0.1708 -0.2126
  875MPD2     H12838   4.245   1.280  15.174  0.5665  1.8121 -1.3604
  875MPD2    H112839   4.659   1.195  15.106 -0.2428 -0.9902  0.3706
  875MPD2    H212840   4.361   1.063  14.828 -0.2033 -0.3496  0.1647
  875MPD2    H312841   4.588   1.058  14.916 -0.1135  0.1884 -0.7421
  875MPD2     N12842   4.480   1.342  15.257 -0.0415 -0.9387 -0.3008
  875MPD2    H512843   4.406   1.363  15.323  0.8206  2.1934 -0.3032
  875MPD2    N112844   4.155   1.200  14.956 -0.4207  0.6975  0.2218
  875MPD2    H712845   4.108   1.264  15.020 -2.2715  0.0103 -0.4619
  876MPD2     C12846   3.125   2.936  16.165  0.1358  0.1503  0.4889
  876MPD2    C112847   3.249   2.896  16.124 -0.0015  0.6187 -0.2747
  876MPD2    C212848   3.279   2.762  16.143  0.4181  0.4494 -0.1129
  876MPD2    C312849   3.188   2.682  16.212 -0.9260 -0.1387  0.1149
  876MPD2    C412850   3.072   2.736  16.268  0.0468 -0.5383 -0.6053
  876MPD2    C512851   3.040   2.857  16.231  0.5199 -0.4608 -0.3035
  876MPD2     H12852   3.374   2.715  16.119 -0.2008 -2.0678  2.3578
  876MPD2    H112853   3.006   2.676  16.330 -0.5122  0.8019  0.0889
  876MPD2    H212854   3.085   3.031  16.130  1.1683  0.0456 -0.9910
  876MPD2    H312855   2.939   2.891  16.251  0.4184  0.2055 -1.9343
  876MPD2     N12856   3.225   2.549  16.237 -0.5080 -0.1572 -0.8956
  876MPD2    H512857   3.321   2.526  16.213 -0.2838  0.3066 -0.4314
  876MPD2    N112858   3.320   2.986  16.049  0.3982 -0.3495 -0.2641
  876MPD2    H712859   3.306   3.087  16.054  0.2067 -0.4219  0.7222
  877MPD2     C12860   3.168   3.429  15.477  0.5896 -0.0654  0.0219
  877MPD2    C112861   3.285   3.352  15.470 -0.3693  0.3021 -0.1193
  877MPD2    C212862   3.320   3.306  15.348  0.1547 -0.0014 -0.4360
  877MPD2    C312863   3.234   3.330  15.238 -0.2824  0.4048 -0.2588
  877MPD2    C412864   3.132   3.415  15.250 -0.0322 -0.1982 -0.1082
  877MPD2    C512865   3.095   3.464  15.372  0.1262  0.1787 -1.1160
  877MPD2     H12866   3.396   3.228  15.346 -0.3077 -0.4779  0.8260
  877MPD2    H112867   3.057   3.433  15.175  0.7130  0.5230 -0.6795
  877MPD2    H212868   3.132   3.456  15.575 -0.2994  1.2107 -0.6559
  877MPD2    H312869   3.006   3.525  15.383  0.9648  1.0860  0.6799
  877MPD2     N12870   3.258   3.266  15.113  0.1685 -0.5457  0.4936
  877MPD2    H512871   3.209   3.308  15.035 -1.4417 -2.0817  0.6894
  877MPD2    N112872   3.358   3.311  15.583 -0.2888 -0.1469 -0.0883
  877MPD2    H712873   3.449   3.278  15.553 -0.0895 -2.3907  2.9932
  878MPD2     C12874   3.453   2.675  13.098 -0.0912 -0.4794 -0.2108
  878MPD2    C112875   3.337   2.625  13.049  0.2223 -0.9088  0.5043
  878MPD2    C212876   3.245   2.566  13.133 -0.2884  0.0179 -0.2762
  878MPD2    C312877   3.267   2.552  13.270 -0.2734  0.2924  0.2526
  878MPD2    C412878   3.368   2.643  13.320 -0.2977 -0.0010  0.0209
  878MPD2    C512879   3.463   2.687  13.234 -0.2645 -0.2088  0.0131
  878MPD2     H12880   3.157   2.515  13.097 -2.3589  1.6323  2.4881
  878MPD2    H112881   3.380   2.665  13.426 -0.3079  0.7931 -0.1451
  878MPD2    H212882   3.529   2.723  13.038  0.3656  1.3465  1.8750
  878MPD2    H312883   3.557   2.732  13.265 -1.7911  1.5348  2.1016
  878MPD2     N12884   3.180   2.476  13.352  0.9176  0.2338  0.3821
  878MPD2    H512885   3.092   2.447  13.310  0.4155  0.1539  1.4702
  878MPD2    N112886   3.327   2.627  12.911  0.3538  0.2201  0.0924
  878MPD2    H712887   3.403   2.664  12.855 -0.6379  0.6586 -0.9796
  879MPD2     C12888   3.387   4.449  17.126  0.2932  0.2801  0.2809
  879MPD2    C112889   3.442   4.330  17.134 -0.3166 -1.2335  0.3576
  879MPD2    C212890   3.396   4.232  17.051  0.6130  0.2105  0.2814
  879MPD2    C312891   3.298   4.256  16.960  0.1798 -0.6745  0.3265
  879MPD2    C412892   3.256   4.384  16.948 -0.9169 -0.2293  0.4220
  879MPD2    C512893   3.301   4.482  17.027 -0.3315  0.2320 -0.6437
  879MPD2     H12894   3.439   4.134  17.062  2.6901  1.3665  2.3769
  879MPD2    H112895   3.192   4.418  16.867  1.6034  2.1467 -0.5813
  879MPD2    H212896   3.404   4.519  17.207 -0.5442 -0.0904  0.7710
  879MPD2    H312897   3.255   4.580  17.019  1.0246  1.1191  2.3686
  879MPD2     N12898   3.240   4.161  16.870 -0.0939 -0.0853  0.2416
  879MPD2    H512899   3.170   4.203  16.809  1.4108  0.7864 -0.8918
  879MPD2    N112900   3.541   4.307  17.240 -0.3713 -0.0705 -0.2593
  879MPD2    H712901   3.551   4.380  17.310 -1.9628  0.9771 -1.1247
  880MPD2     C12902   0.526   0.635  17.604 -0.1325  0.1322 -1.0081
  880MPD2    C112903   0.575   0.707   0.016 -0.3393 -0.3709 -0.6235
  880MPD2    C212904   0.681   0.658   0.088  0.4484 -0.2061 -0.1819
  880MPD2    C312905   0.744   0.536   0.057  0.1255  0.0695  1.2039
  880MPD2    C412906   0.681   0.462  17.650 -0.2944  0.2217 -0.1257
  880MPD2    C512907   0.588   0.519  17.567 -0.1832 -0.0588  0.1165
  880MPD2     H12908   0.714   0.706   0.179  0.1521  3.4656 -2.0232
  880MPD2    H112909   0.713   0.362  17.622  0.5248  0.6295 -0.6411
  880MPD2    H212910   0.445   0.672  17.544 -1.4797  1.0681  1.4066
  880MPD2    H312911   0.553   0.469  17.478 -0.1851  0.8510 -0.3957
  880MPD2     N12912   0.844   0.488   0.146 -0.6951 -0.0960  0.3796
  880MPD2    H512913   0.876   0.558   0.210  0.0913 -1.1311  1.1120
  880MPD2    N112914   0.513   0.825   0.063 -0.2478 -0.2468  0.0231
  880MPD2    H712915   0.435   0.858   0.008 -0.6956  1.4626  1.6922
  881MPD2     C12916   4.712   1.541  17.367 -0.9677  0.1396  0.3232
  881MPD2    C112917   0.063   1.423  17.335 -0.2237 -0.0824 -0.4281
  881MPD2    C212918   0.127   1.354  17.438  0.0469 -0.2240  0.3314
  881MPD2    C312919   0.101   1.381  17.570 -0.2194  0.4198  0.1526
  881MPD2    C412920   0.033   1.491  17.602 -0.3031  0.3724  0.1240
  881MPD2    C512921   4.693   1.570  17.504 -0.5143  0.1373  0.3443
  881MPD2     H12922   0.181   1.263  17.414  0.2889 -0.4558  1.7546
  881MPD2    H112923   0.008   1.513   0.011  0.7257  1.7873  0.0777
  881MPD2    H212924   4.682   1.615  17.294 -0.7483 -0.4783 -0.3862
  881MPD2    H312925   4.641   1.661  17.531 -2.1217 -0.5749 -0.3505
  881MPD2     N12926   0.155   1.308  17.677  0.3401 -0.3000 -0.0468
  881MPD2    H512927   0.133   1.340   0.077 -1.8823 -3.1596  0.3845
  881MPD2    N112928   0.092   1.399  17.195  0.2391 -0.1856 -0.3076
  881MPD2    H712929   0.038   1.462  17.136 -0.0148 -1.0328 -0.9717
  882MPD2     C12930   3.366   3.590  14.569 -0.4558 -0.0577  0.1848
  882MPD2    C112931   3.278   3.481  14.570  0.1965  0.6316  0.3647
  882MPD2    C212932   3.177   3.475  14.478 -0.1229  0.3899 -0.8264
  882MPD2    C312933   3.151   3.577  14.389  0.1304 -0.2344 -0.5903
  882MPD2    C412934   3.235   3.688  14.390  0.0905 -0.3828 -0.1175
  882MPD2    C512935   3.334   3.696  14.484  0.1792 -0.3870  0.0307
  882MPD2     H12936   3.100   3.398  14.478  0.8608 -0.5978 -2.3235
  882MPD2    H112937   3.223   3.773  14.324 -3.0750  1.5479  2.9382
  882MPD2    H212938   3.448   3.601  14.639 -1.9199 -0.9409  2.0415
  882MPD2    H312939   3.395   3.785  14.492 -1.7518  0.9083  0.3963
  882MPD2     N12940   3.039   3.569  14.307 -0.9053  0.5436 -0.2869
  882MPD2    H512941   2.977   3.489  14.321 -0.0647 -0.2653 -1.1237
  882MPD2    N112942   3.306   3.371  14.651  0.1279  0.1511 -0.3127
  882MPD2    H712943   3.362   3.389  14.733 -1.3663  0.4483  0.6506
  883MPD2     C12944   0.470   3.187  16.611  0.1468  0.2669 -0.5904
  883MPD2    C112945   0.544   3.248  16.509 -0.8734  0.5204  0.7050
  883MPD2    C212946   0.674   3.269  16.536  0.1610  0.0295  0.4036
  883MPD2    C312947   0.739   3.220  16.642  0.1343  0.8796 -0.3089
  883MPD2    C412948   0.677   3.141  16.724  0.4282  0.2110 -0.3151
  883MPD2    C512949   0.534   3.136  16.720  0.4778 -0.1025 -0.3350
  883MPD2     H12950   0.726   3.325  16.458  1.0267 -1.1237  0.1539
  883MPD2    H112951   0.729   3.095  16.807 -0.9513 -1.5982 -0.4611
  883MPD2    H212952   0.362   3.188  16.607  0.1787  0.0962 -1.5041
  883MPD2    H312953   0.470   3.090  16.794  1.2893  2.1233  1.7597
  883MPD2     N12954   0.877   3.259  16.655 -0.2139 -0.3705 -0.6110
  883MPD2    H512955   0.916   3.320  16.584  1.1892 -0.4068  0.1259
  883MPD2    N112956   0.490   3.299  16.387 -0.2222 -0.3793 -0.2454
  883MPD2    H712957   0.555   3.342  16.323 -0.8669  0.8170 -0.0874
  884MPD2     C12958   2.325   3.872  15.258  0.4720  0.1620  0.1096
  884MPD2    C112959   2.272   3.933  15.146 -1.0194 -0.2744  0.5910
  884MPD2    C212960   2.140   3.970  15.149  0.0457  0.1967 -0.3055
  884MPD2    C312961   2.052   3.939  15.247  0.1994  0.3743  0.2335
  884MPD2    C412962   2.114   3.886  15.363 -0.3087  0.3645  0.4767
  884MPD2    C512963   2.242   3.850  15.365 -0.4134  0.2571 -0.5765
  884MPD2     H12964   2.102   4.012  15.057  1.2035 -0.0910 -0.9120
  884MPD2    H112965   2.059   3.881  15.456 -1.8729  1.6216 -0.3622
  884MPD2    H212966   2.428   3.840  15.258  0.9836  1.8162  1.1483
  884MPD2    H312967   2.282   3.799  15.452 -1.8937 -2.4188 -1.4554
  884MPD2     N12968   1.920   3.988  15.227 -0.3374 -0.6962 -0.5417
  884MPD2    H512969   1.898   4.056  15.155 -0.2638  1.1450  1.1686
  884MPD2    N112970   2.332   3.951  15.016  0.7919 -0.0834 -0.0159
  884MPD2    H712971   2.275   3.991  14.942 -0.1361 -3.9483 -1.4078
  885MPD2     C12972   0.380   4.394   0.357  1.3956 -0.1688 -0.8270
  885MPD2    C112973   0.519   4.394   0.336 -0.5101 -0.0789 -0.3610
  885MPD2    C212974   0.569   4.408   0.208 -0.0427  0.4287  0.2579
  885MPD2    C312975   0.481   4.422   0.099 -0.1213 -0.4015 -0.1633
  885MPD2    C412976   0.346   4.425   0.124  1.1226 -0.0164 -0.1056
  885MPD2    C512977   0.293   4.402   0.251 -0.4239  0.2354 -0.1804
  885MPD2     H12978   0.676   4.422   0.194 -0.3437  1.9704 -0.5305
  885MPD2    H112979   0.277   4.456   0.046  1.6840 -0.7604 -0.9051
  885MPD2    H212980   0.336   4.372   0.454  1.0452 -1.0960 -1.1884
  885MPD2    H312981   0.186   4.396   0.270 -0.4062 -0.9374 -0.4135
  885MPD2     N12982   0.540   4.424  17.665 -0.4363 -0.0953 -0.3973
  885MPD2    H512983   0.642   4.426  17.665 -0.4089 -2.3796  1.0322
  885MPD2    N112984   0.598   4.410   0.451  0.1769 -0.0300 -0.6571
  885MPD2    H712985   0.544   4.406   0.537  0.4069  0.2196 -0.5011
  886MPD2     C12986   1.779   2.537  15.408  0.9716 -0.3745  0.0310
  886MPD2    C112987   1.919   2.550  15.398 -0.3652 -0.4024 -0.0314
  886MPD2    C212988   1.969   2.665  15.340  0.5055  0.4333 -0.1274
  886MPD2    C312989   1.885   2.759  15.275 -0.6884  0.5508  0.7608
  886MPD2    C412990   1.755   2.738  15.275  0.5059  0.1426 -0.9461
  886MPD2    C512991   1.696   2.631  15.345 -0.3511 -0.1655  0.1771
  886MPD2     H12992   2.077   2.670  15.331  0.6146  0.9466  1.3366
  886MPD2    H112993   1.684   2.798  15.220 -1.4002 -0.4219  0.8686
  886MPD2    H212994   1.730   2.448  15.446 -0.8429  1.1010  1.1563
  886MPD2    H312995   1.588   2.622  15.342 -0.3363 -0.0489 -0.5225
  886MPD2     N12996   1.952   2.873  15.217  0.3310  0.0143 -0.5433
  886MPD2    H512997   2.052   2.868  15.230 -0.1717 -0.8679  2.7911
  886MPD2    N112998   2.011   2.464  15.453  0.2419  0.2322 -0.2592
  886MPD2    H712999   2.109   2.482  15.435  0.0513 -1.0600 -2.5792
  887MPD2     C13000   2.666   2.583  15.479 -0.4427  0.1844 -0.5466
  887MPD2    C113001   2.562   2.597  15.568  0.1314 -0.0346 -0.0539
  887MPD2    C213002   2.554   2.712  15.640 -0.3785 -0.0213  0.0812
  887MPD2    C313003   2.625   2.828  15.599 -0.2885  0.1239  0.2461
  887MPD2    C413004   2.725   2.813  15.507 -0.6583 -0.0479  0.1713
  887MPD2    C513005   2.748   2.693  15.455  0.1182  0.6420 -0.7712
  887MPD2     H13006   2.467   2.727  15.703 -1.5740 -1.0448 -1.3322
  887MPD2    H113007   2.783   2.901  15.484 -2.3417  0.8472 -0.6421
  887MPD2    H213008   2.685   2.494  15.420  1.4352 -0.7163  1.3938
  887MPD2    H313009   2.825   2.697  15.380 -1.5019  1.1740 -2.3932
  887MPD2     N13010   2.587   2.949  15.666  0.2297 -0.5113 -0.1121
  887MPD2    H513011   2.521   2.944  15.744 -1.6934  1.1558 -1.6253
  887MPD2    N113012   2.464   2.500  15.589  0.1752  0.2663  0.5098
  887MPD2    H713013   2.389   2.521  15.655 -0.0917 -0.3088  0.3907
  888MPD2     C13014   3.986   2.686  14.705 -0.7322  0.3659 -0.4802
  888MPD2    C113015   4.082   2.670  14.797  0.8818 -0.5972 -1.0241
  888MPD2    C213016   4.187   2.769  14.806  0.3797  0.2555 -0.2679
  888MPD2    C313017   4.185   2.874  14.718 -0.1193  0.3978  0.3965
  888MPD2    C413018   4.085   2.882  14.622  0.0950  0.5739  0.3068
  888MPD2    C513019   3.994   2.785  14.610  0.0859 -0.1821  0.1839
  888MPD2     H13020   4.261   2.763  14.885 -0.7375 -1.5833  0.6389
  888MPD2    H113021   4.086   2.957  14.543 -1.3985 -1.2888 -1.4850
  888MPD2    H213022   3.902   2.616  14.706 -0.2051 -0.2602  0.6149
  888MPD2    H313023   3.926   2.784  14.526 -0.3375  0.3563  0.5242
  888MPD2     N13024   4.285   2.974  14.732  0.6397  0.0278  0.3587
  888MPD2    H513025   4.329   2.974  14.823 -1.2521  0.2114  1.2725
  888MPD2    N113026   4.079   2.560  14.885 -0.9361  0.1548  0.0215
  888MPD2    H713027   4.164   2.550  14.940 -1.0549 -0.3912  0.1015
  889MPD2     C13028   3.741   1.848  13.082 -0.5341 -0.8769 -0.4559
  889MPD2    C113029   3.811   1.884  13.193  0.2629 -0.6837 -0.3403
  889MPD2    C213030   3.845   2.016  13.205  0.5494 -0.1919  0.0420
  889MPD2    C313031   3.835   2.103  13.098  1.0008  0.0307  0.4892
  889MPD2    C413032   3.780   2.055  12.979 -0.2060 -0.5233 -0.3686
  889MPD2    C513033   3.735   1.926  12.975  0.3804 -0.3116  0.4081
  889MPD2     H13034   3.899   2.048  13.293 -0.8034  0.4925  0.6192
  889MPD2    H113035   3.766   2.117  12.891 -0.2022 -0.5369 -0.3789
  889MPD2    H213036   3.711   1.744  13.069 -0.3623 -0.8599 -0.9966
  889MPD2    H313037   3.698   1.898  12.877  1.1185 -0.4663  0.1720
  889MPD2     N13038   3.891   2.230  13.111  0.5504  0.0313  0.5558
  889MPD2    H513039   3.935   2.254  13.199 -0.1777 -2.0860  1.5055
  889MPD2    N113040   3.813   1.800  13.307 -0.3174 -0.0127  1.1347
  889MPD2    H713041   3.869   1.835  13.384  1.5543 -1.9587  0.6945
  890MPD2     C13042   3.140   4.025  14.470  0.5967  0.0084  0.2060
  890MPD2    C113043   3.218   4.114  14.529 -0.0239  0.2586  0.7073
  890MPD2    C213044   3.211   4.131  14.668 -0.3168  0.2736  0.7849
  890MPD2    C313045   3.128   4.043  14.742 -0.1200  0.2833  0.1720
  890MPD2    C413046   3.045   3.954  14.676  0.2261 -0.0655  0.2581
  890MPD2    C513047   3.051   3.949  14.537  0.4105 -0.6236  0.4748
  890MPD2     H13048   3.266   4.203  14.727 -0.7260  0.9674  0.3180
  890MPD2    H113049   2.994   3.879  14.735 -0.3634  0.2584  0.1671
  890MPD2    H213050   3.144   4.004  14.364  1.7511 -2.5097  0.7627
  890MPD2    H313051   2.983   3.880  14.488  0.8265 -0.7539  0.0851
  890MPD2     N13052   3.143   4.061  14.878 -0.5344 -0.1409 -0.6632
  890MPD2    H513053   3.195   4.145  14.902  0.8520 -0.8821 -1.0927
  890MPD2    N113054   3.300   4.196  14.446  0.1782  0.3537 -0.0603
  890MPD2    H713055   3.292   4.186  14.346  2.3032  0.6698 -0.2692
  891MPD2     C13056   1.096   2.585  16.486  0.4068  0.0135 -0.1362
  891MPD2    C113057   1.021   2.582  16.607 -0.1753  0.8551  0.7237
  891MPD2    C213058   1.082   2.512  16.716  0.2225 -0.9414 -0.2066
  891MPD2    C313059   1.201   2.456  16.711 -0.5526 -0.1645  0.1528
  891MPD2    C413060   1.274   2.470  16.598  0.9845 -0.3257  0.1433
  891MPD2    C513061   1.221   2.533  16.484  0.1065 -0.1757  0.5413
  891MPD2     H13062   1.030   2.519  16.811  2.7306 -0.8942  1.1651
  891MPD2    H113063   1.379   2.443  16.589  0.7340 -1.2096 -0.1424
  891MPD2    H213064   1.055   2.615  16.390  2.0670  4.0653  0.4443
  891MPD2    H313065   1.289   2.532  16.400 -0.5164  0.5929  0.0278
  891MPD2     N13066   1.247   2.392  16.826  0.7751  0.2895  0.0663
  891MPD2    H513067   1.186   2.417  16.903 -1.7294 -2.2391 -1.0929
  891MPD2    N113068   0.899   2.650  16.613  0.5673  0.2206  0.3548
  891MPD2    H713069   0.854   2.695  16.534  0.5765  2.5257  1.6571
  892MPD2     C13070   2.292   4.144  14.381 -0.0313 -0.4899  0.2414
  892MPD2    C113071   2.289   4.015  14.429 -1.1706 -0.1666  0.8909
  892MPD2    C213072   2.373   3.919  14.378 -0.2123 -0.0174  0.6175
  892MPD2    C313073   2.458   3.959  14.276 -0.6039  0.5087  0.3579
  892MPD2    C413074   2.475   4.093  14.244  0.0046 -0.3540  0.5836
  892MPD2    C513075   2.392   4.182  14.293 -0.2990 -0.6812  0.0298
  892MPD2     H13076   2.362   3.815  14.407 -0.4115  0.2367  1.4447
  892MPD2    H113077   2.555   4.125  14.178 -0.3295  0.6496  0.6616
  892MPD2    H213078   2.225   4.215  14.429 -0.4389 -0.2041 -0.7439
  892MPD2    H313079   2.417   4.286  14.277  0.0081 -0.9564 -1.3255
  892MPD2     N13080   2.541   3.860  14.209 -0.9139  0.6660 -0.2241
  892MPD2    H513081   2.621   3.879  14.149  0.0354  1.0544  1.1578
  892MPD2    N113082   2.184   3.982  14.515 -0.1938  0.2061  0.6628
  892MPD2    H713083   2.105   4.046  14.513 -0.1746  0.1426 -1.5085
  893MPD2     C13084   0.733   0.723   2.306  0.1097  0.0378  0.6886
  893MPD2    C113085   0.623   0.777   2.241  0.1691 -0.7147  0.0127
  893MPD2    C213086   0.504   0.718   2.275 -0.1490  0.0367  0.0051
  893MPD2    C313087   0.492   0.629   2.378 -0.2033  0.5737  0.3845
  893MPD2    C413088   0.603   0.585   2.443 -0.3255  0.0947  0.3979
  893MPD2    C513089   0.720   0.630   2.405 -0.2116  0.2313 -0.2382
  893MPD2     H13090   0.420   0.744   2.212 -0.5038  0.4592  0.6658
  893MPD2    H113091   0.590   0.522   2.530 -1.2538  0.9463  0.8759
  893MPD2    H213092   0.834   0.750   2.277  2.2318 -4.8300  3.6583
  893MPD2    H313093   0.816   0.605   2.450  0.3422 -1.2909 -2.2574
  893MPD2     N13094   0.364   0.580   2.411  0.4526  0.0170  0.0824
  893MPD2    H513095   0.364   0.512   2.487  1.4728  0.1619  0.2198
  893MPD2    N113096   0.645   0.872   2.139  0.3982  0.0770 -0.0474
  893MPD2    H713097   0.741   0.896   2.116  0.5312  0.6292  1.1223
  894MPD2     C13098   2.199   4.140   1.347 -0.4336 -0.3345  0.1967
  894MPD2    C113099   2.152   4.226   1.447  0.2284  0.3885 -0.4431
  894MPD2    C213100   2.162   4.367   1.435 -0.5743  0.2274 -0.0878
  894MPD2    C313101   2.201   4.417   1.313 -0.5454  0.0911 -0.0358
  894MPD2    C413102   2.262   4.328   1.220  0.3258  0.5033  0.8256
  894MPD2    C513103   2.258   4.187   1.237 -0.1875  0.2023  0.1454
  894MPD2     H13104   2.118   4.431   1.510 -0.4129 -0.5618  0.6882
  894MPD2    H113105   2.306   4.353   1.124 -1.7248 -0.3242 -0.3422
  894MPD2    H213106   2.194   4.034   1.368  1.7417 -0.1555  1.5802
  894MPD2    H313107   2.305   4.116   1.170  0.8464 -1.6116  2.8055
  894MPD2     N13108   2.193   4.556   1.296 -0.1839  0.4920 -0.0092
  894MPD2    H513109   2.166   4.613   1.375 -1.8378 -0.4709  0.1268
  894MPD2    N113110   2.102   4.187   1.573  0.1804  0.1656  0.0652
  894MPD2    H713111   2.071   4.261   1.635 -0.1005  0.0916  0.0172
  895MPD2     C13112   1.367   2.924  13.759  0.1978  0.2219  0.1700
  895MPD2    C113113   1.357   2.866  13.632 -0.4855  0.5878 -0.2871
  895MPD2    C213114   1.464   2.797  13.586 -1.1485 -0.4531 -0.3544
  895MPD2    C313115   1.579   2.792  13.654  0.4425  0.5412  1.0307
  895MPD2    C413116   1.596   2.849  13.781  0.0248 -0.4321  0.6204
  895MPD2    C513117   1.486   2.919  13.821  0.1929 -0.1606  0.0141
  895MPD2     H13118   1.454   2.739  13.495  0.7993 -2.1979  0.5580
  895MPD2    H113119   1.685   2.841  13.843  0.8311 -1.6863 -0.6895
  895MPD2    H213120   1.289   2.957  13.826 -0.5241 -0.2628 -0.4352
  895MPD2    H313121   1.499   2.965  13.918  1.8561  0.2864 -0.4194
  895MPD2     N13122   1.673   2.712  13.583 -0.8896 -0.2065 -0.0458
  895MPD2    H513123   1.649   2.672  13.493  2.2349 -0.5700 -0.7100
  895MPD2    N113124   1.237   2.859  13.556  0.5988  0.2893 -0.1154
  895MPD2    H713125   1.240   2.782  13.490  1.3357 -0.2056  0.4892
  896MPD2     C13126   3.879   0.485   2.174  0.3209 -0.0721 -0.3207
  896MPD2    C113127   3.873   0.482   2.037 -0.2081  0.1823 -0.7128
  896MPD2    C213128   3.748   0.474   1.976  0.2212  0.7134  0.4231
  896MPD2    C313129   3.630   0.481   2.046 -0.2306 -0.5051 -0.2611
  896MPD2    C413130   3.637   0.497   2.181 -0.5659 -0.6747  0.4114
  896MPD2    C513131   3.759   0.507   2.238  0.4607  0.3386 -0.5041
  896MPD2     H13132   3.741   0.469   1.868 -2.0117  0.4841  0.5813
  896MPD2    H113133   3.550   0.507   2.246  1.0432  2.5495  2.0117
  896MPD2    H213134   3.976   0.495   2.221 -0.7275  0.8643  1.6608
  896MPD2    H313135   3.759   0.529   2.344 -1.0983  0.3998 -0.5259
  896MPD2     N13136   3.510   0.463   1.975  0.1576  0.2639 -0.3295
  896MPD2    H513137   3.521   0.421   1.883  1.6900  0.2337 -0.1378
  896MPD2    N113138   3.990   0.477   1.967 -0.4459 -0.2990 -0.7594
  896MPD2    H713139   4.077   0.458   2.015 -1.3550 -0.5079  0.8073
  897MPD2     C13140   0.364   1.747  10.617  0.2912  0.1932  0.2723
  897MPD2    C113141   0.316   1.838  10.529 -0.0134 -0.0625  0.1192
  897MPD2    C213142   0.193   1.887  10.563  1.0498 -0.2563  0.1498
  897MPD2    C313143   0.129   1.873  10.684 -0.0943  0.6146  0.4095
  897MPD2    C413144   0.183   1.782  10.771 -0.6038  0.0136 -0.2099
  897MPD2    C513145   0.294   1.714  10.729 -0.4020  0.1836  0.2934
  897MPD2     H13146   0.166   1.966  10.494  0.4623  0.5688  1.3285
  897MPD2    H113147   0.135   1.763  10.866  0.0345  4.2002  0.9488
  897MPD2    H213148   0.450   1.687  10.592 -0.9731 -1.3777 -0.3418
  897MPD2    H313149   0.325   1.642  10.804 -1.9681  0.2930  1.0604
  897MPD2     N13150   0.016   1.947  10.721  0.0372  0.1556 -0.4025
  897MPD2    H513151   4.708   1.936  10.817  1.2506  1.1821  0.1025
  897MPD2    N113152   0.370   1.876  10.405  0.0858 -0.4090 -0.2886
  897MPD2    H713153   0.339   1.964  10.364  1.5027  0.7918  1.1975
  898MPD2     C13154   1.611   3.028   0.695 -0.3085 -0.2133 -0.1787
  898MPD2    C113155   1.711   3.117   0.665  0.0939 -0.1864  0.1480
  898MPD2    C213156   1.690   3.232   0.599 -0.1211 -0.6826  0.4649
  898MPD2    C313157   1.563   3.255   0.544  0.4357  0.1985 -0.3564
  898MPD2    C413158   1.463   3.160   0.565 -0.1415 -0.0044 -0.4698
  898MPD2    C513159   1.489   3.051   0.645  0.1496 -0.2971  0.4286
  898MPD2     H13160   1.779   3.290   0.580 -1.9322  1.4482 -1.6688
  898MPD2    H113161   1.364   3.163   0.521  0.0648 -1.0896 -1.0101
  898MPD2    H213162   1.617   2.948   0.768  0.0984  0.5342  0.6080
  898MPD2    H313163   1.404   2.990   0.674  0.2290 -0.3101  0.6363
  898MPD2     N13164   1.551   3.365   0.456 -0.6449  0.3693  0.3455
  898MPD2    H513165   1.615   3.443   0.466  1.3263 -0.9003 -2.4506
  898MPD2    N113166   1.841   3.087   0.698 -0.7842 -0.5492  0.4261
  898MPD2    H713167   1.908   3.149   0.654 -0.3023 -1.2502  0.1734
  899MPD2     C13168   2.848   3.463  17.470  0.4036 -0.1033 -0.0056
  899MPD2    C113169   2.912   3.549  17.563  1.0462 -0.2397  0.5281
  899MPD2    C213170   2.890   3.540   0.008  0.1980  0.1504 -0.0896
  899MPD2    C313171   2.794   3.454   0.057 -0.2979 -0.2712 -0.1944
  899MPD2    C413172   2.738   3.373  17.656 -0.1526  0.1797 -0.4572
  899MPD2    C513173   2.766   3.370  17.525  0.3612 -0.0556 -0.2590
  899MPD2     H13174   2.945   3.604   0.076 -0.9533 -0.1964  1.1488
  899MPD2    H113175   2.664   3.301  17.690 -0.4905 -0.5039 -2.6392
  899MPD2    H213176   2.857   3.463  17.362 -0.3306 -2.1343 -0.0602
  899MPD2    H313177   2.707   3.296  17.473 -2.1368  1.1312  0.8638
  899MPD2     N13178   2.752   3.451   0.192  0.3412 -0.2510  0.2368
  899MPD2    H513179   2.655   3.425   0.206  0.0890 -0.4722 -1.8487
  899MPD2    N113180   3.002   3.646  17.508 -0.0239  0.1316  0.1096
  899MPD2    H713181   3.012   3.639  17.407 -3.1969 -0.8276 -0.1523
  900MPD2     C13182   2.900   0.639  12.691  0.1701  0.3925  0.2229
  900MPD2    C113183   2.823   0.540  12.642  1.1932 -0.2012  0.5962
  900MPD2    C213184   2.694   0.573  12.604 -0.8141  0.1290 -0.4226
  900MPD2    C313185   2.650   0.702  12.589  0.4410 -0.5476  0.3238
  900MPD2    C413186   2.722   0.793  12.651 -0.2632 -0.2514 -0.1056
  900MPD2    C513187   2.846   0.764  12.700 -0.6835  0.0897 -0.3657
  900MPD2     H13188   2.637   0.499  12.548  0.1231 -1.4232  0.6862
  900MPD2    H113189   2.689   0.895  12.661  1.7307  0.3720  0.1581
  900MPD2    H213190   3.001   0.624  12.728 -0.6017 -0.3140  2.0406
  900MPD2    H313191   2.910   0.835  12.753 -0.0595 -2.5038  2.3238
  900MPD2     N13192   2.528   0.724  12.526 -0.1213  0.1503 -0.2832
  900MPD2    H513193   2.478   0.644  12.489 -2.0776  1.0778  0.2968
  900MPD2    N113194   2.873   0.407  12.635 -0.2702 -0.4932 -0.6869
  900MPD2    H713195   2.969   0.397  12.667 -0.2078 -1.5544 -1.2053
  901MPD2     C13196   2.714   4.067  12.818 -0.4104  0.2783 -0.1802
  901MPD2    C113197   2.839   4.083  12.754 -1.2930 -0.2938  0.6322
  901MPD2    C213198   2.900   4.205  12.745 -0.2226 -0.2098  0.3430
  901MPD2    C313199   2.826   4.317  12.771  0.2334 -0.4397 -0.7416
  901MPD2    C413200   2.700   4.299  12.833  0.0544  0.5900  0.3286
  901MPD2    C513201   2.652   4.177  12.862  0.5808  0.4620  0.5294
  901MPD2     H13202   2.999   4.218  12.703 -1.1300  0.9559 -1.4333
  901MPD2    H113203   2.634   4.381  12.860 -1.0360 -0.2081  0.1192
  901MPD2    H213204   2.678   3.966  12.831  0.4967  0.0689  0.7137
  901MPD2    H313205   2.551   4.170  12.902 -0.6252  2.9687 -2.1169
  901MPD2     N13206   2.882   4.438  12.744  0.2525  0.2669 -0.1672
  901MPD2    H513207   2.973   4.437  12.700 -0.3767  0.4253 -1.4826
  901MPD2    N113208   2.906   3.971  12.706 -0.3350  0.5377  0.1724
  901MPD2    H713209   2.846   3.889  12.707 -0.3006  0.5540  2.5807
  902MPD2     C13210   1.726   3.090  12.961  0.0234 -0.7069 -0.2536
  902MPD2    C113211   1.692   3.132  12.838 -0.1609 -0.4991  0.3599
  902MPD2    C213212   1.785   3.122  12.737 -0.1239 -0.7145 -0.5660
  902MPD2    C313213   1.908   3.068  12.767 -0.3057 -0.2940 -0.0302
  902MPD2    C413214   1.938   3.028  12.895 -0.9167 -0.9959 -0.5072
  902MPD2    C513215   1.847   3.043  12.993  0.6321 -0.4406  0.8927
  902MPD2     H13216   1.764   3.151  12.635 -1.9658 -1.0546 -0.2756
  902MPD2    H113217   2.036   2.989  12.920 -1.0011  0.0791  1.4917
  902MPD2    H213218   1.659   3.106  13.044  2.5401 -0.4545  1.7254
  902MPD2    H313219   1.868   3.036  13.100  1.3641  0.8083  0.8286
  902MPD2     N13220   1.996   3.029  12.664 -1.0426 -0.0216 -0.0121
  902MPD2    H513221   2.062   2.956  12.690 -2.1050 -1.7017 -1.9803
  902MPD2    N113222   1.558   3.172  12.825  0.1993  0.1269 -0.1191
  902MPD2    H713223   1.497   3.170  12.906  0.5082  0.4505  0.1226
  903MPD2     C13224   1.932   2.946  11.802 -0.4732  0.5072 -0.0058
  903MPD2    C113225   1.844   2.900  11.896  0.4958  0.3364 -0.6162
  903MPD2    C213226   1.721   2.854  11.858  1.0424  0.2295  0.1844
  903MPD2    C313227   1.681   2.849  11.727  0.1665 -0.2370  0.5864
  903MPD2    C413228   1.763   2.902  11.635 -0.5017 -0.0447  0.1892
  903MPD2    C513229   1.893   2.946  11.667  0.1360  0.3057  0.5149
  903MPD2     H13230   1.651   2.827  11.936  0.3123  0.5155 -0.3753
  903MPD2    H113231   1.739   2.908  11.529 -1.1372  1.4476  0.4119
  903MPD2    H213232   2.036   2.966  11.822 -0.8023  0.1408  2.1002
  903MPD2    H313233   1.960   2.986  11.592 -0.0990 -0.0968  0.0879
  903MPD2     N13234   1.547   2.817  11.699 -0.2891  0.2514  0.0741
  903MPD2    H513235   1.489   2.800  11.780 -1.2261 -1.0047 -0.8604
  903MPD2    N113236   1.879   2.878  12.032 -0.1953  1.0064 -0.2965
  903MPD2    H713237   1.827   2.820  12.096  1.1806 -0.3434 -0.4087
  904MPD2     C13238   1.373   2.043  14.029 -0.6110  0.0035  0.4306
  904MPD2    C113239   1.410   2.162  13.974  0.3476 -0.3531 -0.4826
  904MPD2    C213240   1.525   2.232  14.018 -0.1225 -0.0575  0.5337
  904MPD2    C313241   1.625   2.171  14.084  0.4196 -1.1392  0.1755
  904MPD2    C413242   1.597   2.041  14.128  0.5537 -0.0070 -0.3019
  904MPD2    C513243   1.472   1.981  14.110 -0.8045  0.0632 -0.3388
  904MPD2     H13244   1.544   2.331  13.977 -1.6313  0.2792  0.6589
  904MPD2    H113245   1.681   1.991  14.177  0.2513 -1.0460 -0.8383
  904MPD2    H213246   1.275   2.004  14.003 -0.3683  0.8228 -1.7492
  904MPD2    H313247   1.449   1.890  14.164  0.0537 -1.1479 -1.9931
  904MPD2     N13248   1.745   2.246  14.105 -0.4169 -0.0218 -0.1704
  904MPD2    H513249   1.743   2.335  14.057  0.9975  0.7230  1.1264
  904MPD2    N113250   1.328   2.230  13.889  0.0157  0.5991 -0.1476
  904MPD2    H713251   1.352   2.328  13.875  1.4599  0.1065 -1.1008
  905MPD2     C13252   1.254   2.242  13.184 -0.0178 -0.8482 -0.1071
  905MPD2    C113253   1.276   2.330  13.283  0.1207 -0.3959 -0.0789
  905MPD2    C213254   1.394   2.395  13.294  0.3251 -0.1357  0.1998
  905MPD2    C313255   1.497   2.365  13.206  0.0329  0.2837  0.3547
  905MPD2    C413256   1.476   2.279  13.099  0.2533  0.7456  0.6448
  905MPD2    C513257   1.349   2.223  13.096 -0.6329 -0.0908 -0.3699
  905MPD2     H13258   1.397   2.472  13.370 -2.0923  0.4365 -0.2963
  905MPD2    H113259   1.545   2.256  13.019 -0.0535 -1.5910  1.0462
  905MPD2    H213260   1.161   2.189  13.168  0.7361 -2.3800  0.5883
  905MPD2    H313261   1.334   2.149  13.019 -2.0513 -0.9494  0.7287
  905MPD2     N13262   1.630   2.407  13.225 -0.1867  0.0389 -0.2617
  905MPD2    H513263   1.705   2.359  13.176 -0.5263 -1.5944  0.8003
  905MPD2    N113264   1.173   2.354  13.377  0.3448 -0.2127 -0.2265
  905MPD2    H713265   1.101   2.283  13.384  1.0886 -0.7837  1.6349
  906MPD2     C13266   3.572   2.391  11.328 -0.6448 -0.0747  0.3860
  906MPD2    C113267   3.590   2.266  11.264 -0.3316 -0.5458 -0.5520
  906MPD2    C213268   3.584   2.145  11.327  0.2383  0.0574 -0.4783
  906MPD2    C313269   3.565   2.147  11.462  0.8069 -0.2016  0.1288
  906MPD2    C413270   3.573   2.269  11.532  0.6772  0.0586  0.7647
  906MPD2    C513271   3.568   2.385  11.465 -0.3056 -0.3814  0.4436
  906MPD2     H13272   3.590   2.050  11.275  0.3790 -0.4096  0.3826
  906MPD2    H113273   3.589   2.273  11.639  1.0346  0.7624  0.6795
  906MPD2    H213274   3.575   2.486  11.276 -0.2625 -0.0973  0.3689
  906MPD2    H313275   3.567   2.478  11.520 -0.1012  0.0258 -0.2414
  906MPD2     N13276   3.533   2.027  11.525  0.3367  0.3147 -0.3461
  906MPD2    H513277   3.525   1.944  11.466 -1.0937  0.5029 -0.4243
  906MPD2    N113278   3.598   2.263  11.120  0.5745  0.2600 -0.2039
  906MPD2    H713279   3.612   2.168  11.086  0.7109  0.2892 -0.2282
  907MPD2     C13280   2.859   1.070  15.599 -0.5143  0.1680 -0.0744
  907MPD2    C113281   2.745   0.992  15.583  0.7771  0.6569  0.3537
  907MPD2    C213282   2.692   0.926  15.689 -0.2042  0.7799 -0.0390
  907MPD2    C313283   2.754   0.936  15.812 -0.5755  0.3928 -0.7739
  907MPD2    C413284   2.854   1.024  15.826  0.0833 -0.6311 -0.5931
  907MPD2    C513285   2.916   1.091  15.726  0.3522 -0.6274  0.1520
  907MPD2     H13286   2.603   0.865  15.672 -0.4650  0.1570  3.4694
  907MPD2    H113287   2.903   1.048  15.920  1.4497 -1.1892 -1.1609
  907MPD2    H213288   2.894   1.132  15.517 -2.5579  0.6728 -0.5743
  907MPD2    H313289   2.995   1.162  15.747 -0.5708  0.4381  0.0112
  907MPD2     N13290   2.689   0.866  15.921 -0.8232  0.1003 -0.2458
  907MPD2    H513291   2.621   0.799  15.890 -0.5138 -0.8733  1.1569
  907MPD2    N113292   2.664   0.980  15.461 -0.3197 -0.6575 -0.6197
  907MPD2    H713293   2.580   0.924  15.457 -1.6160  1.4030 -2.1022
  908MPD2     C13294   0.378   1.396   9.572 -0.0861 -0.1043 -0.3425
  908MPD2    C113295   0.473   1.379   9.665 -0.7496 -0.1629 -0.6775
  908MPD2    C213296   0.509   1.475   9.758 -0.0628 -0.1428  0.2269
  908MPD2    C313297   0.443   1.597   9.752  0.4463  0.7993  0.0052
  908MPD2    C413298   0.346   1.614   9.654  0.8225 -0.0431 -0.8953
  908MPD2    C513299   0.322   1.523   9.563  0.0533  0.6598  0.1043
  908MPD2     H13300   0.581   1.445   9.834 -1.9001  1.2800  2.5015
  908MPD2    H113301   0.284   1.703   9.657 -1.3027 -1.5311 -0.1283
  908MPD2    H213302   0.351   1.318   9.501 -0.6989  0.3312 -0.5914
  908MPD2    H313303   0.240   1.539   9.494 -1.0073 -3.3379  0.3865
  908MPD2     N13304   0.475   1.692   9.851 -0.0223 -0.1373 -0.1044
  908MPD2    H513305   0.555   1.667   9.908 -0.3154 -0.0702  0.3458
  908MPD2    N113306   0.526   1.246   9.675  0.5376 -0.0011 -0.3480
  908MPD2    H713307   0.504   1.181   9.599  1.7689 -0.3164 -0.4328
  909MPD2     C13308   0.557   0.019  12.296 -0.2436  0.3287 -0.0431
  909MPD2    C113309   0.548   0.140  12.219  0.3875  0.2643  0.1565
  909MPD2    C213310   0.450   0.231  12.249 -0.2940  0.2675  0.9699
  909MPD2    C313311   0.347   0.206  12.339  0.1926 -0.4188 -0.0622
  909MPD2    C413312   0.368   0.096  12.421  0.4163  0.0687 -0.0695
  909MPD2    C513313   0.468   0.003  12.397 -0.4585  0.0335 -0.0726
  909MPD2     H13314   0.456   0.325  12.195 -1.5211 -0.2883 -0.1432
  909MPD2    H113315   0.298   0.082  12.502  0.8764 -1.3534  0.0838
  909MPD2    H213316   0.639   4.673  12.282 -0.5144 -0.1878  0.9461
  909MPD2    H313317   0.472   4.640  12.463 -0.1451 -0.2014 -0.4015
  909MPD2     N13318   0.245   0.300  12.354 -0.0136 -0.1128 -0.3273
  909MPD2    H513319   0.247   0.374  12.285  0.3517  0.9157  0.8026
  909MPD2    N113320   0.645   0.174  12.121 -1.1715  0.2420 -0.5934
  909MPD2    H713321   0.630   0.260  12.069  2.9305  0.0224 -2.0952
  910MPD2     C13322   1.815   1.755  15.645 -0.0677  0.0202  0.3500
  910MPD2    C113323   1.884   1.759  15.527  0.4785 -0.1690  0.3208
  910MPD2    C213324   1.873   1.864  15.445 -0.5785 -0.0047  0.2232
  910MPD2    C313325   1.790   1.973  15.477 -0.3301  0.1470 -0.2911
  910MPD2    C413326   1.719   1.961  15.592  0.5522 -0.8578 -0.6439
  910MPD2    C513327   1.727   1.853  15.678 -0.2910 -0.4115  0.5388
  910MPD2     H13328   1.924   1.857  15.350  1.4221 -0.0952  1.3119
  910MPD2    H113329   1.660   2.044  15.630  3.0254  0.8376 -0.5255
  910MPD2    H213330   1.839   1.682  15.721 -0.1261  1.1887  1.4933
  910MPD2    H313331   1.676   1.861  15.773 -0.8645 -1.1749  0.2867
  910MPD2     N13332   1.759   2.092  15.399  0.4041  0.1859 -0.1187
  910MPD2    H513333   1.690   2.157  15.436  1.5788  1.0431  0.5600
  910MPD2    N113334   1.968   1.649  15.487 -0.5013  0.2239 -0.3510
  910MPD2    H713335   2.037   1.660  15.413  1.5808  1.8895  1.8767
  911MPD2     C13336   4.381   2.397  16.112  0.3336  0.2551  0.5025
  911MPD2    C113337   4.325   2.421  16.232  0.4423  0.3764  0.2306
  911MPD2    C213338   4.237   2.524  16.241 -0.0797 -0.1436  0.0429
  911MPD2    C313339   4.216   2.613  16.139 -0.1838  0.8452  0.7460
  911MPD2    C413340   4.293   2.602  16.020 -0.1658  0.8166  0.0366
  911MPD2    C513341   4.361   2.480  16.003 -0.1576 -0.1761  0.5523
  911MPD2     H13342   4.174   2.537  16.329 -0.1505 -0.5665  0.0559
  911MPD2    H113343   4.297   2.668  15.934 -0.1138 -1.0909 -1.4239
  911MPD2    H213344   4.451   2.316  16.092  1.4122  0.9191  1.6028
  911MPD2    H313345   4.403   2.455  15.907 -1.4875  1.0993 -0.3758
  911MPD2     N13346   4.142   2.727  16.139  0.2660 -0.0966 -0.4428
  911MPD2    H513347   4.164   2.793  16.066 -0.9954  0.0114 -0.7244
  911MPD2    N113348   4.350   2.322  16.327  0.1049 -0.0257  0.0646
  911MPD2    H713349   4.404   2.239  16.302 -2.7093 -1.7741 -0.1910
  912MPD2     C13350   4.106   2.548  15.687 -0.8366  0.1196  0.4517
  912MPD2    C113351   4.016   2.525  15.787  0.1844  0.4230 -0.0463
  912MPD2    C213352   4.008   2.407  15.849 -0.1237 -1.0664 -0.4592
  912MPD2    C313353   4.103   2.310  15.811  0.2723  0.0854  0.3199
  912MPD2    C413354   4.200   2.333  15.724 -0.3541 -0.4550 -0.1672
  912MPD2    C513355   4.208   2.453  15.669  0.6769 -0.3108  0.5319
  912MPD2     H13356   3.946   2.392  15.937  1.0946  0.8244  0.7256
  912MPD2    H113357   4.265   2.251  15.693 -0.5321 -0.6516 -0.0186
  912MPD2    H213358   4.109   2.642  15.634 -1.6375  0.9077  1.8125
  912MPD2    H313359   4.273   2.456  15.583 -2.4112  0.7796 -1.7621
  912MPD2     N13360   4.079   2.193  15.887 -0.2973 -0.0381 -0.1801
  912MPD2    H513361   4.009   2.194  15.960 -0.2121 -1.2239 -0.0915
  912MPD2    N113362   3.938   2.634  15.821  0.4445  0.4393 -0.5480
  912MPD2    H713363   3.953   2.716  15.763  3.3564 -1.7294 -2.8851
  913MPD2     C13364   0.958   3.928  10.885 -0.3759 -0.4557 -0.3535
  913MPD2    C113365   0.892   3.923  10.763  0.3176 -0.7697 -1.0664
  913MPD2    C213366   0.973   3.919  10.650 -0.3722 -0.2759 -0.3521
  913MPD2    C313367   1.115   3.905  10.659  0.2157  0.1317  0.5170
  913MPD2    C413368   1.170   3.903  10.781  0.3504  0.0029 -0.1932
  913MPD2    C513369   1.095   3.927  10.893 -0.0126 -0.6976 -0.1619
  913MPD2     H13370   0.927   3.923  10.553  3.1169 -0.7560 -2.0203
  913MPD2    H113371   1.277   3.887  10.794  0.2519  0.0670  0.7158
  913MPD2    H213372   0.904   3.926  10.979  1.0703 -0.6202  0.4716
  913MPD2    H313373   1.138   3.942  10.991 -1.4236 -0.2339  0.3886
  913MPD2     N13374   1.205   3.898  10.546 -0.4178 -0.0796  0.1773
  913MPD2    H513375   1.305   3.910  10.559 -0.5640 -1.6280  2.7338
  913MPD2    N113376   0.753   3.913  10.749 -0.1655 -0.0784  0.3406
  913MPD2    H713377   0.699   3.898  10.834  0.9271 -2.8605  0.5307
  914MPD2     C13378   2.573   3.830  11.911  1.1791 -0.1532 -0.3317
  914MPD2    C113379   2.618   3.939  11.978  0.1711  0.2869  0.0076
  914MPD2    C213380   2.702   3.926  12.088 -0.2746  1.0349  0.2671
  914MPD2    C313381   2.737   3.798  12.136 -0.1034 -0.2369 -0.5722
  914MPD2    C413382   2.700   3.690  12.058  0.4647 -0.0221  0.0180
  914MPD2    C513383   2.613   3.710  11.958 -0.1179 -0.0901  0.1408
  914MPD2     H13384   2.734   4.009  12.151  1.4624  1.8325 -1.6580
  914MPD2    H113385   2.719   3.584  12.076 -1.8074 -0.2624  1.0585
  914MPD2    H213386   2.528   3.843  11.813 -0.5570 -1.9881  0.2300
  914MPD2    H313387   2.571   3.621  11.912 -1.1735  0.6561 -0.3480
  914MPD2     N13388   2.816   3.790  12.254  0.1294 -0.6849 -0.8169
  914MPD2    H513389   2.842   3.875  12.303 -1.8207 -0.6039  0.0566
  914MPD2    N113390   2.578   4.062  11.934 -0.0554  1.1348  0.6804
  914MPD2    H713391   2.530   4.066  11.844 -1.8604  4.0873  1.7711
  915MPD2     C13392   0.530   3.686  15.504  0.4133  0.1552  0.0169
  915MPD2    C113393   0.438   3.792  15.491 -0.5396 -0.6516  0.0261
  915MPD2    C213394   0.426   3.877  15.599 -0.6392 -0.4767  0.0887
  915MPD2    C313395   0.496   3.856  15.715 -0.2534  0.8059 -0.0959
  915MPD2    C413396   0.580   3.750  15.720 -0.5648 -0.0522  0.1839
  915MPD2    C513397   0.602   3.673  15.612 -0.0543  0.2353 -0.6603
  915MPD2     H13398   0.364   3.966  15.594  0.6423  0.4589  0.8436
  915MPD2    H113399   0.646   3.725  15.803  1.5628  1.1469 -1.1441
  915MPD2    H213400   0.532   3.614  15.424 -2.3648 -1.1204  1.1208
  915MPD2    H313401   0.675   3.593  15.620 -0.5078 -0.0974  0.2610
  915MPD2     N13402   0.465   3.929  15.829  0.0975 -0.1057 -0.1177
  915MPD2    H513403   0.406   4.012  15.821  0.2774  0.0999  0.7295
  915MPD2    N113404   0.353   3.794  15.379 -0.3632 -0.1339  0.3787
  915MPD2    H713405   0.355   3.724  15.306  1.4222 -1.2835  1.5476
  916MPD2     C13406   3.653   2.265  15.886  0.4989 -0.1852 -0.7375
  916MPD2    C113407   3.639   2.167  15.984  0.1683  0.2530  0.5808
  916MPD2    C213408   3.683   2.043  15.959 -0.4843 -0.1506 -0.4880
  916MPD2    C313409   3.750   2.020  15.842  0.5930  0.6790  0.2874
  916MPD2    C413410   3.779   2.116  15.753 -0.3643 -0.1271 -0.1244
  916MPD2    C513411   3.722   2.237  15.772  0.3945  0.3041  0.2013
  916MPD2     H13412   3.657   1.958  16.020 -0.2291  2.0505  2.6924
  916MPD2    H113413   3.828   2.088  15.660 -0.1938  1.4559 -0.5121
  916MPD2    H213414   3.620   2.365  15.910 -2.7744 -1.0349 -1.6257
  916MPD2    H313415   3.752   2.311  15.698  0.9895  1.8919  2.0567
  916MPD2     N13416   3.800   1.888  15.824 -0.5937 -0.2905 -0.2056
  916MPD2    H513417   3.763   1.822  15.892 -1.0378  1.0174  0.8263
  916MPD2    N113418   3.554   2.200  16.096 -0.6616 -0.7743  0.5091
  916MPD2    H713419   3.538   2.299  16.114 -2.5554 -1.1998  1.1257
  917MPD2     C13420   4.119   4.253  10.668  0.4796  0.6720 -0.6739
  917MPD2    C113421   4.198   4.296  10.775 -0.3682  0.2235 -0.1071
  917MPD2    C213422   4.305   4.374  10.749 -0.0860  0.1901 -0.6236
  917MPD2    C313423   4.337   4.420  10.624  0.2928 -0.3649  0.2534
  917MPD2    C413424   4.242   4.392  10.530 -0.2162  0.0761  0.2527
  917MPD2    C513425   4.141   4.305  10.544 -0.3915  0.1386 -0.4169
  917MPD2     H13426   4.380   4.398  10.824 -0.1308  0.9866 -0.8305
  917MPD2    H113427   4.250   4.441  10.434 -0.4476  0.4636  0.4321
  917MPD2    H213428   4.028   4.198  10.685  0.6226  0.9083  0.8336
  917MPD2    H313429   4.078   4.286  10.458 -0.8953 -2.6808  0.5764
  917MPD2     N13430   4.453   4.494  10.581 -0.6462 -0.5472 -0.1505
  917MPD2    H513431   4.449   4.528  10.485 -0.9674  0.1358  0.1034
  917MPD2    N113432   4.163   4.244  10.910 -0.5357 -0.5168  0.1827
  917MPD2    H713433   4.080   4.187  10.920  0.0782 -1.1439  1.8120
  918MPD2     C13434   4.273   4.622  11.866 -0.0448  0.1759  0.2149
  918MPD2    C113435   4.346   4.509  11.851 -0.6783  0.2584  0.3271
  918MPD2    C213436   4.316   4.431  11.737  0.5441 -1.0357 -0.2214
  918MPD2    C313437   4.223   4.465  11.647  0.2697 -0.0163 -0.1324
  918MPD2    C413438   4.156   4.579  11.660  0.3421 -0.0574 -0.0233
  918MPD2    C513439   4.183   4.666  11.771  0.2710  0.1709 -0.4426
  918MPD2     H13440   4.375   4.342  11.720  0.8222 -0.8937 -0.0078
  918MPD2    H113441   4.090   4.620  11.584  1.1594  1.6444  0.1789
  918MPD2    H213442   4.298   4.693  11.944 -0.8544  0.6035  0.0835
  918MPD2    H313443   4.128   0.036  11.772  0.0651  0.0739 -2.5028
  918MPD2     N13444   4.184   4.381  11.540 -0.0718  0.5197 -0.5680
  918MPD2    H513445   4.108   4.416  11.482 -0.4398  0.9081  0.1479
  918MPD2    N113446   4.463   4.474  11.935  0.0775  0.6439 -0.1228
  918MPD2    H713447   4.475   4.526  12.021  0.5157 -1.7942  1.2789
  919MPD2     C13448   4.712   3.498  11.555  0.2230 -0.5460 -0.6299
  919MPD2    C113449   4.635   3.397  11.494 -0.1194  0.1052  0.5544
  919MPD2    C213450   4.592   3.409  11.365  0.8686  0.2733 -0.4237
  919MPD2    C313451   4.640   3.509  11.285 -0.4041 -0.4316  0.0807
  919MPD2    C413452   4.701   3.613  11.347 -0.4437 -0.5230 -0.0877
  919MPD2    C513453   0.016   3.608  11.482  0.0373  0.2335  0.0091
  919MPD2     H13454   4.528   3.330  11.327 -0.4647  1.3362 -0.3781
  919MPD2    H113455   0.007   3.694  11.280 -0.1484 -1.0626 -0.6192
  919MPD2    H213456   0.018   3.495  11.659 -1.2456 -1.4168 -0.2687
  919MPD2    H313457   0.069   3.686  11.535  1.8674 -1.1499  0.2088
  919MPD2     N13458   4.632   3.498  11.141  0.0030 -0.1553  0.5686
  919MPD2    H513459   4.672   3.571  11.082  0.2354 -0.1598  0.7214
  919MPD2    N113460   4.600   3.283  11.568  0.1215 -0.4322  0.6292
  919MPD2    H713461   4.562   3.206  11.514  2.4969 -2.5768  1.9973
  920MPD2     C13462   4.594   3.906  10.219  0.6092  0.0975 -0.1648
  920MPD2    C113463   4.518   3.788  10.199 -0.2909 -0.0393 -0.3533
  920MPD2    C213464   4.525   3.700  10.304 -0.1647 -0.2381  0.2597
  920MPD2    C313465   4.588   3.733  10.420  0.3530  0.4001  0.5235
  920MPD2    C413466   4.667   3.843  10.433 -0.6661 -0.5233  0.4968
  920MPD2    C513467   4.666   3.930  10.330 -0.1202 -0.4270 -0.1230
  920MPD2     H13468   4.485   3.601  10.290 -0.7294  0.1310 -0.7622
  920MPD2    H113469   0.009   3.869  10.516  0.2587 -0.1586 -0.3413
  920MPD2    H213470   4.608   3.989  10.152  0.7343  2.2040  2.4466
  920MPD2    H313471   0.005   4.019  10.331 -1.9018  0.7712  2.5915
  920MPD2     N13472   4.591   3.630  10.518 -0.4705 -0.4505  0.0894
  920MPD2    H513473   4.555   3.539  10.490  1.0818 -1.1674  0.4285
  920MPD2    N113474   4.446   3.762  10.080  0.1854 -0.0821  0.1667
  920MPD2    H713475   4.393   3.678  10.059 -0.2758  0.5369 -1.1419
  921MPD2     C13476   0.180   2.686  17.038 -0.5977  0.2781  0.3465
  921MPD2    C113477   0.210   2.653  16.911 -0.0753  0.3844 -0.0198
  921MPD2    C213478   0.115   2.577  16.843  0.7160  0.0523 -0.2561
  921MPD2    C313479   0.006   2.523  16.902  0.3016  0.0975 -0.1859
  921MPD2    C413480   4.699   2.565  17.027 -0.3701  0.2296 -0.0169
  921MPD2    C513481   0.061   2.647  17.090  0.1582  0.2407  0.1714
  921MPD2     H13482   0.146   2.540  16.745 -2.3278 -1.2908 -0.7136
  921MPD2    H113483   4.607   2.539  17.078 -0.7867  0.2483 -0.7589
  921MPD2    H213484   0.251   2.749  17.089  1.1181 -0.0378 -1.6481
  921MPD2    H313485   0.040   2.671  17.193 -0.1033  1.7544 -0.2346
  921MPD2     N13486   4.648   2.417  16.849 -0.0440 -0.4781 -0.4979
  921MPD2    H513487   4.567   2.396  16.907  0.0326  1.5317  0.3354
  921MPD2    N113488   0.330   2.695  16.852 -0.0496  0.1303  0.3509
  921MPD2    H713489   0.403   2.740  16.905 -0.0751 -0.7421  1.1286
  922MPD2     C13490   1.627   0.641  17.065  0.5361  0.1331  0.0751
  922MPD2    C113491   1.623   0.670  17.200 -0.1564  0.1928 -0.6512
  922MPD2    C213492   1.575   0.581  17.290  0.3929 -0.5324 -0.7382
  922MPD2    C313493   1.527   0.464  17.244  0.1549 -0.5751  0.6082
  922MPD2    C413494   1.541   0.426  17.111 -0.0312  0.2502  0.4094
  922MPD2    C513495   1.584   0.518  17.019  0.5123  0.1175 -0.1459
  922MPD2     H13496   1.572   0.614  17.393  1.3659  2.6873 -1.7335
  922MPD2    H113497   1.512   0.329  17.072 -0.4408 -0.2435  1.9292
  922MPD2    H213498   1.666   0.705  16.987  0.5297  0.1691  0.1012
  922MPD2    H313499   1.589   0.489  16.914  2.4675 -0.2093  0.0355
  922MPD2     N13500   1.476   0.384  17.345 -0.1670  0.0663  0.1173
  922MPD2    H513501   1.454   0.429  17.434 -2.0350 -1.8762  0.6348
  922MPD2    N113502   1.657   0.800  17.245  0.9576  0.2148  0.4768
  922MPD2    H713503   1.666   0.808  17.346 -2.5621  0.7350  0.7490
  923MPD2     C13504   2.827   2.100   8.957 -0.0457  0.2383  0.2260
  923MPD2    C113505   2.746   2.146   9.056 -0.4024  0.0940  0.2761
  923MPD2    C213506   2.775   2.112   9.191 -0.2236 -0.0379  0.0617
  923MPD2    C313507   2.894   2.038   9.224  0.2897  0.5547 -0.7311
  923MPD2    C413508   2.964   1.978   9.120 -0.1515  0.4440 -0.3313
  923MPD2    C513509   2.935   2.018   8.989 -0.2324  0.0222 -0.3529
  923MPD2     H13510   2.707   2.134   9.272 -0.2780  0.6299 -0.1679
  923MPD2    H113511   3.050   1.916   9.143  0.7675  2.7147  2.3407
  923MPD2    H213512   2.809   2.118   8.852  0.3902 -1.9027 -0.2121
  923MPD2    H313513   2.999   1.971   8.915  2.0715 -2.4958  3.2195
  923MPD2     N13514   2.937   1.997   9.347  0.1118 -0.4510  0.3236
  923MPD2    H513515   3.015   1.933   9.345 -1.7344 -2.6849 -1.2246
  923MPD2    N113516   2.635   2.222   9.017  0.4338  0.4605 -0.1765
  923MPD2    H713517   2.623   2.245   8.919 -2.1137  1.4336  0.3852
  924MPD2     C13518   2.311   0.210  15.727  0.2933 -0.3213 -0.6689
  924MPD2    C113519   2.239   0.271  15.816  0.2062 -0.3010 -0.7434
  924MPD2    C213520   2.302   0.339  15.910 -0.1742  0.3584 -0.0896
  924MPD2    C313521   2.433   0.374  15.900 -0.3365  1.0954 -0.4992
  924MPD2    C413522   2.509   0.319  15.799  0.4065  0.1396 -0.3546
  924MPD2    C513523   2.447   0.222  15.723  0.3299  0.1397 -0.1238
  924MPD2     H13524   2.244   0.396  15.983  0.3627  1.2826 -0.3826
  924MPD2    H113525   2.615   0.341  15.797  0.2482  1.2295  2.6061
  924MPD2    H213526   2.271   0.144  15.651  1.0873  0.0123 -1.3849
  924MPD2    H313527   2.500   0.156  15.657  0.0550  1.1035 -1.3062
  924MPD2     N13528   2.497   0.463  15.987 -0.1899 -0.4206  0.0777
  924MPD2    H513529   2.582   0.498  15.944 -0.6465  0.1863 -0.3212
  924MPD2    N113530   2.100   0.255  15.815 -0.0263  0.2638 -0.3050
  924MPD2    H713531   2.058   0.210  15.734 -0.1536 -0.5392  0.2037
  925MPD2     C13532   1.163   3.040  14.922  0.4715  0.5836  0.1043
  925MPD2    C113533   1.047   3.002  14.850  0.0633 -0.6653  0.6926
  925MPD2    C213534   0.943   2.943  14.923 -0.5848  0.2685  0.4025
  925MPD2    C313535   0.962   2.920  15.060  0.2261 -0.0278  0.6016
  925MPD2    C413536   1.075   2.971  15.128 -0.7646 -0.2731 -0.3075
  925MPD2    C513537   1.177   3.026  15.056  0.1131 -1.0446 -0.0334
  925MPD2     H13538   0.850   2.918  14.872 -0.4922 -0.1891  0.4637
  925MPD2    H113539   1.091   2.974  15.235  1.7261 -0.7086 -0.6762
  925MPD2    H213540   1.251   3.080  14.872 -0.1087  4.4530  2.1275
  925MPD2    H313541   1.263   3.065  15.108  1.4597 -0.2287 -2.8779
  925MPD2     N13542   0.862   2.866  15.142  0.1047 -0.3431 -0.3071
  925MPD2    H513543   0.882   2.873  15.241 -0.2527  0.4644 -0.2907
  925MPD2    N113544   1.036   3.029  14.711  0.1915 -0.2254  0.8970
  925MPD2    H713545   0.952   2.999  14.662  1.1069 -2.1728  0.5303
  926MPD2     C13546   0.526   1.734  13.491 -0.6589 -0.3197  0.0754
  926MPD2    C113547   0.395   1.768  13.503  0.1947 -0.2967  0.6900
  926MPD2    C213548   0.322   1.795  13.391 -0.1331 -0.0322 -0.1610
  926MPD2    C313549   0.392   1.792  13.267 -0.5011 -0.0108  0.0276
  926MPD2    C413550   0.522   1.747  13.257  0.0519 -0.3350 -0.4204
  926MPD2    C513551   0.595   1.725  13.365  0.1079 -0.4180 -0.3472
  926MPD2     H13552   0.215   1.808  13.396  0.0047  1.2178 -0.5235
  926MPD2    H113553   0.571   1.731  13.162  3.5879 -0.2183  1.4162
  926MPD2    H213554   0.592   1.714  13.575  1.1158  0.1445 -1.1945
  926MPD2    H313555   0.695   1.685  13.375 -0.8705 -2.6254  0.6938
  926MPD2     N13556   0.326   1.832  13.149 -0.0371  0.1272 -0.0044
  926MPD2    H513557   0.388   1.841  13.069  2.4481  2.1579  2.1683
  926MPD2    N113558   0.323   1.766  13.627  0.1738  0.0576 -0.5165
  926MPD2    H713559   0.223   1.775  13.621 -0.0092 -1.4569  0.2060
  927MPD2     C13560   4.661   4.108   0.386  0.3415 -0.2516 -0.2528
  927MPD2    C113561   4.590   4.017   0.311  0.3106 -0.3224  0.0479
  927MPD2    C213562   4.637   3.979   0.183  0.0212  0.1970 -0.0151
  927MPD2    C313563   0.026   4.047   0.128  0.3780  0.8557  0.1270
  927MPD2    C413564   0.077   4.151   0.197 -0.6644 -0.6400 -0.0481
  927MPD2    C513565   0.041   4.175   0.327 -0.4699 -0.5635 -0.1202
  927MPD2     H13566   4.582   3.906   0.126  0.8142 -1.7780  1.7500
  927MPD2    H113567   0.149   4.217   0.151 -0.8997 -0.8918 -0.7822
  927MPD2    H213568   4.647   4.131   0.491  1.0888  0.4397 -0.2951
  927MPD2    H313569   0.078   4.260   0.383 -1.4091 -1.3231  1.6480
  927MPD2     N13570   0.071   4.013  17.692  0.1637  0.1908  0.5139
  927MPD2    H513571   0.011   3.950  17.640  0.5318 -1.7421  2.4213
  927MPD2    N113572   4.477   3.957   0.379 -0.1572  0.2690  0.3190
  927MPD2    H713573   4.461   3.999   0.470 -1.9761 -1.9274  1.0033
  928MPD2     C13574   1.783   2.708   0.587  0.4721  0.4693 -0.0843
  928MPD2    C113575   1.859   2.612   0.652  0.9390 -0.3162  0.7868
  928MPD2    C213576   1.945   2.528   0.583 -0.4190  0.0119 -0.0399
  928MPD2    C313577   1.950   2.527   0.445 -0.1509  0.0509 -0.2323
  928MPD2    C413578   1.874   2.619   0.378  0.5168 -0.1529  0.2619
  928MPD2    C513579   1.794   2.704   0.443 -0.2367  0.2029  1.0027
  928MPD2     H13580   1.995   2.449   0.637 -0.4349  1.2937  1.8457
  928MPD2    H113581   1.873   2.621   0.269  2.9816 -0.8603  0.2262
  928MPD2    H213582   1.724   2.785   0.635  2.1326  0.4601  1.9840
  928MPD2    H313583   1.751   2.789   0.391 -1.2729 -0.8131  0.1983
  928MPD2     N13584   2.041   2.450   0.376  0.1953  0.3560  0.3762
  928MPD2    H513585   2.029   2.451   0.275  0.3390 -1.0128  0.3425
  928MPD2    N113586   1.859   2.620   0.789 -0.1241 -0.2966 -0.0933
  928MPD2    H713587   1.833   2.713   0.822  0.9418  0.9097 -2.6288
  929MPD2     C13588   2.816   2.366   9.973 -0.2301 -1.0529  0.2075
  929MPD2    C113589   2.708   2.282   9.976 -0.2369 -0.2304  0.3095
  929MPD2    C213590   2.622   2.289   9.864 -1.1876  0.1166 -0.1535
  929MPD2    C313591   2.641   2.380   9.755  0.1598 -0.2810  0.4945
  929MPD2    C413592   2.754   2.458   9.758  0.2242  0.1388 -0.2237
  929MPD2    C513593   2.840   2.442   9.863  0.5271  0.4153 -0.1687
  929MPD2     H13594   2.550   2.209   9.853  0.8035 -1.6212 -0.4060
  929MPD2    H113595   2.779   2.526   9.677 -0.1915 -0.2749 -0.6986
  929MPD2    H213596   2.890   2.371  10.051 -1.6913  2.4453  1.3334
  929MPD2    H313597   2.919   2.513   9.883 -1.2636  2.1746  0.7206
  929MPD2     N13598   2.553   2.397   9.654  0.1543 -0.3391  0.0632
  929MPD2    H513599   2.576   2.446   9.568 -0.3131  2.2569  1.4035
  929MPD2    N113600   2.691   2.200  10.086  0.0308 -0.6149 -0.1960
  929MPD2    H713601   2.754   2.208  10.165  2.1518  1.4656 -2.1094
  930MPD2     C13602   3.966   0.013  13.822  0.5698 -0.7086  0.1655
  930MPD2    C113603   4.093   4.682  13.822  0.6239  0.7257  0.3918
  930MPD2    C213604   4.121   4.568  13.747  0.0011 -0.2931 -0.4664
  930MPD2    C313605   4.025   4.507  13.671 -0.8120 -0.7603 -0.1606
  930MPD2    C413606   3.899   4.552  13.681 -0.2310  0.4890  0.0734
  930MPD2    C513607   3.870   4.660  13.763  0.0339 -0.7773  0.1987
  930MPD2     H13608   4.224   4.540  13.727 -0.6201 -1.6049 -1.8677
  930MPD2    H113609   3.817   4.514  13.620  1.6405 -1.0259 -1.5147
  930MPD2    H213610   3.944   0.102  13.878  0.0345 -1.2302  0.7760
  930MPD2    H313611   3.767   4.693  13.767  0.3254  0.0458  0.7020
  930MPD2     N13612   4.054   4.416  13.573 -0.0856  0.3642 -0.2393
  930MPD2    H513613   3.981   4.385  13.509 -0.2313 -0.1873  0.1922
  930MPD2    N113614   4.196   0.029  13.888 -0.2166  0.0995  0.4577
  930MPD2    H713615   4.162   0.119  13.922 -0.1047  0.6008 -0.7661
  931MPD2     C13616   4.448   3.236   0.457  0.0923  0.4751 -0.2245
  931MPD2    C113617   4.352   3.290   0.534 -0.2533 -0.2685 -0.3783
  931MPD2    C213618   4.299   3.212   0.634  0.7104 -0.3652 -0.4258
  931MPD2    C313619   4.337   3.081   0.649  0.6257  0.6920 -0.0254
  931MPD2    C413620   4.436   3.026   0.569  0.2285  0.5287 -0.9210
  931MPD2    C513621   4.490   3.106   0.475 -0.5508 -0.1636 -0.0039
  931MPD2     H13622   4.214   3.253   0.687  0.5310  0.0925 -1.0642
  931MPD2    H113623   4.472   2.925   0.586  0.7308  0.9553  0.6159
  931MPD2    H213624   4.493   3.297   0.380 -4.4277  2.4001 -1.3444
  931MPD2    H313625   4.584   3.081   0.427 -0.6631  0.0755 -0.3415
  931MPD2     N13626   4.270   2.996   0.738 -0.4252 -0.2126  0.5673
  931MPD2    H513627   4.288   2.897   0.740  0.3962 -0.0510  0.8305
  931MPD2    N113628   4.308   3.423   0.506 -0.1628 -0.0623  0.1148
  931MPD2    H713629   4.355   3.483   0.439  1.2344 -0.0833  1.0751
  932MPD2     C13630   1.460   2.526  11.072  0.0390  0.0884  0.4611
  932MPD2    C113631   1.497   2.594  11.186 -0.3496 -0.5281  1.1550
  932MPD2    C213632   1.480   2.532  11.309 -0.4987  0.3185 -0.7439
  932MPD2    C313633   1.449   2.403  11.326  0.4666 -0.1614 -0.1291
  932MPD2    C413634   1.421   2.327  11.209 -0.4654 -0.0155  0.4162
  932MPD2    C513635   1.425   2.393  11.087 -0.3826 -0.0793  0.5924
  932MPD2     H13636   1.494   2.591  11.399  1.1385  1.0353 -1.4767
  932MPD2    H113637   1.399   2.221  11.215  0.8291 -0.2712  0.6406
  932MPD2    H213638   1.465   2.565  10.971  0.1021  0.6363  0.6753
  932MPD2    H313639   1.380   2.340  11.004 -0.5489 -0.0458  0.6594
  932MPD2     N13640   1.450   2.325  11.448  0.6456 -0.3260 -0.0914
  932MPD2    H513641   1.440   2.224  11.451 -1.9912 -0.1218 -2.3621
  932MPD2    N113642   1.551   2.728  11.187  0.3282 -0.4379 -0.1307
  932MPD2    H713643   1.553   2.772  11.278 -1.5445 -0.4720 -0.0767
  933MPD2     C13644   1.683   3.153   1.042 -0.3972  0.5124 -0.5987
  933MPD2    C113645   1.744   3.089   1.154  0.4434  0.0954  0.8387
  933MPD2    C213646   1.748   3.153   1.278 -0.2578 -0.8166  0.0389
  933MPD2    C313647   1.710   3.285   1.294  0.4363 -0.1385 -0.1837
  933MPD2    C413648   1.656   3.350   1.176  0.1341  0.0599 -0.0437
  933MPD2    C513649   1.638   3.281   1.059 -0.4789  0.4218  0.3598
  933MPD2     H13650   1.773   3.101   1.370 -0.2895 -1.1525 -0.1429
  933MPD2    H113651   1.605   3.445   1.176 -0.2689 -0.1568  0.9709
  933MPD2    H213652   1.670   3.104   0.946 -1.4398  1.2419 -0.8315
  933MPD2    H313653   1.599   3.344   0.979 -0.7636  1.1786  1.0890
  933MPD2     N13654   1.732   3.351   1.415  0.9426  0.1190 -0.0636
  933MPD2    H513655   1.784   3.307   1.490 -1.9071 -1.5404  0.8814
  933MPD2    N113656   1.793   2.957   1.132  0.4774 -0.2112 -0.2545
  933MPD2    H713657   1.773   2.926   1.038  1.9403  0.9161 -0.9400
  934MPD2     C13658   3.423   0.249   2.293 -0.2984 -0.4833  0.3179
  934MPD2    C113659   3.485   0.168   2.197  0.0274  0.3323  0.0751
  934MPD2    C213660   3.413   0.093   2.104 -0.3878 -0.0072  0.4162
  934MPD2    C313661   3.275   0.098   2.112  0.0170  0.2981  0.0443
  934MPD2    C413662   3.213   0.187   2.202 -0.2860 -0.4569 -0.2460
  934MPD2    C513663   3.286   0.254   2.289 -0.2910 -0.2585  0.2534
  934MPD2     H13664   3.463   0.032   2.030 -0.5174 -0.8144  1.0028
  934MPD2    H113665   3.106   0.206   2.196  0.1420  2.0328 -0.1499
  934MPD2    H213666   3.477   0.309   2.365  1.8921 -1.1579 -0.7621
  934MPD2    H313667   3.238   0.328   2.351  0.5253  1.3446 -1.0388
  934MPD2     N13668   3.185   0.019   2.037 -0.2291  0.6172  0.3914
  934MPD2    H513669   3.083   0.025   2.041 -0.0538  3.5079  0.8453
  934MPD2    N113670   3.625   0.150   2.191  0.2814 -0.3287 -0.5118
  934MPD2    H713671   3.667   0.102   2.113  1.6622 -0.0594  0.0547
  935MPD2     C13672   3.322   3.821   1.763  0.0661 -0.3981  0.3189
  935MPD2    C113673   3.268   3.876   1.652 -0.0311 -0.4595  0.1525
  935MPD2    C213674   3.201   3.995   1.669 -0.3130  0.0944 -0.9726
  935MPD2    C313675   3.192   4.055   1.794 -0.3179 -0.5106 -0.5172
  935MPD2    C413676   3.261   4.005   1.901  0.0023 -0.2643  0.8879
  935MPD2    C513677   3.335   3.888   1.884 -0.6343  0.3869 -0.7579
  935MPD2     H13678   3.150   4.042   1.586 -0.1184  1.3850 -0.3635
  935MPD2    H113679   3.249   4.046   2.001  1.7303  1.0133  0.5881
  935MPD2    H213680   3.366   3.722   1.761  0.4438 -0.1810 -1.7884
  935MPD2    H313681   3.396   3.850   1.965  0.6730  0.2501 -1.8170
  935MPD2     N13682   3.129   4.179   1.820 -0.4089  0.5932  0.8417
  935MPD2    H513683   3.138   4.222   1.911  0.2978  0.5466  0.7957
  935MPD2    N113684   3.271   3.813   1.521  0.1609  0.5023 -0.2105
  935MPD2    H713685   3.221   3.855   1.444 -1.8959 -2.5239 -0.5526
  936MPD2     C13686   2.481   1.636  11.854 -0.4027 -0.2721 -0.0727
  936MPD2    C113687   2.379   1.723  11.875  0.5061  0.5925  0.0160
  936MPD2    C213688   2.336   1.812  11.783  0.2550 -0.2244  0.4696
  936MPD2    C313689   2.402   1.832  11.665  0.8524 -0.0579  0.4123
  936MPD2    C413690   2.517   1.757  11.647  0.1778  0.8444  0.3570
  936MPD2    C513691   2.543   1.650  11.735 -0.2823 -0.3805 -0.2193
  936MPD2     H13692   2.251   1.879  11.795  0.0876 -0.0915 -1.4254
  936MPD2    H113693   2.567   1.760  11.551 -1.1979 -0.8259 -0.4145
  936MPD2    H213694   2.514   1.567  11.931  0.1206  0.6603  0.5304
  936MPD2    H313695   2.624   1.583  11.708 -0.1705 -0.8196  1.2214
  936MPD2     N13696   2.359   1.931  11.573 -0.3094 -0.1195  0.3708
  936MPD2    H513697   2.276   1.983  11.599 -0.7432 -0.1321 -1.0075
  936MPD2    N113698   2.322   1.738  12.002  0.4591  1.1379  0.1535
  936MPD2    H713699   2.289   1.834  12.006  0.6225  1.0594  3.1998
  937MPD2     C13700   4.656   2.628  11.340 -0.5931 -0.5334  0.1679
  937MPD2    C113701   4.721   2.743  11.366  0.1547 -0.0215  0.3735
  937MPD2    C213702   0.082   2.789  11.268  0.5824 -0.0456  0.6833
  937MPD2    C313703   0.129   2.715  11.158 -0.7930  0.5418  0.1396
  937MPD2    C413704   0.067   2.589  11.142 -0.3421  0.9300  0.2977
  937MPD2    C513705   4.700   2.554  11.231  0.2219  0.7412  0.2839
  937MPD2     H13706   0.127   2.886  11.286  0.4054  0.1087  0.2853
  937MPD2    H113707   0.097   2.528  11.058  1.2591 -1.5125  2.6279
  937MPD2    H213708   4.574   2.586  11.397 -0.4766 -4.6182 -2.7329
  937MPD2    H313709   4.645   2.462  11.218  0.2797  1.1110 -2.4792
  937MPD2     N13710   0.236   2.761  11.078  0.4232 -0.2113  0.0386
  937MPD2    H513711   0.277   2.850  11.106 -2.5407  0.4542  2.2632
  937MPD2    N113712   4.669   2.835  11.460 -0.1452 -0.0251  0.0917
  937MPD2    H713713   4.696   2.931  11.439  2.4414 -0.8516 -0.3366
  938MPD2     C13714   2.575   4.024   0.981  0.4228 -0.0355  0.2522
  938MPD2    C113715   2.568   4.085   1.107 -0.1966  0.0615 -0.2508
  938MPD2    C213716   2.548   4.000   1.221  0.2693 -0.5556  0.2161
  938MPD2    C313717   2.521   3.864   1.210 -0.0070  0.7821  0.0382
  938MPD2    C413718   2.520   3.810   1.084 -0.0702 -0.0060 -0.1037
  938MPD2    C513719   2.555   3.889   0.974 -0.3316  0.5553  0.4315
  938MPD2     H13720   2.552   4.045   1.319 -1.4338  1.7090 -0.7725
  938MPD2    H113721   2.501   3.705   1.063 -0.2935 -0.5304  2.7802
  938MPD2    H213722   2.592   4.085   0.892 -0.9509 -1.3994 -0.9435
  938MPD2    H313723   2.580   3.840   0.881  2.1430  1.7806  0.4441
  938MPD2     N13724   2.499   3.771   1.315 -0.0472 -0.5759 -0.1131
  938MPD2    H513725   2.505   3.670   1.304  0.1384 -0.4090 -1.4312
  938MPD2    N113726   2.584   4.230   1.127  0.5603  0.5172 -0.1285
  938MPD2    H713727   2.583   4.274   1.219  0.6886 -2.1950  1.1723
  939MPD2     C13728   3.954   0.652   1.211  0.5727  0.2047 -0.0105
  939MPD2    C113729   3.917   0.771   1.152  0.3779  0.3103  0.1626
  939MPD2    C213730   3.982   0.810   1.034 -0.1234 -0.1824  0.3139
  939MPD2    C313731   4.086   0.734   0.979 -0.1620  0.2400 -0.2902
  939MPD2    C413732   4.119   0.614   1.038  0.2503 -0.5206 -0.1154
  939MPD2    C513733   4.056   0.572   1.153 -0.6137 -0.1275  0.6073
  939MPD2     H13734   3.951   0.894   0.972 -2.4433 -1.1337  0.1836
  939MPD2    H113735   4.203   0.557   0.999 -1.1006 -1.8938 -1.0218
  939MPD2    H213736   3.908   0.618   1.303 -1.0327  0.1348 -0.8322
  939MPD2    H313737   4.089   0.495   1.222  0.6057  1.3735  1.7077
  939MPD2     N13738   4.142   0.779   0.858 -0.1726  0.2093  0.2257
  939MPD2    H513739   4.106   0.865   0.819  0.0049 -0.6019 -1.7595
  939MPD2    N113740   3.811   0.831   1.212 -0.2851 -0.2357  0.4454
  939MPD2    H713741   3.773   0.791   1.297  0.9719 -0.3499  0.9539
  940MPD2     C13742   3.246   1.361  13.369  0.1586 -0.4566 -0.4601
  940MPD2    C113743   3.166   1.311  13.263  1.0794  0.2919  0.2794
  940MPD2    C213744   3.230   1.275  13.142 -0.2211 -0.2534 -0.6381
  940MPD2    C313745   3.368   1.280  13.129  0.0722 -0.1759 -0.7607
  940MPD2    C413746   3.439   1.341  13.227 -0.7645 -0.5297 -0.4638
  940MPD2    C513747   3.380   1.386  13.345 -0.1419 -0.4325  0.2174
  940MPD2     H13748   3.169   1.235  13.062 -2.6249  0.1970  0.9757
  940MPD2    H113749   3.545   1.364  13.222 -0.6610 -0.9417 -0.1590
  940MPD2    H213750   3.210   1.390  13.467  0.0759  0.3352 -0.7226
  940MPD2    H313751   3.435   1.443  13.419  2.8955 -1.0311 -1.5937
  940MPD2     N13752   3.436   1.232  13.023  0.1988  0.9055  0.0003
  940MPD2    H513753   3.536   1.251  13.023 -0.1832  2.9028 -2.0117
  940MPD2    N113754   3.024   1.299  13.267  0.6637 -0.4700 -0.6487
  940MPD2    H713755   2.981   1.257  13.185 -0.6135  0.0829 -0.2659
  941MPD2     C13756   1.990   1.018   9.718 -0.0829 -0.2613 -0.4904
  941MPD2    C113757   2.102   0.939   9.714  0.1535  0.5130  0.0842
  941MPD2    C213758   2.124   0.851   9.817 -0.0650  0.0729  0.6562
  941MPD2    C313759   2.025   0.840   9.912  0.5845 -0.0775 -0.1999
  941MPD2    C413760   1.906   0.915   9.916  0.2704  0.4937  0.2245
  941MPD2    C513761   1.896   1.004   9.817 -0.5427 -0.0803 -0.8525
  941MPD2     H13762   2.214   0.792   9.821 -2.0104 -2.7105  3.4371
  941MPD2    H113763   1.828   0.907   9.991 -0.8899 -1.6398 -1.2057
  941MPD2    H213764   1.972   1.091   9.640  1.6906 -0.4157 -1.0434
  941MPD2    H313765   1.806   1.062   9.801 -1.2966 -1.0038  0.0830
  941MPD2     N13766   2.033   0.746  10.015 -0.9097 -1.0342 -0.3134
  941MPD2    H513767   1.948   0.737  10.071  0.2072  0.4515  1.6534
  941MPD2    N113768   2.201   0.952   9.616 -0.0031 -0.0245  0.1659
  941MPD2    H713769   2.293   0.913   9.631 -0.1767 -0.5140 -0.0263
  942MPD2     C13770   1.809   2.121   9.406 -0.1370  0.3291  0.7174
  942MPD2    C113771   1.892   2.164   9.302  0.8587  0.2386 -0.2282
  942MPD2    C213772   2.022   2.123   9.299 -0.7086 -0.7243 -0.5377
  942MPD2    C313773   2.077   2.072   9.421 -0.3880  0.7407 -0.8582
  942MPD2    C413774   1.998   2.048   9.532  0.3987  0.6681 -0.1893
  942MPD2    C513775   1.862   2.065   9.520  0.6744 -0.4473 -0.0668
  942MPD2     H13776   2.082   2.138   9.210  0.7218  1.4727  0.8072
  942MPD2    H113777   2.042   2.017   9.625 -2.9167  0.0718  1.1990
  942MPD2    H213778   1.703   2.140   9.411 -0.2246 -0.5755  2.1234
  942MPD2    H313779   1.795   2.031   9.598  1.5604 -0.7978  0.5393
  942MPD2     N13780   2.218   2.040   9.435 -0.7349  0.0655  0.0736
  942MPD2    H513781   2.256   2.012   9.525 -2.2753  3.4729  1.8191
  942MPD2    N113782   1.851   2.245   9.195  0.4782  0.0186  0.0021
  942MPD2    H713783   1.922   2.270   9.128  1.0336 -1.4470  0.0301
  943MPD2     C13784   1.791   0.150   9.598  0.0986  0.2047  0.5897
  943MPD2    C113785   1.685   0.228   9.627  0.5782  0.8603  0.3097
  943MPD2    C213786   1.647   0.330   9.540  0.0369  0.0880 -0.1189
  943MPD2    C313787   1.723   0.355   9.423 -0.6450 -0.5898 -0.9202
  943MPD2    C413788   1.841   0.286   9.410  0.1638  0.1206  0.1058
  943MPD2    C513789   1.874   0.179   9.492 -0.0838 -0.6635  0.1483
  943MPD2     H13790   1.562   0.394   9.563  0.2888  0.6340 -0.7154
  943MPD2    H113791   1.914   0.310   9.334 -0.0935  1.3033  0.2217
  943MPD2    H213792   1.817   0.071   9.666  2.5340  0.7709  0.3122
  943MPD2    H313793   1.961   0.116   9.478  1.9211  2.0224  0.6335
  943MPD2     N13794   1.704   0.468   9.347  0.4150 -0.3061  0.4341
  943MPD2    H513795   1.774   0.494   9.279 -0.0676  0.5636  0.2737
  943MPD2    N113796   1.616   0.206   9.751  0.2338 -0.0706  0.0573
  943MPD2    H713797   1.644   0.126   9.808  0.4056 -1.0631 -1.4313
  944MPD2     C13798   0.791   3.525  10.764 -0.1839 -0.2903 -0.6224
  944MPD2    C113799   0.918   3.563  10.820 -0.9033  0.3859  0.3996
  944MPD2    C213800   0.924   3.615  10.945 -0.2069  0.2596  0.3086
  944MPD2    C313801   0.818   3.637  11.029  0.1533  0.2648 -0.8924
  944MPD2    C413802   0.697   3.594  10.976  0.1478  0.1821  0.0802
  944MPD2    C513803   0.686   3.543  10.847  0.8671 -0.5017 -0.0226
  944MPD2     H13804   1.021   3.650  10.979 -1.0490  2.5418  0.3826
  944MPD2    H113805   0.609   3.621  11.033 -1.1356 -2.4079 -0.6996
  944MPD2    H213806   0.786   3.495  10.660  0.1459 -1.6141 -0.2539
  944MPD2    H313807   0.586   3.528  10.810  0.7562  0.9140 -0.2725
  944MPD2     N13808   0.822   3.711  11.156 -0.0978 -0.1541  0.0418
  944MPD2    H513809   0.911   3.737  11.198  0.0412 -0.2434 -0.2016
  944MPD2    N113810   1.035   3.569  10.751 -0.0551 -0.2240 -0.0973
  944MPD2    H713811   1.112   3.625  10.787  1.1674 -2.2136  0.4016
    1TCq1    O113812   2.630   4.488  15.204 -0.4452 -0.1514 -0.3735
    1TCq1    C113813   2.728   4.560  15.256 -0.0013  0.3298 -0.4970
    1TCq1    O213814   2.745   4.572  15.380  0.2272 -0.2696 -0.1469
    1TCq1    C213815   2.790   4.636  15.156 -0.0147 -0.0849  0.3497
    1TCq1    C313816   2.925   4.610  15.150 -0.7997  0.3860  0.1018
    1TCq1    C413817   2.996   4.665  15.048  0.2805 -0.3344  0.3687
    1TCq1    C513818   2.932   0.012  14.944 -0.4083  0.7039 -0.7293
    1TCq1    C613819   2.797   0.022  14.948  0.7442  0.5147  0.0900
    1TCq1    C713820   2.723   4.691  15.052 -0.3587 -0.2026  0.1688
    1TCq1    C813821   2.727   0.090  14.840  0.1037  0.5679  0.2449
    1TCq1    O413822   2.606   0.085  14.841 -0.0501  0.7389  0.4012
    1TCq1    C913823   3.141   4.659  15.052 -0.1722 -0.4437 -0.3556
    1TCq1    O513824   3.191   4.645  15.166 -0.1465  0.5842  0.6916
    1TCq1    O613825   3.192   4.709  14.952 -0.0054 -0.1720  0.1260
    1TCq1    H113826   2.642   4.471  15.108  2.1229 -1.1385  0.1324
    1TCq1    H213827   2.971   4.542  15.221 -1.6860 -0.5145 -0.1827
    1TCq1    H313828   2.990   0.052  14.862  1.3899  0.7589  0.5716
    1TCq1    H413829   2.614   4.693  15.045 -0.3248  0.3222 -0.1966
    2MPD2     C13830   2.697   0.461  14.484 -0.2534  0.2312  0.6632
    2MPD2    C113831   2.813   0.477  14.557  0.1161 -0.3074  0.3702
    2MPD2    C213832   2.848   0.384  14.649  0.1005  0.1601 -0.3734
    2MPD2    C313833   2.776   0.277  14.680 -1.1536 -0.4306  0.1462
    2MPD2    C413834   2.659   0.266  14.615  0.0171 -0.2040 -0.1995
    2MPD2    C513835   2.623   0.354  14.514 -0.3680 -0.3237 -0.5382
    2MPD2     H13836   2.933   0.393  14.715  0.2679 -2.3799 -0.2158
    2MPD2    H113837   2.581   0.191  14.620 -0.6732  0.4136 -1.9360
    2MPD2    H213838   2.660   0.522  14.403  0.0782 -0.1358  0.2365
    2MPD2    H313839   2.531   0.335  14.459 -0.4433 -0.6955 -0.2836
    2MPD2     N13840   2.802   0.191  14.792  0.3930  0.4055  0.1317
    2MPD2    H513841   2.885   0.226  14.839  1.6923 -3.0190  0.4109
    2MPD2    N113842   2.891   0.584  14.518  0.0747  0.2707 -0.4090
    2MPD2    H713843   2.850   0.657  14.461  1.4541  1.1227 -0.3222
    3TMC2    C113844   3.061   0.744  14.519 -0.0345  0.5337  0.0905
    3TMC2    C213845   3.090   0.835  14.614 -0.1568 -0.3569 -1.0038
    3TMC2    C313846   3.082   0.963  14.579 -0.5632  0.5198  0.0449
    3TMC2    C413847   3.025   0.778  14.393 -0.2863  0.1169 -0.7321
    3TMC2    C513848   3.034   0.909  14.356  0.6067  0.0851 -0.5237
    3TMC2    C613849   3.055   1.012  14.457 -0.7138  0.2010  0.2112
    3TMC2     C13850   3.016   0.617  14.569 -0.3857 -0.5266  0.3286
    3TMC2     O13851   3.068   0.562  14.663 -0.7333 -0.7853  0.0605
    3TMC2     H13852   3.112   0.799  14.714 -0.5785  0.8053 -0.4807
    3TMC2    H113853   3.009   0.696  14.324  0.9194  0.1076 -1.0032
    3TMC2    H213854   3.057   1.118  14.434  0.1424  0.1793  0.1885
    3TMC2    C713855   3.020   0.935  14.217 -0.0829  0.1711 -0.2044
    3TMC2    C813856   3.182   1.041  14.655 -0.3237 -0.8448  0.5926
    3TMC2    O113857   2.974   0.848  14.150  0.5414 -0.0985 -0.3891
    3TMC2    O213858   3.268   0.993  14.728  0.3251 -0.2514 -0.4864
    3TMC2    O513859   3.155   1.178  14.642  0.3524 -0.1584 -0.3325
    3TMC2    H513860   3.074   1.198  14.591 -0.1817 -1.0240  0.1753
    4MPD2     C13861   2.984   1.947  13.234  0.3785 -0.6730 -0.0435
    4MPD2    C113862   2.911   1.860  13.308  0.4786 -0.6333  0.1291
    4MPD2    C213863   2.965   1.831  13.433  0.1453  0.4128 -0.3524
    4MPD2    C313864   3.079   1.892  13.482 -0.1544 -0.1077 -0.0635
    4MPD2    C413865   3.129   1.996  13.416  0.7257  0.3387  0.1566
    4MPD2    C513866   3.078   2.023  13.294 -1.1834 -0.1660 -0.3221
    4MPD2     H13867   2.931   1.744  13.488  2.5962 -1.8825 -2.4581
    4MPD2    H113868   3.199   2.063  13.463  1.5687  1.0263 -2.0891
    4MPD2    H213869   2.955   1.973  13.133  0.2516 -1.7778 -0.2844
    4MPD2    H313870   3.121   2.105  13.237  1.3027 -1.1857  0.0877
    4MPD2     N13871   3.126   1.840  13.608  0.4763 -0.6729 -0.8117
    4MPD2    H513872   3.106   1.743  13.628  1.1992 -0.2666  1.8341
    4MPD2    N113873   2.802   1.789  13.251 -0.0817  0.4176 -0.2102
    4MPD2    H713874   2.749   1.831  13.175  0.9711  0.5580 -0.8752
    5TCq2    C113875   3.212   1.906  13.695 -0.5291  0.2980 -0.1341
    5TCq2    O213876   3.256   2.019  13.684 -0.4296  0.4426 -0.1450
    5TCq2    C213877   3.241   1.830  13.812 -0.7059  0.2368 -0.2705
    5TCq2    C313878   3.335   1.886  13.889 -0.8786 -0.9535 -0.0884
    5TCq2    C413879   3.362   1.835  14.016 -0.4348  0.3279 -0.1888
    5TCq2    C513880   3.302   1.719  14.053 -0.1869  0.7753 -0.2749
    5TCq2    C613881   3.200   1.670  13.975 -0.6338 -0.2551 -0.8126
    5TCq2    C713882   3.159   1.729  13.860 -0.6840 -0.0784 -1.0476
    5TCq2    C813883   3.131   1.546  14.014  0.5871 -0.1088  1.3802
    5TCq2    O413884   3.114   1.525  14.135 -0.2484 -0.9293 -0.0211
    5TCq2    C913885   3.449   1.905  14.108  0.4067 -0.0412  0.1906
    5TCq2    O513886   3.529   1.988  14.065  0.2783  0.2177  0.0662
    5TCq2    O613887   3.431   1.871  14.227  0.2152 -0.6085  0.1589
    5TCq2    H213888   3.402   1.965  13.857  0.8904 -1.7174  1.7523
    5TCq2    H313889   3.326   1.670  14.147  1.0168  0.8802 -0.5332
    5TCq2    H413890   3.063   1.702  13.818 -0.9689 -0.1177 -0.3852
    6MPD1     C13891   2.481   2.881  12.199 -0.3938  0.0497 -0.2114
    6MPD1    C113892   2.499   2.881  12.334 -0.3937 -0.5251 -0.5600
    6MPD1    C213893   2.430   2.780  12.405  0.0410 -0.2778 -0.7341
    6MPD1    C313894   2.345   2.689  12.338 -0.3125 -0.0293  0.2218
    6MPD1    C413895   2.333   2.693  12.201 -0.2169 -0.0150  0.0426
    6MPD1    C513896   2.399   2.790  12.129  0.5598  0.6763 -0.3093
    6MPD1     H13897   2.425   2.777  12.513 -1.5401  0.8330 -0.7775
    6MPD1    H113898   2.269   2.619  12.153 -0.9629  0.8516 -0.2865
    6MPD1    H213899   2.528   2.957  12.138  1.1630 -0.1166  0.7824
    6MPD1    H313900   2.376   2.807  12.024  0.4614  0.0909 -0.3792
    6MPD1     N13901   2.266   2.590  12.407 -0.8064 -0.1158  0.1708
    6MPD1    H513902   2.206   2.538  12.344 -1.0142 -1.9286  1.8665
    6MPD1    N113903   2.592   2.959  12.397  0.7413  1.1009 -0.3354
    6MPD1    H613904   2.605   3.048  12.350  3.0615  0.5084 -0.8224
    6MPD1    H713905   2.561   2.975  12.493 -2.3329 -1.0805 -0.9642
    7MPD2     C13906   2.135   2.252  13.181 -0.1035  0.1402 -0.6707
    7MPD2    C113907   2.153   2.162  13.076 -0.5384  0.2842  0.8786
    7MPD2    C213908   2.210   2.034  13.098  0.1653 -0.2613 -0.8064
    7MPD2    C313909   2.240   1.993  13.221  0.2932  0.2944 -0.3988
    7MPD2    C413910   2.223   2.083  13.331  0.0763  0.5222 -0.5224
    7MPD2    C513911   2.173   2.212  13.310  0.5201  0.6152  0.5024
    7MPD2     H13912   2.242   1.983  13.008  0.9446 -1.2163  0.0133
    7MPD2    H113913   2.226   2.043  13.432 -1.5401  0.8398 -0.3532
    7MPD2    H213914   2.086   2.347  13.165 -0.0323 -0.1271 -2.5786
    7MPD2    H313915   2.172   2.276  13.397  2.8363  2.2505 -0.6787
    7MPD2     N13916   2.305   1.878  13.251  0.0616  0.5329  0.4677
    7MPD2    H513917   2.332   1.865  13.348  0.3898 -0.4032  0.2522
    7MPD2    N113918   2.121   2.186  12.943 -0.3669 -0.3871  0.5157
    7MPD2    H713919   2.120   2.107  12.879  1.7983 -2.5269  3.1484
    8TMC3    C113920   2.384   1.663  13.196 -0.3225 -0.6638 -0.8016
    8TMC3    C213921   2.494   1.694  13.278  0.1196 -0.6026  0.2252
    8TMC3    C313922   2.617   1.643  13.238  0.8247 -0.9394  0.2533
    8TMC3    C413923   2.406   1.578  13.088  0.2414  0.3767 -0.1926
    8TMC3    C513924   2.531   1.549  13.052 -0.4414 -0.1971  0.4052
    8TMC3    C613925   2.642   1.575  13.120 -0.6007 -0.3908 -0.1693
    8TMC3     C13926   2.305   1.772  13.161 -0.1791 -0.0293 -0.3862
    8TMC3     O13927   2.260   1.766  13.050  0.3661  0.6641 -0.6439
    8TMC3     H13928   2.472   1.759  13.362 -0.2104 -0.5397  0.0914
    8TMC3    H113929   2.315   1.543  13.040  1.8405  0.6945 -3.4177
    8TMC3    H213930   2.743   1.543  13.095 -1.1392 -1.8921 -0.4234
    8TMC3    C713931   2.544   1.557  12.910 -0.7531  0.0817  0.0245
    8TMC3    C813932   2.732   1.687  13.303 -0.0750 -0.6332  0.0099
    8TMC3    O113933   2.650   1.520  12.866 -0.8179  0.4576 -0.2261
    8TMC3    O213934   2.751   1.620  13.408  0.1022 -0.3016  0.6081
    9TMC3    C113935   2.207   2.435  12.579 -0.0554  0.7732 -0.0988
    9TMC3    C213936   2.216   2.320  12.499  0.0275  0.2263  0.2007
    9TMC3    C313937   2.184   2.197  12.546 -0.1367  0.2617 -0.2672
    9TMC3    C413938   2.155   2.434  12.705  0.7409 -0.3572  0.4729
    9TMC3    C513939   2.121   2.313  12.751  0.3869 -0.4551 -0.6602
    9TMC3    C613940   2.130   2.194  12.677  0.4720  0.6275 -0.1469
    9TMC3     C13941   2.273   2.559  12.539  0.2213 -0.2362 -0.7271
    9TMC3     O13942   2.311   2.628  12.633  0.2039  0.1842 -0.5104
    9TMC3     H13943   2.270   2.333  12.405  1.4604 -0.1900  0.9709
    9TMC3    H113944   2.146   2.528  12.758  1.2759  0.3895 -0.7563
    9TMC3    H213945   2.082   2.106  12.719  0.4604 -0.0205 -1.5358
    9TMC3    C713946   2.097   2.310  12.890  0.7135  0.6322 -0.2349
    9TMC3    C813947   2.262   2.083  12.500  0.6566 -0.1982 -0.6096
    9TMC3    O113948   2.081   2.422  12.939 -0.6856 -0.1572  0.0630
    9TMC3    O213949   2.289   2.074  12.380  0.6078  0.0683  0.5648
   10MPD2     C13950   2.531   1.666  12.637 -0.6419  0.5027 -0.6954
   10MPD2    C113951   2.455   1.711  12.739  0.2565  0.7544 -0.4045
   10MPD2    C213952   2.371   1.823  12.731 -0.4587  0.5841  0.4021
   10MPD2    C313953   2.371   1.890  12.609 -0.4181  0.4143  0.0933
   10MPD2    C413954   2.429   1.828  12.496  0.2228 -1.1691  0.2170
   10MPD2    C513955   2.513   1.719  12.513  0.0648  0.6784 -0.0592
   10MPD2     H13956   2.329   1.871  12.819 -0.5136 -0.9702  1.2212
   10MPD2    H113957   2.414   1.870  12.397 -2.0642  1.1256  1.5107
   10MPD2    H213958   2.600   1.582  12.643 -0.8489  0.3337 -0.6703
   10MPD2    H313959   2.578   1.682  12.435  0.1557 -2.7363  1.6496
   10MPD2     N13960   2.305   2.013  12.608  0.4646 -0.2692 -0.0126
   10MPD2    H513961   2.262   2.038  12.697 -2.7088  0.1789 -1.6747
   10MPD2    N113962   2.462   1.654  12.867 -0.2386  0.0937 -0.3107
   10MPD2    H713963   2.412   1.702  12.941 -2.4108 -0.3508 -1.4947
   11MPD2     C13964   2.988   1.047  13.942  0.6931  0.4818 -0.1519
   11MPD2    C113965   3.023   1.118  14.057  0.4997 -0.6266 -0.7143
   11MPD2    C213966   3.048   1.254  14.045  0.1671 -0.6191  0.0745
   11MPD2    C313967   3.042   1.330  13.931 -0.1362 -0.7876 -0.3000
   11MPD2    C413968   2.998   1.258  13.822 -0.5570 -0.1134  0.1014
   11MPD2    C513969   2.972   1.124  13.836 -0.4212 -0.2681  0.2119
   11MPD2     H13970   3.090   1.296  14.136  0.1342  0.8046 -0.5757
   11MPD2    H113971   2.992   1.302  13.723 -0.3605  1.9988  1.0298
   11MPD2    H213972   2.961   0.943  13.934 -1.2108  0.9566  0.2147
   11MPD2    H313973   2.950   1.070  13.745  3.0502 -1.3577  0.0343
   11MPD2     N13974   3.086   1.461  13.912  0.0885 -0.5719 -0.1393
   11MPD2    H513975   3.098   1.492  13.816 -0.4291 -2.1886 -0.7156
   11MPD2    N113976   3.041   1.066  14.188  0.1528 -0.0873 -0.9378
   11MPD2    H713977   3.077   1.130  14.258 -1.8269  1.8224 -1.6562
    1MPD1     C13978   1.213   2.317   0.560  0.0467 -0.1992  0.0786
    1MPD1    C113979   1.090   2.372   0.550  0.9238  0.3223  0.5374
    1MPD1    C213980   1.043   2.422   0.429  0.3162 -0.8788  0.8035
    1MPD1    C313981   1.110   2.386   0.316 -0.2144 -0.5404  0.1727
    1MPD1    C413982   1.226   2.311   0.322  0.3042  0.0606 -0.2730
    1MPD1    C513983   1.271   2.273   0.446 -0.8617 -0.3918 -0.0786
    1MPD1     H13984   0.956   2.487   0.424  1.5260  0.7712  0.9635
    1MPD1    H113985   1.278   2.276   0.233  0.1413 -2.3899  0.5814
    1MPD1    H213986   1.245   2.281   0.657  0.7592  0.7862  0.2072
    1MPD1    H313987   1.365   2.220   0.460 -1.5763 -1.1937  1.5625
    1MPD1     N13988   1.079   2.427   0.187  0.3241  0.8103  0.2219
    1MPD1    H513989   1.132   2.377   0.116  0.5507 -0.2045  1.1269
    1MPD1    N113990   1.010   2.388   0.665  0.1242 -0.0016  0.0339
    1MPD1    H613991   0.999   2.489   0.668 -2.2466 -0.2524 -0.7238
    1MPD1    H713992   1.067   2.383   0.749 -1.0089 -1.9547  0.6659
    2MPD1     C13993   1.676   2.399  17.296 -0.8024  0.3242  0.4874
    2MPD1    C113994   1.651   2.379  17.429  0.3947 -0.0582  0.7554
    2MPD1    C213995   1.523   2.403  17.487  0.2673 -0.0718 -0.5540
    2MPD1    C313996   1.428   2.462  17.412  0.1546 -0.6440  0.6746
    2MPD1    C413997   1.458   2.492  17.285 -0.0912  0.2091 -0.9941
    2MPD1    C513998   1.584   2.471  17.231 -0.4821 -0.7007 -0.0381
    2MPD1     H13999   1.500   2.373  17.589  2.0099  1.7541  0.3835
    2MPD1    H114000   1.381   2.541  17.227 -3.4067 -0.8162  2.5780
    2MPD1    H214001   1.771   2.396  17.245  0.3428  1.6900  2.5583
    2MPD1    H314002   1.609   2.502  17.130  0.3935 -0.0536  0.3838
    2MPD1     N14003   1.302   2.494  17.470  0.2328 -0.0025 -0.3497
    2MPD1    H514004   1.304   2.476  17.570 -0.4074  0.3535 -0.2722
    2MPD1    N114005   1.749   2.312  17.504 -0.0684  0.4386 -0.2943
    2MPD1    H614006   1.842   2.321  17.464 -0.5630 -0.5970 -1.6670
    2MPD1    H714007   1.753   2.348  17.600 -1.5909  0.2496 -0.1583
    3TMC3    C114008   1.080   2.571  17.503  0.1423  0.1366 -0.8474
    3TMC3    C214009   0.961   2.608  17.454  0.5161  0.6256 -0.0249
    3TMC3    C314010   0.847   2.615  17.539 -0.4483 -0.4002  0.2757
    3TMC3    C414011   1.088   2.545  17.634  0.5551 -0.5084 -0.3398
    3TMC3    C514012   0.981   2.554   0.024  0.4173 -0.9831  0.6500
    3TMC3    C614013   0.856   2.586  17.674  0.2391  0.3145 -0.0505
    3TMC3     C14014   1.191   2.552  17.414  0.5878  0.5588  0.0416
    3TMC3     O14015   1.179   2.611  17.309 -0.4217 -0.5091 -0.3592
    3TMC3     H14016   0.951   2.629  17.348  1.3414 -2.6829 -0.7559
    3TMC3    H114017   1.181   2.527  17.688 -0.6137 -0.0969  1.8161
    3TMC3    H214018   0.775   2.589   0.053  0.5925 -1.0969  0.3982
    3TMC3    C714019   0.990   2.527   0.164 -0.1068 -0.0530 -0.1829
    3TMC3    C814020   0.708   2.639  17.504  0.1303 -0.1435 -0.1652
    3TMC3    O114021   0.909   2.589   0.229  0.3226  0.0542  0.1408
    3TMC3    O214022   0.629   2.635  17.598 -0.2066 -0.0547 -0.0200
    4MPD1     C14023   0.402   2.941  17.223  0.1571  0.6492  0.2272
    4MPD1    C114024   0.502   2.893  17.141 -0.1946  0.8127  0.2035
    4MPD1    C214025   0.596   2.811  17.190 -0.3519  0.0551  0.8734
    4MPD1    C314026   0.597   2.770  17.323  0.7670 -0.8356  0.0431
    4MPD1    C414027   0.485   2.813  17.404  0.6597  0.0916 -0.3809
    4MPD1    C514028   0.388   2.892  17.351  0.0933 -0.2019  0.1872
    4MPD1     H14029   0.669   2.778  17.117  0.1507  1.4177  0.7481
    4MPD1    H114030   0.500   2.802  17.511 -0.0301  1.2267 -0.1714
    4MPD1    H214031   0.316   2.995  17.184  1.3573  1.8350 -0.7849
    4MPD1    H314032   0.310   2.928  17.418  0.8523  1.9626 -0.1187
    4MPD1     N14033   0.703   2.693  17.377  0.0837 -0.2461  0.0426
    4MPD1    H514034   0.781   2.690  17.312 -0.2583 -3.1710 -0.2353
    4MPD1    N114035   0.492   2.908  17.003  0.0537  0.0836  0.2548
    4MPD1    H614036   0.418   2.972  16.975  3.5378  3.2427 -1.8224
    4MPD1    H714037   0.582   2.934  16.962 -0.2663  1.4194  0.4182
    1TCq1    O114038   2.558   1.983  11.954  0.3207 -0.1476 -0.5029
    1TCq1    C114039   2.622   2.017  12.067  0.5313 -0.1604  0.2000
    1TCq1    O214040   2.579   2.061  12.171  0.0292 -0.3239  0.0796
    1TCq1    C214041   2.754   1.939  12.058 -0.4146  0.5565  0.8446
    1TCq1    C314042   2.858   1.989  12.138  0.2476  1.1165 -0.1079
    1TCq1    C414043   2.923   1.891  12.214  0.0040 -0.1586 -0.1483
    1TCq1    C514044   2.927   1.760  12.172 -0.3880  0.2961  0.1659
    1TCq1    C614045   2.844   1.719  12.075  0.5854  0.3033  0.1519
    1TCq1    C714046   2.751   1.802  12.027  0.4998  0.6483  0.8850
    1TCq1    C814047   2.828   1.581  12.037  0.6284  0.4981 -0.3108
    1TCq1    O414048   2.751   1.557  11.947  0.3021 -0.6149 -0.5152
    1TCq1    C914049   3.041   1.931  12.287 -0.3614  0.3679  0.6493
    1TCq1    O514050   3.072   2.053  12.280  0.4426 -0.7009 -0.4302
    1TCq1    O614051   3.096   1.850  12.362 -0.4795  0.1112  0.4334
    1TCq1    H114052   2.622   1.950  11.887  2.0704 -1.9948  2.1013
    1TCq1    H214053   2.857   2.086  12.187 -1.5434  1.1459 -0.1906
    1TCq1    H314054   3.007   1.695  12.205 -0.1276 -0.6157 -2.2603
    1TCq1    H414055   2.657   1.766  11.986 -0.0757  2.9867  0.1592
    2MPD1     C14056   2.962   1.090  12.058  0.3717 -0.0347  0.9759
    2MPD1    C114057   3.034   1.153  12.158  0.4201 -0.4848 -0.3252
    2MPD1    C214058   3.007   1.291  12.177 -0.7111 -0.0237  0.1691
    2MPD1    C314059   2.913   1.357  12.102 -0.1851 -0.3400 -0.2612
    2MPD1    C414060   2.846   1.293  12.003  0.3659 -0.5959 -0.2091
    2MPD1    C514061   2.874   1.165  11.988  0.4295  0.3127  0.7794
    2MPD1     H14062   3.052   1.342  12.262  2.7958  1.1418 -2.3704
    2MPD1    H114063   2.768   1.336  11.941 -1.3693 -1.0849  1.6257
    2MPD1    H214064   2.968   0.984  12.038  3.7441  0.3145  0.1057
    2MPD1    H314065   2.812   1.119  11.912  1.6302  1.3884 -0.8556
    2MPD1     N14066   2.896   1.493  12.123 -0.2454  0.3052  0.2617
    2MPD1    H514067   2.939   1.526  12.209  0.3601  0.6745 -0.1814
    2MPD1    N114068   3.104   1.064  12.245 -0.3646  0.0909  0.2065
    2MPD1    H614069   3.169   1.125  12.295 -1.3349  2.3850 -1.3459
    2MPD1    H714070   3.148   0.977  12.214 -2.9892 -1.2504  0.2086
    1TCq1    O114071   2.068   1.393   1.347  0.5116 -0.2763 -0.2340
    1TCq1    C114072   2.089   1.370   1.218 -0.1486  0.1112  0.0566
    1TCq1    O214073   2.027   1.430   1.130 -0.7203 -0.1734 -0.3511
    1TCq1    C214074   2.235   1.345   1.211 -0.2700 -0.0618  0.5244
    1TCq1    C314075   2.316   1.439   1.155  0.5663  0.0401 -0.5146
    1TCq1    C414076   2.453   1.434   1.178  0.0934 -0.1953  0.0436
    1TCq1    C514077   2.504   1.339   1.262 -0.0918  0.7939  0.6244
    1TCq1    C614078   2.418   1.247   1.311 -0.0802 -0.6532 -0.6351
    1TCq1    C714079   2.287   1.252   1.296  0.0723  0.1707 -0.0913
    1TCq1    C814080   2.480   1.139   1.392 -0.1148  0.2920  0.2924
    1TCq1    O414081   2.407   1.068   1.455 -0.1337 -0.0804 -0.1808
    1TCq1    C914082   2.523   1.561   1.164 -0.2338  0.0506  0.3914
    1TCq1    O514083   2.465   1.652   1.106  0.0008 -0.0190 -0.2472
    1TCq1    O614084   2.639   1.564   1.221 -0.2389 -0.1211 -0.8121
    1TCq1    H114085   2.142   1.369   1.406 -0.6275  0.2321  1.3996
    1TCq1    H214086   2.274   1.532   1.118  1.0579  0.3451 -0.3025
    1TCq1    H314087   2.605   1.355   1.298  0.9878 -1.1986 -1.4597
    1TCq1    H414088   2.231   1.171   1.340  0.7821 -0.0891  0.3333
    2MPD1     C14089   2.881   0.895   1.570 -0.5300  0.3516 -0.2840
    2MPD1    C114090   2.922   0.955   1.456  0.4377 -0.0074 -0.1309
    2MPD1    C214091   2.827   1.023   1.385  0.4133  0.5127  0.3490
    2MPD1    C314092   2.700   1.051   1.444  0.5919 -0.1755 -1.0480
    2MPD1    C414093   2.664   0.993   1.561 -0.1733 -0.2259 -0.3948
    2MPD1    C514094   2.753   0.917   1.618 -0.4487 -0.3837  0.3508
    2MPD1     H14095   2.841   1.058   1.284 -0.1550 -0.3362 -0.0219
    2MPD1    H114096   2.569   1.011   1.610 -0.2822  2.8362 -1.7415
    2MPD1    H214097   2.949   0.842   1.636 -0.8349  1.1330  0.6553
    2MPD1    H314098   2.722   0.870   1.710  0.2932 -1.8352 -0.1465
    2MPD1     N14099   2.609   1.125   1.361 -0.0606 -0.4418 -0.4416
    2MPD1    H514100   2.644   1.155   1.271 -0.3435  0.4180 -0.2672
    2MPD1    N114101   3.049   0.932   1.400  0.5644 -0.3802  0.3025
    2MPD1    H614102   3.123   0.926   1.470 -0.8245 -1.6645  1.6632
    2MPD1    H714103   3.069   1.011   1.338 -1.6604 -0.4243 -0.4500
    1MPD1     C14104   3.498   2.349  12.210  0.1684 -0.0941  0.8811
    1MPD1    C114105   3.411   2.453  12.184 -0.1256 -0.0600 -0.3040
    1MPD1    C214106   3.463   2.567  12.133  0.3954  0.2222 -0.2402
    1MPD1    C314107   3.589   2.575  12.094  0.5482  0.0910 -0.8387
    1MPD1    C414108   3.681   2.478  12.127  0.7261 -0.5364  0.5366
    1MPD1    C514109   3.633   2.358  12.180 -0.3462  0.1015 -0.1625
    1MPD1     H14110   3.398   2.651  12.115 -1.0819 -0.5329  1.6261
    1MPD1    H114111   3.787   2.478  12.105  0.7553  0.5949  0.6814
    1MPD1    H214112   3.464   2.255  12.252  1.8584  0.3979  3.3619
    1MPD1    H314113   3.709   2.281  12.188 -0.1588  0.3820  0.7554
    1MPD1     N14114   3.626   2.705  12.046 -0.2656  0.0299 -0.0898
    1MPD1    H514115   3.560   2.783  12.051 -0.7695 -0.2261 -3.1886
    1MPD1    N114116   3.275   2.447  12.217 -0.4179 -0.0773  0.5939
    1MPD1    H614117   3.239   2.353  12.201 -1.1901  0.4774 -0.8886
    1MPD1    H714118   3.209   2.515  12.180 -0.3152 -0.0728  0.4179
    2MPD1     C14119   2.931   3.337  11.413 -0.3061 -0.3076 -0.1973
    2MPD1    C114120   2.879   3.278  11.302  0.2547  0.0805  0.0977
    2MPD1    C214121   2.955   3.177  11.242 -0.1767 -0.7808  0.0846
    2MPD1    C314122   3.062   3.116  11.314  0.7627  0.7082  0.5574
    2MPD1    C414123   3.092   3.162  11.439 -0.2846  0.4759 -0.5541
    2MPD1    C514124   3.038   3.279  11.490 -0.4405  0.9594  0.2538
    2MPD1     H14125   2.923   3.147  11.142 -0.7811  2.0750 -0.5661
    2MPD1    H114126   3.177   3.129  11.498 -0.8057 -0.3059 -0.2401
    2MPD1    H214127   2.894   3.435  11.439  1.8509  0.7709 -1.2139
    2MPD1    H314128   3.078   3.335  11.574 -1.6319  1.8271  0.2435
    2MPD1     N14129   3.133   3.003  11.265  0.3215 -0.0367  0.2555
    2MPD1    H514130   3.217   2.981  11.317  0.8327  0.5948 -0.2990
    2MPD1    N114131   2.792   3.356  11.222  0.3474  0.4934 -0.0980
    2MPD1    H614132   2.743   3.298  11.153  1.9348 -2.4198  1.2468
    2MPD1    H714133   2.727   3.399  11.288 -0.7922 -0.7794 -0.3931
    3MPD1     C14134   2.809   2.276  10.689 -0.2473 -0.1349  0.0199
    3MPD1    C114135   2.758   2.381  10.766  0.5740  0.7853  0.0756
    3MPD1    C214136   2.844   2.467  10.836 -0.6213 -0.1370 -0.2406
    3MPD1    C314137   2.979   2.443  10.827  0.4256 -0.2527  0.0159
    3MPD1    C414138   3.027   2.338  10.758 -0.3407 -0.3568 -0.8732
    3MPD1    C514139   2.947   2.257  10.692 -0.3640 -0.1124  0.0040
    3MPD1     H14140   2.808   2.550  10.896 -0.6301 -0.4889  0.2483
    3MPD1    H114141   3.131   2.312  10.766 -0.4330 -1.0248 -1.9096
    3MPD1    H214142   2.743   2.217  10.627  0.4191  0.0544 -0.8589
    3MPD1    H314143   2.982   2.168  10.641  0.4929  0.3534 -0.2126
    3MPD1     N14144   3.065   2.539  10.889 -0.0774  0.6077  0.4402
    3MPD1    H514145   3.012   2.613  10.934 -0.5811 -0.6573  1.9620
    3MPD1    N114146   2.623   2.418  10.740 -0.0408 -0.6617  0.1312
    3MPD1    H614147   2.578   2.452  10.824 -1.3087  0.8180 -1.1325
    3MPD1    H714148   2.569   2.334  10.718  0.5392 -0.9658 -0.1472
    4MPD2     C14149   3.509   3.177  11.507 -0.5035  0.0852 -0.5069
    4MPD2    C114150   3.616   3.240  11.563  0.6243  0.2569  0.5185
    4MPD2    C214151   3.709   3.312  11.490  0.5559 -0.3639  0.4110
    4MPD2    C314152   3.696   3.326  11.355 -0.0679 -0.4391  0.2571
    4MPD2    C414153   3.586   3.264  11.289 -0.0064  0.1386  0.1876
    4MPD2    C514154   3.505   3.187  11.367  0.6402 -1.1936  0.0756
    4MPD2     H14155   3.786   3.367  11.543  1.0016  0.9972 -1.6470
    4MPD2    H114156   3.574   3.278  11.182 -0.0134  0.7625  0.2680
    4MPD2    H214157   3.445   3.107  11.559  0.0278 -0.3947 -0.4990
    4MPD2    H314158   3.429   3.124  11.323 -2.3361  2.7684 -0.4774
    4MPD2     N14159   3.787   3.396  11.272  0.1294  0.8142  0.3407
    4MPD2    H514160   3.789   3.371  11.174  1.8496  0.2448  0.5156
    4MPD2    N114161   3.661   3.206  11.691  0.3437  0.1697  0.0606
    4MPD2    H714162   3.759   3.223  11.711 -0.4388  2.9072  1.6213
    5TMC3    C114163   3.687   3.089  11.880 -0.1461  0.0786  0.5664
    5TMC3    C214164   3.660   2.967  11.937  0.1828 -0.5891  0.3064
    5TMC3    C314165   3.762   2.872  11.943  0.7612 -0.5758  0.7332
    5TMC3    C414166   3.810   3.135  11.859 -0.1992  0.4532 -0.2031
    5TMC3    C514167   3.904   3.039  11.854  0.3349  0.7260 -1.0042
    5TMC3    C614168   3.885   2.905  11.892  0.0587 -0.3180  0.1467
    5TMC3     C14169   3.595   3.125  11.781 -0.1269 -0.2957  0.4977
    5TMC3     O14170   3.482   3.078  11.784  0.0756  0.7628  0.0550
    5TMC3     H14171   3.557   2.947  11.967 -0.0626  0.4635  0.1823
    5TMC3    H114172   3.840   3.237  11.837  2.1665 -0.1483  0.1751
    5TMC3    H214173   3.976   2.850  11.913  1.7236  2.8035  1.1832
    5TMC3    C714174   4.006   3.069  11.759  0.1530 -0.6816 -0.7342
    5TMC3    C814175   3.745   2.735  11.989  0.2283 -0.1453 -0.0140
    5TMC3    O114176   4.008   3.178  11.706 -0.0246 -0.1343  0.3278
    5TMC3    O214177   3.839   2.664  11.966  0.2486 -0.1126 -0.0770
    6TMC3    C114178   3.187   2.830  11.126 -0.4476 -1.0169  0.2080
    6TMC3    C214179   3.143   2.734  11.051  0.1769 -0.3111  0.2084
    6TMC3    C314180   3.241   2.651  10.990 -0.3070  0.1468  0.1363
    6TMC3    C414181   3.324   2.853  11.140  0.2005  0.3025 -0.0540
    6TMC3    C514182   3.419   2.776  11.074 -0.9045  0.0221  0.1349
    6TMC3    C614183   3.373   2.676  10.995 -0.6751 -0.1290 -0.2957
    6TMC3     C14184   3.090   2.929  11.160  0.6722 -0.2238  0.0630
    6TMC3     O14185   2.996   2.938  11.086  0.2791 -0.1734 -0.0811
    6TMC3     H14186   3.038   2.710  11.065  0.0440  0.9888  1.4017
    6TMC3    H114187   3.360   2.931  11.205 -3.9865  2.0723  0.1255
    6TMC3    H214188   3.437   2.611  10.937 -1.2334 -1.4593  0.5709
    6TMC3    C714189   3.547   2.833  11.056  0.0477 -0.2090 -0.4981
    6TMC3    C814190   3.198   2.528  10.919 -0.8125 -0.1312 -0.1351
    6TMC3    O114191   3.547   2.956  11.080 -0.3274  0.4231 -0.3515
    6TMC3    O214192   3.281   2.435  10.902  0.3574 -0.3056  0.3196
    7MPD2     C14193   4.277   2.902  11.374 -0.5631  0.2230  0.5300
    7MPD2    C114194   4.252   3.030  11.415  0.7214 -0.3169  0.2249
    7MPD2    C214195   4.182   3.039  11.529  0.3641  0.3492  0.4339
    7MPD2    C314196   4.137   2.935  11.604  0.6710  0.6470 -0.1346
    7MPD2    C414197   4.181   2.809  11.566  0.1297 -0.4681  0.2463
    7MPD2    C514198   4.252   2.796  11.455 -0.5000  0.1911  0.6827
    7MPD2     H14199   4.157   3.142  11.550 -0.8123 -0.0784  1.1240
    7MPD2    H114200   4.171   2.719  11.625  1.3985 -1.5946 -1.2903
    7MPD2    H214201   4.323   2.887  11.277 -1.1464 -0.3673  0.3435
    7MPD2    H314202   4.279   2.702  11.409 -4.8377 -0.2857 -0.9152
    7MPD2     N14203   4.054   2.948  11.714 -0.1945 -0.0768  0.2159
    7MPD2    H514204   4.030   2.858  11.755 -1.4107 -0.2711 -0.9488
    7MPD2    N114205   4.277   3.142  11.332 -0.4737 -0.1538  0.5200
    7MPD2    H714206   4.307   3.127  11.236  2.5480 -1.2396  1.6391
    8TMC3    C114207   4.194   3.349  11.243  0.1611 -0.5446 -0.4121
    8TMC3    C214208   4.168   3.277  11.134 -0.2072 -0.4462 -0.4171
    8TMC3    C314209   4.050   3.306  11.068 -0.3172  0.0271 -0.0502
    8TMC3    C414210   4.112   3.454  11.291 -0.5810  0.2365 -0.5214
    8TMC3    C514211   4.001   3.478  11.215  0.0748  0.0689  0.3971
    8TMC3    C614212   3.983   3.413  11.106  0.1795 -0.3236 -0.2879
    8TMC3     C14213   4.234   3.268  11.362  0.5397  0.3016  0.4198
    8TMC3     O14214   4.237   3.329  11.466 -0.0019 -0.1290  0.2078
    8TMC3     H14215   4.246   3.221  11.086 -0.4439  0.0651 -1.4049
    8TMC3    H114216   4.126   3.495  11.391 -1.4145 -0.9206  0.0701
    8TMC3    H214217   3.900   3.444  11.044  0.3828  2.1267  0.6574
    8TMC3    C714218   3.894   3.467  11.320  0.2932  0.2739 -0.3907
    8TMC3    C814219   3.958   3.191  11.051 -0.0100  0.5581 -0.2748
    8TMC3    O114220   3.914   3.510  11.434  0.0317  0.0800 -0.2024
    8TMC3    O214221   3.841   3.217  11.049 -0.1298 -0.4006  0.2960
    9MPD2     C14222   4.046   2.830  11.101 -0.2260 -0.2985 -0.1945
    9MPD2    C114223   3.963   2.934  11.066 -0.2416 -0.1168  0.1155
    9MPD2    C214224   3.832   2.912  11.054  0.5114  0.1164 -0.1873
    9MPD2    C314225   3.786   2.785  11.045  0.0927 -0.2370  0.6452
    9MPD2    C414226   3.865   2.677  11.051 -0.3608  0.2073 -0.4106
    9MPD2    C514227   3.995   2.700  11.089  0.1939  0.3464 -1.0543
    9MPD2     H14228   3.767   2.999  11.062  0.3735  0.0936 -0.9742
    9MPD2    H114229   3.829   2.574  11.049  1.4554 -0.4493  0.7413
    9MPD2    H214230   4.152   2.854  11.109 -0.2222 -1.0181  1.8287
    9MPD2    H314231   4.054   2.611  11.106 -1.3593 -0.4252  0.3661
    9MPD2     N14232   3.650   2.749  11.038 -0.7646  0.0667 -0.3253
    9MPD2    H514233   3.634   2.649  11.045 -0.2430 -0.0212 -0.4349
    9MPD2    N114234   4.016   3.069  11.074  0.3594 -0.4646 -0.5403
    9MPD2    H714235   4.117   3.074  11.084  0.2532 -0.5331  0.5615
    1MPD1     C14236   4.632   1.667  16.491  0.1682  0.1194 -1.4193
    1MPD1    C114237   4.547   1.712  16.400 -0.8439  0.1030 -0.6835
    1MPD1    C214238   4.447   1.795  16.444 -0.3620  0.2035  0.3427
    1MPD1    C314239   4.429   1.825  16.574 -0.2631 -0.4706  0.2791
    1MPD1    C414240   4.519   1.777  16.669 -0.0727 -0.1432 -0.0655
    1MPD1    C514241   4.619   1.703  16.626 -0.3308  0.3746  0.5130
    1MPD1     H14242   4.378   1.823  16.365 -0.6001  1.2237  0.9167
    1MPD1    H114243   4.512   1.814  16.771 -1.2470 -2.5952  0.7493
    1MPD1    H214244   4.706   1.592  16.462  2.0121  0.8646  1.3545
    1MPD1    H314245   4.693   1.677  16.702  1.6360 -0.3011 -1.6403
    1MPD1     N14246   4.322   1.902  16.616 -0.2028  0.5609 -0.1998
    1MPD1    H514247   4.324   1.924  16.715 -0.5221 -0.6298  0.0813
    1MPD1    N114248   4.559   1.683  16.261  0.7466  0.2360  0.0195
    1MPD1    H614249   4.543   1.585  16.237  0.5145  0.4731 -0.7839
    1MPD1    H714250   4.480   1.733  16.221  1.0281  0.0714 -0.7455
    2MPD1     C14251   3.354   1.647  16.496 -0.4728 -0.0244  0.1687
    2MPD1    C114252   3.436   1.712  16.405  0.0960  0.0662 -0.9530
    2MPD1    C214253   3.561   1.759  16.437 -0.2560 -0.3831 -0.4641
    2MPD1    C314254   3.607   1.746  16.565  0.0884 -0.0218 -0.3473
    2MPD1    C414255   3.533   1.668  16.651  0.4687 -0.5196 -0.0662
    2MPD1    C514256   3.403   1.626  16.623  0.0564  0.7962  0.1276
    2MPD1     H14257   3.622   1.815  16.367  0.2789 -1.2627 -0.6998
    2MPD1    H114258   3.563   1.632  16.749  0.0229 -2.0560 -0.4775
    2MPD1    H214259   3.254   1.609  16.479  0.2977 -1.6992 -0.6006
    2MPD1    H314260   3.351   1.566  16.698  1.9922 -1.1708 -0.0835
    2MPD1     N14261   3.732   1.813  16.606 -0.1045  0.1271  0.0167
    2MPD1    H514262   3.778   1.874  16.539  1.0856  0.0352  0.7545
    2MPD1    N114263   3.388   1.726  16.273  0.0009 -0.4858 -0.5899
    2MPD1    H614264   3.455   1.789  16.228 -1.8681  0.3995 -2.1252
    2MPD1    H714265   3.292   1.758  16.264 -0.1123 -0.6774 -0.0605
    3TCq2    C114266   3.777   1.822  16.735 -0.1792 -0.6574  0.3170
    3TCq2    O214267   3.723   1.794  16.839  0.2158 -0.0315  0.0892
    3TCq2    C214268   3.899   1.896  16.735  0.3285  0.1179  0.5875
    3TCq2    C314269   3.938   1.952  16.854  0.1248 -0.1115 -0.0626
    3TCq2    C414270   4.055   2.023  16.850  0.1187 -0.4993 -0.0960
    3TCq2    C514271   4.136   2.034  16.744  0.3899 -0.2446 -0.4803
    3TCq2    C614272   4.098   1.962  16.634  0.0157  0.6147 -0.8620
    3TCq2    C714273   3.986   1.885  16.629 -0.1550 -0.1158 -0.7578
    3TCq2    C814274   4.203   1.921  16.545 -0.0887  0.0807  0.0490
    3TCq2    O414275   4.167   1.888  16.436 -0.1248 -0.0839 -0.1855
    3TCq2    C914276   4.089   2.113  16.965 -0.4692  0.4482  0.1812
    3TCq2    O514277   4.199   2.172  16.965  0.1656  0.1375  0.3188
    3TCq2    O614278   4.002   2.135  17.053 -0.0256  0.6304 -0.0989
    3TCq2    H214279   3.874   1.960  16.942  2.0230 -2.1245  1.4762
    3TCq2    H314280   4.226   2.094  16.740 -0.1445  0.7743  2.9887
    3TCq2    H414281   3.960   1.829  16.539  0.5614 -1.3139 -0.2135
    1TCq1    O114282   0.998   0.741  12.398 -0.1528 -0.0812 -0.0781
    1TCq1    C114283   1.133   0.725  12.408  0.0929 -1.0158  0.5270
    1TCq1    O214284   1.215   0.725  12.317  0.2052 -0.0969  0.0576
    1TCq1    C214285   1.172   0.743  12.548 -0.4844 -0.0553  0.5471
    1TCq1    C314286   1.091   0.698  12.644 -0.4899  0.1634  0.4235
    1TCq1    C414287   1.134   0.687  12.778 -0.4908 -0.0273  0.2596
    1TCq1    C514288   1.263   0.725  12.817 -0.5930  0.1720  0.0072
    1TCq1    C614289   1.342   0.762  12.709  0.1221  0.3874  0.5401
    1TCq1    C714290   1.294   0.782  12.578  0.4132  0.1741  0.1187
    1TCq1    C814291   1.471   0.817  12.733 -0.2227  0.3591  0.3801
    1TCq1    O414292   1.491   0.921  12.677  0.2596 -0.2986  0.0938
    1TCq1    C914293   1.047   0.614  12.871 -0.4295 -0.5902 -0.6219
    1TCq1    O514294   0.976   0.520  12.835 -0.7953 -0.3455 -0.3162
    1TCq1    O614295   1.059   0.627  12.995 -0.4098  0.0419 -0.6773
    1TCq1    H114296   0.957   0.764  12.484 -2.6822 -0.3715 -1.2322
    1TCq1    H214297   0.997   0.649  12.620 -0.3371  0.6280 -1.0792
    1TCq1    H314298   1.303   0.725  12.918 -0.1411  2.6790 -0.1493
    1TCq1    H414299   1.360   0.817  12.500 -0.6072  0.5677 -0.5782
    2MPD2     C14300   1.708   0.941  12.865  0.0422  0.2657  0.0819
    2MPD2    C114301   1.671   0.808  12.889  0.6355 -0.2548  0.6565
    2MPD2    C214302   1.758   0.727  12.964 -0.0845 -0.1315  0.5930
    2MPD2    C314303   1.890   0.765  12.993  0.9446  0.6168 -0.1667
    2MPD2    C414304   1.912   0.908  12.980  0.0713 -0.8186 -0.1875
    2MPD2    C514305   1.824   0.993  12.917  0.6767 -0.2512  0.1968
    2MPD2     H14306   1.738   0.620  12.968  0.0574 -0.1696  0.3069
    2MPD2    H114307   2.005   0.960  13.002 -0.5772  1.2022 -2.1900
    2MPD2    H214308   1.643   1.009  12.811 -1.6568 -2.3317 -1.1241
    2MPD2    H314309   1.840   1.100  12.913  0.0459 -0.0867  2.2331
    2MPD2     N14310   1.986   0.675  13.046  0.3531 -0.0542 -0.3082
    2MPD2    H514311   1.961   0.578  13.029 -2.6849  0.5748  0.6001
    2MPD2    N114312   1.550   0.754  12.828 -0.0146  0.0957  0.1465
    2MPD2    H714313   1.536   0.657  12.852 -0.4194 -0.1485 -1.1064
    3TCq1    O114314   2.326   0.629  13.524 -0.1169 -0.3835 -0.0298
    3TCq1    C114315   2.339   0.507  13.469  0.3416 -0.0947  0.2843
    3TCq1    O214316   2.341   0.404  13.533 -0.2356 -0.8139  0.2456
    3TCq1    C214317   2.309   0.514  13.325 -0.2560  0.4897  0.2209
    3TCq1    C314318   2.321   0.401  13.244 -0.1187  0.2442 -0.3908
    3TCq1    C414319   2.263   0.386  13.123  0.0734  0.5989  0.3575
    3TCq1    C514320   2.180   0.488  13.089  0.2020  0.4581  0.5122
    3TCq1    C614321   2.178   0.607  13.159  0.5436  0.0726  0.4391
    3TCq1    C714322   2.230   0.620  13.283  0.1858 -0.7790  0.2825
    3TCq1    C814323   2.099   0.719  13.113 -0.9010 -0.4541 -0.0325
    3TCq1    O414324   2.127   0.823  13.169 -0.2490  0.3604 -0.3620
    3TCq1    C914325   2.269   0.257  13.049  0.9671  0.3826 -0.4376
    3TCq1    O514326   2.364   0.181  13.066 -0.0643  0.1766  0.2827
    3TCq1    O614327   2.194   0.245  12.948 -0.4659  0.4932 -0.1635
    3TCq1    H114328   2.314   0.712  13.472  0.1404 -0.4233 -0.1557
    3TCq1    H214329   2.372   0.318  13.292 -2.6469 -1.3994 -0.5246
    3TCq1    H314330   2.129   0.481  12.994 -0.7507  1.1619  0.9844
    3TCq1    H414331   2.208   0.708  13.342  0.3059 -0.4971 -0.0840
    1MPD2     C14332   1.546   1.896  14.944  0.0074 -0.1943  0.3847
    1MPD2    C114333   1.654   1.826  14.997 -0.2759 -0.1750  0.1965
    1MPD2    C214334   1.775   1.887  14.985  0.3089 -1.1438 -0.7439
    1MPD2    C314335   1.789   2.019  14.936 -0.5252  0.2112  0.1489
    1MPD2    C414336   1.678   2.090  14.901  0.4279  0.2147 -0.2843
    1MPD2    C514337   1.557   2.021  14.896  0.4741 -0.1311  0.0344
    1MPD2     H14338   1.867   1.837  15.013  0.9238 -1.1830 -2.7939
    1MPD2    H114339   1.677   2.188  14.853  2.9625  1.5819  2.4233
    1MPD2    H214340   1.448   1.851  14.933 -0.6854  0.5799  3.1547
    1MPD2    H314341   1.466   2.074  14.871  0.0457 -0.9362 -0.1212
    1MPD2     N14342   1.919   2.069  14.931  0.0871  1.1188  0.3555
    1MPD2    H514343   1.981   1.999  14.970  1.3270  1.5490 -0.8423
    1MPD2    N114344   1.630   1.698  15.049  0.2748  0.0742  0.4284
    1MPD2    H714345   1.532   1.675  15.064  0.0199 -0.8669 -2.5097
    2TMC3    C114346   1.686   1.481  15.145  0.5327  0.3010 -0.3379
    2TMC3    C214347   1.791   1.429  15.205  0.3110 -0.3608  0.0135
    2TMC3    C314348   1.851   1.315  15.159 -1.3640 -0.0131 -0.9670
    2TMC3    C414349   1.626   1.411  15.043  0.4284  0.2500  0.3329
    2TMC3    C514350   1.677   1.285  15.005 -0.3080 -0.0381 -0.2033
    2TMC3    C614351   1.792   1.237  15.062 -0.0294  0.3426 -0.1693
    2TMC3     C14352   1.727   1.618  15.107 -0.0938  0.2948  0.1511
    2TMC3     O14353   1.846   1.641  15.126  0.5270 -0.0195  0.0811
    2TMC3     H14354   1.844   1.481  15.284 -0.9406 -1.1849  1.4046
    2TMC3    H114355   1.536   1.438  14.988  1.7315  1.3449 -1.2341
    2TMC3    H214356   1.834   1.142  15.033  0.7202 -0.3610  3.2889
    2TMC3    C714357   1.646   1.213  14.878 -0.4751  0.4363 -0.5697
    2TMC3    C814358   1.996   1.317  15.139 -0.1695 -0.0406 -0.3617
    2TMC3    O114359   1.729   1.138  14.831  0.6056 -0.0517 -0.0547
    2TMC3    O214360   2.053   1.215  15.109 -0.4647 -0.2439 -0.1873
    3TCq1    O114361   0.568   1.084  14.265 -0.8838  0.4700  0.0804
    3TCq1    C114362   0.604   1.207  14.298 -0.5485  0.2621 -0.5341
    3TCq1    O214363   0.541   1.311  14.297 -0.6835  1.1657  0.6299
    3TCq1    C214364   0.691   1.194  14.413 -0.7007  0.9611  0.1526
    3TCq1    C314365   0.640   1.243  14.529 -0.4867  0.0854 -0.4397
    3TCq1    C414366   0.725   1.253  14.637 -0.6351  0.3709  0.2684
    3TCq1    C514367   0.848   1.189  14.624 -0.1709  0.3594  0.1714
    3TCq1    C614368   0.896   1.148  14.501  0.0807 -0.8991 -0.3876
    3TCq1    C714369   0.817   1.148  14.390 -0.9737 -0.2858  0.9215
    3TCq1    C814370   1.031   1.101  14.486 -0.3917  0.5475 -0.0235
    3TCq1    O414371   1.061   1.028  14.389 -0.3045 -0.7401 -0.0730
    3TCq1    C914372   0.686   1.313  14.764  0.2691 -0.2501 -0.0726
    3TCq1    O514373   0.572   1.355  14.758  0.0199 -0.9237  0.3377
    3TCq1    O614374   0.767   1.335  14.853  0.3906  0.4762 -0.2679
    3TCq1    H114375   0.637   1.018  14.288  0.2566  2.1662  1.5256
    3TCq1    H214376   0.543   1.291  14.523 -0.5333 -0.1259 -1.3697
    3TCq1    H314377   0.912   1.197  14.711 -0.3363  0.6482  0.2644
    3TCq1    H414378   0.856   1.141  14.290 -0.6802 -0.1094  1.0242
    4MPD2     C14379   1.292   0.989  14.559 -0.0558  0.2968  0.4366
    4MPD2    C114380   1.234   1.096  14.617 -0.5865 -0.4266 -0.9744
    4MPD2    C214381   1.304   1.173  14.713  0.2068 -0.5102 -0.1814
    4MPD2    C314382   1.436   1.141  14.746  0.7559  0.1579  0.0313
    4MPD2    C414383   1.497   1.034  14.679 -0.4643  0.0097 -0.5293
    4MPD2    C514384   1.421   0.957  14.590  0.1531  0.3984 -0.4536
    4MPD2     H14385   1.261   1.267  14.746 -0.3410 -1.1522  0.9090
    4MPD2    H114386   1.600   1.016  14.704 -0.6706 -0.1100  0.2282
    4MPD2    H214387   1.251   0.929  14.479  0.9922 -0.6959  0.6396
    4MPD2    H314388   1.479   0.883  14.537  1.0202 -0.6479  1.9392
    4MPD2     N14389   1.511   1.227  14.836 -0.0757  0.4710  0.4207
    4MPD2    H514390   1.460   1.295  14.890 -0.0812  0.0841  0.8970
    4MPD2    N114391   1.104   1.145  14.587 -0.0717  0.4074 -0.0392
    4MPD2    H714392   1.069   1.211  14.656 -1.9979 -0.5607 -0.0681
    5TMC2    C114393   2.257   2.035  14.989 -0.0550 -0.1034  0.4569
    5TMC2    C214394   2.285   2.130  15.083  0.0037  0.2747 -0.1446
    5TMC2    C314395   2.228   2.249  15.070  0.1578 -0.2341  0.5262
    5TMC2    C414396   2.168   2.065  14.889  0.2581 -0.2008  1.3133
    5TMC2    C514397   2.105   2.189  14.875 -0.1410 -0.0343  0.6744
    5TMC2    C614398   2.138   2.281  14.967 -0.1362  0.4428 -0.1719
    5TMC2     C14399   2.221   1.911  15.048  0.4786 -0.2974 -0.2369
    5TMC2     O14400   2.098   1.902  15.041  0.1652  0.4869 -0.2560
    5TMC2     H14401   2.333   2.095  15.174 -0.9502 -0.6205  0.0293
    5TMC2    H114402   2.121   1.994  14.822  0.0630  0.5567  0.6446
    5TMC2    H214403   2.101   2.383  14.965 -0.4675  0.3018 -1.7796
    5TMC2    C714404   1.963   2.174  14.856  0.2873  0.6199 -0.3506
    5TMC2    C814405   2.236   2.339  15.182  0.2470  0.4220 -0.2236
    5TMC2    O114406   1.902   2.246  14.784 -0.2024  0.2589 -0.4698
    5TMC2    O214407   2.148   2.410  15.227  0.0956 -0.3092  0.5449
    5TMC2    O514408   2.366   2.371  15.201 -0.6384 -0.3037  0.0053
    5TMC2    H514409   2.422   2.308  15.151  0.3798 -0.0982  0.8660
    6MPD2     C14410   2.280   1.412  15.133 -1.0026 -0.0195 -0.3451
    6MPD2    C114411   2.172   1.488  15.117 -0.7826 -0.7123 -0.1495
    6MPD2    C214412   2.181   1.620  15.091 -0.0455 -0.1291 -0.2700
    6MPD2    C314413   2.301   1.685  15.082  0.6720  0.5240 -0.1858
    6MPD2    C414414   2.417   1.610  15.093  0.8804 -0.1462  0.0119
    6MPD2    C514415   2.404   1.475  15.113  0.1885  0.3205 -0.3627
    6MPD2     H14416   2.085   1.671  15.085  0.5658  1.1477  1.0316
    6MPD2    H114417   2.518   1.649  15.088  0.5566  0.7393  0.4329
    6MPD2    H214418   2.283   1.306  15.155  0.0925 -0.2550 -1.6304
    6MPD2    H314419   2.494   1.414  15.115 -0.6550 -0.9179 -0.3683
    6MPD2     N14420   2.324   1.828  15.060 -0.0484  0.4159 -0.1459
    6MPD2    H514421   2.416   1.863  15.037  0.1602  0.7735  1.2241
    6MPD2    N114422   2.040   1.444  15.134  0.1777  0.2917 -0.0429
    6MPD2    H714423   1.969   1.514  15.153 -0.2860 -0.1836 -0.0097
  945NH4     N114424   1.633   2.014  17.550  0.4709 -0.1041  0.2406
  945NH4     H214425   1.532   2.002  17.573  0.7771  0.4139  1.8438
  945NH4     H314426   1.667   1.963  17.466 -0.2764  1.3392 -0.9265
  945NH4     H414427   1.690   1.987  17.632  1.0040 -0.1930 -0.1597
  945NH4     H514428   1.652   2.112  17.523 -2.6514 -0.0040 -1.6392
  946SOD     NA14429   4.048   0.880   2.748  0.3227 -0.2263 -0.4915
  947SOD     NA14430   3.772   3.417   3.594  0.7373  0.1060 -0.1288
  948SOD     NA14431   3.826   2.172  17.181  0.1300 -0.0966 -0.4136
  949SOD     NA14432   1.277   1.765   8.178 -0.0924  0.4343  0.4026
  950SOD     NA14433   4.361   1.260   0.816  0.0754  0.2240  0.3480
  951SOD     NA14434   4.065   1.256   0.616  0.3579 -0.3241  0.2205
  952SOD     NA14435   0.460   1.526  14.691 -0.6620  0.0418 -0.0977
  953SOD     NA14436   0.903   0.657  13.138  0.2281  0.2069 -0.0586
  954SOD     NA14437   4.205   3.818  14.778 -0.1502  0.4623 -0.2411
  955SOD     NA14438   2.420   0.115   2.721  0.4526 -0.1634  0.0507
  956SOD     NA14439   0.982   0.389  13.016  0.3198 -0.2166  0.0434
  957SOD     NA14440   2.461   0.282  12.665  0.0363 -0.2852  0.1183
  958SOD     NA14441   1.101   4.721  15.236 -0.2456  0.1225 -0.5790
  959SOD     NA14442   2.702   2.582  10.543  0.0530 -0.4838 -0.8062
  960SOD     NA14443   3.388   4.702  15.077 -0.2122 -0.2071 -0.1137
  961SOD     NA14444   4.013   0.768  11.531 -0.3178  0.2923 -0.1494
  962SOD     NA14445   2.293   1.059   8.814 -0.0696  0.4803  0.0041
  963SOD     NA14446   1.244   1.000  16.938  0.4885  0.2032  0.4924
  964SOD     NA14447   1.204   1.948  11.516 -0.0942  0.2860 -0.1028
  965SOD     NA14448   3.289   4.183  12.620 -0.6111 -0.2725  0.0107
  966SOD     NA14449   0.203   0.371  10.811 -0.6261  0.2004 -0.2252
  967SOD     NA14450   0.474   0.139  10.813 -0.2161 -0.0814 -0.0300
  968SOD     NA14451   1.896   0.203  10.650  0.2254  0.4910  0.2497
  969SOD     NA14452   1.178   0.118  10.452  0.1653 -0.0336 -0.0335
  970SOD     NA14453   4.344   1.391  14.420  0.0819  0.4021  0.5611
  971SOD     NA14454   4.521   4.198   1.929  0.6724  0.2229 -0.1376
  972SOD     NA14455   4.102   2.704  14.167  0.3800  0.0129 -0.3325
  973SOD     NA14456   1.700   0.420  10.592  0.3947  0.3533 -0.1317
  974SOD     NA14457   2.728   0.740   0.663 -0.0925  0.1002 -0.2337
  975SOD     NA14458   2.168   2.938  10.616 -0.1388 -0.4310  0.0262
  976SOD     NA14459   2.087   4.513  12.658  0.3736  0.1363  0.8938
  977SOD     NA14460   3.239   0.179  14.824  0.2811  0.1443  0.1013
  978SOD     NA14461   1.940   1.245  12.231 -0.0189  0.0439  0.1685
  979SOD     NA14462   0.928   3.266  15.853 -0.0288  0.0877 -0.2748
  980SOD     NA14463   3.002   1.523  14.846 -0.3985  0.8080 -0.1804
  981SOD     NA14464   2.375   2.685  16.574  0.0753 -0.0879  0.0680
  982SOD     NA14465   0.777   3.728   0.850 -0.2328 -0.0614 -0.0735
  983SOD     NA14466   2.326   0.330   0.843 -0.2849 -0.7078  0.3755
  984SOD     NA14467   2.207   2.976   4.522 -0.6090  0.1170  0.1935
  985SOD     NA14468   2.397   0.061  12.231 -0.4886  0.3603  0.0031
  986SOD     NA14469   1.980   2.611  16.933 -0.3805  0.1314 -0.4676
  987SOD     NA14470   1.127   3.794   3.723  0.0996 -0.1863  0.1419
  988SOD     NA14471   1.502   3.048  10.102 -0.2319 -0.1814 -0.1140
  989SOD     NA14472   0.969   4.460   9.121  0.3590 -0.2690 -0.2067
  990SOD     NA14473   1.648   0.672  10.434 -0.1017  0.0638 -0.3986
  991SOD     NA14474   1.353   0.413  10.509  0.1477 -0.3904  0.0933
  992SOD     NA14475   1.832   2.269  14.575  0.2891  0.3896  0.8431
  993SOD     NA14476   2.515   3.860  13.703 -0.4966  0.1903 -0.3839
  994SOD     NA14477   1.737   0.930  12.277 -0.4927 -0.0238 -0.1563
  995SOD     NA14478   3.839   1.427   2.089 -0.5335  0.2937 -0.6318
  996SOD     NA14479   1.565   0.557  13.438  0.5550 -0.5350 -0.1881
  997SOD     NA14480   3.629   3.069   3.336 -0.1808 -0.1177  0.8754
  998SOD     NA14481   0.681   4.709  10.603  0.0119 -0.3379 -0.2884
  999SOD     NA14482   3.209   1.659  13.026 -0.0100  0.2620 -0.0209
 1000SOD     NA14483   1.824   0.684  10.671 -0.0920 -0.2451 -0.0910
 1001SOD     NA14484   0.391   1.257  14.818  0.1044 -0.0242  0.4563
 1002SOD     NA14485   1.430   1.954   2.583  0.2582  0.3070 -0.0261
 1003SOD     NA14486   3.807   3.290   1.308  0.4054  0.2396 -0.3167
 1004SOD     NA14487   0.190   3.320  13.602 -0.5610  0.0536 -0.3957
 1005SOD     NA14488   3.395   1.497  16.250 -0.0870  0.1971  0.3637
 1006SOD     NA14489   2.726   2.734  12.428 -0.2257 -0.6344 -0.0763
 1007SOD     NA14490   1.909   0.887   2.642  0.1247 -0.5007  0.0351
 1008SOD     NA14491   0.920   2.432   8.358 -0.2717  0.0938  0.2663
 1009SOD     NA14492   3.604   1.822  10.969  0.3272 -0.6403 -0.0013
 1010SOD     NA14493   0.195   1.215   7.605 -0.2977  0.1447  0.2803
 1011SOL     OW14494   2.371   1.327   2.344 -0.4822  0.4086  1.0996
 1011SOL    HW114495   2.391   1.395   2.408  1.1763 -0.5815  1.6462
 1011SOL    HW214496   2.355   1.377   2.264 -0.3851  1.2280  1.5930
 1012SOL     OW14497   2.904   2.837   6.528  0.3416 -0.1594  0.0874
 1012SOL    HW114498   2.935   2.811   6.615  1.2009  2.0594  0.4538
 1012SOL    HW214499   2.947   2.922   6.517 -0.2222 -0.0535 -1.3741
 1013SOL     OW14500   3.502   0.179   3.360  0.2241  0.0975 -0.4105
 1013SOL    HW114501   3.496   0.096   3.314  1.9166 -0.0490 -0.3595
 1013SOL    HW214502   3.438   0.227   3.307 -0.8462 -0.3563  0.4783
 1014SOL     OW14503   2.119   3.350  13.598 -0.2226 -0.1647  0.3347
 1014SOL    HW114504   2.138   3.439  13.567 -1.6247 -1.1651 -3.3722
 1014SOL    HW214505   2.028   3.373  13.619 -0.4532  0.8566 -1.7732
 1015SOL     OW14506   3.047   4.318   1.140 -0.0106 -0.3326  0.7125
 1015SOL    HW114507   2.993   4.392   1.109 -0.2605 -0.5843  0.5460
 1015SOL    HW214508   3.134   4.354   1.122 -0.4690 -0.4747 -1.8606
 1016SOL     OW14509   0.787   0.772   9.458 -0.1463  0.6549 -0.1260
 1016SOL    HW114510   0.789   0.858   9.500  0.6679 -0.2382  1.6379
 1016SOL    HW214511   0.783   0.785   9.363 -1.3593 -1.5767 -0.3829
 1017SOL     OW14512   4.580   3.311  12.149 -0.0929 -0.2804 -0.7481
 1017SOL    HW114513   4.572   3.391  12.098 -1.5675  0.2633  0.3558
 1017SOL    HW214514   4.609   3.250  12.081  1.8030  0.1901 -0.3799
 1018SOL     OW14515   3.415   0.275  16.649 -0.6773 -0.4129 -0.5617
 1018SOL    HW114516   3.399   0.248  16.559 -0.9259 -0.9714 -0.3513
 1018SOL    HW214517   3.377   0.363  16.652 -0.1750 -0.1682 -1.4784
 1019SOL     OW14518   4.703   3.482   2.280  0.4555  0.2942 -0.1866
 1019SOL    HW114519   4.625   3.440   2.317  0.4554  0.5787  0.1334
 1019SOL    HW214520   0.036   3.405   2.269  0.4376  0.3412 -0.6167
 1020SOL     OW14521   4.666   4.262   8.166 -0.1140  0.3256 -0.1929
 1020SOL    HW114522   4.593   4.312   8.130  0.7272  3.1164  1.9794
 1020SOL    HW214523   4.653   4.177   8.124  1.3064  0.8255 -1.6598
 1021SOL     OW14524   0.598   1.526   6.226  0.1562  0.1290 -0.2790
 1021SOL    HW114525   0.561   1.605   6.187  0.9295  1.2366  1.1942
 1021SOL    HW214526   0.574   1.555   6.314 -1.2331 -1.8439 -0.0239
 1022SOL     OW14527   2.789   2.359  12.029  0.2894  0.0994 -0.4018
 1022SOL    HW114528   2.766   2.447  12.000  3.0255  0.6179 -0.9724
 1022SOL    HW214529   2.789   2.308  11.947  2.3535 -1.0791  0.3413
 1023SOL     OW14530   4.533   4.208   3.018  0.4985 -0.3245  0.3793
 1023SOL    HW114531   4.458   4.242   3.067  0.5629  1.3736 -0.7097
 1023SOL    HW214532   4.601   4.264   3.055 -1.5698  0.9939  2.1457
 1024SOL     OW14533   3.247   3.735   8.151  0.4129  0.0089 -0.2679
 1024SOL    HW114534   3.260   3.671   8.081  0.7943 -0.3404  0.1251
 1024SOL    HW214535   3.247   3.676   8.226 -0.2220 -0.4571 -0.6291
 1025SOL     OW14536   3.886   0.959  10.471 -0.2431 -0.3575 -0.1419
 1025SOL    HW114537   3.876   1.025  10.539  0.3181 -1.3292  0.8860
 1025SOL    HW214538   3.922   1.005  10.395 -0.3077 -1.1051 -0.6306
 1026SOL     OW14539   1.133   2.071   6.325  0.0050  0.0785  0.2740
 1026SOL    HW114540   1.047   2.112   6.332  0.3780  0.8845  0.0307
 1026SOL    HW214541   1.105   1.986   6.290 -1.0261  0.5468 -0.0488
 1027SOL     OW14542   3.515   2.843  13.688  0.0391  0.3959 -0.0468
 1027SOL    HW114543   3.543   2.840  13.780 -0.2596  2.0428  0.0974
 1027SOL    HW214544   3.478   2.755  13.682  1.0449 -0.1695  2.0122
 1028SOL     OW14545   2.957   2.158   5.402 -0.1328  0.1213 -0.3367
 1028SOL    HW114546   2.867   2.147   5.433 -0.2344  0.3818 -0.5430
 1028SOL    HW214547   2.998   2.223   5.459  2.2944  1.6242 -3.8000
 1029SOL     OW14548   1.613   0.335   4.603  0.4204 -0.0788 -0.2897
 1029SOL    HW114549   1.536   0.333   4.546 -1.8705  2.4236  2.7384
 1029SOL    HW214550   1.610   0.425   4.634 -1.8953  0.3663 -1.7782
 1030SOL     OW14551   0.971   4.487  13.429 -0.6823 -0.3557 -0.1090
 1030SOL    HW114552   1.018   4.477  13.346 -1.2877  0.0186 -0.4881
 1030SOL    HW214553   0.946   4.398  13.453  0.0856 -0.6747 -0.4789
 1031SOL     OW14554   3.471   0.308   7.429 -0.1263 -0.0724 -0.4339
 1031SOL    HW114555   3.405   0.297   7.497  0.9337  3.1082  1.1267
 1031SOL    HW214556   3.551   0.320   7.480 -0.2638  0.5031 -0.3485
 1032SOL     OW14557   2.554   0.178   7.373  0.4845 -0.8951 -0.2878
 1032SOL    HW114558   2.522   0.088   7.381 -1.4609 -0.0793  1.1388
 1032SOL    HW214559   2.579   0.199   7.463 -1.3021  1.1712 -0.2770
 1033SOL     OW14560   3.564   0.116   4.405 -0.2885 -0.2392 -0.1577
 1033SOL    HW114561   3.578   0.039   4.461 -2.0637 -0.4045  0.0646
 1033SOL    HW214562   3.650   0.121   4.363 -0.9315 -0.0522 -1.4358
 1034SOL     OW14563   1.576   0.871   2.304 -0.1252 -0.2064  0.4071
 1034SOL    HW114564   1.571   0.782   2.270 -0.3431 -0.5277  1.2763
 1034SOL    HW214565   1.485   0.900   2.303 -0.6908 -1.9644  1.8712
 1035SOL     OW14566   3.521   2.296   2.071  0.9520 -0.4677  0.0720
 1035SOL    HW114567   3.539   2.259   1.985  2.7263  0.1535  0.1798
 1035SOL    HW214568   3.429   2.272   2.077  0.5293  1.6065  2.4261
 1036SOL     OW14569   1.490   1.837   0.259  0.0397 -0.6808  0.1860
 1036SOL    HW114570   1.541   1.796   0.189 -0.4472  2.0454 -1.7517
 1036SOL    HW214571   1.434   1.896   0.208 -0.9616 -2.5981 -0.9566
 1037SOL     OW14572   2.474   4.668   2.479  0.3396 -0.6175  0.4004
 1037SOL    HW114573   2.455   0.003   2.406  0.6814 -0.9017  0.0918
 1037SOL    HW214574   2.394   4.616   2.491  0.7840 -1.5516 -0.7000
 1038SOL     OW14575   2.292   3.639   3.886 -0.3189  0.7841  0.6430
 1038SOL    HW114576   2.259   3.687   3.810 -2.7351 -0.7726  0.7006
 1038SOL    HW214577   2.215   3.602   3.929  0.4219 -0.8572  0.5584
 1039SOL     OW14578   2.582   0.261   3.855  0.2395  0.4249 -1.0109
 1039SOL    HW114579   2.609   0.196   3.921 -0.5114 -1.7007 -2.8036
 1039SOL    HW214580   2.489   0.265   3.879  0.3751  1.4025 -0.6557
 1040SOL     OW14581   3.811   4.183   1.439 -0.1290 -0.2967  0.2771
 1040SOL    HW114582   3.788   4.243   1.509  0.0119  1.1868 -0.9378
 1040SOL    HW214583   3.727   4.182   1.394  1.2654  0.9429 -2.4609
 1041SOL     OW14584   4.029   2.374   6.877 -0.2732 -0.4304 -0.2079
 1041SOL    HW114585   3.947   2.422   6.888  0.8047  1.0666  1.2788
 1041SOL    HW214586   4.051   2.403   6.788 -1.1104  1.8921  0.3299
 1042SOL     OW14587   1.269   4.417   5.772 -0.8988  0.3726  0.1071
 1042SOL    HW114588   1.320   4.420   5.853  0.5548  1.0507 -0.8333
 1042SOL    HW214589   1.285   4.323   5.762 -0.8176  0.3043  0.8269
 1043SOL     OW14590   3.340   0.038  15.731 -0.2675 -0.0866  0.2121
 1043SOL    HW114591   3.369   4.672  15.712 -2.2504 -0.3116 -1.7527
 1043SOL    HW214592   3.294   0.025  15.813  2.9695  1.9582  2.3562
 1044SOL     OW14593   1.510   0.897   8.502  0.3544 -0.7743 -0.2106
 1044SOL    HW114594   1.462   0.823   8.465 -0.6821 -0.0873 -0.2545
 1044SOL    HW214595   1.548   0.856   8.579 -2.6310 -0.4929  1.4280
 1045SOL     OW14596   1.021   2.253   4.125 -0.4092  0.2281  0.2411
 1045SOL    HW114597   0.990   2.209   4.205  0.1086  0.4444  0.5645
 1045SOL    HW214598   1.001   2.192   4.054 -0.9339  0.1484  0.4580
 1046SOL     OW14599   3.597   1.165   6.723 -0.0341  0.0563  0.1598
 1046SOL    HW114600   3.632   1.253   6.709 -1.4551  0.7556  1.0094
 1046SOL    HW214601   3.671   1.114   6.757 -0.4732  0.4976  1.8062
 1047SOL     OW14602   2.568   1.204  16.469 -0.2319  0.9082  0.3466
 1047SOL    HW114603   2.537   1.115  16.452 -2.3303  1.6918  0.0725
 1047SOL    HW214604   2.657   1.198  16.434 -1.0904 -2.9638 -1.2595
 1048SOL     OW14605   4.502   0.238   1.289  0.0529  0.0135  0.1477
 1048SOL    HW114606   4.551   0.320   1.283  0.9242 -0.4654  0.5060
 1048SOL    HW214607   4.478   0.222   1.198  0.0776  0.5367  0.0509
 1049SOL     OW14608   3.096   0.077   5.104  0.5513  0.3345  0.4177
 1049SOL    HW114609   3.067   0.159   5.064 -0.4606  0.3641  1.1936
 1049SOL    HW214610   3.135   0.112   5.185 -0.5108  2.2481  0.0982
 1050SOL     OW14611   0.466   3.219  11.310  0.1176  0.4032 -0.1745
 1050SOL    HW114612   0.412   3.296  11.294 -1.1368 -1.1364 -3.3185
 1050SOL    HW214613   0.548   3.248  11.270  2.2614 -1.9027  2.5060
 1051SOL     OW14614   1.666   0.772  13.446 -0.3497  0.3796 -0.3576
 1051SOL    HW114615   1.670   0.795  13.354  0.4810 -0.6313 -0.5695
 1051SOL    HW214616   1.682   0.855  13.492  0.6920 -0.4830  0.8415
 1052SOL     OW14617   1.835   4.548   5.143  0.3927  0.0071 -0.3419
 1052SOL    HW114618   1.856   4.637   5.172 -1.6396 -0.4135  2.3678
 1052SOL    HW214619   1.923   4.510   5.151  0.6707  1.2087  2.2504
 1053SOL     OW14620   0.870   4.414   6.823 -0.4780  0.7027  0.2235
 1053SOL    HW114621   0.784   4.378   6.806  0.5533 -0.3732 -2.7884
 1053SOL    HW214622   0.879   4.408   6.918 -1.3137  0.3796  0.2816
 1054SOL     OW14623   3.682   4.027   7.425  0.2925 -0.2792 -0.3994
 1054SOL    HW114624   3.709   3.970   7.354  1.1776 -1.1446  0.6201
 1054SOL    HW214625   3.755   4.015   7.487  1.1052 -3.1546 -1.9259
 1055SOL     OW14626   4.496   4.561   6.819  0.4683  0.0459 -0.1025
 1055SOL    HW114627   4.496   4.482   6.765  0.5709  0.1159 -0.2053
 1055SOL    HW214628   4.530   4.625   6.757 -0.7756  1.0921  0.3164
 1056SOL     OW14629   0.194   0.847   7.977 -0.5396  0.2183  0.3135
 1056SOL    HW114630   0.148   0.763   7.979 -0.7990  0.3320 -0.8997
 1056SOL    HW214631   0.125   0.904   8.010 -1.0900  0.5945 -1.4799
 1057SOL     OW14632   4.328   4.554   4.000 -0.2847 -0.1855  0.7239
 1057SOL    HW114633   4.243   4.563   4.041 -1.3560  0.3983 -1.6137
 1057SOL    HW214634   4.354   4.467   4.031  3.2107  0.6845  0.3360
 1058SOL     OW14635   1.795   0.195   8.490 -0.6905 -0.1193  0.4736
 1058SOL    HW114636   1.793   0.278   8.443 -1.5520  0.0229  0.7552
 1058SOL    HW214637   1.804   0.135   8.416  0.6981 -1.7458  1.9593
 1059SOL     OW14638   2.130   1.064   4.365 -0.7295  0.0194 -0.3865
 1059SOL    HW114639   2.087   1.039   4.283 -1.8538  0.1465  0.1535
 1059SOL    HW214640   2.218   1.095   4.347 -0.5097  0.2292  1.0240
 1060SOL     OW14641   3.334   3.763   7.710 -0.2671 -0.7139 -0.0964
 1060SOL    HW114642   3.376   3.814   7.640 -1.9625  0.5384 -0.1848
 1060SOL    HW214643   3.408   3.703   7.722 -1.3205 -1.7480  1.0756
 1061SOL     OW14644   0.946   0.303   2.569  0.4648 -0.1416 -0.4626
 1061SOL    HW114645   0.919   0.273   2.482  1.3825 -1.2803 -0.3625
 1061SOL    HW214646   1.006   0.368   2.533 -0.8084  1.7778  0.9345
 1062SOL     OW14647   4.690   3.845   6.005 -0.1435 -0.4111 -0.0965
 1062SOL    HW114648   4.639   3.846   5.924 -0.2862  0.0924  0.0010
 1062SOL    HW214649   4.718   3.753   6.011 -0.0221 -0.3058  0.9887
 1063SOL     OW14650   2.366   0.104   7.607  0.3841  0.0982  0.4114
 1063SOL    HW114651   2.272   0.095   7.587  0.1328  1.3273  1.0349
 1063SOL    HW214652   2.368   0.170   7.676  2.0720  0.7509 -0.2837
 1064SOL     OW14653   3.543   4.375   9.405  0.1040 -0.2018  0.1516
 1064SOL    HW114654   3.583   4.442   9.460  2.9880 -0.5110 -1.5604
 1064SOL    HW214655   3.516   4.435   9.336  1.3745 -0.2222 -0.3555
 1065SOL     OW14656   2.871   0.178  13.405 -0.4607 -0.3738  0.7985
 1065SOL    HW114657   2.833   0.095  13.433  0.4205 -1.1268 -0.2241
 1065SOL    HW214658   2.907   0.151  13.320  1.9782  3.7677  0.5111
 1066SOL     OW14659   4.690   1.144   7.235  0.3400  0.1349  0.2784
 1066SOL    HW114660   4.712   1.232   7.205  1.0492  0.6927  2.4130
 1066SOL    HW214661   0.041   1.096   7.199  0.0898  1.0848 -1.4779
 1067SOL     OW14662   1.190   0.338  12.979 -0.3912 -0.3566  0.3896
 1067SOL    HW114663   1.243   0.331  12.900 -0.4797  0.0302  0.2958
 1067SOL    HW214664   1.246   0.394  13.033  1.0886 -1.0180 -0.4645
 1068SOL     OW14665   4.662   4.565   1.601 -0.7859 -0.2354  0.1644
 1068SOL    HW114666   4.639   4.586   1.692 -2.8311 -2.1235  0.0870
 1068SOL    HW214667   4.641   4.649   1.561  2.1403 -1.3960 -3.8160
 1069SOL     OW14668   0.496   0.574  14.866 -0.3628 -0.3198 -0.0597
 1069SOL    HW114669   0.489   0.479  14.855  0.6066 -0.3907 -0.0303
 1069SOL    HW214670   0.402   0.594  14.872 -0.6294 -2.2097  1.9672
 1070SOL     OW14671   4.228   2.070   7.224 -0.2486  0.3263  0.0467
 1070SOL    HW114672   4.160   2.079   7.158  0.9798  2.0079 -0.9979
 1070SOL    HW214673   4.202   2.144   7.279  0.0125  2.7232 -3.0893
 1071SOL     OW14674   3.306   1.575   3.465 -0.0562 -0.4019 -0.6263
 1071SOL    HW114675   3.304   1.647   3.528 -1.0946 -1.0709  0.1154
 1071SOL    HW214676   3.393   1.583   3.428 -0.5993 -0.5818 -1.9572
 1072SOL     OW14677   1.804   0.971   1.146 -0.5425  0.3222  0.2009
 1072SOL    HW114678   1.775   0.902   1.206 -0.5130 -1.3692 -1.7048
 1072SOL    HW214679   1.895   0.941   1.136 -0.7224  0.1900 -1.1059
 1073SOL     OW14680   1.335   4.481   3.583  0.1636  0.5517 -0.0588
 1073SOL    HW114681   1.285   4.405   3.613  0.2262  0.2751 -0.6675
 1073SOL    HW214682   1.354   4.468   3.490 -1.2130  0.2006 -0.2842
 1074SOL     OW14683   3.231   0.177   7.027  0.5927  0.2764  0.0765
 1074SOL    HW114684   3.160   0.229   6.988  0.8228  2.2815  2.4141
 1074SOL    HW214685   3.221   0.185   7.121  1.8171  1.8009  0.0771
 1075SOL     OW14686   2.360   3.678   5.249  0.3899 -0.2450 -0.1961
 1075SOL    HW114687   2.267   3.669   5.269  0.6412  2.4145  2.1511
 1075SOL    HW214688   2.386   3.767   5.276  0.1316 -0.2717  0.1426
 1076SOL     OW14689   1.316   4.035   4.027  0.4259  0.2861 -0.0259
 1076SOL    HW114690   1.241   4.007   4.079  0.5700  0.7197  0.4106
 1076SOL    HW214691   1.265   4.067   3.953  1.4042 -0.1340 -0.8813
 1077SOL     OW14692   0.032   1.202  11.605 -0.4660 -0.2696  0.5597
 1077SOL    HW114693   0.003   1.227  11.518 -1.3921  0.6521  1.1274
 1077SOL    HW214694   0.066   1.283  11.644  2.1200 -1.0247 -0.1373
 1078SOL     OW14695   3.091   3.639   7.177  0.0234 -0.2185  0.0767
 1078SOL    HW114696   3.185   3.658   7.181 -0.5179  2.5246 -0.1672
 1078SOL    HW214697   3.070   3.703   7.245 -2.2018  0.5630 -1.3386
 1079SOL     OW14698   3.892   1.826   2.394 -0.2476  0.1128  0.1587
 1079SOL    HW114699   3.906   1.749   2.449  1.2668 -0.2365 -0.7018
 1079SOL    HW214700   3.797   1.835   2.394 -0.3664 -1.2096 -2.0058
 1080SOL     OW14701   1.183   4.069   9.063  0.5169 -0.2206 -0.5063
 1080SOL    HW114702   1.179   4.140   8.998  0.0501 -0.7646 -1.0692
 1080SOL    HW214703   1.096   4.070   9.102 -0.5208 -2.7100 -2.7808
 1081SOL     OW14704   3.212   3.871  12.945 -0.0409 -0.4776  0.2387
 1081SOL    HW114705   3.129   3.840  12.981  0.6370 -1.3357  1.0827
 1081SOL    HW214706   3.189   3.939  12.882  0.1041 -0.1806  0.5090
 1082SOL     OW14707   0.719   0.526   1.376 -0.6820 -0.4574 -0.0573
 1082SOL    HW114708   0.628   0.538   1.349 -0.5398  0.9532  0.1015
 1082SOL    HW214709   0.757   0.613   1.373  1.5171 -1.5013 -2.0742
 1083SOL     OW14710   0.327   4.708   1.210  0.0169  0.1719 -0.4695
 1083SOL    HW114711   0.317   0.006   1.117 -0.4298  1.4756 -0.1283
 1083SOL    HW214712   0.340   4.614   1.219 -1.2321 -0.0052 -0.5220
 1084SOL     OW14713   2.360   1.469   2.090 -0.4743 -0.1522  0.2918
 1084SOL    HW114714   2.319   1.397   2.043 -0.9635 -0.0434  0.5546
 1084SOL    HW214715   2.305   1.540   2.055 -0.8960 -0.6587 -0.0797
 1085SOL     OW14716   2.214   0.907   2.957 -0.4521  0.0790  0.8003
 1085SOL    HW114717   2.180   0.826   2.996  1.0727 -0.8567  0.1760
 1085SOL    HW214718   2.199   0.964   3.033 -0.2807  1.4911 -0.2208
 1086SOL     OW14719   3.881   1.676   5.601  0.3620  0.2630 -0.4787
 1086SOL    HW114720   3.813   1.715   5.657  1.3810  2.0488 -0.4945
 1086SOL    HW214721   3.900   1.756   5.552  4.5087 -0.6245 -0.2687
 1087SOL     OW14722   1.552   3.958   4.399  0.0448  0.1213  0.0130
 1087SOL    HW114723   1.469   4.004   4.402  1.4604  2.5819  1.3877
 1087SOL    HW214724   1.564   3.964   4.305 -0.8673  0.6507 -0.0688
 1088SOL     OW14725   4.306   1.117  17.071  0.3297 -0.1787  0.6553
 1088SOL    HW114726   4.313   1.212  17.079 -2.0522  0.1018 -0.6884
 1088SOL    HW214727   4.393   1.078  17.071  0.0144 -0.8805 -0.3478
 1089SOL     OW14728   4.092   0.183   5.250 -0.0613  0.0223 -1.1371
 1089SOL    HW114729   4.082   0.255   5.312  3.5649  0.2186 -0.7712
 1089SOL    HW214730   4.178   0.207   5.217  0.9682 -0.6799  1.0621
 1090SOL     OW14731   3.290   3.258  16.124  0.0943 -0.4678 -0.5333
 1090SOL    HW114732   3.368   3.304  16.156  0.1382 -0.9012 -0.0175
 1090SOL    HW214733   3.225   3.304  16.177  1.8982  1.4695  0.0415
 1091SOL     OW14734   1.707   3.296  15.530 -0.1548 -0.6928  0.4049
 1091SOL    HW114735   1.683   3.229  15.594 -1.7991  0.5371  1.0564
 1091SOL    HW214736   1.635   3.359  15.541 -0.4520 -0.6315 -1.8517
 1092SOL     OW14737   1.747   3.688   5.596 -0.7310  0.2649 -0.2012
 1092SOL    HW114738   1.732   3.627   5.524 -1.5184  0.0417  0.1498
 1092SOL    HW214739   1.741   3.622   5.666 -1.7352 -0.0731 -0.5974
 1093SOL     OW14740   0.448   0.598   8.804  0.0546  0.2889 -0.0347
 1093SOL    HW114741   0.475   0.690   8.800 -0.0694  0.4285  2.6080
 1093SOL    HW214742   0.531   0.551   8.814 -0.2732 -0.0428  1.1142
 1094SOL     OW14743   4.196   1.192   5.426 -0.4154 -0.5971 -0.1902
 1094SOL    HW114744   4.264   1.250   5.458  0.5749 -1.3835 -0.8892
 1094SOL    HW214745   4.188   1.116   5.484  1.1146 -0.7633 -0.2048
 1095SOL     OW14746   3.800   0.793   4.635 -0.0034  0.3615 -0.3875
 1095SOL    HW114747   3.869   0.828   4.691 -0.4034 -1.9370  1.5415
 1095SOL    HW214748   3.726   0.778   4.692  0.8087  0.9809  0.8250
 1096SOL     OW14749   0.907   2.429  15.165  0.2909  0.6707 -0.0163
 1096SOL    HW114750   0.853   2.410  15.242 -0.0626  1.3730 -0.0889
 1096SOL    HW214751   0.924   2.340  15.136 -0.1488  0.9292 -1.0833
 1097SOL     OW14752   4.323   3.450   1.507 -0.7069 -0.0249  0.3702
 1097SOL    HW114753   4.289   3.432   1.595  0.0913 -0.0565  0.6660
 1097SOL    HW214754   4.259   3.509   1.468 -1.1408 -2.0132 -1.9428
 1098SOL     OW14755   3.504   2.145   0.840  0.2779  0.0287 -0.1966
 1098SOL    HW114756   3.512   2.186   0.926 -1.9672 -0.3824  0.2145
 1098SOL    HW214757   3.435   2.080   0.856 -1.0770  0.8783 -2.4544
 1099SOL     OW14758   3.553   4.156   8.476  0.5965 -0.1848 -0.4550
 1099SOL    HW114759   3.582   4.200   8.397  1.8417 -0.0779  0.0691
 1099SOL    HW214760   3.520   4.070   8.448 -0.9510 -0.1633  1.2715
 1100SOL     OW14761   4.309   0.267  16.599 -0.3430  0.5194  0.0546
 1100SOL    HW114762   4.351   0.206  16.538  0.4703 -1.9294  3.0871
 1100SOL    HW214763   4.374   0.335  16.617 -0.1555 -0.1709  2.0308
 1101SOL     OW14764   1.592   2.151   6.896 -0.5060  0.0978  0.2662
 1101SOL    HW114765   1.682   2.178   6.912 -0.3976  0.0845 -0.3226
 1101SOL    HW214766   1.548   2.234   6.914  1.8095  0.5488  3.8356
 1102SOL     OW14767   0.452   3.229   8.265  0.0596  0.0329  0.3754
 1102SOL    HW114768   0.441   3.147   8.217 -2.4177 -0.5170  1.9053
 1102SOL    HW214769   0.400   3.212   8.343 -0.5612  1.2234  0.2223
 1103SOL     OW14770   0.462   3.115   6.197 -0.0309  0.1077 -0.2920
 1103SOL    HW114771   0.436   3.044   6.256  1.9976 -0.0629  0.3957
 1103SOL    HW214772   0.455   3.187   6.259  1.7589  0.9357 -1.0533
 1104SOL     OW14773   2.923   2.740   4.330 -0.1857 -0.2011 -0.5740
 1104SOL    HW114774   2.849   2.719   4.272  1.0465 -1.5801 -1.6149
 1104SOL    HW214775   2.887   2.783   4.408 -0.0693 -1.8552  0.3836
 1105SOL     OW14776   2.880   1.644   3.045 -0.0229  0.3935  0.1154
 1105SOL    HW114777   2.827   1.643   2.965  2.4013 -1.6210 -1.4571
 1105SOL    HW214778   2.819   1.613   3.112 -0.1167 -0.5249 -0.3939
 1106SOL     OW14779   3.943   0.961  17.589 -0.2607  0.4061 -0.5182
 1106SOL    HW114780   3.857   0.923  17.575 -0.2269  0.1031  0.1276
 1106SOL    HW214781   3.934   1.030  17.522  0.9656 -0.4246 -1.5507
 1107SOL     OW14782   2.579   4.019   6.810  0.1330  0.0879  0.8022
 1107SOL    HW114783   2.512   4.025   6.742  0.9209 -1.2210 -0.0830
 1107SOL    HW214784   2.622   3.934   6.806 -0.9511 -0.4741  1.1699
 1108SOL     OW14785   0.823   2.249   3.186 -0.3687  0.2051  0.1207
 1108SOL    HW114786   0.786   2.328   3.225  1.4357  1.2052 -0.2045
 1108SOL    HW214787   0.813   2.286   3.098 -0.0198 -0.9270 -0.3976
 1109SOL     OW14788   2.914   2.761   5.660  0.0581  0.4136  0.2652
 1109SOL    HW114789   2.952   2.724   5.740 -0.5979 -1.1612 -0.1461
 1109SOL    HW214790   2.998   2.785   5.620  0.2103 -2.4347 -1.1746
 1110SOL     OW14791   3.547   0.212   6.371 -0.1259  0.1306  0.4348
 1110SOL    HW114792   3.520   0.283   6.313  1.1824  0.9116  0.7934
 1110SOL    HW214793   3.505   0.248   6.449  0.4540 -0.9249  1.2332
 1111SOL     OW14794   1.245   1.013   4.638 -0.1807  0.4736 -0.3070
 1111SOL    HW114795   1.320   1.065   4.668  0.8809 -1.3251  0.1503
 1111SOL    HW214796   1.186   1.087   4.655 -1.5386 -0.4713 -0.8773
 1112SOL     OW14797   4.572   0.805  14.899  0.3743 -0.4350  0.7867
 1112SOL    HW114798   4.516   0.803  14.977 -2.0598 -3.7908 -0.9839
 1112SOL    HW214799   4.523   0.758  14.830 -1.4342 -0.0409  1.8043
 1113SOL     OW14800   0.637   0.967  13.271 -0.3559  0.2014  0.3072
 1113SOL    HW114801   0.554   0.999  13.236 -0.0791 -0.4987 -0.9911
 1113SOL    HW214802   0.606   0.946  13.360  0.3821  1.9375  0.9690
 1114SOL     OW14803   2.622   0.572  15.680  0.5765  0.1194 -0.7073
 1114SOL    HW114804   2.710   0.535  15.681 -0.5990 -2.6402 -0.0754
 1114SOL    HW214805   2.584   0.550  15.595 -0.8415  0.5083 -0.1765
 1115SOL     OW14806   1.495   1.724   2.581 -0.6007 -0.3602 -0.6714
 1115SOL    HW114807   1.418   1.668   2.591 -1.4556  0.6761 -1.4204
 1115SOL    HW214808   1.563   1.665   2.614 -1.9323 -0.0796  2.5799
 1116SOL     OW14809   4.475   1.071  10.511  0.2559 -0.1126  0.3269
 1116SOL    HW114810   4.556   1.056  10.461  0.9652  0.0237  1.4434
 1116SOL    HW214811   4.496   1.164  10.515 -1.0879  0.2652 -1.3054
 1117SOL     OW14812   1.568   4.054  16.041  0.1926  0.0674 -0.3743
 1117SOL    HW114813   1.575   3.959  16.045  0.1094  0.1602  1.8852
 1117SOL    HW214814   1.604   4.081  16.125 -2.3941 -0.9212  1.0226
 1118SOL     OW14815   0.104   2.635   3.651 -0.1365 -0.0532  0.4604
 1118SOL    HW114816   0.150   2.570   3.703 -1.4358 -0.8449  0.6276
 1118SOL    HW214817   0.019   2.611   3.688 -0.2849 -2.8952 -1.7414
 1119SOL     OW14818   0.321   2.283   6.293  0.3424  0.3256  0.8991
 1119SOL    HW114819   0.311   2.326   6.379  0.0722  0.5201  0.7720
 1119SOL    HW214820   0.229   2.267   6.270  0.6184  0.6378 -0.4092
 1120SOL     OW14821   1.616   0.529   8.832  0.0309  0.1909  0.2803
 1120SOL    HW114822   1.555   0.493   8.767 -1.8823  0.4920  1.9144
 1120SOL    HW214823   1.604   0.462   8.899  0.6444 -0.0928  0.1066
 1121SOL     OW14824   3.650   3.711   5.736  0.2299 -0.2774  0.2737
 1121SOL    HW114825   3.612   3.624   5.721 -0.2374 -0.3196  1.6962
 1121SOL    HW214826   3.583   3.776   5.717  0.5575  0.7847  2.8156
 1122SOL     OW14827   4.591   1.523  10.796  0.8467  0.0022  0.7051
 1122SOL    HW114828   4.580   1.557  10.885  0.2285 -1.7510  1.3005
 1122SOL    HW214829   4.675   1.480  10.805  0.0459 -1.9795 -1.3190
 1123SOL     OW14830   1.358   4.235  15.951  0.0652  0.1644  0.3421
 1123SOL    HW114831   1.384   4.271  16.036 -0.5219 -0.5768  0.8338
 1123SOL    HW214832   1.420   4.163  15.934 -0.3737 -0.0751 -0.2495
 1124SOL     OW14833   1.922   2.430   2.175 -0.3551  0.5656  0.2283
 1124SOL    HW114834   1.928   2.503   2.114  0.2126 -0.9467 -1.5293
 1124SOL    HW214835   1.830   2.432   2.201 -0.1403  1.6448  0.9149
 1125SOL     OW14836   3.744   1.896  14.174  0.0578  0.4806 -0.1433
 1125SOL    HW114837   3.656   1.926  14.150  1.3646  1.8716 -3.2959
 1125SOL    HW214838   3.799   1.945  14.113 -0.0974 -1.1193 -1.5950
 1126SOL     OW14839   2.537   0.151   5.833  0.4896  0.5603  0.0623
 1126SOL    HW114840   2.466   0.102   5.876  0.2581 -0.3559 -1.3513
 1126SOL    HW214841   2.606   0.151   5.900  0.6722 -1.4039 -0.1047
 1127SOL     OW14842   4.303   1.369   6.606 -0.3020 -0.6986 -0.1486
 1127SOL    HW114843   4.278   1.303   6.670 -0.6519 -0.7043 -0.2895
 1127SOL    HW214844   4.399   1.367   6.611 -0.3069 -0.8567 -0.1333
 1128SOL     OW14845   3.960   1.708   0.866 -0.4712  0.0494  0.3825
 1128SOL    HW114846   3.919   1.644   0.924 -0.1160 -1.3854 -0.9485
 1128SOL    HW214847   3.885   1.720   0.807  0.1267 -0.2293 -0.4357
 1129SOL     OW14848   0.624   0.063  14.456 -0.1113  0.0583 -0.3357
 1129SOL    HW114849   0.672   4.716  14.412  1.0862  0.5673  0.1480
 1129SOL    HW214850   0.572   0.085  14.379 -0.5797  3.2593  0.9176
 1130SOL     OW14851   0.679   1.808  10.615 -0.0687 -0.1420  0.0182
 1130SOL    HW114852   0.745   1.852  10.667 -0.8164  0.4361  0.4756
 1130SOL    HW214853   0.677   1.866  10.538 -0.8297  1.1513  1.0103
 1131SOL     OW14854   2.058   0.878   4.886 -0.8695  0.2001  0.2216
 1131SOL    HW114855   2.151   0.857   4.882 -0.5325  1.6360  0.4147
 1131SOL    HW214856   2.034   0.868   4.794  2.7275 -0.7698 -0.6227
 1132SOL     OW14857   3.351   2.079  15.197  0.0009 -0.2778 -0.5868
 1132SOL    HW114858   3.418   2.013  15.217 -0.6537 -0.8399 -0.2700
 1132SOL    HW214859   3.368   2.131  15.275  1.5749  0.7263 -1.5810
 1133SOL     OW14860   1.610   4.069   7.616 -0.1837 -0.4033 -0.2522
 1133SOL    HW114861   1.658   4.136   7.664  0.4937 -1.3830  0.4328
 1133SOL    HW214862   1.598   3.996   7.677 -1.1621  0.2573  0.3493
 1134SOL     OW14863   4.391   0.276   1.035  0.3308 -0.2230 -0.0118
 1134SOL    HW114864   4.464   0.216   1.022 -0.3177 -0.5620 -2.1149
 1134SOL    HW214865   4.433   0.339   0.976 -0.6332 -1.0594 -1.5886
 1135SOL     OW14866   3.121   0.776   8.993  0.2997  0.4843 -0.5442
 1135SOL    HW114867   3.202   0.730   8.971  0.4234 -0.2979  1.5215
 1135SOL    HW214868   3.077   0.720   9.057  0.1857  1.0220 -0.1412
 1136SOL     OW14869   3.655   0.016   9.485 -0.2571 -0.2378 -0.2092
 1136SOL    HW114870   3.621   4.665   9.535  0.7021  0.7019  1.8484
 1136SOL    HW214871   3.742   0.017   9.523 -0.4940 -0.7441  0.3443
 1137SOL     OW14872   3.051   2.361   4.214 -0.0581 -0.3053 -0.5194
 1137SOL    HW114873   3.025   2.364   4.306 -0.4107 -1.3230 -0.5934
 1137SOL    HW214874   3.017   2.276   4.187 -1.1298  0.1603 -0.6054
 1138SOL     OW14875   0.179   1.103   9.268  0.4815 -0.2172  0.1670
 1138SOL    HW114876   0.230   1.182   9.249 -1.1980  1.2758  1.7677
 1138SOL    HW214877   0.115   1.096   9.196  0.0651  1.5985  0.3484
 1139SOL     OW14878   2.514   1.954   7.208 -0.2780  0.1164 -0.2781
 1139SOL    HW114879   2.453   1.989   7.143 -0.1658  0.1363 -0.3737
 1139SOL    HW214880   2.562   2.033   7.233 -0.4359  0.1687 -0.1427
 1140SOL     OW14881   1.967   2.277  16.653  0.2153 -0.3047 -0.3004
 1140SOL    HW114882   1.917   2.220  16.594 -0.5814 -1.1479  1.1899
 1140SOL    HW214883   2.020   2.210  16.697 -0.4930  0.1422  1.2322
 1141SOL     OW14884   1.999   3.601  17.065 -0.2619  0.1388 -0.1584
 1141SOL    HW114885   2.075   3.573  17.116 -1.9960  1.5154  3.2151
 1141SOL    HW214886   1.995   3.693  17.088 -1.3740  0.5908 -2.1420
 1142SOL     OW14887   3.119   4.144   8.755 -0.0743  0.1025  0.0135
 1142SOL    HW114888   3.110   4.093   8.675  0.1930 -1.6764  1.0876
 1142SOL    HW214889   3.037   4.193   8.764 -0.4243 -0.1532 -1.7820
 1143SOL     OW14890   3.445   0.742   7.466 -0.2731 -0.0854  0.8669
 1143SOL    HW114891   3.430   0.818   7.410 -0.2545  0.1201  1.1365
 1143SOL    HW214892   3.526   0.709   7.427 -1.4256  0.1173 -1.6668
 1144SOL     OW14893   4.039   1.180  13.579  0.0383 -0.0142  0.4382
 1144SOL    HW114894   4.063   1.251  13.520 -0.7487  1.7326  2.1989
 1144SOL    HW214895   3.964   1.139  13.536 -0.5845  2.1707 -0.5836
 1145SOL     OW14896   4.111   3.077   7.447  0.0376 -0.4391  0.1922
 1145SOL    HW114897   4.071   3.000   7.486 -2.7072  1.5685  1.3322
 1145SOL    HW214898   4.174   3.093   7.518  0.4841  1.7986 -0.7033
 1146SOL     OW14899   0.864   4.474  16.440  0.7719  0.7655  0.2272
 1146SOL    HW114900   0.804   4.520  16.499  1.7645  0.3209  1.5799
 1146SOL    HW214901   0.907   4.550  16.400  1.7551 -0.2079 -0.5631
 1147SOL     OW14902   1.715   2.847   4.365  0.0425 -0.2585  0.1114
 1147SOL    HW114903   1.753   2.894   4.290  0.1252 -0.8988 -0.2538
 1147SOL    HW214904   1.797   2.800   4.381 -0.5560 -1.0941  0.6886
 1148SOL     OW14905   0.861   0.505   3.996 -0.0892 -0.4276  0.4214
 1148SOL    HW114906   0.839   0.423   3.952 -0.2543 -0.4750  0.5943
 1148SOL    HW214907   0.874   0.564   3.921 -1.4518  3.1136  2.9752
 1149SOL     OW14908   0.148   1.100   4.401 -0.4747  0.4159  0.2138
 1149SOL    HW114909   0.185   1.093   4.490  0.2366  1.2785 -0.0194
 1149SOL    HW214910   0.112   1.013   4.381 -1.1409  1.0633 -1.3145
 1150SOL     OW14911   4.382   4.225   0.156  0.1539  0.2864  0.0928
 1150SOL    HW114912   4.297   4.214   0.198 -0.7519  0.8753 -1.5821
 1150SOL    HW214913   4.423   4.138   0.154 -0.1515  0.1050  1.9404
 1151SOL     OW14914   0.756   4.701   5.946  0.0923 -0.2637  0.1269
 1151SOL    HW114915   0.825   0.043   5.959 -0.6591  0.5319  0.1579
 1151SOL    HW214916   0.678   0.034   5.947  0.2103 -0.1207  1.3294
 1152SOL     OW14917   1.463   4.083   7.407  0.0121  0.7358 -0.0446
 1152SOL    HW114918   1.456   4.178   7.408  0.9938  0.8037  0.4519
 1152SOL    HW214919   1.522   4.070   7.481  2.4216  2.5779 -1.6368
 1153SOL     OW14920   2.769   2.230  11.801 -0.0922  0.7990 -0.4956
 1153SOL    HW114921   2.842   2.234  11.739  0.9933  0.7811  0.7766
 1153SOL    HW214922   2.735   2.148  11.767  0.0436 -0.1635  1.7283
 1154SOL     OW14923   0.218   2.980   9.891  0.8668  0.3542 -0.0440
 1154SOL    HW114924   0.274   3.031   9.833 -1.5555  1.2978 -1.5387
 1154SOL    HW214925   0.232   2.897   9.846 -1.1265 -0.9829  1.7487
 1155SOL     OW14926   0.303   4.173   4.513  0.8441 -0.2576  0.1634
 1155SOL    HW114927   0.216   4.213   4.512  0.4910 -1.0387  0.3033
 1155SOL    HW214928   0.291   4.095   4.459  2.6999 -0.7560  0.4804
 1156SOL     OW14929   0.163   4.070  11.089 -0.2293 -0.2053  0.9297
 1156SOL    HW114930   0.106   3.996  11.070 -1.0393  0.9933 -1.3688
 1156SOL    HW214931   0.240   4.024  11.121  0.3331  0.7456  0.9499
 1157SOL     OW14932   4.561   1.438   1.854 -0.0745  0.4317  0.1264
 1157SOL    HW114933   4.590   1.505   1.793 -0.7985 -0.4709 -1.2062
 1157SOL    HW214934   4.584   1.358   1.808  0.7230  0.2681  0.8204
 1158SOL     OW14935   0.508   3.212  11.635 -0.0060  0.3723  0.3768
 1158SOL    HW114936   0.505   3.303  11.606  2.1368  0.3265  0.0443
 1158SOL    HW214937   0.470   3.166  11.559 -0.0491 -0.2622  0.7813
 1159SOL     OW14938   3.715   0.474   4.389  0.2688 -0.2290  0.7591
 1159SOL    HW114939   3.709   0.569   4.378  0.1595 -0.4315 -0.8668
 1159SOL    HW214940   3.787   0.456   4.329  2.4059  0.1846  3.2226
 1160SOL     OW14941   0.576   3.880   1.405 -0.0432 -0.7097  0.4375
 1160SOL    HW114942   0.603   3.972   1.413 -0.9326 -0.3108 -1.1962
 1160SOL    HW214943   0.491   3.887   1.448 -0.0431 -0.7309  0.4410
 1161SOL     OW14944   0.608   4.633   3.176 -0.0588  0.3776  0.1447
 1161SOL    HW114945   0.590   4.651   3.084  3.3996  1.3900 -0.3636
 1161SOL    HW214946   0.624   4.539   3.179  0.1579  0.3928 -0.5921
 1162SOL     OW14947   2.785   3.223   2.732 -0.1299 -0.4289  0.3220
 1162SOL    HW114948   2.719   3.292   2.735  0.8931  0.5132  0.9399
 1162SOL    HW214949   2.731   3.147   2.755 -1.5962 -0.3423 -2.8584
 1163SOL     OW14950   0.522   3.514   2.146  0.6056 -0.1117 -0.0429
 1163SOL    HW114951   0.493   3.436   2.099  1.9664 -0.6613  0.0305
 1163SOL    HW214952   0.521   3.582   2.079  1.0425  0.1067  0.1731
 1164SOL     OW14953   2.603   3.846   6.471 -0.6310 -0.1510 -0.1334
 1164SOL    HW114954   2.535   3.906   6.500 -0.4815 -0.4624  0.8393
 1164SOL    HW214955   2.556   3.762   6.478 -0.6011 -0.1117  0.5448
 1165SOL     OW14956   4.379   0.192   4.405  0.0572 -0.1725 -0.3501
 1165SOL    HW114957   4.325   0.255   4.451 -0.7506 -0.4667 -0.9032
 1165SOL    HW214958   4.455   0.190   4.463  0.2904  1.6589 -0.5889
 1166SOL     OW14959   3.250   3.833   2.379 -0.2502  0.9398  0.4391
 1166SOL    HW114960   3.255   3.927   2.396  1.7837  0.8883  0.0730
 1166SOL    HW214961   3.213   3.835   2.291  0.2635 -1.7970  0.1777
 1167SOL     OW14962   3.740   2.782  13.410  0.3340  0.2745 -0.3906
 1167SOL    HW114963   3.705   2.700  13.446  2.0145 -0.2565  0.0184
 1167SOL    HW214964   3.745   2.827  13.495 -0.9737 -0.6516  0.1703
 1168SOL     OW14965   3.912   4.619   4.307  0.6094  0.0717  0.4828
 1168SOL    HW114966   3.965   4.572   4.372  0.2188 -1.6446 -0.4369
 1168SOL    HW214967   3.842   4.647   4.365 -0.8611 -3.3317  0.3798
 1169SOL     OW14968   0.904   2.678  17.095  0.6520 -0.0190 -0.5730
 1169SOL    HW114969   0.989   2.635  17.110  1.0871  0.5480 -1.4065
 1169SOL    HW214970   0.865   2.642  17.015  0.8589 -0.0667 -0.6535
 1170SOL     OW14971   2.314   2.880   4.692  0.3574 -0.6615  0.0611
 1170SOL    HW114972   2.364   2.910   4.768 -1.1200 -0.0346  0.7633
 1170SOL    HW214973   2.342   2.788   4.683  0.4716 -0.5573 -0.6504
 1171SOL     OW14974   1.002   1.949  11.612  0.5144  0.4158 -0.2365
 1171SOL    HW114975   1.004   1.954  11.708  0.8459  2.9772 -0.3916
 1171SOL    HW214976   0.945   1.873  11.603 -0.2683  1.0713 -0.8351
 1172SOL     OW14977   2.136   2.676   6.169  0.3419  0.1919 -0.0560
 1172SOL    HW114978   2.154   2.665   6.076 -0.0715  3.0867 -0.4785
 1172SOL    HW214979   2.221   2.694   6.210  0.6582 -1.4661  0.0353
 1173SOL     OW14980   0.986   1.331  10.508  0.1358 -0.2622 -0.2121
 1173SOL    HW114981   1.026   1.414  10.532 -0.4269 -0.1966  0.5069
 1173SOL    HW214982   0.949   1.356  10.423  0.7773 -1.1546 -0.7525
 1174SOL     OW14983   1.847   3.128   5.712 -0.4207  0.3007 -0.2450
 1174SOL    HW114984   1.806   3.184   5.777 -1.0748 -1.2490  0.6829
 1174SOL    HW214985   1.847   3.175   5.629 -0.2917  0.6831 -0.0304
 1175SOL     OW14986   0.730   4.287  10.033 -0.7863  0.4017  0.4942
 1175SOL    HW114987   0.730   4.376  10.067 -0.7973  0.1080  1.2514
 1175SOL    HW214988   0.795   4.262  10.098  0.2965 -0.0373 -0.7502
 1176SOL     OW14989   3.727   2.342   2.751  0.4557  0.5628  0.2299
 1176SOL    HW114990   3.776   2.378   2.676  1.0601  0.2932  0.4948
 1176SOL    HW214991   3.745   2.248   2.747 -1.1581  0.2728 -0.3147
 1177SOL     OW14992   0.584   2.114   9.065  0.4265  0.3427 -0.1939
 1177SOL    HW114993   0.591   2.087   9.157  2.2324 -1.1402 -0.7749
 1177SOL    HW214994   0.534   2.036   9.041 -0.4629  0.9079 -0.1943
 1178SOL     OW14995   0.381   3.088  15.997  0.4440  0.3697  0.2206
 1178SOL    HW114996   0.427   3.013  16.036  0.0436 -0.2128 -0.4299
 1178SOL    HW214997   0.455   3.136  15.959  0.8258  0.7221  1.3863
 1179SOL     OW14998   1.840   3.818   1.499 -0.2364  1.0879  0.1278
 1179SOL    HW114999   1.825   3.912   1.510 -2.5916  0.5624  1.4045
 1179SOL    HW215000   1.754   3.778   1.509 -0.4968  0.8230 -3.2144
 1180SOL     OW15001   2.533   3.676   4.303 -0.1010 -0.4933  0.0707
 1180SOL    HW115002   2.620   3.650   4.333 -0.0376 -0.8263 -0.4144
 1180SOL    HW215003   2.543   3.693   4.210  0.6223  3.0614  0.7640
 1181SOL     OW15004   0.471   3.359   4.078  0.3570  0.3145 -0.4841
 1181SOL    HW115005   0.475   3.273   4.120 -2.2660  0.4094 -0.0023
 1181SOL    HW215006   0.464   3.333   3.986 -3.7457 -2.3537  0.5508
 1182SOL     OW15007   2.980   3.194  12.796 -0.2343 -0.1315 -0.6786
 1182SOL    HW115008   3.071   3.171  12.816  0.0356  1.7503  0.2436
 1182SOL    HW215009   2.935   3.218  12.878 -1.1226 -0.7314 -0.9909
 1183SOL     OW15010   2.208   3.529   3.558  0.0107 -0.0635  0.2223
 1183SOL    HW115011   2.161   3.448   3.574  1.6321 -1.1657 -0.6196
 1183SOL    HW215012   2.278   3.515   3.622 -1.0946 -2.4652  0.8955
 1184SOL     OW15013   3.264   3.007   8.540  0.3645  0.4975 -0.5935
 1184SOL    HW115014   3.345   2.977   8.499 -1.1629 -0.6054 -2.8093
 1184SOL    HW215015   3.267   3.102   8.546  0.2011  0.5370 -1.1557
 1185SOL     OW15016   4.245   0.182   6.475  0.4607  0.6198  0.4136
 1185SOL    HW115017   4.219   0.112   6.534 -2.4749 -0.3461 -1.9922
 1185SOL    HW215018   4.170   0.241   6.462  0.9020  0.7132 -1.8405
 1186SOL     OW15019   4.580   2.334   2.803 -0.1136  0.1908 -0.0369
 1186SOL    HW115020   4.549   2.333   2.712  2.0954 -2.3475 -0.7363
 1186SOL    HW215021   4.541   2.254   2.838  2.6579 -1.0113  0.2378
 1187SOL     OW15022   1.895   4.563   3.007 -0.3730 -0.0150  0.2196
 1187SOL    HW115023   1.860   4.559   3.096  0.3946  1.1282  0.5723
 1187SOL    HW215024   1.871   4.647   2.969 -1.0947 -1.0481 -1.5830
 1188SOL     OW15025   3.047   3.117  14.002  0.0349 -0.0316 -0.7599
 1188SOL    HW115026   3.069   3.039  14.054 -1.0295  0.5985  0.6415
 1188SOL    HW215027   2.978   3.159  14.053 -0.4459  0.8345 -2.1148
 1189SOL     OW15028   0.661   0.046   9.827  0.4660 -0.2146  0.5347
 1189SOL    HW115029   0.722   0.049   9.753  0.6213 -1.9897  0.5799
 1189SOL    HW215030   0.583   0.002   9.791  0.0335 -0.4582  1.7498
 1190SOL     OW15031   2.601   3.940  12.468 -0.1197  0.7044 -0.5188
 1190SOL    HW115032   2.616   4.034  12.456 -1.3376  0.6554 -2.4249
 1190SOL    HW215033   2.541   3.933  12.393 -0.9318  4.2174 -0.2033
 1191SOL     OW15034   2.854   1.320   3.162  0.1611  0.4287 -0.0717
 1191SOL    HW115035   2.933   1.372   3.176  0.5046  0.3945 -1.8461
 1191SOL    HW215036   2.780   1.368   3.201  1.2128  2.3651 -0.4590
 1192SOL     OW15037   1.302   3.977   5.986 -0.1729  0.1398  0.0874
 1192SOL    HW115038   1.258   4.053   6.023 -1.4077 -1.0337  1.0638
 1192SOL    HW215039   1.393   4.002   6.003 -1.2755  2.3242  2.8010
 1193SOL     OW15040   0.661   1.965   4.151  0.4397 -0.8524 -0.0960
 1193SOL    HW115041   0.679   1.910   4.227 -1.6390 -2.0336 -0.4464
 1193SOL    HW215042   0.584   1.927   4.107  1.8167 -0.2159 -3.0412
 1194SOL     OW15043   0.360   2.342   3.535  0.5566  0.1000 -0.4680
 1194SOL    HW115044   0.298   2.385   3.476 -0.1117 -0.5825 -0.2620
 1194SOL    HW215045   0.399   2.417   3.579 -1.3916  0.0572  1.3459
 1195SOL     OW15046   0.878   0.642   3.745 -0.3606  0.0159 -0.1754
 1195SOL    HW115047   0.955   0.668   3.695  0.5826 -1.9325  0.2784
 1195SOL    HW215048   0.810   0.649   3.678 -0.0628  0.5304 -0.4277
 1196SOL     OW15049   0.974   3.868   5.575  0.6544 -0.0479  0.2715
 1196SOL    HW115050   0.930   3.952   5.565 -1.9334 -1.2691  1.3238
 1196SOL    HW215051   1.062   3.890   5.546 -1.0979  0.8423 -4.3291
 1197SOL     OW15052   3.995   1.549   8.949  0.3025  0.5958  0.1438
 1197SOL    HW115053   3.909   1.526   8.913  0.5519 -1.3295  0.7584
 1197SOL    HW215054   3.958   1.568   9.036  2.0664  1.5871  0.6786
 1198SOL     OW15055   2.010   0.188  11.469  0.0945  0.0652 -0.0691
 1198SOL    HW115056   1.996   0.250  11.397  1.4309  0.7836  0.2781
 1198SOL    HW215057   2.082   0.238  11.508  0.3767 -0.8817  0.6077
 1199SOL     OW15058   2.647   3.289   3.442 -0.1385 -0.4656  0.2335
 1199SOL    HW115059   2.551   3.295   3.439 -0.2141 -0.7928  1.6436
 1199SOL    HW215060   2.683   3.342   3.371  0.6803 -1.1325  0.1610
 1200SOL     OW15061   0.828   2.997   5.770  0.8042 -0.5435  0.0463
 1200SOL    HW115062   0.894   3.062   5.796  2.6437 -1.9336 -1.1359
 1200SOL    HW215063   0.816   3.023   5.679 -0.5963 -1.2257  0.0478
 1201SOL     OW15064   1.107   4.294   6.398 -0.1887  0.1263 -0.8337
 1201SOL    HW115065   1.164   4.357   6.355 -1.7819  1.6548 -0.7186
 1201SOL    HW215066   1.055   4.351   6.454  0.3499  0.0676 -0.2778
 1202SOL     OW15067   3.668   0.997   9.110 -0.1078 -0.5702 -0.6974
 1202SOL    HW115068   3.691   1.004   9.203  0.2373 -1.2003 -0.7332
 1202SOL    HW215069   3.575   0.980   9.120 -0.3196  0.5731 -0.7399
 1203SOL     OW15070   3.404   0.591   1.652 -0.0943  0.4725  0.1180
 1203SOL    HW115071   3.419   0.568   1.561 -0.2159 -0.6435  0.3878
 1203SOL    HW215072   3.488   0.632   1.676 -1.0893  2.1575  0.7941
 1204SOL     OW15073   0.076   3.424   9.897  0.6204 -0.2305  0.3604
 1204SOL    HW115074   0.135   3.430   9.972  0.1134 -0.1469  0.7547
 1204SOL    HW215075   0.080   3.332   9.873  1.0864  0.3231 -1.6898
 1205SOL     OW15076   1.341   4.565   2.386 -0.1911 -0.2510  0.3690
 1205SOL    HW115077   1.318   4.527   2.471  0.2689 -0.0243  0.5960
 1205SOL    HW215078   1.423   4.521   2.364 -0.0926 -0.3052  0.8399
 1206SOL     OW15079   3.741   4.153  14.928  0.4039 -0.3833 -0.1967
 1206SOL    HW115080   3.690   4.223  14.968  3.3547  1.6386 -0.0601
 1206SOL    HW215081   3.683   4.124  14.857  0.9076  0.8596 -1.1118
 1207SOL     OW15082   2.692   4.614   4.891  0.2799  0.7480  0.3513
 1207SOL    HW115083   2.720   4.523   4.900  1.0348  0.9564  0.0716
 1207SOL    HW215084   2.773   4.664   4.889  0.7237 -0.0430 -1.9446
 1208SOL     OW15085   2.251   3.188   4.572 -0.5247 -0.0507  0.1164
 1208SOL    HW115086   2.223   3.224   4.657  0.6727 -0.1106  0.5389
 1208SOL    HW215087   2.315   3.256   4.549  0.6898 -1.6568 -1.1577
 1209SOL     OW15088   3.417   2.851  13.940  0.5240 -0.6891 -0.5753
 1209SOL    HW115089   3.369   2.785  13.990  0.5603 -1.1636 -1.1632
 1209SOL    HW215090   3.352   2.883  13.877  1.1941 -0.3270 -1.0877
 1210SOL     OW15091   2.750   2.007   6.981  0.5182 -0.1236  0.3983
 1210SOL    HW115092   2.702   2.087   7.003  0.7800  0.1239  0.0659
 1210SOL    HW215093   2.828   2.027   7.033 -0.0156  2.6500  0.1247
 1211SOL     OW15094   1.102   3.630   5.541 -0.3199  0.0560 -0.0683
 1211SOL    HW115095   1.148   3.692   5.598  0.6129  0.7402 -1.5562
 1211SOL    HW215096   1.035   3.686   5.503 -0.3575  0.2942  0.3480
 1212SOL     OW15097   0.197   3.540   0.484 -0.2315 -0.5195  0.9217
 1212SOL    HW115098   0.142   3.597   0.430 -1.7750 -0.8218  2.1757
 1212SOL    HW215099   0.194   3.589   0.566  0.8344  0.8745  0.1155
 1213SOL     OW15100   1.270   2.591   6.844 -0.2723  0.0386 -0.0871
 1213SOL    HW115101   1.289   2.611   6.935 -0.4882 -2.2691  0.4499
 1213SOL    HW215102   1.310   2.670   6.806 -2.2205 -0.5076 -3.3642
 1214SOL     OW15103   0.285   0.961   8.291  0.2269 -0.1630 -0.0418
 1214SOL    HW115104   0.223   0.937   8.222 -1.1324 -1.6802  1.7113
 1214SOL    HW215105   0.269   0.892   8.355 -0.6445  0.3223  0.2594
 1215SOL     OW15106   0.884   3.904  16.105  0.3354 -0.0642 -0.6909
 1215SOL    HW115107   0.931   3.849  16.168 -0.7350 -0.2426 -0.0456
 1215SOL    HW215108   0.816   3.932  16.167  0.7428  0.3878 -0.4420
 1216SOL     OW15109   3.977   4.138   5.263 -0.2880  0.2191 -0.1021
 1216SOL    HW115110   3.918   4.084   5.314  0.6568 -1.1711 -0.4919
 1216SOL    HW215111   4.066   4.123   5.296  0.2637  2.9053 -0.3187
 1217SOL     OW15112   1.926   3.875  13.469 -0.2716  0.0992  0.1905
 1217SOL    HW115113   1.856   3.925  13.510  0.9596  2.6773 -0.7971
 1217SOL    HW215114   2.002   3.908  13.518  0.0008  1.2815 -1.0021
 1218SOL     OW15115   3.082   1.480   2.934  0.0128  0.6138  0.6451
 1218SOL    HW115116   3.034   1.455   2.855 -2.8072  0.4919  2.3949
 1218SOL    HW215117   3.038   1.553   2.978  0.1992  1.2448 -0.2138
 1219SOL     OW15118   3.491   1.102   2.948  0.1482 -0.5919  0.0180
 1219SOL    HW115119   3.510   1.189   2.983 -0.4586 -0.6209  0.4129
 1219SOL    HW215120   3.436   1.115   2.872  1.1249  0.9776 -0.4173
 1220SOL     OW15121   2.680   3.049   3.030 -0.1741  0.0699 -0.5203
 1220SOL    HW115122   2.734   2.995   3.088 -0.1421  2.7244  1.9156
 1220SOL    HW215123   2.708   3.023   2.942 -4.4858 -1.3918 -1.4712
 1221SOL     OW15124   1.811   2.319   1.469  0.4117 -0.1597 -0.1032
 1221SOL    HW115125   1.801   2.224   1.481 -0.8408  0.0341  0.3556
 1221SOL    HW215126   1.903   2.334   1.490 -0.0949  0.2279  1.8000
 1222SOL     OW15127   0.533   1.863   4.616  0.0580 -0.2234  0.3267
 1222SOL    HW115128   0.455   1.820   4.580  0.2145  0.1703 -0.4931
 1222SOL    HW215129   0.585   1.783   4.624  0.2271 -0.0636  0.8258
 1223SOL     OW15130   3.403   2.510   7.657  0.1259 -0.1191 -0.4461
 1223SOL    HW115131   3.446   2.474   7.579 -0.6972 -2.2961  0.1082
 1223SOL    HW215132   3.382   2.429   7.704 -0.0478  0.4602  0.4692
 1224SOL     OW15133   2.018   2.430   6.521  0.0078  0.0360 -0.2661
 1224SOL    HW115134   2.024   2.525   6.536  0.4395  0.0794 -0.7196
 1224SOL    HW215135   1.934   2.411   6.562  0.4592 -1.9100 -0.2311
 1225SOL     OW15136   1.686   0.158  17.107  0.1230  0.0554 -0.5070
 1225SOL    HW115137   1.651   0.103  17.037  1.4633  2.0767 -2.7775
 1225SOL    HW215138   1.612   0.155  17.168  0.1334 -0.6135 -0.5284
 1226SOL     OW15139   0.551   0.179  10.603 -0.4938 -0.4366  0.1866
 1226SOL    HW115140   0.611   0.252  10.587 -0.7426 -0.8929 -2.8619
 1226SOL    HW215141   0.474   0.200  10.550  0.3485  3.3212  0.4458
 1227SOL     OW15142   1.690   0.541   7.529 -0.1875  0.2560  0.9807
 1227SOL    HW115143   1.631   0.611   7.500 -0.3854 -1.1582 -2.1015
 1227SOL    HW215144   1.762   0.587   7.572  2.1024 -0.6276 -1.8891
 1228SOL     OW15145   0.572   1.381   8.830 -0.8343 -0.3165 -0.5478
 1228SOL    HW115146   0.605   1.448   8.890 -0.1873  0.3465 -1.6474
 1228SOL    HW215147   0.644   1.373   8.768 -1.0127  0.7852 -0.9013
 1229SOL     OW15148   2.243   4.589  11.569  0.5184  0.8176 -0.2259
 1229SOL    HW115149   2.160   4.619  11.533  0.6346  0.7315 -0.5601
 1229SOL    HW215150   2.273   4.666  11.617 -0.2432  1.3282 -0.5673
 1230SOL     OW15151   0.942   1.920   9.415 -0.3350  0.4035  0.8902
 1230SOL    HW115152   0.851   1.896   9.399  0.0694 -0.4429 -0.2066
 1230SOL    HW215153   0.927   1.997   9.469  1.8976  0.4401  1.4705
 1231SOL     OW15154   1.344   2.941   1.693  0.0658 -0.2022  0.0014
 1231SOL    HW115155   1.359   2.873   1.628 -0.9528  0.8334 -1.3113
 1231SOL    HW215156   1.248   2.939   1.690 -0.0121  0.7709  2.0481
 1232SOL     OW15157   1.021   4.213  16.737  0.3913  0.1498 -0.1359
 1232SOL    HW115158   0.985   4.233  16.650  0.9684 -4.6536 -1.4899
 1232SOL    HW215159   1.114   4.218  16.717  0.5343 -0.9598  0.2620
 1233SOL     OW15160   0.174   0.966   8.652  0.0655 -0.3846 -0.5112
 1233SOL    HW115161   0.119   1.039   8.625 -0.7266 -0.5788  0.5435
 1233SOL    HW215162   0.200   1.000   8.738  0.7488 -4.4674  0.9214
 1234SOL     OW15163   0.248   2.237  10.422  0.7860  0.3170 -0.5195
 1234SOL    HW115164   0.187   2.218  10.493 -0.6867 -1.4913 -2.3023
 1234SOL    HW215165   0.332   2.222  10.465 -0.9698  0.8630  3.1090
 1235SOL     OW15166   0.303   4.261   3.899  0.4667  0.5583 -0.3488
 1235SOL    HW115167   0.364   4.227   3.964 -1.6643  2.9022  2.9517
 1235SOL    HW215168   0.329   4.201   3.830  0.2602  1.1917 -0.9775
 1236SOL     OW15169   4.484   4.138   1.263 -0.1843 -0.3424  0.2095
 1236SOL    HW115170   4.558   4.193   1.235 -1.1693  1.0041  0.2464
 1236SOL    HW215171   4.476   4.153   1.357  0.0875 -0.2703  0.2227
 1237SOL     OW15172   4.485   0.798   8.360  0.1422 -0.1034  0.6550
 1237SOL    HW115173   4.403   0.784   8.408 -0.8472  2.7315 -0.2298
 1237SOL    HW215174   4.494   0.893   8.351  0.2913 -0.1700  0.0595
 1238SOL     OW15175   0.341   2.073  12.418  0.3209 -0.2219  0.1483
 1238SOL    HW115176   0.353   2.141  12.484 -0.2426  0.6966 -0.6943
 1238SOL    HW215177   0.428   2.071  12.379  0.1434 -2.6791 -0.1001
 1239SOL     OW15178   0.546   1.336  10.397  0.4207 -0.1216 -0.2018
 1239SOL    HW115179   0.507   1.250  10.408  2.3359 -1.0302 -0.5627
 1239SOL    HW215180   0.538   1.336  10.302  1.2951 -2.3014 -0.2649
 1240SOL     OW15181   1.202   2.201   9.435 -0.3900  0.1820  0.4634
 1240SOL    HW115182   1.292   2.192   9.405 -0.5743  1.5230 -0.4635
 1240SOL    HW215183   1.228   2.204   9.528 -1.1785 -0.3609  0.7028
 1241SOL     OW15184   0.155   4.146   3.453 -0.1444  0.2129  0.0506
 1241SOL    HW115185   0.138   4.206   3.525  2.4159  0.8424  0.1277
 1241SOL    HW215186   0.110   4.073   3.495 -1.6811  1.0149 -0.1695
 1242SOL     OW15187   4.701   1.455   6.488  0.3123 -0.2650 -0.4548
 1242SOL    HW115188   4.680   1.535   6.440  1.3409 -0.7591 -1.7424
 1242SOL    HW215189   4.630   1.439   6.550  1.5122 -0.2481  0.9279
 1243SOL     OW15190   3.302   1.105   1.684  0.1660  0.2933 -0.4761
 1243SOL    HW115191   3.395   1.092   1.700 -0.2328 -1.0643  0.7722
 1243SOL    HW215192   3.267   1.104   1.774  0.8926 -1.8780 -0.2299
 1244SOL     OW15193   0.270   2.304  14.808 -0.2954  0.2922  0.5703
 1244SOL    HW115194   0.226   2.275  14.728 -2.5564  1.2239  1.4730
 1244SOL    HW215195   0.258   2.219  14.851 -0.6178 -0.7350 -1.5778
 1245SOL     OW15196   0.525   2.454   0.074 -0.7585 -0.0795 -0.3270
 1245SOL    HW115197   0.581   2.527   0.048  0.0656 -1.0334 -1.2259
 1245SOL    HW215198   0.465   2.480   0.145 -1.7827  0.3950 -1.3658
 1246SOL     OW15199   4.559   0.206  10.799 -0.1847  0.6561 -0.0809
 1246SOL    HW115200   4.647   0.170  10.801 -0.9051 -1.0567  0.3835
 1246SOL    HW215201   4.509   0.162  10.868 -0.3280  1.4649  0.3296
 1247SOL     OW15202   3.204   1.725   4.174 -0.2222  0.3314 -0.4988
 1247SOL    HW115203   3.261   1.691   4.242 -0.2061  2.4442  0.5585
 1247SOL    HW215204   3.122   1.708   4.220  0.8641 -3.7364 -0.1199
 1248SOL     OW15205   0.593   2.767   3.010 -0.2817 -0.0721 -0.2859
 1248SOL    HW115206   0.612   2.834   2.944  0.5991  0.5059  0.5610
 1248SOL    HW215207   0.683   2.737   3.027  0.1557 -0.5626 -3.4356
 1249SOL     OW15208   1.935   1.447   6.726 -0.6332 -0.1578 -0.1376
 1249SOL    HW115209   1.959   1.539   6.734 -1.3186 -0.0956  1.0882
 1249SOL    HW215210   1.928   1.446   6.631  2.3881 -2.4912 -0.3440
 1250SOL     OW15211   3.131   3.065  17.346 -0.2844  0.2973  0.5838
 1250SOL    HW115212   3.068   3.015  17.398 -1.4886  1.4384  0.1986
 1250SOL    HW215213   3.147   3.151  17.385 -0.0212 -0.9121  3.1391
 1251SOL     OW15214   1.150   1.734   9.773  0.1063  0.4152 -0.0990
 1251SOL    HW115215   1.163   1.820   9.733  0.4692  0.3129 -0.2003
 1251SOL    HW215216   1.144   1.754   9.866 -1.0680 -2.9049  0.5458
 1252SOL     OW15217   1.688   0.704   5.202 -0.0654  0.0048 -0.1076
 1252SOL    HW115218   1.643   0.781   5.168  1.2903 -0.5774 -3.1970
 1252SOL    HW215219   1.732   0.676   5.121  0.1085  0.9740 -0.3395
 1253SOL     OW15220   2.377   1.881   6.539 -0.1045 -0.0843 -0.2024
 1253SOL    HW115221   2.302   1.916   6.491  0.6687  1.9493  0.0812
 1253SOL    HW215222   2.385   1.801   6.488 -3.3199 -0.8496  0.5206
 1254SOL     OW15223   0.873   4.184   2.127 -0.1285 -0.0054 -0.3306
 1254SOL    HW115224   0.937   4.160   2.059 -0.0992  0.1538 -0.3590
 1254SOL    HW215225   0.813   4.109   2.123 -0.3778  0.2483 -1.3975
 1255SOL     OW15226   4.223   2.166   2.575  0.1179 -0.9789 -0.4320
 1255SOL    HW115227   4.151   2.117   2.535  1.0655 -0.6856 -2.5235
 1255SOL    HW215228   4.194   2.257   2.565  2.9508  0.0679  0.8315
 1256SOL     OW15229   3.856   2.199   1.947 -0.3052 -0.2176 -0.0339
 1256SOL    HW115230   3.930   2.249   1.912  2.4198 -3.1986  1.4284
 1256SOL    HW215231   3.839   2.142   1.872  0.4852 -0.9663  0.3601
 1257SOL     OW15232   3.742   1.241   7.999  0.3160 -0.1438 -0.0577
 1257SOL    HW115233   3.647   1.234   8.008  0.0006  0.0800 -3.5627
 1257SOL    HW215234   3.771   1.191   8.076  0.5573 -0.6709 -0.4892
 1258SOL     OW15235   1.203   3.829   7.790 -0.2416  0.3385 -0.0583
 1258SOL    HW115236   1.205   3.745   7.745 -2.3305 -0.0994  0.6788
 1258SOL    HW215237   1.118   3.821   7.833 -1.1785  2.8435 -1.4451
 1259SOL     OW15238   3.529   0.638  13.858  0.1740 -0.2433 -0.2163
 1259SOL    HW115239   3.615   0.642  13.899 -1.2370 -0.0898  2.7168
 1259SOL    HW215240   3.487   0.561  13.896  0.7245  0.3141  1.5122
 1260SOL     OW15241   1.170   1.957  11.261  0.2020 -0.5131 -0.1712
 1260SOL    HW115242   1.200   1.947  11.171  1.1058  2.7319 -0.2550
 1260SOL    HW215243   1.078   1.957  11.234  0.1235  0.0141  0.0862
 1261SOL     OW15244   3.239   4.504  15.368  0.1022 -0.6034 -0.2341
 1261SOL    HW115245   3.219   4.558  15.292  0.6313 -0.6572 -0.4117
 1261SOL    HW215246   3.334   4.512  15.358 -0.3842  1.8099 -2.7020
 1262SOL     OW15247   3.425   3.884   8.761  0.5147 -0.4501  0.2904
 1262SOL    HW115248   3.507   3.891   8.712  0.1819  1.5013  0.0052
 1262SOL    HW215249   3.394   3.794   8.752 -2.3842  0.4269  1.4845
 1263SOL     OW15250   4.041   2.628   2.665 -0.2365  0.5618  0.2750
 1263SOL    HW115251   3.963   2.677   2.640 -0.2834  1.3128  1.8940
 1263SOL    HW215252   4.036   2.647   2.759  1.2394 -0.1430  0.5021
 1264SOL     OW15253   4.321   2.891   9.354 -0.1454 -0.5431 -0.5375
 1264SOL    HW115254   4.303   2.814   9.407 -0.5854 -0.3007 -0.3285
 1264SOL    HW215255   4.289   2.858   9.269  0.5678 -0.4655 -0.8327
 1265SOL     OW15256   1.565   2.456   3.313  0.7430  0.0743  0.2858
 1265SOL    HW115257   1.592   2.486   3.400 -0.4190 -0.5679  0.8832
 1265SOL    HW215258   1.535   2.541   3.281 -0.7899 -1.5536 -2.6364
 1266SOL     OW15259   3.357   1.673   4.737  0.7633 -0.7623 -0.0507
 1266SOL    HW115260   3.325   1.607   4.799 -3.2896 -1.2098 -2.5551
 1266SOL    HW215261   3.443   1.647   4.703  1.0078 -1.7955  1.3863
 1267SOL     OW15262   1.838   0.152   4.610 -0.4064  0.7651  0.0460
 1267SOL    HW115263   1.916   0.185   4.654 -1.4232 -0.6278  2.9109
 1267SOL    HW215264   1.764   0.209   4.632 -0.7334  0.2075  0.3797
 1268SOL     OW15265   0.844   4.151   7.953  0.7507  0.4315 -0.1082
 1268SOL    HW115266   0.877   4.238   7.974  0.1175  0.3624  1.1647
 1268SOL    HW215267   0.774   4.177   7.893  1.1691 -0.9678 -1.2099
 1269SOL     OW15268   4.554   2.111   7.789  0.0626  0.2489  0.0370
 1269SOL    HW115269   4.485   2.045   7.800  0.5765 -0.0643  1.4163
 1269SOL    HW215270   4.634   2.064   7.812  2.0318  1.5849 -4.0032
 1270SOL     OW15271   3.571   3.190   5.588 -0.0856 -0.7025 -0.0294
 1270SOL    HW115272   3.564   3.202   5.493  0.7531 -0.6859 -0.0839
 1270SOL    HW215273   3.594   3.097   5.595 -0.1291 -0.8755 -2.0190
 1271SOL     OW15274   2.263   3.911   3.103  0.1044  0.1981 -0.4420
 1271SOL    HW115275   2.220   3.936   3.185  0.0004  1.6822 -0.9495
 1271SOL    HW215276   2.219   3.828   3.086 -0.4747  0.5523 -0.6770
 1272SOL     OW15277   3.074   2.078   3.304 -0.6906  0.0857  0.3564
 1272SOL    HW115278   3.030   1.995   3.287  0.6077 -0.7382  1.1343
 1272SOL    HW215279   3.167   2.062   3.295 -1.0642 -1.4389 -0.8120
 1273SOL     OW15280   3.734   1.422   3.957  0.0889  0.3058  0.5280
 1273SOL    HW115281   3.732   1.487   3.887 -3.1979  1.8967  2.0578
 1273SOL    HW215282   3.789   1.361   3.909 -0.7325  0.6223 -0.8223
 1274SOL     OW15283   4.498   0.034  12.537  0.8992 -0.2149 -0.5487
 1274SOL    HW115284   4.586   0.037  12.500  0.7224  2.0900 -0.7571
 1274SOL    HW215285   4.487   4.663  12.555 -1.5153  0.6347  2.4430
 1275SOL     OW15286   3.367   3.265   2.304 -0.1238 -0.7632  0.2753
 1275SOL    HW115287   3.294   3.224   2.257 -1.0479  0.6788  0.4633
 1275SOL    HW215288   3.394   3.207   2.375 -0.0340 -1.1426 -0.0641
 1276SOL     OW15289   1.286   2.945   8.867 -0.0862 -0.3066 -0.1759
 1276SOL    HW115290   1.339   2.990   8.933  0.1185  0.4481 -0.8559
 1276SOL    HW215291   1.340   2.869   8.848  0.3115 -0.3053  0.9435
 1277SOL     OW15292   3.943   2.626   6.478  0.6265  0.1150  0.1618
 1277SOL    HW115293   3.855   2.661   6.494 -0.6704 -3.8544  1.5528
 1277SOL    HW215294   3.987   2.689   6.421  2.2011  0.4808  1.7778
 1278SOL     OW15295   3.488   0.335   6.635 -0.2119  0.0098  0.4947
 1278SOL    HW115296   3.520   0.294   6.716  1.7443 -0.8212 -0.7003
 1278SOL    HW215297   3.558   0.395   6.613 -0.9601  1.2123  1.3847
 1279SOL     OW15298   2.475   1.242   2.879  0.1913  0.5939 -0.3939
 1279SOL    HW115299   2.569   1.253   2.894  0.2951 -1.5672  0.6130
 1279SOL    HW215300   2.471   1.188   2.799 -1.0000  0.7344 -0.4269
 1280SOL     OW15301   3.130   2.779   7.203 -0.3906 -0.3078 -0.1456
 1280SOL    HW115302   3.093   2.846   7.259  0.7711  1.2653 -1.2763
 1280SOL    HW215303   3.047   2.753   7.162 -0.4218  0.4306 -0.5537
 1281SOL     OW15304   3.480   1.014   7.242  0.3408 -0.5420  0.3848
 1281SOL    HW115305   3.388   0.987   7.246  0.4187 -0.8939 -0.1907
 1281SOL    HW215306   3.494   1.012   7.147  0.8477 -1.5571  0.4905
 1282SOL     OW15307   3.306   3.547  13.244  0.2737 -0.0003 -0.3129
 1282SOL    HW115308   3.324   3.532  13.337 -1.6166 -0.6638 -0.0380
 1282SOL    HW215309   3.382   3.595  13.211  0.6559  0.4726  1.2649
 1283SOL     OW15310   1.750   3.463   7.924 -0.4401 -0.0261  0.3057
 1283SOL    HW115311   1.822   3.514   7.887  1.0817 -1.1482  1.7200
 1283SOL    HW215312   1.802   3.431   7.997  0.4343 -0.5371 -0.5474
 1284SOL     OW15313   3.350   0.556  15.345 -0.2417 -0.2158  0.2044
 1284SOL    HW115314   3.415   0.528  15.410 -0.9540  0.2642  1.1328
 1284SOL    HW215315   3.406   0.585  15.273 -0.5743  3.7583  1.5570
 1285SOL     OW15316   4.159   2.421   2.551  0.3495  0.0806 -0.2252
 1285SOL    HW115317   4.113   2.500   2.579  0.6695 -0.9308  3.1499
 1285SOL    HW215318   4.196   2.450   2.467  0.5830  0.9161  0.1693
 1286SOL     OW15319   2.794   4.364   4.936 -0.3137  0.2281 -0.5778
 1286SOL    HW115320   2.752   4.302   4.996 -0.0909 -0.0197 -0.6802
 1286SOL    HW215321   2.867   4.399   4.986 -1.3927 -0.9829  1.8817
 1287SOL     OW15322   1.781   1.224  10.405  0.0881  0.7398  0.4106
 1287SOL    HW115323   1.850   1.163  10.379 -0.4070  0.2777  0.1745
 1287SOL    HW215324   1.833   1.298  10.436 -1.1669  1.2814  1.2030
 1288SOL     OW15325   3.379   3.200  13.674 -0.6303  0.0410  0.5846
 1288SOL    HW115326   3.322   3.276  13.687 -0.0596  0.6941 -0.6797
 1288SOL    HW215327   3.469   3.232  13.676 -0.8540  0.6862  0.3946
 1289SOL     OW15328   4.511   0.998   5.429  0.7672 -0.1884  0.1234
 1289SOL    HW115329   4.569   1.050   5.373  0.5194 -1.5185 -1.3512
 1289SOL    HW215330   4.570   0.926   5.451  0.4062  0.0159  1.7653
 1290SOL     OW15331   0.879   3.412   4.705  0.1197 -0.0479  0.8578
 1290SOL    HW115332   0.963   3.378   4.673  1.8178  3.1123  1.8663
 1290SOL    HW215333   0.837   3.434   4.622 -0.4589  2.1349  1.7186
 1291SOL     OW15334   2.700   1.269   2.284  0.1799  0.1802 -0.3871
 1291SOL    HW115335   2.785   1.286   2.243  0.9505  0.1425  1.1853
 1291SOL    HW215336   2.710   1.328   2.359 -1.6041 -0.8183  0.6220
 1292SOL     OW15337   3.437   0.550   9.476  0.0244  0.0408  0.2721
 1292SOL    HW115338   3.497   0.475   9.477  1.1897  0.9694  1.8946
 1292SOL    HW215339   3.460   0.593   9.559 -1.9159 -1.2526  1.4663
 1293SOL     OW15340   3.184   3.520  12.921  0.0194  0.6379 -0.1944
 1293SOL    HW115341   3.267   3.564  12.901 -0.1081 -0.0931 -2.3798
 1293SOL    HW215342   3.216   3.430  12.922 -0.2213  0.5452 -1.1302
 1294SOL     OW15343   1.744   2.079  11.097 -0.3313  0.4936  0.3693
 1294SOL    HW115344   1.707   1.997  11.131 -1.7086  0.7287 -0.5675
 1294SOL    HW215345   1.663   2.116  11.062  0.8503 -0.0794 -3.0002
 1295SOL     OW15346   2.378   4.543   7.837  0.7112  0.0827 -0.9013
 1295SOL    HW115347   2.457   4.598   7.841 -0.9924  2.3925  0.6188
 1295SOL    HW215348   2.408   4.483   7.769  0.8353 -1.6080  0.6353
 1296SOL     OW15349   2.178   2.901   5.966  0.1874 -0.2414  0.0632
 1296SOL    HW115350   2.206   2.849   6.041  1.3329  0.9946  0.4838
 1296SOL    HW215351   2.164   2.828   5.906 -1.0019 -1.0555  1.3348
 1297SOL     OW15352   3.665   0.699  10.203 -0.8106 -0.7882  0.1319
 1297SOL    HW115353   3.579   0.682  10.243 -1.4285  0.4990 -0.6492
 1297SOL    HW215354   3.719   0.718  10.280 -0.0087  1.9544 -1.1385
 1298SOL     OW15355   0.284   3.024   6.459  0.3694  0.0309 -0.0556
 1298SOL    HW115356   0.347   3.003   6.527 -0.6193 -0.7878  0.6116
 1298SOL    HW215357   0.274   3.116   6.484  0.2477 -0.3615  1.3363
 1299SOL     OW15358   1.477   2.320   4.085  0.0420  0.0703  0.0775
 1299SOL    HW115359   1.541   2.348   4.152 -0.6945  2.7572 -0.3626
 1299SOL    HW215360   1.403   2.374   4.113 -1.5240 -1.7026 -0.7382
 1300SOL     OW15361   1.054   3.639   4.899 -0.0239  0.6288 -0.3031
 1300SOL    HW115362   1.025   3.645   4.990 -0.6374  1.5915 -0.5545
 1300SOL    HW215363   1.113   3.565   4.906 -0.7968 -0.1158 -1.5742
 1301SOL     OW15364   3.680   2.002   8.001 -0.5330 -0.5560  0.8242
 1301SOL    HW115365   3.589   2.025   7.982 -1.1535 -1.6248  2.5351
 1301SOL    HW215366   3.728   2.073   7.957 -0.3340 -0.7111  0.7875
 1302SOL     OW15367   3.896   0.693  10.367  0.3661 -0.2667  0.0850
 1302SOL    HW115368   3.898   0.786  10.392 -2.0159  0.2594 -1.7483
 1302SOL    HW215369   3.967   0.664  10.425  1.0202  1.1752  0.0310
 1303SOL     OW15370   1.726   0.767  17.559  0.3975  0.0052 -0.1979
 1303SOL    HW115371   1.760   0.684  17.593 -0.2638 -0.4755 -0.7031
 1303SOL    HW215372   1.741   0.822  17.636  2.3367 -0.3424 -0.3305
 1304SOL     OW15373   2.850   4.710   3.617 -0.3683  0.4131  0.2317
 1304SOL    HW115374   2.820   4.620   3.605 -2.1436  0.9720  0.5844
 1304SOL    HW215375   2.828   0.027   3.533 -0.0147  1.6782  0.7296
 1305SOL     OW15376   2.698   4.003   4.661  0.4916 -0.0550 -0.1626
 1305SOL    HW115377   2.671   4.024   4.750  1.2618  0.9472 -0.1604
 1305SOL    HW215378   2.639   3.930   4.644  0.6184 -0.3935  0.8785
 1306SOL     OW15379   1.466   4.540   5.306  0.0942  0.1267 -0.0957
 1306SOL    HW115380   1.482   4.519   5.398  0.3236  0.3439 -0.0869
 1306SOL    HW215381   1.429   4.629   5.303 -1.2450 -0.4390 -0.1776
 1307SOL     OW15382   1.694   1.860   7.412 -0.4956 -0.3735 -0.3289
 1307SOL    HW115383   1.749   1.814   7.476 -0.2432 -0.2521 -0.4591
 1307SOL    HW215384   1.606   1.828   7.434 -0.5827 -0.0810 -0.2593
 1308SOL     OW15385   0.462   2.960   9.484  0.4659  0.2862  0.2788
 1308SOL    HW115386   0.489   2.870   9.467  0.3857 -0.2132  2.8367
 1308SOL    HW215387   0.544   3.010   9.484 -0.4897  1.8861  3.5722
 1309SOL     OW15388   3.385   0.800   1.095  0.2039 -0.3951 -0.0438
 1309SOL    HW115389   3.350   0.732   1.153  0.4347 -0.8321 -0.4183
 1309SOL    HW215390   3.460   0.755   1.056  1.0079 -0.5741  1.6935
 1310SOL     OW15391   3.011   1.590   6.014 -0.7155  0.3609 -0.0337
 1310SOL    HW115392   3.049   1.518   5.963  0.6207  1.2758 -0.3348
 1310SOL    HW215393   2.950   1.536   6.064 -1.1844  0.6748 -0.2686
 1311SOL     OW15394   0.431   2.528   7.460 -0.2861 -0.1656 -0.1857
 1311SOL    HW115395   0.468   2.584   7.528  1.2433 -0.9604 -0.3766
 1311SOL    HW215396   0.473   2.444   7.478  2.2679  1.2784  0.6488
 1312SOL     OW15397   1.860   1.316   5.705  0.0255  0.5522 -0.4412
 1312SOL    HW115398   1.913   1.301   5.627  0.2018 -0.0975 -0.1950
 1312SOL    HW215399   1.803   1.387   5.677  1.2400  1.5096 -0.4577
 1313SOL     OW15400   2.986   0.871   7.544 -0.2599 -0.0403 -0.0331
 1313SOL    HW115401   2.891   0.879   7.554 -0.4249 -1.7449 -0.1482
 1313SOL    HW215402   3.008   0.782   7.516  1.3801 -0.4795  2.6676
 1314SOL     OW15403   1.620   1.018   5.511 -0.1510 -0.0201 -0.0500
 1314SOL    HW115404   1.690   0.999   5.574  0.0829  0.1609 -0.2575
 1314SOL    HW215405   1.575   0.933   5.507 -0.0570 -0.2106  2.7219
 1315SOL     OW15406   0.780   3.479   3.942 -0.0579 -0.1483 -0.1409
 1315SOL    HW115407   0.774   3.384   3.953  0.4518  0.0528  1.9470
 1315SOL    HW215408   0.698   3.506   3.903  0.6732 -2.8777 -3.5833
 1316SOL     OW15409   1.920   0.802   8.646  0.3645 -0.2833 -0.0308
 1316SOL    HW115410   1.906   0.709   8.664 -0.3728  0.1235  1.4979
 1316SOL    HW215411   1.896   0.840   8.731  1.3597  2.6265 -1.0455
 1317SOL     OW15412   3.328   3.838   4.989  0.9804 -0.0890  0.7049
 1317SOL    HW115413   3.377   3.848   5.070  2.5885  2.4539 -0.6122
 1317SOL    HW215414   3.239   3.831   5.024  0.6822 -2.8065 -0.5445
 1318SOL     OW15415   0.206   3.846   4.945  0.0194 -0.5909 -0.1590
 1318SOL    HW115416   0.168   3.864   4.859 -2.0354 -2.2803  0.3991
 1318SOL    HW215417   0.219   3.937   4.974  0.9191 -0.7592 -0.0236
 1319SOL     OW15418   2.568   1.352   1.641 -0.1191 -0.2827  0.4672
 1319SOL    HW115419   2.638   1.292   1.615  0.2095  0.0827  0.5001
 1319SOL    HW215420   2.572   1.427   1.580 -0.0917 -1.1970 -0.6616
 1320SOL     OW15421   1.364   4.385   3.893 -0.2335  0.4184  0.0326
 1320SOL    HW115422   1.306   4.398   3.819  0.4128  0.6396 -0.4378
 1320SOL    HW215423   1.433   4.323   3.872 -0.5367 -0.2627  1.0235
 1321SOL     OW15424   4.141   2.233   4.404  0.0376  0.3492 -0.1345
 1321SOL    HW115425   4.126   2.215   4.311 -1.4092 -4.0616  0.9378
 1321SOL    HW215426   4.235   2.220   4.400 -0.0050 -0.0411  0.1054
 1322SOL     OW15427   2.499   2.430   5.457 -0.1064  0.0760 -0.5689
 1322SOL    HW115428   2.550   2.383   5.392  0.1164 -2.5428  1.4946
 1322SOL    HW215429   2.465   2.501   5.403  1.6547  0.9670 -0.4916
 1323SOL     OW15430   1.869   0.927   6.964 -0.0629 -0.3832  0.4800
 1323SOL    HW115431   1.801   0.962   6.907 -1.4982 -1.7151  1.3681
 1323SOL    HW215432   1.809   0.885   7.026  0.3730 -2.1594 -0.3144
 1324SOL     OW15433   1.405   0.709   3.703  0.1084 -0.5836 -0.5777
 1324SOL    HW115434   1.316   0.676   3.712  0.1944 -1.3896 -2.8635
 1324SOL    HW215435   1.462   0.633   3.707 -0.0197 -0.6922 -0.8226
 1325SOL     OW15436   3.371   1.814   7.344  0.2090 -0.1556  0.2858
 1325SOL    HW115437   3.451   1.796   7.393  0.1518 -0.5501  0.2294
 1325SOL    HW215438   3.404   1.880   7.283 -0.8888  0.1698  0.0405
 1326SOL     OW15439   3.056   3.662   4.530 -0.6179  0.0783 -0.4159
 1326SOL    HW115440   3.047   3.581   4.581  0.0608  1.1298  1.3596
 1326SOL    HW215441   3.076   3.724   4.600  1.2342 -1.8493  0.7425
 1327SOL     OW15442   1.443   2.539   3.873  0.2920 -0.7783  0.1637
 1327SOL    HW115443   1.406   2.458   3.907  1.0256 -1.2159 -0.0914
 1327SOL    HW215444   1.533   2.527   3.902  0.2484  0.6803  0.8874
 1328SOL     OW15445   0.499   0.529  15.978 -0.0587 -0.6383 -0.2889
 1328SOL    HW115446   0.540   0.572  16.053  1.0907  1.4716 -2.1390
 1328SOL    HW215447   0.579   0.513  15.928 -0.8475  0.7660 -1.9730
 1329SOL     OW15448   2.872   0.908   0.763 -0.2430 -0.1289 -0.7103
 1329SOL    HW115449   2.828   0.986   0.797  1.4445  1.7810 -2.8770
 1329SOL    HW215450   2.892   0.857   0.842  2.4262 -2.5214 -2.9374
 1330SOL     OW15451   0.565   4.037   0.689 -0.5236 -0.4341 -0.1019
 1330SOL    HW115452   0.575   3.951   0.730  1.9076 -0.3667 -0.5396
 1330SOL    HW215453   0.614   4.035   0.607 -2.1943  0.5821 -1.1325
 1331SOL     OW15454   2.540   1.496   6.669  0.0375  0.2979 -0.0408
 1331SOL    HW115455   2.509   1.521   6.581 -0.1614  0.0460 -0.0455
 1331SOL    HW215456   2.454   1.494   6.712  1.4090  2.5455  2.7656
 1332SOL     OW15457   0.248   2.086  14.942 -0.2587 -0.2884 -0.4724
 1332SOL    HW115458   0.333   2.047  14.962 -0.7461 -1.3059 -0.3688
 1332SOL    HW215459   0.179   2.022  14.965  0.3447 -0.9732 -0.5655
 1333SOL     OW15460   2.461   0.402   5.451 -0.1675  0.4235  0.3603
 1333SOL    HW115461   2.383   0.455   5.434 -0.0588  0.9041  1.3608
 1333SOL    HW215462   2.482   0.423   5.542  2.0393  2.6573 -0.6939
 1334SOL     OW15463   2.594   1.001  11.604  0.6413  0.3721 -0.3421
 1334SOL    HW115464   2.522   1.038  11.655 -0.6516 -0.0533 -1.8582
 1334SOL    HW215465   2.572   0.908  11.613  0.3449  0.2451 -2.4135
 1335SOL     OW15466   3.327   1.230   6.989  0.0885  0.2857 -0.7392
 1335SOL    HW115467   3.350   1.137   6.994 -1.2538  0.0813  1.5056
 1335SOL    HW215468   3.279   1.244   7.070 -1.9106 -0.6363 -1.7481
 1336SOL     OW15469   1.009   4.299  15.572  0.0771  0.4790 -0.8019
 1336SOL    HW115470   0.924   4.297  15.615  1.2163  0.2346  1.4385
 1336SOL    HW215471   1.057   4.278  15.652  0.7264  2.6732 -0.6070
 1337SOL     OW15472   1.110   0.050  12.319 -0.4144 -0.0926  0.1613
 1337SOL    HW115473   1.110   0.144  12.335  1.5708  0.0844 -0.8831
 1337SOL    HW215474   1.114   0.057  12.223 -1.4503  1.9405  0.2716
 1338SOL     OW15475   4.556   3.832  13.813 -0.5603  0.9301  0.0000
 1338SOL    HW115476   4.499   3.871  13.747  0.2878  1.5247 -0.3788
 1338SOL    HW215477   4.487   3.806  13.875  1.2779 -2.7544  0.4790
 1339SOL     OW15478   2.875   2.926   6.211 -0.0398  0.7549  0.0367
 1339SOL    HW115479   2.887   2.937   6.305 -1.1315  2.1676 -0.0001
 1339SOL    HW215480   2.963   2.898   6.183 -0.6819 -1.4849  0.1928
 1340SOL     OW15481   1.232   0.908   6.752  0.3660 -0.1978  0.1953
 1340SOL    HW115482   1.170   0.977   6.776 -0.0321 -0.4258 -0.1880
 1340SOL    HW215483   1.312   0.961   6.755 -1.7689  3.1662 -1.0454
 1341SOL     OW15484   1.881   0.286   5.576 -0.2202  0.2085 -0.0881
 1341SOL    HW115485   1.802   0.318   5.619  0.6291 -0.1304  1.7255
 1341SOL    HW215486   1.892   0.215   5.640 -1.4808  0.8298  0.8139
 1342SOL     OW15487   3.461   2.623   8.614 -0.4971  0.8635 -0.0597
 1342SOL    HW115488   3.445   2.529   8.605  3.0258  0.1167  1.5022
 1342SOL    HW215489   3.385   2.651   8.666 -1.2167  0.7399 -1.0383
 1343SOL     OW15490   0.225   3.287   2.680 -0.0935  0.4751  0.2866
 1343SOL    HW115491   0.286   3.287   2.754  2.9920  3.2126 -2.2465
 1343SOL    HW215492   0.175   3.367   2.693 -0.3232  0.3634  0.0809
 1344SOL     OW15493   1.183   1.760   2.388  0.3285  0.2666  0.0626
 1344SOL    HW115494   1.161   1.747   2.296  1.7320  1.8186 -0.4832
 1344SOL    HW215495   1.167   1.854   2.395 -1.4507 -0.1470  1.3479
 1345SOL     OW15496   4.028   2.973   1.365 -0.0398  0.5369 -0.5621
 1345SOL    HW115497   4.022   3.067   1.383  0.9547  0.7068 -1.1377
 1345SOL    HW215498   3.945   2.946   1.326  1.0265 -1.6020 -1.3711
 1346SOL     OW15499   4.204   2.843   2.616  0.0397 -0.0408 -0.0583
 1346SOL    HW115500   4.141   2.879   2.554  1.0239 -1.3404 -1.8395
 1346SOL    HW215501   4.186   2.750   2.605  1.2980 -0.0246 -2.4391
 1347SOL     OW15502   3.771   3.133   1.865  0.2319 -0.0398 -0.2927
 1347SOL    HW115503   3.692   3.129   1.919 -0.3138  0.2797 -1.0688
 1347SOL    HW215504   3.820   3.208   1.898  0.9000 -0.5682 -0.0988
 1348SOL     OW15505   1.957   2.797   7.925  0.1749 -0.0291 -0.2560
 1348SOL    HW115506   2.033   2.812   7.868  1.0523 -0.0116  0.8935
 1348SOL    HW215507   1.966   2.702   7.932 -1.3028 -0.0356  1.3987
 1349SOL     OW15508   0.374   2.664   3.810 -0.8402 -0.0744 -0.2685
 1349SOL    HW115509   0.423   2.628   3.736 -0.9722 -0.4377 -0.1774
 1349SOL    HW215510   0.317   2.589   3.826 -2.5562  1.3681  0.2723
 1350SOL     OW15511   2.824   3.292   5.188 -0.0322  0.3213  0.4283
 1350SOL    HW115512   2.889   3.312   5.121  0.1824  0.9802  0.8344
 1350SOL    HW215513   2.830   3.196   5.194  1.0329  0.2060 -2.9295
 1351SOL     OW15514   1.185   1.110   3.007  0.3637  0.6250  0.4588
 1351SOL    HW115515   1.107   1.150   2.970 -0.4057  0.6514  2.1260
 1351SOL    HW215516   1.188   1.153   3.092 -0.8208  0.3842  0.6184
 1352SOL     OW15517   1.689   3.543  13.462 -0.1046  0.5163 -0.0689
 1352SOL    HW115518   1.615   3.488  13.435  0.4185 -1.1252  1.8045
 1352SOL    HW215519   1.659   3.604  13.530 -1.3493 -1.5286  1.2449
 1353SOL     OW15520   3.286   1.861   3.511 -0.2168  0.4378  0.0888
 1353SOL    HW115521   3.363   1.869   3.455 -0.9568  0.4796 -0.9193
 1353SOL    HW215522   3.289   1.935   3.572 -0.7930  0.4205  0.1435
 1354SOL     OW15523   2.795   0.716   6.247 -0.5604  0.1721 -0.4115
 1354SOL    HW115524   2.754   0.633   6.272  2.7109 -1.0795  0.8951
 1354SOL    HW215525   2.864   0.719   6.314  0.7656 -0.9244 -1.7182
 1355SOL     OW15526   2.685   3.109   4.973  0.5407 -0.2694 -0.3883
 1355SOL    HW115527   2.614   3.173   4.966  0.8222  0.2388  1.3216
 1355SOL    HW215528   2.743   3.176   5.011  1.0756 -1.8045  1.5068
 1356SOL     OW15529   3.296   0.231  15.148  0.2950  0.3332  0.5469
 1356SOL    HW115530   3.289   0.272  15.234 -0.8208  0.1733  0.5273
 1356SOL    HW215531   3.345   0.298  15.100 -0.4502  1.6163  1.5544
 1357SOL     OW15532   0.852   2.703   3.023  0.0967  0.0226  0.5584
 1357SOL    HW115533   0.856   2.714   2.928 -1.9830  2.4400  0.7624
 1357SOL    HW215534   0.929   2.755   3.045 -1.5371  1.9319  1.8095
 1358SOL     OW15535   2.454   0.858   2.774 -0.0666  0.0553  0.8252
 1358SOL    HW115536   2.518   0.910   2.823  2.1407 -1.1186 -0.8317
 1358SOL    HW215537   2.377   0.864   2.831 -1.4620 -0.8656 -0.9738
 1359SOL     OW15538   2.766   3.381   5.691 -0.0361 -0.0745 -0.2993
 1359SOL    HW115539   2.852   3.341   5.680 -0.1404 -0.1843 -0.7069
 1359SOL    HW215540   2.739   3.402   5.601  2.1644 -1.3397 -1.2457
 1360SOL     OW15541   0.304   4.485   1.837 -0.0916  0.4956  0.4839
 1360SOL    HW115542   0.252   4.558   1.869 -1.2089  0.1795 -0.6174
 1360SOL    HW215543   0.261   4.469   1.753  1.7505 -0.1223 -0.3317
 1361SOL     OW15544   3.875   1.256   7.767  0.3977 -0.1579  0.1842
 1361SOL    HW115545   3.907   1.333   7.814 -1.4339  2.1786 -2.3159
 1361SOL    HW215546   3.803   1.226   7.823  0.4073  1.6464  1.1589
 1362SOL     OW15547   0.711   3.984   6.441 -0.2058 -0.2266 -0.1717
 1362SOL    HW115548   0.655   4.061   6.442  1.4178  0.9601 -0.1100
 1362SOL    HW215549   0.719   3.985   6.345  2.3444 -1.6989  0.0151
 1363SOL     OW15550   0.851   4.433  17.685  0.1135 -0.0155 -0.5713
 1363SOL    HW115551   0.929   4.464   0.038 -0.9586 -0.4946  1.5363
 1363SOL    HW215552   0.836   4.346   0.028 -0.0726  0.1659 -0.2124
 1364SOL     OW15553   0.553   1.977  15.286  0.0286  0.0060 -0.3030
 1364SOL    HW115554   0.636   1.929  15.291 -1.2135 -2.1373  0.1008
 1364SOL    HW215555   0.585   2.067  15.295 -1.3818  0.2541  2.1670
 1365SOL     OW15556   4.588   2.539   3.772  0.7985 -0.0765 -0.3023
 1365SOL    HW115557   4.584   2.466   3.834 -0.1372  2.2957  2.4398
 1365SOL    HW215558   4.539   2.504   3.697  0.6837 -0.6864  0.0572
 1366SOL     OW15559   0.673   2.264   4.156 -0.0650 -0.2889 -0.6065
 1366SOL    HW115560   0.678   2.284   4.062 -0.4583 -0.8248 -0.7397
 1366SOL    HW215561   0.673   2.168   4.149  0.3069 -0.3642  0.4711
 1367SOL     OW15562   0.333   1.624   4.203 -0.3458 -0.2320  0.5799
 1367SOL    HW115563   0.251   1.573   4.207  0.1605 -1.0463  0.6820
 1367SOL    HW215564   0.390   1.571   4.259 -0.8790  1.0426  2.3099
 1368SOL     OW15565   0.615   0.981   3.359  0.0182 -0.6243 -0.3025
 1368SOL    HW115566   0.573   1.066   3.348  1.2220 -0.2559 -2.1280
 1368SOL    HW215567   0.536   0.927   3.358 -0.4545  0.0620  0.2236
 1369SOL     OW15568   1.561   1.952   3.386 -0.5386 -0.1814  0.0058
 1369SOL    HW115569   1.532   2.030   3.340 -2.7772  0.0470  1.7968
 1369SOL    HW215570   1.652   1.947   3.354 -0.7412 -3.3280 -0.1618
 1370SOL     OW15571   3.897   3.519   8.245  0.3253 -0.0664  0.5075
 1370SOL    HW115572   3.820   3.528   8.301 -1.7211 -1.7591 -2.0327
 1370SOL    HW215573   3.900   3.611   8.218 -0.2363  0.1758  1.2466
 1371SOL     OW15574   4.702   4.233  11.247 -0.1368  0.1546  0.5466
 1371SOL    HW115575   0.044   4.183  11.197 -0.2499 -0.7011  1.2711
 1371SOL    HW215576   4.700   4.184  11.329 -2.7780 -0.4596  0.0907
 1372SOL     OW15577   4.102   3.636   6.771  0.5253  0.0423 -0.4357
 1372SOL    HW115578   4.173   3.579   6.802  0.1921 -0.3353 -0.3528
 1372SOL    HW215579   4.136   3.725   6.778  3.5844 -0.9797 -2.1013
 1373SOL     OW15580   3.965   0.777   0.555  0.5925 -0.5045  0.0653
 1373SOL    HW115581   3.941   0.702   0.610 -1.2002  1.7648  2.3246
 1373SOL    HW215582   4.031   0.742   0.495 -0.1762  0.0018 -1.0717
 1374SOL     OW15583   3.255   2.230   6.683  0.5120 -0.3145 -0.1691
 1374SOL    HW115584   3.275   2.265   6.596 -3.0159 -1.3762 -1.4318
 1374SOL    HW215585   3.181   2.175   6.655  0.9711  0.0524 -2.1208
 1375SOL     OW15586   3.712   4.554   7.344 -0.4653 -0.7759  0.0617
 1375SOL    HW115587   3.667   4.486   7.394 -0.1248 -0.7051  0.4636
 1375SOL    HW215588   3.640   4.586   7.290 -2.3922 -2.2747  1.7285
 1376SOL     OW15589   1.752   3.958   9.169 -0.3237 -0.2292  0.9425
 1376SOL    HW115590   1.743   4.037   9.117  3.2284 -0.2639  0.2523
 1376SOL    HW215591   1.663   3.925   9.171 -0.4833 -0.0323 -2.9044
 1377SOL     OW15592   2.419   2.012   3.841  0.4575  0.5489 -0.5221
 1377SOL    HW115593   2.363   1.955   3.788  0.7671  1.4101 -1.7915
 1377SOL    HW215594   2.489   2.030   3.778  0.8037  1.1385  0.0389
 1378SOL     OW15595   4.409   2.269   1.683 -0.5989 -0.2294  0.2634
 1378SOL    HW115596   4.333   2.273   1.625  0.2499  1.2398 -0.7603
 1378SOL    HW215597   4.394   2.354   1.725  0.5280  0.2632 -0.3284
 1379SOL     OW15598   1.302   1.071   3.320 -0.2147  0.0001  0.3080
 1379SOL    HW115599   1.378   1.101   3.270 -1.4761 -0.5572 -1.8935
 1379SOL    HW215600   1.339   1.051   3.406 -1.0599  0.3454  0.7523
 1380SOL     OW15601   3.741   2.110   5.942  0.1317  0.2250 -0.0827
 1380SOL    HW115602   3.646   2.102   5.952  0.2574 -0.9948  0.1291
 1380SOL    HW215603   3.762   2.202   5.929  0.5192  0.3152  1.1712
 1381SOL     OW15604   1.311   3.800   5.768 -0.3925  0.3992 -0.1539
 1381SOL    HW115605   1.344   3.863   5.832 -0.7919  0.0293  0.4154
 1381SOL    HW215606   1.226   3.786   5.809  0.3486 -1.5828  0.7558
 1382SOL     OW15607   2.547   3.525   0.743  0.3939 -0.4193 -0.2807
 1382SOL    HW115608   2.488   3.593   0.779 -0.2595 -1.2084  0.1445
 1382SOL    HW215609   2.616   3.524   0.810 -0.6759 -0.0227  0.8499
 1383SOL     OW15610   0.009   0.232   9.374  0.5138 -0.0626  0.1062
 1383SOL    HW115611   0.035   0.191   9.457  0.8826  0.3695  0.2022
 1383SOL    HW215612   0.070   0.199   9.308  0.1464  3.4088 -1.9633
 1384SOL     OW15613   0.309   2.919   1.651 -0.4136  0.4959  0.1213
 1384SOL    HW115614   0.279   2.940   1.740 -0.0392 -1.2378  0.6620
 1384SOL    HW215615   0.348   2.832   1.665 -0.3468  0.4332 -0.4482
 1385SOL     OW15616   3.857   0.378   3.953 -0.5502 -0.2010  0.4968
 1385SOL    HW115617   3.770   0.340   3.964 -0.8178  0.2537 -0.0928
 1385SOL    HW215618   3.821   0.456   3.913 -0.1936 -0.2148  0.1528
 1386SOL     OW15619   3.913   2.842  14.136 -0.5697  0.3366  0.1644
 1386SOL    HW115620   3.860   2.918  14.160  0.7388  1.6500 -1.0146
 1386SOL    HW215621   3.850   2.786  14.091  1.5317 -1.6204 -0.3873
 1387SOL     OW15622   0.805   2.028  14.170 -0.6292 -0.5369  0.1972
 1387SOL    HW115623   0.772   1.986  14.250  0.2258 -2.4065 -0.4443
 1387SOL    HW215624   0.868   2.093  14.201  2.3997 -3.8585  1.0023
 1388SOL     OW15625   3.923   2.395  16.174 -0.2455  0.0507 -0.0052
 1388SOL    HW115626   3.872   2.414  16.095 -0.5375 -0.5917  0.0293
 1388SOL    HW215627   3.943   2.480  16.212 -4.0532  0.7981  0.3342
 1389SOL     OW15628   0.182   0.244  14.656  0.1176 -0.0251 -0.1301
 1389SOL    HW115629   0.143   0.319  14.701 -0.2789 -0.6423  0.5498
 1389SOL    HW215630   0.251   0.284  14.602  0.6293 -2.5324 -1.3514
 1390SOL     OW15631   0.566   3.826   7.336 -0.1576 -0.0708  0.2927
 1390SOL    HW115632   0.638   3.763   7.334  1.2686  1.5627  0.0091
 1390SOL    HW215633   0.585   3.879   7.413  0.2867  3.0725 -1.9774
 1391SOL     OW15634   3.276   0.389  14.724  0.5202  0.5306 -0.2500
 1391SOL    HW115635   3.199   0.444  14.707 -1.5207 -2.3087 -0.2081
 1391SOL    HW215636   3.316   0.458  14.776 -0.2118  0.0218  1.0048
 1392SOL     OW15637   1.799   3.210   8.227  0.3696 -0.0515 -0.4964
 1392SOL    HW115638   1.723   3.158   8.253 -0.3180  1.7495  1.1085
 1392SOL    HW215639   1.774   3.296   8.261  0.5724 -0.6975  1.3114
 1393SOL     OW15640   2.585   3.061   5.559  0.4933  0.3542  0.3734
 1393SOL    HW115641   2.665   3.063   5.506  0.4842  1.1563  0.3976
 1393SOL    HW215642   2.580   2.970   5.589 -1.1923 -0.5879 -2.7268
 1394SOL     OW15643   1.771   1.724   7.654  0.5054  0.3846  0.4946
 1394SOL    HW115644   1.794   1.777   7.731  0.8192  1.2110 -0.1647
 1394SOL    HW215645   1.691   1.679   7.681 -0.6113  1.9428 -0.2122
 1395SOL     OW15646   1.975   2.857  10.721  0.2655  0.0766  0.1251
 1395SOL    HW115647   1.939   2.935  10.765  0.2241 -0.8910  1.7951
 1395SOL    HW215648   1.893   2.816  10.692 -0.2330  1.8674 -0.9966
 1396SOL     OW15649   4.516   0.515   8.246 -0.1909 -0.0497 -0.0407
 1396SOL    HW115650   4.512   0.596   8.297  0.9141 -0.5521  0.8701
 1396SOL    HW215651   4.549   0.545   8.161 -1.1532  1.5349  0.1605
 1397SOL     OW15652   1.455   4.514   5.574  0.3603  0.1790 -0.1943
 1397SOL    HW115653   1.375   4.495   5.623  0.8852 -0.6056  0.3584
 1397SOL    HW215654   1.518   4.522   5.646  1.1135  0.5740 -0.8971
 1398SOL     OW15655   4.047   2.121   9.309  0.2796 -0.4977  0.7202
 1398SOL    HW115656   4.088   2.188   9.255 -0.5600 -0.4929  0.0814
 1398SOL    HW215657   3.999   2.062   9.251 -0.0447  0.4371  0.0333
 1399SOL     OW15658   0.559   3.908   9.058  0.0130 -0.5970  0.3787
 1399SOL    HW115659   0.488   3.971   9.071  0.0091 -0.8860  1.7345
 1399SOL    HW215660   0.546   3.876   8.968  0.4601 -2.4961  0.9730
 1400SOL     OW15661   0.964   2.920   6.642 -0.0085 -0.0310  0.1610
 1400SOL    HW115662   0.961   2.994   6.703 -2.5736  0.8902 -1.0982
 1400SOL    HW215663   0.938   2.971   6.565 -0.0352  1.1387  0.9356
 1401SOL     OW15664   3.853   1.287   0.711 -0.1296  0.2389  0.2271
 1401SOL    HW115665   3.784   1.352   0.725 -1.0697 -0.8421  0.5948
 1401SOL    HW215666   3.808   1.202   0.708 -0.5062  0.4805 -1.0206
 1402SOL     OW15667   1.447   0.904   3.879 -0.4332  0.6644  0.3107
 1402SOL    HW115668   1.416   0.832   3.825 -0.0180  0.7366 -0.0218
 1402SOL    HW215669   1.530   0.880   3.921 -0.3466  0.0644 -0.2040
 1403SOL     OW15670   2.384   2.653   6.332 -0.0297  0.0322 -0.4627
 1403SOL    HW115671   2.383   2.659   6.427 -0.3453 -0.1510 -0.4549
 1403SOL    HW215672   2.470   2.613   6.318  0.0216 -0.0352  0.0656
 1404SOL     OW15673   1.950   2.724   6.531 -0.4534 -0.3611 -0.3019
 1404SOL    HW115674   1.989   2.810   6.511  1.7637 -1.4435 -0.5999
 1404SOL    HW215675   1.954   2.709   6.625 -1.6305 -0.7846 -0.3204
 1405SOL     OW15676   1.118   2.805   6.195 -0.5161  0.2976 -0.3076
 1405SOL    HW115677   1.186   2.737   6.196 -0.4369  0.4033  1.3241
 1405SOL    HW215678   1.121   2.837   6.285  0.5518  0.0941 -0.2714
 1406SOL     OW15679   3.338   1.581  17.560 -0.5432  0.5936  0.0322
 1406SOL    HW115680   3.425   1.544  17.567 -0.9129 -0.4915 -1.0385
 1406SOL    HW215681   3.305   1.562  17.648  2.2856 -1.4452  0.6347
 1407SOL     OW15682   1.284   3.634  15.780 -0.1735 -0.7732 -0.1985
 1407SOL    HW115683   1.255   3.715  15.739  1.0075  0.3859  1.2364
 1407SOL    HW215684   1.276   3.655  15.873 -6.7436 -0.4115 -0.8674
 1408SOL     OW15685   0.010   3.903   5.684 -0.5636  0.2413 -0.1258
 1408SOL    HW115686   0.079   3.844   5.714 -2.0947 -0.4545  2.0600
 1408SOL    HW215687   0.026   3.928   5.593 -0.4486 -0.1001 -0.1981
 1409SOL     OW15688   3.450   2.303   7.157  0.3113 -1.1232  0.3035
 1409SOL    HW115689   3.479   2.386   7.194 -1.7096 -1.2267  2.0856
 1409SOL    HW215690   3.427   2.331   7.068 -1.0250  2.0990  1.6654
 1410SOL     OW15691   1.170   0.472   4.915  0.0648 -0.5063 -0.1216
 1410SOL    HW115692   1.217   0.440   4.838  0.4362 -2.0463  0.7480
 1410SOL    HW215693   1.154   0.561   4.883 -0.2919 -0.7542 -0.6373
 1411SOL     OW15694   2.348   0.664   3.066  0.0824 -0.1844 -0.1261
 1411SOL    HW115695   2.431   0.666   3.114 -0.0351  1.0718  0.0187
 1411SOL    HW215696   2.285   0.709   3.123 -1.4273 -1.2029 -1.0152
 1412SOL     OW15697   4.283   0.717  15.957  0.6318  0.2510  0.4227
 1412SOL    HW115698   4.317   0.785  15.899  2.8651 -1.3848 -0.1920
 1412SOL    HW215699   4.302   0.751  16.044  0.6482 -1.1784  0.9859
 1413SOL     OW15700   0.813   0.609   5.832  0.2587  0.1575  0.1881
 1413SOL    HW115701   0.840   0.546   5.766  0.7779 -0.3368  0.8699
 1413SOL    HW215702   0.895   0.660   5.833  2.2560 -3.0596  0.2240
 1414SOL     OW15703   3.249   2.578   3.537  0.6948 -0.0895  0.6405
 1414SOL    HW115704   3.240   2.549   3.628  0.5024  0.2116  0.7164
 1414SOL    HW215705   3.168   2.549   3.496  1.3839 -1.9256  0.5817
 1415SOL     OW15706   2.296   4.291   1.808  0.0230 -0.1458 -0.6746
 1415SOL    HW115707   2.319   4.235   1.734  2.3903 -0.1365  0.0663
 1415SOL    HW215708   2.367   4.355   1.801  0.0794 -0.0446  0.7575
 1416SOL     OW15709   3.377   2.388   9.165 -0.5700 -0.1153  0.1151
 1416SOL    HW115710   3.456   2.402   9.217 -0.0215 -3.6567  0.2154
 1416SOL    HW215711   3.318   2.463   9.174  1.2359  1.1233  1.6591
 1417SOL     OW15712   0.893   1.139   4.926 -0.1039  0.2001  0.4069
 1417SOL    HW115713   0.888   1.234   4.913 -0.9290 -0.0884 -1.4276
 1417SOL    HW215714   0.948   1.138   5.004 -0.2725 -1.4150  0.4997
 1418SOL     OW15715   2.778   1.575   4.954 -0.0740  0.1839 -0.1185
 1418SOL    HW115716   2.718   1.646   4.934 -0.7886 -0.9039 -1.7667
 1418SOL    HW215717   2.757   1.565   5.047 -0.3643  0.6739 -0.1366
 1419SOL     OW15718   3.008   3.320   4.969  0.2122 -0.2231 -0.0011
 1419SOL    HW115719   3.023   3.415   4.971  0.2983 -0.2422  0.2228
 1419SOL    HW215720   3.045   3.298   4.883  0.7422  0.5116  0.0390
 1420SOL     OW15721   0.175   2.005   2.363  0.1279 -0.1431  0.3293
 1420SOL    HW115722   0.266   2.011   2.334  0.4348  3.0351  1.9184
 1420SOL    HW215723   0.143   1.926   2.320 -0.2249  0.2214 -0.0819
 1421SOL     OW15724   2.976   4.445   7.295  0.4540 -0.0835 -0.5570
 1421SOL    HW115725   3.071   4.456   7.301  0.2465  2.0173 -0.9051
 1421SOL    HW215726   2.966   4.442   7.200 -0.5783  0.8744 -0.4858
 1422SOL     OW15727   4.272   1.079   2.206 -0.5074  0.4451 -0.5974
 1422SOL    HW115728   4.328   1.080   2.128  3.1451  0.3384  2.0501
 1422SOL    HW215729   4.188   1.056   2.165 -0.8481  2.1159 -0.8234
 1423SOL     OW15730   3.738   2.722   2.955 -0.1475 -0.3057 -0.9285
 1423SOL    HW115731   3.786   2.659   2.901  0.5068  0.8889 -1.7657
 1423SOL    HW215732   3.646   2.705   2.935 -0.8992  0.9004  1.5785
 1424SOL     OW15733   0.326   3.279   5.518 -0.0142  0.3658  0.0502
 1424SOL    HW115734   0.298   3.369   5.536  0.1080  0.1927  1.1463
 1424SOL    HW215735   0.375   3.282   5.436 -0.0924  0.3294  0.0026
 1425SOL     OW15736   2.182   3.692   8.835 -0.1538  0.4532  0.6183
 1425SOL    HW115737   2.111   3.748   8.868 -1.8025 -2.4109  1.9366
 1425SOL    HW215738   2.154   3.604   8.859  0.5965 -0.2239 -1.0290
 1426SOL     OW15739   3.543   1.701  15.535  0.3909 -0.0344  0.4890
 1426SOL    HW115740   3.565   1.783  15.492  0.2307 -0.9460 -1.3319
 1426SOL    HW215741   3.500   1.652  15.464  0.6378  0.5633 -0.0706
 1427SOL     OW15742   4.082   3.067   3.332 -0.1380 -0.1613 -0.0738
 1427SOL    HW115743   4.170   3.038   3.357 -0.4719  0.1987  1.5649
 1427SOL    HW215744   4.053   2.985   3.292  0.0672  0.2601 -1.0867
 1428SOL     OW15745   0.364   3.007  11.212  0.1889 -0.7989 -0.1317
 1428SOL    HW115746   0.405   3.089  11.239 -0.5027 -0.2517 -0.7543
 1428SOL    HW215747   0.384   2.950  11.287 -1.6183 -1.9795 -0.5510
 1429SOL     OW15748   1.565   3.933   6.530 -0.3605  0.2993 -0.0372
 1429SOL    HW115749   1.575   3.885   6.612  0.6019 -0.2383 -0.4645
 1429SOL    HW215750   1.527   3.864   6.475 -0.0528 -0.2073  0.3823
 1430SOL     OW15751   3.789   2.878   9.426  0.4165  0.5522 -0.3295
 1430SOL    HW115752   3.715   2.927   9.389 -0.1260  0.8870  1.1777
 1430SOL    HW215753   3.783   2.931   9.506 -2.1353 -1.7559  1.0094
 1431SOL     OW15754   3.109   0.331  10.360 -0.3912 -0.2514  0.1836
 1431SOL    HW115755   3.158   0.387  10.301  2.1884 -2.0240  0.6012
 1431SOL    HW215756   3.178   0.272  10.391 -1.3102 -1.3235  0.1954
 1432SOL     OW15757   1.770   0.526   2.954  0.0932 -0.0393  0.2902
 1432SOL    HW115758   1.741   0.439   2.982 -0.3434  0.4156  1.2662
 1432SOL    HW215759   1.751   0.575   3.034 -1.1258 -1.7885  1.1001
 1433SOL     OW15760   0.257   2.277   5.490 -0.2515 -0.0974 -0.4281
 1433SOL    HW115761   0.259   2.362   5.447 -2.2084  0.8678  1.4204
 1433SOL    HW215762   0.164   2.256   5.496 -0.4341  1.0108  0.6270
 1434SOL     OW15763   1.357   2.345   3.077 -0.5758  0.2708  0.3708
 1434SOL    HW115764   1.299   2.309   3.010 -0.5873 -1.3684  1.2527
 1434SOL    HW215765   1.314   2.342   3.163 -2.3071 -0.1902 -0.5030
 1435SOL     OW15766   2.561   1.580   3.770  0.2370  0.0142 -0.0228
 1435SOL    HW115767   2.472   1.614   3.780  0.2668  0.7327 -2.0882
 1435SOL    HW215768   2.561   1.527   3.850 -0.5041  1.2260  0.7931
 1436SOL     OW15769   4.101   3.810   1.167  0.9231  0.3393 -0.2749
 1436SOL    HW115770   4.034   3.865   1.208  0.1224 -1.2178  0.5188
 1436SOL    HW215771   4.052   3.778   1.090 -0.9598 -2.6056  2.1279
 1437SOL     OW15772   3.537   3.474   3.643 -0.1822 -0.2638  0.0724
 1437SOL    HW115773   3.517   3.511   3.729  1.8206  1.3011 -0.1415
 1437SOL    HW215774   3.456   3.499   3.597 -1.4312 -0.5885  2.0853
 1438SOL     OW15775   2.562   4.626  15.614 -0.2555 -0.4053 -0.2182
 1438SOL    HW115776   2.485   4.607  15.562 -0.3114  2.2342 -1.1290
 1438SOL    HW215777   2.636   4.584  15.571 -0.6642 -1.8276  0.4984
 1439SOL     OW15778   1.877   3.881  13.186  0.0366 -0.4314  0.0321
 1439SOL    HW115779   1.886   3.906  13.278  3.7547 -0.0386 -0.4109
 1439SOL    HW215780   1.805   3.819  13.197  0.7201 -0.6917  2.9348
 1440SOL     OW15781   1.492   2.475  14.280  0.0589 -0.8373 -0.8327
 1440SOL    HW115782   1.459   2.538  14.216  1.7903 -1.3231 -2.2045
 1440SOL    HW215783   1.421   2.413  14.262  0.3102 -1.2418 -0.4263
 1441SOL     OW15784   1.082   4.213   7.354  0.2069  0.3320  0.0476
 1441SOL    HW115785   1.166   4.215   7.400  0.4744  1.8762 -0.4748
 1441SOL    HW215786   1.107   4.203   7.262  2.3510  3.8002  0.2414
 1442SOL     OW15787   2.593   4.620   6.692 -0.0066 -0.4801  0.5760
 1442SOL    HW115788   2.671   4.659   6.653  0.8854 -0.7476  2.0991
 1442SOL    HW215789   2.632   4.606   6.778 -1.0920  0.7864  1.2783
 1443SOL     OW15790   2.882   0.829   8.427 -0.1119  0.3024 -0.1633
 1443SOL    HW115791   2.912   0.781   8.350  1.9366  2.3223 -0.6377
 1443SOL    HW215792   2.961   0.841   8.481 -0.6980 -1.1513  1.0169
 1444SOL     OW15793   4.118   4.681   4.157  0.0945  0.6390  0.2548
 1444SOL    HW115794   4.060   4.701   4.083  0.5583  1.0005 -0.0111
 1444SOL    HW215795   4.046   4.677   4.220  0.2161 -0.4374  0.3160
 1445SOL     OW15796   3.562   2.197   9.441  0.4808 -0.0838 -0.3786
 1445SOL    HW115797   3.600   2.283   9.459 -1.4120  0.6767 -0.0784
 1445SOL    HW215798   3.504   2.191   9.516  1.3113 -0.7088  0.2077
 1446SOL     OW15799   3.390   2.316   8.320  0.2924  0.4479 -0.0119
 1446SOL    HW115800   3.320   2.259   8.287 -0.2949  1.1668 -0.0130
 1446SOL    HW215801   3.384   2.385   8.254 -0.0099 -0.0073 -0.4619
 1447SOL     OW15802   1.097   4.512   8.194 -0.6439 -0.3481 -0.9252
 1447SOL    HW115803   1.188   4.516   8.225 -1.1218  1.5466  0.2530
 1447SOL    HW215804   1.058   4.595   8.222 -0.1274 -0.7882  1.1173
 1448SOL     OW15805   3.776   1.309   1.210 -0.2585 -0.0310 -0.2144
 1448SOL    HW115806   3.683   1.320   1.187 -0.4399  1.6206  1.3256
 1448SOL    HW215807   3.798   1.230   1.161  0.0390 -0.1341  0.0880
 1449SOL     OW15808   0.594   1.828  16.576 -0.2889  0.1723  0.0852
 1449SOL    HW115809   0.578   1.879  16.655  2.1657  1.9877 -0.5690
 1449SOL    HW215810   0.540   1.889  16.525 -1.1265 -1.0332 -0.4520
 1450SOL     OW15811   3.283   1.213   3.370 -0.1907 -0.2840  0.2580
 1450SOL    HW115812   3.285   1.182   3.279 -2.4434  1.1155 -0.2601
 1450SOL    HW215813   3.232   1.291   3.350 -0.7425 -0.5234  0.7047
 1451SOL     OW15814   0.905   3.085   6.415  0.3905 -0.0203 -0.2754
 1451SOL    HW115815   0.911   3.055   6.324  1.5755 -0.6494  0.0106
 1451SOL    HW215816   0.810   3.079   6.429  0.3073 -0.1691 -0.9249
 1452SOL     OW15817   3.346   2.222  14.533  0.0639  0.2662  0.0653
 1452SOL    HW115818   3.297   2.149  14.572 -1.4003  1.3906  0.3526
 1452SOL    HW215819   3.424   2.218  14.588 -0.4684  1.2071  0.8956
 1453SOL     OW15820   0.769   2.195   1.239 -0.4816  0.1429  0.5470
 1453SOL    HW115821   0.695   2.134   1.236  0.1918 -0.5809 -1.8677
 1453SOL    HW215822   0.830   2.162   1.173  0.8080  2.9412  0.3634
 1454SOL     OW15823   3.828   1.107  15.106 -0.3776  0.3569  0.0693
 1454SOL    HW115824   3.884   1.165  15.157 -0.6644  1.4092 -0.8190
 1454SOL    HW215825   3.878   1.026  15.118  0.5858  1.0222  0.5894
 1455SOL     OW15826   3.612   2.701   4.849 -0.0123 -0.0086 -0.2504
 1455SOL    HW115827   3.693   2.670   4.888  1.1573  0.5779 -2.1782
 1455SOL    HW215828   3.642   2.778   4.800  0.3912  0.3983  0.6425
 1456SOL     OW15829   2.125   0.594   6.118  0.6246 -0.1222 -0.2693
 1456SOL    HW115830   2.125   0.657   6.190 -0.8397  0.3971 -0.7181
 1456SOL    HW215831   2.177   0.521   6.151  3.1292  0.3348 -3.1319
 1457SOL     OW15832   1.164   1.849   6.115 -0.2256  0.2002  0.7176
 1457SOL    HW115833   1.244   1.901   6.117 -1.0879  1.4728  2.2821
 1457SOL    HW215834   1.104   1.910   6.071 -0.7306 -1.3135 -0.7168
 1458SOL     OW15835   4.240   2.842   8.187  0.0045  0.0920 -0.2180
 1458SOL    HW115836   4.190   2.847   8.106  3.4008  0.2164 -2.2912
 1458SOL    HW215837   4.199   2.764   8.223  0.0276 -0.2732 -0.9863
 1459SOL     OW15838   3.863   3.709  15.477  0.1507 -0.5225  0.2845
 1459SOL    HW115839   3.779   3.752  15.461  1.0951  1.0268 -0.5832
 1459SOL    HW215840   3.919   3.750  15.411  0.3273 -1.9320 -0.4226
 1460SOL     OW15841   3.944   0.240   4.556  0.3367  0.7599 -0.8124
 1460SOL    HW115842   3.905   0.257   4.470  1.6120  2.1020 -1.1119
 1460SOL    HW215843   3.891   0.298   4.610 -0.0973 -0.0178 -0.3901
 1461SOL     OW15844   4.174   1.349   5.716  0.1542  0.0358 -0.2351
 1461SOL    HW115845   4.212   1.427   5.756  1.9771 -1.2298  0.5211
 1461SOL    HW215846   4.235   1.341   5.642  1.7047  1.8061  0.8629
 1462SOL     OW15847   3.091   0.942  12.887  0.4652 -0.0273  0.5314
 1462SOL    HW115848   3.158   1.010  12.873  0.4674 -0.4668 -1.7129
 1462SOL    HW215849   3.009   0.979  12.855  0.3473  0.0235  0.8971
 1463SOL     OW15850   1.555   3.071   8.283  0.3956 -0.1256  0.2797
 1463SOL    HW115851   1.475   3.108   8.320  0.2524 -0.6598  0.5071
 1463SOL    HW215852   1.559   2.996   8.342  1.6470  0.1552  0.5564
 1464SOL     OW15853   2.305   3.468  14.941 -0.2459  0.0553  0.4251
 1464SOL    HW115854   2.387   3.511  14.966  1.0801 -1.8986 -0.5922
 1464SOL    HW215855   2.242   3.521  14.990 -0.8715 -1.5231  1.3127
 1465SOL     OW15856   2.895   2.700  17.613  0.0825  0.0146  0.4199
 1465SOL    HW115857   2.851   2.740  17.687 -1.7978  1.1270 -1.3073
 1465SOL    HW215858   2.874   2.609  17.636 -2.5070  1.2247  2.8443
 1466SOL     OW15859   2.427   3.839   2.779  0.4405  0.1558  0.2911
 1466SOL    HW115860   2.475   3.911   2.820  1.1816  0.4480 -1.0807
 1466SOL    HW215861   2.377   3.808   2.854  1.3305  0.5396  1.0342
 1467SOL     OW15862   1.243   3.758   3.915  0.5633 -0.1389  0.1235
 1467SOL    HW115863   1.204   3.671   3.918  2.9064 -1.2750 -2.2193
 1467SOL    HW215864   1.287   3.773   3.999  1.5223 -1.5149 -0.1486
 1468SOL     OW15865   1.415   4.209   3.393 -0.2734 -0.6192 -0.0096
 1468SOL    HW115866   1.429   4.146   3.323 -0.3956 -1.7345  0.9597
 1468SOL    HW215867   1.320   4.223   3.387  0.0886  0.7517 -2.2332
 1469SOL     OW15868   1.492   2.938   7.998  0.0178 -0.1728  0.0068
 1469SOL    HW115869   1.561   2.961   7.935 -0.3351  0.1864 -0.2433
 1469SOL    HW215870   1.522   2.978   8.079  0.7154 -1.3778  0.3579
 1470SOL     OW15871   3.514   4.380   8.955  0.0156  0.5281 -0.5524
 1470SOL    HW115872   3.486   4.318   8.887  1.7654  1.9152 -2.5496
 1470SOL    HW215873   3.599   4.336   8.962 -1.4567 -2.3888 -0.9340
 1471SOL     OW15874   0.567   0.502  16.690  0.3377 -0.2087 -0.0995
 1471SOL    HW115875   0.481   0.498  16.648  1.2120 -0.9979 -1.8409
 1471SOL    HW215876   0.588   0.414  16.721  1.6010  0.7782  1.8914
 1472SOL     OW15877   0.802   1.367  13.458  0.5588  0.2342  0.0858
 1472SOL    HW115878   0.860   1.428  13.501  0.8047 -0.8658  1.3100
 1472SOL    HW215879   0.717   1.392  13.494  0.4169 -0.8721  0.5094
 1473SOL     OW15880   3.473   3.502  16.584 -0.0152 -0.3410 -0.3547
 1473SOL    HW115881   3.491   3.410  16.601 -1.3564 -0.9678 -2.3578
 1473SOL    HW215882   3.489   3.548  16.667 -0.1723  1.1934 -1.1813
 1474SOL     OW15883   4.398   3.910  16.757  0.4199  0.4128 -0.3970
 1474SOL    HW115884   4.479   3.872  16.792  0.9776  2.2553  0.3324
 1474SOL    HW215885   4.339   3.885  16.828  0.7739 -0.2228 -0.3302
 1475SOL     OW15886   2.463   0.897  17.423  0.0480  0.2156 -0.3351
 1475SOL    HW115887   2.512   0.971  17.388 -0.7677  0.9658  0.0953
 1475SOL    HW215888   2.393   0.897  17.357  0.5092 -0.6793 -0.8374
 1476SOL     OW15889   1.355   0.261   9.335 -0.2500  0.5545 -0.1809
 1476SOL    HW115890   1.404   0.341   9.356  1.3498  0.0361 -1.9706
 1476SOL    HW215891   1.274   0.275   9.383 -0.2206  3.9656 -1.1104
 1477SOL     OW15892   3.002   2.315  13.167  0.4728  0.3491 -0.1973
 1477SOL    HW115893   2.930   2.359  13.121  0.1446 -0.9007 -0.8740
 1477SOL    HW215894   3.057   2.296  13.091 -0.5694  1.1587 -1.1375
 1478SOL     OW15895   3.532   1.441   4.939  0.0006 -0.3739 -0.1605
 1478SOL    HW115896   3.615   1.451   4.892 -0.9626  1.7766 -1.4314
 1478SOL    HW215897   3.558   1.437   5.031 -1.8673  0.2344  0.3826
 1479SOL     OW15898   0.032   1.060   1.992  0.1495  0.3944  0.0715
 1479SOL    HW115899   0.067   0.987   2.043 -2.0075  0.1374  1.1785
 1479SOL    HW215900   4.660   1.051   2.001  0.4398 -2.7750  0.1013
 1480SOL     OW15901   0.060   3.513   9.085 -0.3266 -0.2414  0.3183
 1480SOL    HW115902   0.132   3.555   9.133 -0.1965 -0.8773  0.6697
 1480SOL    HW215903   0.064   3.431   9.134  1.7578  0.9870  2.2395
 1481SOL     OW15904   2.004   4.095   6.353 -0.6107  0.0685 -0.4882
 1481SOL    HW115905   1.927   4.039   6.360 -0.0975 -0.5082  0.5069
 1481SOL    HW215906   1.985   4.153   6.279 -2.5426 -1.3333 -1.1058
 1482SOL     OW15907   1.666   1.250   1.970  0.4306  0.2919  0.2576
 1482SOL    HW115908   1.604   1.276   1.901  0.2554 -0.9110 -0.0356
 1482SOL    HW215909   1.660   1.321   2.033  1.1766 -0.7419  1.4721
 1483SOL     OW15910   1.449   0.924   5.220  0.3821 -0.2709  0.4707
 1483SOL    HW115911   1.467   1.001   5.274  0.5122  1.2408 -1.7370
 1483SOL    HW215912   1.417   0.972   5.144  0.0420 -1.8215 -0.3492
 1484SOL     OW15913   4.601   3.385   8.281  0.3850 -0.3960 -0.0629
 1484SOL    HW115914   4.648   3.465   8.303 -0.3287 -0.3927  1.4243
 1484SOL    HW215915   4.529   3.387   8.343  0.2664  0.1289 -0.2208
 1485SOL     OW15916   1.673   2.771   1.645 -0.3169  0.0696  0.6070
 1485SOL    HW115917   1.619   2.814   1.578  0.4238  0.1054  0.0314
 1485SOL    HW215918   1.611   2.701   1.664  1.2443 -1.5632 -0.3113
 1486SOL     OW15919   2.663   0.960   2.068  0.3142 -0.0918 -0.7150
 1486SOL    HW115920   2.732   0.919   2.120  0.3174 -1.3473 -1.6930
 1486SOL    HW215921   2.684   0.917   1.985 -2.3745 -0.5082 -1.1594
 1487SOL     OW15922   3.879   3.637   1.255  0.3866 -0.2176 -0.1367
 1487SOL    HW115923   3.818   3.616   1.326 -0.4158  0.5804 -0.5837
 1487SOL    HW215924   3.909   3.547   1.243 -1.0399 -0.6963 -0.1717
 1488SOL     OW15925   3.235   1.120   1.965 -0.0279 -0.3480 -0.0918
 1488SOL    HW115926   3.211   1.068   2.042 -0.2230  0.6851  0.5375
 1488SOL    HW215927   3.331   1.122   1.968 -0.0711  0.5228  0.5946
 1489SOL     OW15928   1.273   2.583  14.992  0.0930  0.0052 -0.0127
 1489SOL    HW115929   1.292   2.613  14.903 -1.5652  0.7976 -0.0907
 1489SOL    HW215930   1.296   2.489  14.990 -1.0808 -0.2718 -0.0827
 1490SOL     OW15931   4.636   4.364   2.056 -0.4542  0.9738  0.2049
 1490SOL    HW115932   4.644   4.447   2.008  0.3178  0.4883 -0.5129
 1490SOL    HW215933   0.006   4.354   2.078 -0.5056 -3.3205 -1.6353
 1491SOL     OW15934   3.660   1.733   1.123  0.2579 -0.0561  0.1203
 1491SOL    HW115935   3.751   1.737   1.152  0.2117  1.2788  0.1128
 1491SOL    HW215936   3.637   1.825   1.134 -0.9948 -0.1536 -1.6461
 1492SOL     OW15937   3.942   3.064   7.714  0.4821 -0.0279  0.2629
 1492SOL    HW115938   4.026   3.108   7.705 -0.0850  1.3822  1.7488
 1492SOL    HW215939   3.945   2.986   7.659  0.1565 -1.5424  2.3710
 1493SOL     OW15940   2.146   1.760   7.254  0.3448  0.0380  0.2734
 1493SOL    HW115941   2.112   1.680   7.294  0.9182 -1.1173 -1.5535
 1493SOL    HW215942   2.229   1.768   7.302 -0.6726 -0.2233  2.0738
 1494SOL     OW15943   0.602   3.598   9.730 -0.1039 -0.1466  0.2778
 1494SOL    HW115944   0.658   3.612   9.654  0.5593 -0.3443  0.7325
 1494SOL    HW215945   0.519   3.639   9.706 -0.4143  0.3742  2.2938
 1495SOL     OW15946   1.758   2.620  16.903 -0.2261 -0.9470  0.3381
 1495SOL    HW115947   1.671   2.604  16.868  1.3994 -0.2623 -3.9584
 1495SOL    HW215948   1.731   2.678  16.974 -3.4902 -3.4929  1.1686
 1496SOL     OW15949   3.136   1.096   2.406  0.3628  0.6066 -0.8140
 1496SOL    HW115950   3.083   1.077   2.329  1.1200 -1.6473 -0.7766
 1496SOL    HW215951   3.103   1.182   2.431 -2.5078  0.0969 -2.8626
 1497SOL     OW15952   3.841   2.743  15.558  0.3355 -0.0214  0.2344
 1497SOL    HW115953   3.760   2.701  15.586  0.2393 -1.6664 -2.5302
 1497SOL    HW215954   3.875   2.688  15.488 -2.7550  1.1816 -2.1917
 1498SOL     OW15955   0.750   0.581  12.720 -0.4341  0.3545 -0.0394
 1498SOL    HW115956   0.777   0.664  12.681  2.3978 -1.2898 -1.5975
 1498SOL    HW215957   0.825   0.553  12.773  0.8735 -0.6847 -2.4570
 1499SOL     OW15958   4.107   1.626   2.622  0.0145  0.5508  0.1396
 1499SOL    HW115959   4.190   1.670   2.607  1.4266 -2.0769  0.3211
 1499SOL    HW215960   4.116   1.572   2.544 -0.6789  1.0496 -0.2874
 1500SOL     OW15961   2.909   0.731   5.041 -0.1886  0.3829  0.1347
 1500SOL    HW115962   2.879   0.762   5.126  1.3138 -1.7201  1.4524
 1500SOL    HW215963   2.984   0.789   5.031 -2.6871  3.4910 -0.3222
 1501SOL     OW15964   2.162   4.317   6.956 -0.1707 -0.0304 -0.1851
 1501SOL    HW115965   2.247   4.337   6.916  0.3040 -2.5938 -0.4743
 1501SOL    HW215966   2.105   4.287   6.885 -1.2689  0.5574  0.4588
 1502SOL     OW15967   1.206   3.591   3.666  0.2432 -0.0538 -0.6162
 1502SOL    HW115968   1.230   3.557   3.580 -0.3856 -1.3730 -0.2643
 1502SOL    HW215969   1.157   3.514   3.694  0.4158 -0.9147 -2.7220
 1503SOL     OW15970   0.867   4.180   5.784 -0.2196 -0.0901  0.1274
 1503SOL    HW115971   0.848   4.267   5.819  0.6485 -0.3600  1.2841
 1503SOL    HW215972   0.911   4.139   5.859 -1.1915  0.1754  0.8369
 1504SOL     OW15973   2.355   1.684   0.252 -0.6133  0.0137 -0.3048
 1504SOL    HW115974   2.371   1.606   0.198 -1.3295  0.9987 -1.9600
 1504SOL    HW215975   2.357   1.643   0.338 -1.2874  1.7052  0.5279
 1505SOL     OW15976   0.495   1.768   4.996  0.5505  0.3317  0.0712
 1505SOL    HW115977   0.432   1.776   5.067  0.1680  1.5559 -0.4121
 1505SOL    HW215978   0.452   1.716   4.928  0.1771 -0.1654  0.6849
 1506SOL     OW15979   3.877   4.678   8.884  0.3346  0.2570  0.5690
 1506SOL    HW115980   3.900   4.614   8.951  0.8730 -0.6797 -0.5131
 1506SOL    HW215981   3.783   4.681   8.902  0.4217 -2.9579  1.5110
 1507SOL     OW15982   1.463   0.169   5.633 -0.7042 -0.5009 -0.0390
 1507SOL    HW115983   1.408   0.215   5.570  1.6547  0.6758 -1.2238
 1507SOL    HW215984   1.477   0.235   5.701 -0.3940 -1.9923  1.3462
 1508SOL     OW15985   0.830   0.800  11.689 -0.4370  0.1373 -0.2800
 1508SOL    HW115986   0.831   0.870  11.754  0.6310 -0.1242 -0.0192
 1508SOL    HW215987   0.745   0.824  11.651 -1.1136 -0.9109  0.5782
 1509SOL     OW15988   2.585   3.445  12.703 -0.3219  0.5651  0.3664
 1509SOL    HW115989   2.644   3.432  12.629 -0.2718 -1.9296  0.8551
 1509SOL    HW215990   2.645   3.413  12.770  0.3055 -0.2849 -0.5982
 1510SOL     OW15991   1.876   4.680  11.383 -0.1113  0.3974 -0.0470
 1510SOL    HW115992   1.925   0.030  11.420  1.6303 -0.6744 -0.1993
 1510SOL    HW215993   1.927   4.654  11.305  0.4278  0.9744  0.1168
 1511SOL     OW15994   2.443   1.191   3.142  0.0736 -0.1321  0.1340
 1511SOL    HW115995   2.348   1.178   3.134  0.1955  0.2586 -1.7997
 1511SOL    HW215996   2.454   1.180   3.048  0.7258  0.4626  0.1460
 1512SOL     OW15997   4.676   4.545   2.828 -0.3551  0.4900 -0.3409
 1512SOL    HW115998   0.015   4.530   2.757 -0.8776 -0.1013 -0.6788
 1512SOL    HW215999   4.666   4.640   2.818 -1.1430  0.2182 -2.3120
 1513SOL     OW16000   2.425   1.632   6.437 -0.4026 -0.0078 -0.0187
 1513SOL    HW116001   2.503   1.670   6.395 -0.8716  2.5917  1.4575
 1513SOL    HW216002   2.396   1.558   6.383  0.7978 -0.4074 -0.1269
 1514SOL     OW16003   0.704   1.593   5.308 -0.5858  0.4160 -0.1827
 1514SOL    HW116004   0.690   1.503   5.337 -0.2115  0.4447  0.0893
 1514SOL    HW216005   0.624   1.638   5.335  1.3997  3.4794  0.5997
 1515SOL     OW16006   2.576   0.845   6.514 -0.0181  0.5636 -0.1115
 1515SOL    HW116007   2.635   0.918   6.533  2.0590 -0.2172 -3.6186
 1515SOL    HW216008   2.623   0.810   6.438 -1.3943  0.3941 -0.8948
 1516SOL     OW16009   0.622   3.773   6.049  0.1143  0.1009 -0.0391
 1516SOL    HW116010   0.662   3.857   6.072  0.3671 -0.4823  1.7020
 1516SOL    HW216011   0.686   3.735   5.989  1.0827  1.1292  0.3374
 1517SOL     OW16012   1.808   0.886  13.789  0.4779 -0.6869  0.0142
 1517SOL    HW116013   1.770   0.954  13.845 -0.7659 -0.1245 -1.5296
 1517SOL    HW216014   1.798   0.927  13.704 -0.4885 -0.2735  0.3247
 1518SOL     OW16015   3.346   0.594  16.386 -0.0223 -0.0951  0.4044
 1518SOL    HW116016   3.439   0.586  16.365 -0.3472  0.0124 -1.0362
 1518SOL    HW216017   3.318   0.652  16.316  1.6682  0.2903  0.0416
 1519SOL     OW16018   0.191   0.805   6.066 -0.5321 -0.1048 -0.7108
 1519SOL    HW116019   0.218   0.878   6.121 -2.2165  0.3426 -0.4833
 1519SOL    HW216020   0.110   0.836   6.026 -0.2465  1.2988 -0.1924
 1520SOL     OW16021   2.657   0.153   2.725  0.2804  0.0074  0.2678
 1520SOL    HW116022   2.701   0.106   2.796 -1.5414  0.7111  1.8592
 1520SOL    HW216023   2.699   0.239   2.733 -0.8627  0.6490 -0.6548
 1521SOL     OW16024   4.517   4.342   6.669 -0.2835  0.2947  0.1964
 1521SOL    HW116025   4.431   4.300   6.658 -0.1534  0.4262 -1.3018
 1521SOL    HW216026   4.575   4.267   6.661 -1.4012 -0.6292  0.6850
 1522SOL     OW16027   1.174   1.363   8.581 -0.3631  0.5888 -0.4925
 1522SOL    HW116028   1.157   1.456   8.565  0.0260  0.5242 -1.2740
 1522SOL    HW216029   1.209   1.367   8.670 -0.1019 -0.1266 -0.5638
 1523SOL     OW16030   0.071   1.563   4.828  0.1270  0.0331  0.0843
 1523SOL    HW116031   0.030   1.547   4.743  1.3361  0.6393 -0.6119
 1523SOL    HW216032   4.720   1.534   4.881  1.8398  0.5886  2.7499
 1524SOL     OW16033   4.656   2.101  12.066 -0.3437 -0.4596  0.0497
 1524SOL    HW116034   4.582   2.155  12.038  1.3061  2.0592  0.5323
 1524SOL    HW216035   4.662   2.048  11.986 -3.3873 -2.7006  1.3131
 1525SOL     OW16036   4.521   0.964  16.131 -0.1729  0.7309 -0.0567
 1525SOL    HW116037   4.467   1.028  16.086 -0.8317  0.2768  0.0894
 1525SOL    HW216038   4.596   1.014  16.163 -0.1169 -0.0597  1.0616
 1526SOL     OW16039   2.816   1.147   2.659  0.1150  0.6422 -0.2703
 1526SOL    HW116040   2.877   1.075   2.670 -0.4857  0.7598  3.8079
 1526SOL    HW216041   2.870   1.223   2.637  1.6399  0.1727  1.9183
 1527SOL     OW16042   2.863   0.038   8.519  0.1369 -0.0432  0.0674
 1527SOL    HW116043   2.879   0.129   8.544 -1.4646  0.8740 -2.2239
 1527SOL    HW216044   2.953   0.007   8.523 -1.3091 -4.1234  0.9384
 1528SOL     OW16045   0.190   3.830   6.396  0.9470 -0.7114 -0.5958
 1528SOL    HW116046   0.252   3.856   6.328  0.7687  1.1702 -0.0371
 1528SOL    HW216047   0.239   3.859   6.473 -0.4000  1.4823 -0.5328
 1529SOL     OW16048   0.321   0.877   9.025  0.4715  0.3178  0.4600
 1529SOL    HW116049   0.339   0.857   8.933 -0.1201 -1.0337  0.6507
 1529SOL    HW216050   0.405   0.849   9.063  0.5859  1.1239  0.7974
 1530SOL     OW16051   1.390   1.373  15.399  0.2454  0.3920  0.8717
 1530SOL    HW116052   1.403   1.294  15.346  3.8874  2.1788 -0.9023
 1530SOL    HW216053   1.324   1.344  15.462  0.8048 -0.6710  0.9586
 1531SOL     OW16054   4.348   2.320   5.950 -0.3838 -0.4695 -0.2857
 1531SOL    HW116055   4.365   2.231   5.920 -0.4725 -1.0789  1.4514
 1531SOL    HW216056   4.308   2.297   6.034 -0.3223  1.8066  0.3583
 1532SOL     OW16057   0.784   2.189  10.273 -0.2808  0.1040 -0.1571
 1532SOL    HW116058   0.747   2.267  10.315  0.0448 -1.0493  2.2283
 1532SOL    HW216059   0.748   2.123  10.332 -0.8314  0.3101 -0.2615
 1533SOL     OW16060   0.040   1.984  15.526 -0.2162  0.3204 -1.0709
 1533SOL    HW116061   0.107   2.049  15.509 -0.8115  1.3129  0.3642
 1533SOL    HW216062   4.698   2.032  15.577  0.0250 -1.1879  0.6732
 1534SOL     OW16063   3.714   1.034   0.727 -0.2532  0.1362  0.5623
 1534SOL    HW116064   3.678   1.005   0.643  1.6504 -1.4559  0.2801
 1534SOL    HW216065   3.652   0.994   0.787 -0.2586 -0.4114  0.1831
 1535SOL     OW16066   2.729   3.339   7.534 -0.1030 -0.6242 -0.2833
 1535SOL    HW116067   2.685   3.418   7.503 -1.9115 -1.0210  1.2459
 1535SOL    HW216068   2.726   3.355   7.628 -1.6752  1.2249 -0.6622
 1536SOL     OW16069   2.864   1.066   7.286 -0.4211 -0.3706  0.3264
 1536SOL    HW116070   2.838   1.156   7.310 -1.7857  0.4254 -4.1253
 1536SOL    HW216071   2.794   1.018   7.330 -1.1728 -1.3231 -1.9067
 1537SOL     OW16072   1.558   3.170  12.177 -0.2847  0.1360  0.5872
 1537SOL    HW116073   1.540   3.237  12.111 -0.6352  0.6269  1.1789
 1537SOL    HW216074   1.479   3.122  12.153 -0.9330  1.1788  0.5962
 1538SOL     OW16075   3.534   0.434  12.080 -0.0706 -0.0002 -0.1357
 1538SOL    HW116076   3.563   0.394  12.162 -0.0715 -2.8396 -1.4843
 1538SOL    HW216077   3.513   0.523  12.105  0.1398 -0.2936  1.0905
 1539SOL     OW16078   3.354   4.058   9.756 -0.0702  0.1267  0.5210
 1539SOL    HW116079   3.380   3.971   9.725 -2.3727 -0.7658  1.1318
 1539SOL    HW216080   3.426   4.115   9.728  0.3450 -0.5978  0.1018
 1540SOL     OW16081   3.174   0.604   1.025  0.2306 -0.1747 -0.1304
 1540SOL    HW116082   3.196   0.512   1.007 -1.8485 -0.9715  1.3818
 1540SOL    HW216083   3.176   0.603   1.121  0.0589 -1.6871 -0.1416
 1541SOL     OW16084   1.451   3.173  15.451 -0.5172  0.0635  0.2396
 1541SOL    HW116085   1.493   3.093  15.483  0.8097  1.2683  1.4909
 1541SOL    HW216086   1.480   3.172  15.359 -0.2208 -1.6285  0.3562
 1542SOL     OW16087   1.989   2.953  17.382  0.7933  0.6066  0.0412
 1542SOL    HW116088   1.924   3.016  17.413 -0.4980 -0.7138  0.0490
 1542SOL    HW216089   1.944   2.900  17.316  3.8781 -1.4569 -0.4336
 1543SOL     OW16090   0.855   0.345   3.250  0.7663  0.5043 -0.0996
 1543SOL    HW116091   0.868   0.305   3.336  0.1016 -3.2144 -1.7387
 1543SOL    HW216092   0.942   0.332   3.210  0.4001  1.5424 -1.2352
 1544SOL     OW16093   4.658   3.431   4.247 -0.1540  0.0089 -0.2122
 1544SOL    HW116094   0.020   3.433   4.291 -0.2165  1.4979 -0.1723
 1544SOL    HW216095   4.686   3.388   4.166  4.6727  0.8592  0.9664
 1545SOL     OW16096   0.521   2.005  17.584  0.5923  0.2557  0.1240
 1545SOL    HW116097   0.434   1.979  17.553  0.7515 -0.2307  0.0721
 1545SOL    HW216098   0.558   1.916  17.588 -3.0929 -1.2304  0.5771
 1546SOL     OW16099   0.893   0.092   1.343 -0.1635 -0.0835  0.3815
 1546SOL    HW116100   0.836   0.039   1.288 -1.5144  0.1590  1.5625
 1546SOL    HW216101   0.846   0.172   1.319  1.0226  0.0587 -1.5327
 1547SOL     OW16102   0.600   4.325   3.218  0.1912  0.5044  0.6092
 1547SOL    HW116103   0.539   4.369   3.277 -2.4302 -3.0574  0.5519
 1547SOL    HW216104   0.560   4.238   3.220 -0.1879  0.6513 -1.0627
 1548SOL     OW16105   3.904   0.994   6.561 -0.2720  0.0592  0.5970
 1548SOL    HW116106   3.852   0.947   6.626  0.7272 -1.1798  0.5013
 1548SOL    HW216107   3.997   0.972   6.574  0.0628  1.9820  1.4329
 1549SOL     OW16108   3.421   0.149   9.178  0.3820  0.2269  0.0912
 1549SOL    HW116109   3.486   0.080   9.192 -0.7309 -0.7589  0.4261
 1549SOL    HW216110   3.464   0.225   9.216 -2.2545  0.1497  3.2806
 1550SOL     OW16111   3.072   3.919  12.101  0.1305 -0.3789 -0.3122
 1550SOL    HW116112   3.163   3.889  12.092  0.6775  2.1187 -3.0299
 1550SOL    HW216113   3.024   3.845  12.063  0.4134 -0.5921 -0.2567
 1551SOL     OW16114   2.610   1.326   9.303 -0.2206 -0.0412 -0.0780
 1551SOL    HW116115   2.616   1.306   9.209  0.0132 -0.6660  0.0732
 1551SOL    HW216116   2.520   1.358   9.292 -0.2439 -0.2576 -0.5600
 1552SOL     OW16117   3.005   1.779   6.239  0.6319  0.0724 -0.1635
 1552SOL    HW116118   3.101   1.782   6.235  0.7888 -1.7098  2.2246
 1552SOL    HW216119   2.986   1.731   6.158  0.9584  0.1385 -0.2807
 1553SOL     OW16120   4.647   4.224   7.216  0.1694  0.1651  0.0271
 1553SOL    HW116121   4.579   4.163   7.245  0.5975 -0.1071  0.4421
 1553SOL    HW216122   4.652   4.277   7.295 -1.6606 -1.5644  1.2908
 1554SOL     OW16123   2.654   2.046   7.564 -0.2016 -0.7363  0.2697
 1554SOL    HW116124   2.559   2.041   7.574 -0.4152  3.5283  0.1375
 1554SOL    HW216125   2.677   2.098   7.641  1.4168 -1.8643  0.5537
 1555SOL     OW16126   4.462   3.027   5.175 -0.6813  0.6654 -0.3774
 1555SOL    HW116127   4.426   3.114   5.192  1.5130  1.6726 -0.9334
 1555SOL    HW216128   4.497   3.037   5.087  3.7052  1.9305  1.5384
 1556SOL     OW16129   2.455   4.441   7.584 -0.0211  0.3065 -0.0154
 1556SOL    HW116130   2.376   4.428   7.531  0.5820 -3.1068 -0.1319
 1556SOL    HW216131   2.511   4.368   7.555 -0.3358 -0.6974  1.8874
 1557SOL     OW16132   3.787   2.430   8.927  0.4968  0.4974 -0.0015
 1557SOL    HW116133   3.831   2.402   8.847  1.6222  2.7175 -0.1450
 1557SOL    HW216134   3.746   2.507   8.889 -1.1737  0.0789  0.9852
 1558SOL     OW16135   0.788   3.718   6.422 -0.6419  0.7565  0.3575
 1558SOL    HW116136   0.736   3.796   6.441  0.4039  1.7732 -0.9498
 1558SOL    HW216137   0.874   3.754   6.400 -1.7299  1.5134 -2.6727
 1559SOL     OW16138   2.229   1.059  13.231 -0.3995 -0.1364  0.3176
 1559SOL    HW116139   2.160   1.122  13.212  0.2014  0.6845  0.8461
 1559SOL    HW216140   2.185   0.976  13.210  3.4007 -1.8691 -0.9105
 1560SOL     OW16141   0.743   3.226   7.583 -0.4639 -0.0104 -0.4576
 1560SOL    HW116142   0.653   3.246   7.611  0.2999  0.1633  1.8860
 1560SOL    HW216143   0.793   3.205   7.662 -0.1771  3.0668  0.1886
 1561SOL     OW16144   3.748   1.108   8.256  0.3187 -0.0067 -0.0755
 1561SOL    HW116145   3.665   1.115   8.303  0.7207 -2.3670  1.0183
 1561SOL    HW216146   3.808   1.135   8.325 -2.0520  3.2069  0.6831
 1562SOL     OW16147   1.040   3.802   8.476  0.2882  0.2708  0.4060
 1562SOL    HW116148   1.060   3.889   8.440 -0.4472  0.1562 -0.2771
 1562SOL    HW216149   1.009   3.752   8.401 -0.0609 -0.5791  1.1136
 1563SOL     OW16150   3.568   3.326  15.065 -0.3410  0.0696 -0.0049
 1563SOL    HW116151   3.590   3.237  15.093 -1.2715 -0.8778 -2.2781
 1563SOL    HW216152   3.652   3.370  15.071 -1.3533  1.9740  0.1734
 1564SOL     OW16153   3.444   2.677   6.108  0.0570  0.0656  0.1753
 1564SOL    HW116154   3.426   2.695   6.016 -0.4499  1.5223  0.5608
 1564SOL    HW216155   3.379   2.608   6.119 -0.8306  0.9599  0.4766
 1565SOL     OW16156   0.336   2.125   6.021  0.1096 -0.2886  0.3355
 1565SOL    HW116157   0.379   2.210   6.033  0.1726 -0.6259  2.5382
 1565SOL    HW216158   0.288   2.107   6.102 -0.5284  1.6579  0.3891
 1566SOL     OW16159   0.834   4.086   1.501 -0.0418 -0.7398 -0.0472
 1566SOL    HW116160   0.901   4.062   1.437  1.0968  3.2661 -0.3747
 1566SOL    HW216161   0.883   4.151   1.551 -0.9641  0.1110 -0.2430
 1567SOL     OW16162   1.225   4.016   5.227 -0.3262 -0.5301 -0.3859
 1567SOL    HW116163   1.301   4.073   5.224  0.1829 -1.0890  1.8987
 1567SOL    HW216164   1.229   3.978   5.314  0.1876  2.5896  0.9511
 1568SOL     OW16165   0.633   1.120   8.794  0.2514 -0.3174 -0.0106
 1568SOL    HW116166   0.712   1.153   8.838  0.8928 -1.9672  0.0838
 1568SOL    HW216167   0.571   1.192   8.803 -0.4061 -0.8322 -0.5031
 1569SOL     OW16168   0.838   3.931  10.070  0.1131  0.1967  0.2246
 1569SOL    HW116169   0.780   3.932   9.994  0.9385  2.0277 -0.3869
 1569SOL    HW216170   0.920   3.917  10.023  0.1685 -0.6487  0.5773
 1570SOL     OW16171   4.252   4.071  10.097  0.3922  0.0325  0.1834
 1570SOL    HW116172   4.319   4.007  10.074  3.0212  1.8245  2.8345
 1570SOL    HW216173   4.217   4.034  10.179 -0.5721  2.9105  1.0926
 1571SOL     OW16174   0.090   3.918  12.714  0.4597  0.5666 -0.6251
 1571SOL    HW116175   0.051   3.845  12.763  0.1404  1.3893  0.3687
 1571SOL    HW216176   0.029   3.990  12.735  1.2417  1.4219 -1.2968
 1572SOL     OW16177   3.866   1.377   5.681 -0.3803 -0.0479  0.0279
 1572SOL    HW116178   3.862   1.472   5.686  0.6112  0.0670 -1.1464
 1572SOL    HW216179   3.950   1.354   5.720  0.0428  2.5174  0.6507
 1573SOL     OW16180   2.602   4.515   4.580  0.6840  0.3935 -0.2529
 1573SOL    HW116181   2.649   4.440   4.544  1.5652  0.2274  1.2652
 1573SOL    HW216182   2.650   4.537   4.660 -0.2582  0.1947  0.3676
 1574SOL     OW16183   0.074   1.526   7.563 -0.1412 -0.7076 -0.3162
 1574SOL    HW116184   0.038   1.587   7.627  0.8284  1.0928 -1.4805
 1574SOL    HW216185   0.081   1.455   7.627  0.2593  1.6487  2.2009
 1575SOL     OW16186   0.643   4.275  10.412 -0.5086 -0.1199 -0.4000
 1575SOL    HW116187   0.700   4.204  10.440 -0.0804  0.8894  1.3143
 1575SOL    HW216188   0.681   4.337  10.475 -2.6045  1.5699 -0.8014
 1576SOL     OW16189   0.001   3.650   4.455  0.4577 -0.2902 -0.0780
 1576SOL    HW116190   4.700   3.614   4.541  1.7911  2.1940  1.3434
 1576SOL    HW216191   0.081   3.600   4.441  0.6634 -0.2263  0.8396
 1577SOL     OW16192   3.610   1.576   4.627  0.0718 -0.5685  0.0166
 1577SOL    HW116193   3.622   1.484   4.652 -2.8483 -0.8715  0.2963
 1577SOL    HW216194   3.670   1.573   4.552  1.1420  0.2780  0.8484
 1578SOL     OW16195   0.862   0.260   6.435 -0.3516 -0.0325  0.5831
 1578SOL    HW116196   0.846   0.350   6.409 -0.3533 -0.2197 -0.0676
 1578SOL    HW216197   0.782   0.215   6.408 -1.3372  2.0791  0.0065
 1579SOL     OW16198   1.191   1.931   8.602 -0.0141 -0.5568 -0.6810
 1579SOL    HW116199   1.156   2.001   8.547  1.5218  1.9323  1.5731
 1579SOL    HW216200   1.257   1.896   8.542  1.4291 -0.8786  1.1071
 1580SOL     OW16201   4.534   3.626   1.595 -0.0304 -0.1911  0.2130
 1580SOL    HW116202   4.456   3.575   1.574 -2.0666  3.2159 -0.6529
 1580SOL    HW216203   4.609   3.570   1.579  0.3623  0.8173 -1.4643
 1581SOL     OW16204   1.283   0.075   2.694  0.4374  0.8238 -0.2891
 1581SOL    HW116205   1.203   0.026   2.713  1.0982 -0.0645  0.1265
 1581SOL    HW216206   1.353   0.011   2.703 -0.4115 -0.1553 -0.5855
 1582SOL     OW16207   0.490   3.555   4.754  0.1486 -0.1439 -0.4145
 1582SOL    HW116208   0.414   3.499   4.767  0.2604 -0.0405  0.6502
 1582SOL    HW216209   0.495   3.551   4.658  1.4644 -0.0001 -0.3609
 1583SOL     OW16210   3.553   0.658   5.941 -0.0545 -0.0601  0.2614
 1583SOL    HW116211   3.479   0.667   5.880 -1.4412  2.6922  2.3491
 1583SOL    HW216212   3.566   0.742   5.985 -3.6280  0.6736 -0.0529
 1584SOL     OW16213   0.877   1.812   7.169  0.6129  0.0760 -0.0850
 1584SOL    HW116214   0.915   1.725   7.154  0.2587 -0.1370  0.2442
 1584SOL    HW216215   0.790   1.788   7.138 -0.7485  1.8387  2.3854
 1585SOL     OW16216   3.683   0.905  15.522  0.1637  0.2489 -0.4844
 1585SOL    HW116217   3.646   0.880  15.606  0.0546  2.6123  0.1861
 1585SOL    HW216218   3.679   1.001  15.529  1.3696  0.1280  1.7627
 1586SOL     OW16219   0.988   1.543   8.768 -0.3218  0.3394 -0.2828
 1586SOL    HW116220   1.068   1.542   8.716 -1.7282  0.7536 -2.4338
 1586SOL    HW216221   1.022   1.513   8.853  1.6815  1.2181 -0.7811
 1587SOL     OW16222   3.442   4.037   4.031 -0.2905  1.1761 -0.3479
 1587SOL    HW116223   3.494   4.040   4.111 -0.3627  0.7468 -0.2834
 1587SOL    HW216224   3.473   3.958   3.987 -0.2088  0.8178  0.3503
 1588SOL     OW16225   2.335   4.045  11.761  1.0062  0.1986 -0.3760
 1588SOL    HW116226   2.299   3.961  11.733  1.3973 -0.1640  0.2202
 1588SOL    HW216227   2.329   4.090  11.677  2.1651 -1.4148 -1.3342
 1589SOL     OW16228   0.127   0.870   5.322  0.8962 -0.1640  0.2621
 1589SOL    HW116229   0.047   0.821   5.305  0.4894  0.3095  0.8329
 1589SOL    HW216230   0.094   0.958   5.341 -0.6491 -0.5989 -0.4497
 1590SOL     OW16231   0.675   4.135   7.320  0.3702  0.2535  0.5407
 1590SOL    HW116232   0.739   4.064   7.309 -0.2384 -0.0066 -1.4154
 1590SOL    HW216233   0.727   4.201   7.365  0.5739  1.7387 -1.8612
 1591SOL     OW16234   1.335   2.608   4.392  0.5654  0.4682 -0.2088
 1591SOL    HW116235   1.286   2.667   4.449  1.1620 -0.1447  0.9287
 1591SOL    HW216236   1.362   2.665   4.320 -0.8315 -0.9308 -1.8431
 1592SOL     OW16237   4.436   0.670   3.571 -0.3514  0.2108  0.0791
 1592SOL    HW116238   4.492   0.646   3.497  0.7936  1.9227  0.3951
 1592SOL    HW216239   4.399   0.588   3.604  0.8399  1.1221  3.6427
 1593SOL     OW16240   1.821   1.577  14.062  0.4717 -0.4478  0.3247
 1593SOL    HW116241   1.911   1.557  14.039  0.7275  0.0228  0.9281
 1593SOL    HW216242   1.826   1.661  14.108  1.7627 -0.2865 -0.1210
 1594SOL     OW16243   1.471   2.876   5.070  0.0124  0.5732  0.1207
 1594SOL    HW116244   1.470   2.833   5.156 -0.5227 -0.6682 -0.5053
 1594SOL    HW216245   1.434   2.811   5.011 -1.0235  0.2002  1.1619
 1595SOL     OW16246   2.974   1.251  16.741 -0.0967 -0.2100 -0.2830
 1595SOL    HW116247   2.957   1.157  16.738 -0.1865 -0.1577 -1.2050
 1595SOL    HW216248   2.978   1.267  16.647  1.7381  0.0068 -0.1740
 1596SOL     OW16249   1.993   3.816   7.056 -0.2442 -0.2337  0.2754
 1596SOL    HW116250   2.050   3.744   7.084  2.4758  0.4806 -3.3791
 1596SOL    HW216251   2.017   3.877   7.125 -1.2484  0.4177  0.0479
 1597SOL     OW16252   1.502   3.553  13.050  0.2829 -0.4401  0.0888
 1597SOL    HW116253   1.497   3.508  13.134  1.5270  0.1678  0.4829
 1597SOL    HW216254   1.438   3.623  13.063 -0.8519 -0.9409 -2.7173
 1598SOL     OW16255   1.981   2.503   1.801  0.1136 -0.1110  0.6050
 1598SOL    HW116256   1.954   2.584   1.757 -1.3764 -0.7688  0.3407
 1598SOL    HW216257   1.968   2.525   1.894 -0.2023 -1.3399  0.8508
 1599SOL     OW16258   4.721   2.742   4.333  0.2887  0.3923  0.4253
 1599SOL    HW116259   0.029   2.724   4.244 -0.2108 -0.9454  0.5309
 1599SOL    HW216260   4.659   2.812   4.312  0.9506  1.0109  0.5087
 1600SOL     OW16261   3.173   1.345   0.366 -0.1291 -0.2693  0.2734
 1600SOL    HW116262   3.147   1.262   0.327 -0.7500  0.1025 -0.1031
 1600SOL    HW216263   3.242   1.327   0.430 -0.1448  3.6020  1.3779
 1601SOL     OW16264   1.212   1.809  10.785 -0.1117 -0.1409  0.2267
 1601SOL    HW116265   1.256   1.724  10.795 -1.5440 -0.8906  0.0787
 1601SOL    HW216266   1.131   1.788  10.740  0.2259 -1.3447  0.1840
 1602SOL     OW16267   1.059   3.617   2.444 -0.3040 -0.2488 -0.0085
 1602SOL    HW116268   1.021   3.597   2.359 -2.9841 -0.0632  1.1500
 1602SOL    HW216269   1.147   3.639   2.413 -1.0833  0.4490 -1.7452
 1603SOL     OW16270   3.158   0.775   2.361  0.0297 -0.0860  0.3745
 1603SOL    HW116271   3.107   0.696   2.340  0.3583 -0.2914  0.3468
 1603SOL    HW216272   3.181   0.764   2.454 -0.5744 -2.2625  0.2730
 1604SOL     OW16273   3.620   4.500   9.644 -0.2444  0.0381 -0.3776
 1604SOL    HW116274   3.546   4.539   9.689 -0.8106 -0.6105 -0.7423
 1604SOL    HW216275   3.676   4.472   9.717 -0.1439 -1.1915 -0.9140
 1605SOL     OW16276   0.282   4.403   5.842 -0.1734 -0.1362  0.5357
 1605SOL    HW116277   0.312   4.404   5.933 -1.2328 -2.0188  0.8987
 1605SOL    HW216278   0.275   4.309   5.826 -0.6622  0.0726 -0.4678
 1606SOL     OW16279   4.014   3.642   6.172 -0.1395  0.2058 -0.2415
 1606SOL    HW116280   4.057   3.692   6.103 -1.9333  1.6832 -0.2668
 1606SOL    HW216281   4.007   3.704   6.245 -1.6813  1.6644 -1.6506
 1607SOL     OW16282   3.004   1.358   2.414 -0.7728 -0.0960 -0.3464
 1607SOL    HW116283   3.000   1.436   2.470 -0.6283 -2.3279  2.7756
 1607SOL    HW216284   3.027   1.398   2.330  1.9048 -0.8744  0.0164
 1608SOL     OW16285   2.838   2.468   5.735  0.3095  0.4095 -0.6083
 1608SOL    HW116286   2.870   2.494   5.648  0.5599 -0.9569 -0.9252
 1608SOL    HW216287   2.765   2.410   5.712 -1.2886  1.0781  2.7569
 1609SOL     OW16288   0.191   3.564   8.398  1.0391 -0.2174 -0.5181
 1609SOL    HW116289   0.244   3.612   8.334  2.1723  0.9278  1.2935
 1609SOL    HW216290   0.224   3.475   8.387  0.3214 -0.3807 -1.3790
 1610SOL     OW16291   0.326   2.828   7.072  0.1217 -0.5983  0.1037
 1610SOL    HW116292   0.402   2.809   7.127 -0.1630  0.0977  0.7473
 1610SOL    HW216293   0.263   2.848   7.142  1.9876  2.5591  0.9262
 1611SOL     OW16294   2.064   0.278   2.667  0.2382  0.1330 -0.1911
 1611SOL    HW116295   2.063   0.359   2.717 -0.0558  0.6566 -1.0516
 1611SOL    HW216296   1.971   0.267   2.648 -0.1092  0.3411  1.3626
 1612SOL     OW16297   1.077   1.295  11.601  0.4774  0.5923 -0.0481
 1612SOL    HW116298   0.983   1.274  11.600  1.4041 -3.4487 -2.1114
 1612SOL    HW216299   1.123   1.217  11.631 -0.8615  0.0375  0.5485
 1613SOL     OW16300   1.654   4.085  14.022 -0.0106 -0.7224  0.2442
 1613SOL    HW116301   1.651   4.074  14.117 -0.3693  1.3690  0.4759
 1613SOL    HW216302   1.601   4.009  14.002 -0.2894 -0.6737  0.7866
 1614SOL     OW16303   0.843   4.450  10.574  0.1908 -0.7039 -0.1188
 1614SOL    HW116304   0.910   4.435  10.641 -0.6199  2.9252  1.5349
 1614SOL    HW216305   0.763   4.431  10.623  0.8720 -2.3005  0.3708
 1615SOL     OW16306   0.138   0.257   2.995 -0.1209 -0.3052  0.3115
 1615SOL    HW116307   0.143   0.334   2.939 -0.1270 -0.5984 -0.1003
 1615SOL    HW216308   0.047   0.228   2.984  0.0764 -0.3417 -1.3559
 1616SOL     OW16309   0.420   4.251   7.212  0.0821  0.0416  0.1938
 1616SOL    HW116310   0.498   4.200   7.235 -0.1894 -0.4060  0.1179
 1616SOL    HW216311   0.413   4.232   7.118  0.2691 -1.7797  0.5459
 1617SOL     OW16312   3.939   4.009  10.471  0.4714  0.4972  0.0081
 1617SOL    HW116313   4.030   4.038  10.459  0.1715  1.0620 -0.8497
 1617SOL    HW216314   3.940   3.917  10.444  2.4273  0.4317  0.2953
 1618SOL     OW16315   4.442   4.643   2.648  0.3080  0.1134  0.0127
 1618SOL    HW116316   4.472   0.003   2.685 -1.4065  1.0238 -0.6340
 1618SOL    HW216317   4.364   4.663   2.596 -0.5456 -0.8611  0.9234
 1619SOL     OW16318   2.741   2.658  13.291  0.3372 -0.0196 -0.1340
 1619SOL    HW116319   2.804   2.709  13.343  1.8625 -0.0565 -1.9268
 1619SOL    HW216320   2.700   2.605  13.359  0.8795  0.3670  0.5025
 1620SOL     OW16321   1.044   0.685  10.430 -0.0944 -0.3203  0.5628
 1620SOL    HW116322   1.087   0.643  10.355  2.7658  0.2357  1.8830
 1620SOL    HW216323   1.076   0.630  10.501 -0.6891  1.0070  1.8580
 1621SOL     OW16324   2.490   4.630   2.782 -0.1369  0.3569  0.1619
 1621SOL    HW116325   2.470   4.617   2.875 -0.9390  0.2969 -0.0192
 1621SOL    HW216326   2.532   4.546   2.761 -0.6497 -0.7724  3.6416
 1622SOL     OW16327   1.601   0.372  14.104 -1.1651  0.0980  0.1000
 1622SOL    HW116328   1.654   0.293  14.094 -1.3733 -0.0101 -0.1239
 1622SOL    HW216329   1.514   0.332  14.112 -0.8808 -0.6861 -0.7588
 1623SOL     OW16330   0.757   2.337   3.920  0.3961 -0.1943  0.1198
 1623SOL    HW116331   0.826   2.392   3.882  1.9749 -0.0933  3.1158
 1623SOL    HW216332   0.746   2.276   3.847  1.0295 -1.0654  0.7481
 1624SOL     OW16333   4.151   0.150   7.276 -0.5424 -0.5124  0.0003
 1624SOL    HW116334   4.180   0.224   7.223 -0.8830 -1.2715 -1.2609
 1624SOL    HW216335   4.235   0.105   7.273 -0.0273  0.5258 -1.1825
 1625SOL     OW16336   1.402   2.029  11.389  0.1622 -0.4923 -0.3392
 1625SOL    HW116337   1.463   1.966  11.350  1.2081 -0.9634  2.0226
 1625SOL    HW216338   1.340   2.023  11.316 -1.3136  0.3867  0.8418
 1626SOL     OW16339   0.798   3.295  12.550 -0.7139 -0.7749  0.0337
 1626SOL    HW116340   0.776   3.218  12.497 -1.7902 -0.1436 -0.4309
 1626SOL    HW216341   0.732   3.355  12.516 -1.4100 -1.7388 -0.3147
 1627SOL     OW16342   1.166   4.226  15.774  0.1688 -0.2019 -0.1696
 1627SOL    HW116343   1.224   4.257  15.844  3.5335 -0.6352 -2.7672
 1627SOL    HW216344   1.235   4.202  15.713  0.3537  1.1610 -0.4763
 1628SOL     OW16345   1.002   0.812   6.149  0.7602 -0.2577 -0.3036
 1628SOL    HW116346   1.001   0.810   6.053  0.0020  1.0672 -0.3170
 1628SOL    HW216347   1.081   0.759   6.162  0.3703 -1.2152 -1.7258
 1629SOL     OW16348   2.118   1.345  12.146 -0.1388  0.5580  0.4133
 1629SOL    HW116349   2.195   1.391  12.179 -0.4173  1.7145 -0.5654
 1629SOL    HW216350   2.083   1.414  12.090 -2.1854 -0.6688  0.1658
 1630SOL     OW16351   3.475   2.572  12.441 -0.3091 -0.0138  0.3875
 1630SOL    HW116352   3.413   2.560  12.369 -0.6015 -0.3695  0.7022
 1630SOL    HW216353   3.467   2.486  12.481 -0.4817  0.1193  0.6347
 1631SOL     OW16354   2.044   1.093   8.180  0.5981  0.2952 -0.2477
 1631SOL    HW116355   2.022   1.057   8.265  3.7973 -1.3568 -0.1059
 1631SOL    HW216356   2.013   1.021   8.124 -0.0001  1.4174 -1.3637
 1632SOL     OW16357   2.640   2.851   7.443 -0.0510  0.3508  0.2679
 1632SOL    HW116358   2.670   2.865   7.532 -0.2549  1.0557  0.2311
 1632SOL    HW216359   2.611   2.761   7.434 -0.2121  0.8097 -3.9583
 1633SOL     OW16360   4.589   2.748   8.324 -0.3093 -0.5040 -0.3992
 1633SOL    HW116361   4.558   2.664   8.357  1.1811  0.0651  2.4117
 1633SOL    HW216362   4.684   2.737   8.313 -0.1747  0.4043 -0.0798
 1634SOL     OW16363   1.118   0.770   5.415 -0.7873 -0.7770  0.5114
 1634SOL    HW116364   1.201   0.728   5.391 -0.5079  1.2966 -2.2136
 1634SOL    HW216365   1.062   0.696   5.392 -1.2376 -0.4781  0.6428
 1635SOL     OW16366   4.635   1.882   0.882  0.7843 -0.2135  0.1565
 1635SOL    HW116367   4.579   1.806   0.865 -0.5250  0.9132 -0.5212
 1635SOL    HW216368   4.654   1.859   0.972 -0.6835 -0.0150  0.5185
 1636SOL     OW16369   2.892   2.118   4.172  0.3372  0.2387  0.0591
 1636SOL    HW116370   2.961   2.063   4.211 -0.3192  0.2440  1.2399
 1636SOL    HW216371   2.854   2.067   4.101 -1.5215 -0.8262  1.7959
 1637SOL     OW16372   1.802   3.172   3.749  0.1203 -0.4324 -0.1204
 1637SOL    HW116373   1.817   3.261   3.781 -0.4069 -0.4208  0.0913
 1637SOL    HW216374   1.730   3.139   3.803 -2.3007 -0.0071 -3.0878
 1638SOL     OW16375   0.928   0.580   6.641  0.2190  0.5083 -0.2159
 1638SOL    HW116376   0.871   0.649   6.608 -0.5215  0.4859  1.0272
 1638SOL    HW216377   1.016   0.606   6.614  0.8484 -2.3044 -0.7833
 1639SOL     OW16378   1.303   3.489   3.420 -0.0917 -0.1596 -0.3451
 1639SOL    HW116379   1.374   3.424   3.413  0.8529  0.7089  1.1146
 1639SOL    HW216380   1.237   3.436   3.376  1.4795 -1.6830 -0.8931
 1640SOL     OW16381   2.134   2.830  15.831  0.6308  0.1437  0.6781
 1640SOL    HW116382   2.103   2.858  15.745  0.6808 -1.0124  0.2766
 1640SOL    HW216383   2.221   2.797  15.808 -0.8000 -2.4647 -1.0308
 1641SOL     OW16384   0.199   4.117   5.047 -0.4510  0.2262 -0.4444
 1641SOL    HW116385   0.119   4.159   5.077 -0.0051  0.5408  0.3156
 1641SOL    HW216386   0.232   4.199   5.010  0.3471 -0.1353 -0.5436
 1642SOL     OW16387   2.238   3.958  12.041  0.6589  0.1581  0.4075
 1642SOL    HW116388   2.222   3.970  11.948  0.0525 -1.4885  0.3087
 1642SOL    HW216389   2.197   3.874  12.063  0.2703  0.1752 -0.2824
 1643SOL     OW16390   1.756   3.007  17.128  0.3439 -0.2465 -0.2201
 1643SOL    HW116391   1.685   3.060  17.094  1.0293  0.3900 -0.6608
 1643SOL    HW216392   1.820   3.077  17.137 -1.2390  1.0114  1.1182
 1644SOL     OW16393   0.399   0.001   7.072  0.2951 -0.3524 -0.5472
 1644SOL    HW116394   0.400   4.661   7.144  0.3189  0.5192  0.2015
 1644SOL    HW216395   0.310   0.028   7.093  0.6961  0.7124 -0.1829
 1645SOL     OW16396   4.648   1.387  16.178 -0.1771 -0.0617  0.2524
 1645SOL    HW116397   0.015   1.406  16.205 -0.3469  0.4744  0.4496
 1645SOL    HW216398   4.640   1.424  16.090  1.1306  0.4854  0.3666
 1646SOL     OW16399   0.049   3.005  10.958  0.0002  0.0132 -0.5567
 1646SOL    HW116400   0.135   3.044  10.972  0.3843 -1.9721  2.5017
 1646SOL    HW216401   0.029   3.022  10.866  0.0460 -0.5777 -0.6748
 1647SOL     OW16402   3.464   2.104  17.563 -0.1159 -0.4356  0.6760
 1647SOL    HW116403   3.465   2.150  17.479 -1.5264 -0.1931  0.7837
 1647SOL    HW216404   3.468   2.014  17.530  1.2771 -0.2305  0.3027
 1648SOL     OW16405   3.526   1.364   8.752  0.5701 -0.2083  0.3619
 1648SOL    HW116406   3.597   1.350   8.690  0.2837 -1.2904  0.2860
 1648SOL    HW216407   3.571   1.341   8.833 -0.6101  0.1227  1.1136
 1649SOL     OW16408   4.019   1.390   8.711 -0.1591  0.4592  0.2573
 1649SOL    HW116409   3.942   1.432   8.672 -1.0003 -1.6323 -0.3192
 1649SOL    HW216410   4.040   1.451   8.782  1.8278  1.5533 -1.2796
 1650SOL     OW16411   1.848   0.217   7.771  0.0569  0.3740  0.5065
 1650SOL    HW116412   1.809   0.261   7.696  0.7465 -0.6617 -0.4614
 1650SOL    HW216413   1.938   0.242   7.754  0.3614 -1.5052 -0.6587
 1651SOL     OW16414   3.929   3.047  13.309 -0.2301 -0.1099 -0.3477
 1651SOL    HW116415   3.976   3.116  13.262 -2.4227  0.1947 -2.1295
 1651SOL    HW216416   3.864   3.095  13.361 -1.8287 -3.4525  0.7556
 1652SOL     OW16417   2.329   4.183   5.853  0.4081  0.7818  0.3343
 1652SOL    HW116418   2.352   4.137   5.772  1.1177  0.7351  0.5617
 1652SOL    HW216419   2.411   4.173   5.902  2.4356 -2.5338 -3.6759
 1653SOL     OW16420   1.417   1.179   5.335 -0.2328 -0.1162  0.2500
 1653SOL    HW116421   1.479   1.169   5.406 -0.4595 -0.5092  0.3968
 1653SOL    HW216422   1.344   1.217   5.385  1.3943  0.0873  2.4301
 1654SOL     OW16423   3.327   3.453   1.719  0.3147 -0.3173  0.5104
 1654SOL    HW116424   3.409   3.426   1.760  0.2670 -0.9833  0.1769
 1654SOL    HW216425   3.359   3.533   1.678  1.0391  0.1505  1.9882
 1655SOL     OW16426   0.906   4.425   6.550  0.1517  0.3536 -0.3434
 1655SOL    HW116427   0.824   4.427   6.502  0.3994  0.1668 -0.7736
 1655SOL    HW216428   0.887   4.412   6.643 -1.8600 -1.3976 -1.0216
 1656SOL     OW16429   0.202   4.001   6.810 -0.1371 -0.1093  0.2183
 1656SOL    HW116430   0.241   3.919   6.838 -1.3420 -0.6510  0.2965
 1656SOL    HW216431   0.145   4.021   6.884  0.1007  0.2189  0.3132
 1657SOL     OW16432   3.353   3.963  13.607 -0.5760 -0.1446  0.2269
 1657SOL    HW116433   3.441   3.988  13.637 -1.1042  2.7568 -0.5886
 1657SOL    HW216434   3.312   4.049  13.603 -0.5515 -0.1783 -0.7039
 1658SOL     OW16435   3.851   1.292   6.915 -0.6797  0.0765 -0.0238
 1658SOL    HW116436   3.786   1.286   6.984  0.9017  2.2617  1.6438
 1658SOL    HW216437   3.876   1.200   6.901 -1.3131 -0.0606 -0.2289
 1659SOL     OW16438   3.914   2.018  12.039 -0.1757 -0.3812  0.3481
 1659SOL    HW116439   3.927   2.110  12.062 -1.3833 -0.0900 -0.1284
 1659SOL    HW216440   3.825   2.030  12.005  0.9408  0.6589 -2.2139
 1660SOL     OW16441   0.998   2.059   3.895 -0.2597  0.1353  0.2622
 1660SOL    HW116442   1.076   2.111   3.874 -0.6649  1.0720  1.0722
 1660SOL    HW216443   1.042   1.978   3.920  3.0732  2.1056  0.7047
 1661SOL     OW16444   3.221   0.166   4.707  0.3941 -0.6390 -0.3826
 1661SOL    HW116445   3.277   0.234   4.670  1.0719 -2.1750 -2.2024
 1661SOL    HW216446   3.133   0.195   4.685 -0.4669 -1.3848  2.1155
 1662SOL     OW16447   2.066   2.939   1.552 -0.0663  0.0365 -0.8943
 1662SOL    HW116448   1.980   2.968   1.522 -0.5797  0.4690  0.9880
 1662SOL    HW216449   2.127   2.944   1.479  0.3887 -3.4052 -0.7418
 1663SOL     OW16450   3.715   0.328   7.524 -0.4688  0.2032 -0.2331
 1663SOL    HW116451   3.725   0.292   7.612  0.2418  0.9486 -0.0059
 1663SOL    HW216452   3.806   0.337   7.495  0.0831  0.5401  1.6438
 1664SOL     OW16453   4.610   1.320   3.075 -0.2400  0.3430  0.2764
 1664SOL    HW116454   4.633   1.230   3.051 -0.7544  0.4730 -0.7240
 1664SOL    HW216455   4.520   1.320   3.106 -1.2268  2.3370 -2.5364
 1665SOL     OW16456   0.116   0.497   6.272 -0.3973  0.6972 -0.0536
 1665SOL    HW116457   0.047   0.558   6.243 -0.8186  0.2075 -0.0900
 1665SOL    HW216458   0.125   0.431   6.203 -0.6339  0.0680  0.5139
 1666SOL     OW16459   2.219   2.204   1.393  0.3831  0.2457 -0.1603
 1666SOL    HW116460   2.155   2.224   1.461  1.3589 -0.7055  1.0542
 1666SOL    HW216461   2.224   2.290   1.352  1.0054  0.8088  1.0844
 1667SOL     OW16462   0.214   4.088  15.858  0.7571  0.5912  0.1869
 1667SOL    HW116463   0.192   4.004  15.899 -0.7564  0.7068 -0.3808
 1667SOL    HW216464   0.123   4.112  15.840  0.4672 -0.7849 -0.1235
 1668SOL     OW16465   2.130   3.375   3.116 -0.2457 -0.0798  0.5135
 1668SOL    HW116466   2.141   3.289   3.075  2.4486  1.0974 -1.2570
 1668SOL    HW216467   2.203   3.425   3.080 -1.0398  0.8577  0.1918
 1669SOL     OW16468   1.373   3.700   5.262 -0.6204 -0.1926 -0.1066
 1669SOL    HW116469   1.421   3.748   5.195  2.2668  0.3570  2.3772
 1669SOL    HW216470   1.291   3.672   5.220  0.1941 -2.0659 -0.4319
 1670SOL     OW16471   3.911   2.903   1.983 -0.6681  0.5364 -0.5163
 1670SOL    HW116472   3.850   2.880   2.053  0.0327  1.1499  0.2877
 1670SOL    HW216473   3.860   2.969   1.935 -1.5194  0.7500  0.6719
 1671SOL     OW16474   3.902   1.156   5.924 -0.2241 -0.0602 -0.0607
 1671SOL    HW116475   3.812   1.186   5.909 -0.0852 -0.5537 -1.9653
 1671SOL    HW216476   3.907   1.125   6.014 -2.1777  0.6430  0.2723
 1672SOL     OW16477   0.196   3.780   2.935 -0.4603  0.1809 -0.2219
 1672SOL    HW116478   0.127   3.843   2.955  0.2310  0.0350  2.6050
 1672SOL    HW216479   0.215   3.808   2.846  0.9076 -1.2915 -0.3911
 1673SOL     OW16480   1.934   2.205   6.760  0.5347 -0.3989 -0.3351
 1673SOL    HW116481   1.867   2.227   6.696  0.2753 -3.7989 -1.2611
 1673SOL    HW216482   1.889   2.211   6.844 -0.3723  0.4274 -0.8881
 1674SOL     OW16483   0.598   2.346   4.834  0.3281  0.4559 -0.3269
 1674SOL    HW116484   0.645   2.370   4.754 -0.8888  1.2339 -0.8148
 1674SOL    HW216485   0.549   2.427   4.850 -0.2315  0.2577 -1.0405
 1675SOL     OW16486   2.229   2.429   2.341  0.3354  0.3781 -0.1563
 1675SOL    HW116487   2.237   2.370   2.416  1.8440  2.4137  1.3271
 1675SOL    HW216488   2.193   2.371   2.275  0.5008  0.6267 -0.4644
 1676SOL     OW16489   1.555   1.502   4.592 -0.1943  0.3273 -0.1214
 1676SOL    HW116490   1.571   1.571   4.528 -0.1865  0.9718  0.5816
 1676SOL    HW216491   1.461   1.487   4.580 -0.5984  2.3424  0.5039
 1677SOL     OW16492   3.916   0.547   8.351 -0.6401 -0.3233 -0.6398
 1677SOL    HW116493   4.009   0.546   8.327 -0.4700 -1.7897  0.1018
 1677SOL    HW216494   3.883   0.596   8.275 -0.5055  0.5137 -0.1488
 1678SOL     OW16495   4.639   1.193   0.388  0.3216 -0.0552 -0.2873
 1678SOL    HW116496   4.681   1.125   0.440  2.4840  0.4163 -1.4249
 1678SOL    HW216497   4.547   1.193   0.414  0.6774 -0.6508  1.0114
 1679SOL     OW16498   3.119   1.425   3.356  0.4001 -0.5269 -0.4591
 1679SOL    HW116499   3.048   1.412   3.418  0.3359  0.2393 -0.3748
 1679SOL    HW216500   3.177   1.488   3.399 -0.4637  0.1041 -0.2265
 1680SOL     OW16501   3.260   2.172   7.363 -0.5234 -0.1938 -0.2779
 1680SOL    HW116502   3.329   2.111   7.340 -0.2689  1.2011 -3.3156
 1680SOL    HW216503   3.244   2.208   7.275  0.1724  0.3342 -0.1811
 1681SOL     OW16504   3.761   2.490   6.160 -0.3516 -0.5573 -0.6670
 1681SOL    HW116505   3.710   2.490   6.241  1.5111 -0.6609  0.5140
 1681SOL    HW216506   3.791   2.578   6.139  2.3024 -1.4820 -0.7186
 1682SOL     OW16507   0.512   0.854   4.426  0.2691  0.3686 -0.0616
 1682SOL    HW116508   0.491   0.910   4.352  0.5557  0.5267 -0.0196
 1682SOL    HW216509   0.446   0.786   4.413 -1.0445  0.8830  3.7370
 1683SOL     OW16510   1.570   1.396   5.486 -0.3859  0.4534  0.8691
 1683SOL    HW116511   1.515   1.340   5.542 -1.1121  1.6603  1.3681
 1683SOL    HW216512   1.641   1.339   5.456 -0.2338  0.4089  1.3166
 1684SOL     OW16513   1.716   3.668   8.888 -0.5783 -0.9992  0.0155
 1684SOL    HW116514   1.709   3.761   8.869  0.5199 -0.8290  0.4157
 1684SOL    HW216515   1.728   3.671   8.983 -0.1045 -0.3314 -0.0640
 1685SOL     OW16516   1.644   1.843   4.332 -0.5637 -0.2785  0.7516
 1685SOL    HW116517   1.706   1.805   4.394  1.6770 -0.6524 -1.7451
 1685SOL    HW216518   1.615   1.768   4.279  0.2372  0.4028 -0.6429
 1686SOL     OW16519   0.421   4.658  13.419 -0.0844 -0.2523 -0.1456
 1686SOL    HW116520   0.449   0.014  13.465  0.4164  0.1425 -1.1272
 1686SOL    HW216521   0.360   4.690  13.353  1.0223  0.0209 -1.0323
 1687SOL     OW16522   1.907   1.978   2.360 -0.4399  0.3913 -0.0750
 1687SOL    HW116523   1.931   1.952   2.271  0.2322  3.0279 -0.6534
 1687SOL    HW216524   1.860   1.902   2.394 -0.7176  0.8604  0.5872
 1688SOL     OW16525   1.225   4.383   5.288  0.4889  0.5316  0.0193
 1688SOL    HW116526   1.241   4.327   5.213 -1.4430 -1.1901  0.8963
 1688SOL    HW216527   1.312   4.398   5.325 -0.0779 -0.1430  1.6413
 1689SOL     OW16528   1.207   3.653   9.048 -0.3973  0.1424 -0.6391
 1689SOL    HW116529   1.167   3.571   9.079 -0.8784  0.9010  0.7654
 1689SOL    HW216530   1.163   3.667   8.965 -0.2417 -0.6338 -0.8535
 1690SOL     OW16531   0.283   3.875   5.558  0.3782  0.3679  0.0616
 1690SOL    HW116532   0.323   3.951   5.514 -1.4673  0.2695 -1.7915
 1690SOL    HW216533   0.309   3.892   5.649 -2.2501 -2.8113  1.3823
 1691SOL     OW16534   3.879   1.847   4.287 -0.6765  0.5097  0.4891
 1691SOL    HW116535   3.790   1.825   4.261 -0.4494 -2.2595  2.0427
 1691SOL    HW216536   3.924   1.785   4.230 -0.7474  1.9661 -1.1388
 1692SOL     OW16537   4.439   0.610  15.591 -0.7742 -0.2323  0.2255
 1692SOL    HW116538   4.371   0.673  15.565 -0.2885  0.0927 -0.2647
 1692SOL    HW216539   4.393   0.540  15.637 -1.9007  0.6034  0.3817
 1693SOL     OW16540   0.837   1.055   9.469  0.1567 -0.1572  0.3362
 1693SOL    HW116541   0.867   1.094   9.551  2.3720 -0.8528 -0.1250
 1693SOL    HW216542   0.822   1.130   9.412  0.1431  1.7117  2.8189
 1694SOL     OW16543   1.132   3.643  16.919  0.6054  0.2024  0.3455
 1694SOL    HW116544   1.183   3.717  16.953  0.7829  1.8364 -3.4329
 1694SOL    HW216545   1.176   3.567  16.956 -1.1666 -0.3033  1.4170
 1695SOL     OW16546   2.236   0.129  12.406  0.0031  0.0856 -0.1405
 1695SOL    HW116547   2.188   0.210  12.391 -0.9676 -0.4473  0.1398
 1695SOL    HW216548   2.184   0.096  12.479  0.9821 -0.8059  0.1600
 1696SOL     OW16549   3.402   1.289  14.661  0.3319  0.0190 -0.4568
 1696SOL    HW116550   3.408   1.306  14.567  1.9309  0.6634 -0.2404
 1696SOL    HW216551   3.316   1.250  14.675 -0.2695  1.2271 -0.7631
 1697SOL     OW16552   3.524   1.863  17.424  1.1318  0.0105  0.2747
 1697SOL    HW116553   3.463   1.819  17.364  0.0475  1.8122  0.0856
 1697SOL    HW216554   3.605   1.819  17.396 -0.1072 -1.4038 -1.1310
 1698SOL     OW16555   3.717   2.000  11.058  0.0497  0.4746  0.5546
 1698SOL    HW116556   3.701   1.935  11.127  0.6289 -0.7876 -0.5040
 1698SOL    HW216557   3.811   2.010  11.042 -0.1260  1.9344  0.3993
 1699SOL     OW16558   4.023   1.059   0.137  0.1044  0.0502  0.3693
 1699SOL    HW116559   4.008   1.010   0.056  0.2967  1.7270 -0.6688
 1699SOL    HW216560   3.975   1.003   0.198  0.8945 -2.5306 -1.3391
 1700SOL     OW16561   0.800   2.530   8.177  0.3362 -0.0121 -0.4206
 1700SOL    HW116562   0.713   2.499   8.152  0.8434 -0.6293 -1.4961
 1700SOL    HW216563   0.817   2.591   8.105  1.0914  0.5016  0.1903
 1701SOL     OW16564   2.820   4.353   5.815  0.1863 -0.0534  0.2105
 1701SOL    HW116565   2.728   4.367   5.791 -0.2996 -4.2385 -0.2611
 1701SOL    HW216566   2.860   4.438   5.794  1.5322 -0.7992 -0.2332
 1702SOL     OW16567   3.979   0.525   7.659  0.1479  0.7659  0.3337
 1702SOL    HW116568   4.017   0.559   7.741  2.5060 -1.3841  0.1475
 1702SOL    HW216569   3.889   0.517   7.690  0.5287 -0.0114  1.2426
 1703SOL     OW16570   3.888   3.046   4.886 -0.2580 -0.2008 -0.1456
 1703SOL    HW116571   3.918   3.039   4.795  2.3652  1.3602  0.5960
 1703SOL    HW216572   3.919   2.962   4.920  0.9582 -0.3026 -1.5041
 1704SOL     OW16573   1.783   1.856  12.844 -0.1168 -0.5502  0.6067
 1704SOL    HW116574   1.764   1.806  12.923 -1.4549 -0.3636  0.4036
 1704SOL    HW216575   1.708   1.825  12.794  1.3438 -1.1869 -1.1600
 1705SOL     OW16576   4.648   1.741   5.791  0.1224  0.5867  0.1247
 1705SOL    HW116577   4.638   1.835   5.809  0.3322  1.2034 -2.9963
 1705SOL    HW216578   4.593   1.698   5.856  0.1459 -0.3161 -0.4507
 1706SOL     OW16579   0.428   4.620   6.419 -0.0187 -0.2302 -0.6192
 1706SOL    HW116580   0.373   4.582   6.487  0.2791  0.4957  0.0390
 1706SOL    HW216581   0.457   4.692   6.476 -0.2760  0.1815 -1.0075
 1707SOL     OW16582   0.177   3.264  17.463  0.6022  0.1244 -0.2730
 1707SOL    HW116583   0.237   3.228  17.528 -0.0805 -1.6319 -0.6154
 1707SOL    HW216584   0.088   3.265  17.498  0.7809 -0.1489  0.1856
 1708SOL     OW16585   3.119   1.765   4.593  0.0021 -0.0220  0.3301
 1708SOL    HW116586   3.114   1.679   4.552 -1.8882 -1.1195  2.8991
 1708SOL    HW216587   3.190   1.741   4.652  0.2245 -1.8787 -0.6725
 1709SOL     OW16588   3.562   2.305   3.767  0.2557 -0.3142  0.5523
 1709SOL    HW116589   3.657   2.311   3.779  0.3235 -1.3542  0.5141
 1709SOL    HW216590   3.541   2.296   3.674  0.3291 -1.9009  0.6971
 1710SOL     OW16591   1.156   4.488   6.766 -0.2878 -0.2715  0.1032
 1710SOL    HW116592   1.062   4.490   6.784 -0.1478  0.4681  0.7693
 1710SOL    HW216593   1.159   4.523   6.677  1.1591  0.3650  0.4016
 1711SOL     OW16594   0.151   2.916   5.180 -0.0256 -0.1908  0.0006
 1711SOL    HW116595   0.229   2.874   5.215 -0.2019  2.4923  3.5419
 1711SOL    HW216596   0.088   2.906   5.251  0.9431  0.3625  0.9383
 1712SOL     OW16597   4.336   4.672   5.083  0.1882  0.3667 -0.1454
 1712SOL    HW116598   4.312   4.721   5.162 -1.9019 -0.3225 -0.3545
 1712SOL    HW216599   4.425   4.642   5.103  0.2435  1.9141  1.9162
 1713SOL     OW16600   3.345   4.387  12.103  0.5707  0.1335  0.1745
 1713SOL    HW116601   3.359   4.407  12.195  1.4321  1.3594 -0.2211
 1713SOL    HW216602   3.285   4.313  12.110 -0.0864  0.4816 -1.7664
 1714SOL     OW16603   2.448   1.433   3.999 -0.1130 -0.3747 -1.0181
 1714SOL    HW116604   2.510   1.463   4.065 -0.9208 -1.5467  0.2868
 1714SOL    HW216605   2.367   1.438   4.049  0.8092 -0.0982  0.4589
 1715SOL     OW16606   2.706   2.856   5.067 -0.0673 -0.3843 -0.4694
 1715SOL    HW116607   2.730   2.883   5.155 -0.7488 -2.8392  0.4512
 1715SOL    HW216608   2.710   2.938   5.018 -2.3484  0.0849  0.1155
 1716SOL     OW16609   2.576   0.469  10.438 -0.3036  0.0649  0.0094
 1716SOL    HW116610   2.643   0.401  10.433 -1.2574 -0.7777 -1.2053
 1716SOL    HW216611   2.614   0.523  10.508 -1.5108  1.4494 -0.3976
 1717SOL     OW16612   3.536   1.349   1.014  0.1543  0.3347 -0.2220
 1717SOL    HW116613   3.539   1.440   1.042 -3.2149  0.8577 -1.4977
 1717SOL    HW216614   3.450   1.321   1.045  0.9106 -1.1175  0.5797
 1718SOL     OW16615   2.845   1.278  14.923 -0.1509 -0.2765  0.2784
 1718SOL    HW116616   2.841   1.333  14.845 -1.6933 -2.2412 -1.0402
 1718SOL    HW216617   2.771   1.218  14.915 -0.7304  0.6438 -1.2427
 1719SOL     OW16618   3.155   2.781   5.459  0.1950 -0.5727  0.2530
 1719SOL    HW116619   3.220   2.851   5.452  0.6151 -0.9240  0.6152
 1719SOL    HW216620   3.134   2.767   5.367 -0.8345 -0.7338  0.5083
 1720SOL     OW16621   1.460   3.477   9.261  0.0952  0.3091 -0.2732
 1720SOL    HW116622   1.414   3.477   9.344 -1.9334  2.9052 -1.3953
 1720SOL    HW216623   1.547   3.452   9.292 -0.1179  3.4455  2.8601
 1721SOL     OW16624   0.719   4.393   2.546 -0.0882 -0.1643  0.7435
 1721SOL    HW116625   0.708   4.311   2.497  1.2258 -0.5502  1.0952
 1721SOL    HW216626   0.626   4.416   2.553 -0.1243  0.1017 -0.5919
 1722SOL     OW16627   2.286   0.474   7.374  0.3117 -0.2018 -0.2005
 1722SOL    HW116628   2.362   0.455   7.319 -0.9623 -2.0140 -1.3130
 1722SOL    HW216629   2.293   0.569   7.365  0.9378 -0.3944 -1.7414
 1723SOL     OW16630   3.474   1.602  13.056 -0.0451 -0.0939  0.1284
 1723SOL    HW116631   3.512   1.563  13.135 -2.1610  0.5895  1.4887
 1723SOL    HW216632   3.463   1.696  13.068 -1.4085 -0.0766 -1.2475
 1724SOL     OW16633   2.741   3.990  14.402  0.7411 -0.3331 -0.2060
 1724SOL    HW116634   2.753   4.034  14.317  0.4389  0.1698  0.0118
 1724SOL    HW216635   2.645   3.982  14.405  0.7520 -0.2007  0.4372
 1725SOL     OW16636   4.344   0.807  10.531  0.0959 -0.1155  0.1667
 1725SOL    HW116637   4.372   0.868  10.462 -1.6579  2.0055  1.3344
 1725SOL    HW216638   4.300   0.870  10.588 -0.6895  1.5964 -2.2948
 1726SOL     OW16639   1.874   0.695   1.743 -0.3656 -0.3498  0.1557
 1726SOL    HW116640   1.892   0.751   1.667  1.2842 -0.7344  0.2527
 1726SOL    HW216641   1.932   0.624   1.718  0.5179  0.1891  0.6416
 1727SOL     OW16642   4.622   1.338   8.000 -0.0162 -0.5538  0.3393
 1727SOL    HW116643   4.654   1.408   8.057 -1.4398 -0.7679  1.3972
 1727SOL    HW216644   4.531   1.364   7.995 -0.0989 -1.3643 -2.0884
 1728SOL     OW16645   0.463   1.675   5.401 -0.0170 -0.2921  0.4380
 1728SOL    HW116646   0.388   1.699   5.346  1.8936  0.5226 -1.8188
 1728SOL    HW216647   0.421   1.672   5.487  0.0042 -0.4395  0.4420
 1729SOL     OW16648   4.027   4.490   6.662 -0.1174  0.4111 -0.9323
 1729SOL    HW116649   3.974   4.465   6.737  1.9633 -0.5022  0.2247
 1729SOL    HW216650   4.092   4.420   6.664 -0.0818  0.4895  0.4938
 1730SOL     OW16651   3.463   1.666  10.844  0.1575 -0.5730 -0.6532
 1730SOL    HW116652   3.448   1.606  10.771  2.3630 -0.2155 -1.3879
 1730SOL    HW216653   3.378   1.708  10.855 -0.3638 -2.2864  2.2167
 1731SOL     OW16654   3.452   1.036   4.211  0.8668 -0.4050 -0.3630
 1731SOL    HW116655   3.357   1.041   4.201  0.8601  0.1537 -0.0472
 1731SOL    HW216656   3.475   1.003   4.124 -1.1875 -1.2197 -0.5883
 1732SOL     OW16657   4.667   4.150   4.831  0.3573 -0.2272  0.5015
 1732SOL    HW116658   4.578   4.148   4.796 -0.6589 -0.2750  3.0360
 1732SOL    HW216659   4.707   4.069   4.801  0.0493 -1.1498  2.5601
 1733SOL     OW16660   4.185   1.822   4.226  0.5750 -0.1337  0.2373
 1733SOL    HW116661   4.215   1.736   4.253  2.2141  0.2027 -0.5497
 1733SOL    HW216662   4.140   1.852   4.305 -0.0288 -0.9628  0.2173
 1734SOL     OW16663   4.143   3.128   6.438 -0.5871 -0.5144 -0.5383
 1734SOL    HW116664   4.129   3.140   6.532  0.1567 -0.0676 -0.4848
 1734SOL    HW216665   4.065   3.155   6.390 -1.1053  1.1455  1.2097
 1735SOL     OW16666   2.981   2.351   6.139 -0.3030 -0.0150  0.3111
 1735SOL    HW116667   3.042   2.414   6.176  1.5550 -1.4833 -0.2823
 1735SOL    HW216668   2.941   2.305   6.213 -1.7194  0.8349  0.0905
 1736SOL     OW16669   4.519   2.639   4.958  0.2180  0.0556  0.4670
 1736SOL    HW116670   4.509   2.696   5.034 -1.2224 -1.6957  1.6081
 1736SOL    HW216671   4.456   2.572   4.986  0.8643 -0.5679  0.4360
 1737SOL     OW16672   1.391   1.082   0.168  0.3024 -0.1496  0.3061
 1737SOL    HW116673   1.486   1.090   0.164  0.2402 -0.4929 -1.5663
 1737SOL    HW216674   1.380   1.110   0.259  0.7505  0.6569  0.1048
 1738SOL     OW16675   1.925   1.292   2.488  0.1901  0.0367 -0.1127
 1738SOL    HW116676   1.924   1.250   2.402 -0.8763  0.9630 -0.5663
 1738SOL    HW216677   2.004   1.345   2.481  0.9430 -1.2567 -1.2731
 1739SOL     OW16678   1.121   1.731   4.575  0.2102  0.3967 -0.6624
 1739SOL    HW116679   1.118   1.726   4.480 -1.0579 -0.4679 -0.5788
 1739SOL    HW216680   1.145   1.824   4.573 -0.4527  0.6621  3.1449
 1740SOL     OW16681   1.810   4.216  16.505  0.5428  0.0065  0.0640
 1740SOL    HW116682   1.830   4.250  16.592  3.0942  1.8791 -1.2295
 1740SOL    HW216683   1.865   4.138  16.514 -0.4494 -0.5725  1.0584
 1741SOL     OW16684   0.046   2.444  14.481 -0.3054 -0.2372 -0.4867
 1741SOL    HW116685   0.051   2.525  14.430  0.1017 -0.5079 -0.8737
 1741SOL    HW216686   0.061   2.478  14.570  0.5262  0.3493 -0.8500
 1742SOL     OW16687   2.394   0.450  10.924  0.2103 -0.4363  0.3507
 1742SOL    HW116688   2.417   0.395  10.849  0.6239 -1.0494  0.9355
 1742SOL    HW216689   2.463   0.517  10.921 -2.0701  1.8876 -0.4258
 1743SOL     OW16690   4.598   1.431  11.217 -0.1847 -0.4631  0.1436
 1743SOL    HW116691   4.612   1.525  11.216  2.3793 -0.7853  2.9127
 1743SOL    HW216692   4.665   1.395  11.159  1.1167  1.7104  0.2905
 1744SOL     OW16693   0.100   1.464   4.186  0.6110 -0.4319 -0.3313
 1744SOL    HW116694   0.024   1.505   4.228  0.3304 -1.1863 -0.0971
 1744SOL    HW216695   0.063   1.378   4.165  1.8559 -1.0513 -0.0125
 1745SOL     OW16696   3.519   4.400   7.491  0.4610 -0.3511  0.3546
 1745SOL    HW116697   3.436   4.363   7.521 -0.9538  2.2113 -0.3985
 1745SOL    HW216698   3.510   4.482   7.539  2.9848 -0.2215  0.6153
 1746SOL     OW16699   1.349   3.104   4.300  0.1333  0.0353 -0.7159
 1746SOL    HW116700   1.396   3.021   4.301  0.1203  0.0317 -0.4642
 1746SOL    HW216701   1.408   3.163   4.346  0.9588 -3.0398  2.2206
 1747SOL     OW16702   0.940   1.025   8.119  0.0336 -0.2008 -0.4260
 1747SOL    HW116703   1.001   1.011   8.192  1.0005 -0.4975 -1.2983
 1747SOL    HW216704   0.920   1.119   8.122  0.7978 -0.0373 -0.3483
 1748SOL     OW16705   0.024   3.014   1.758 -0.5861 -0.0044  0.4668
 1748SOL    HW116706   0.082   2.976   1.824 -2.7029 -0.0138  2.3263
 1748SOL    HW216707   0.001   2.947   1.694  1.7394 -0.5148  0.1681
 1749SOL     OW16708   0.357   1.122  11.678  0.2018 -0.2864 -0.3381
 1749SOL    HW116709   0.348   1.212  11.646 -1.2097  0.2696  1.6023
 1749SOL    HW216710   0.291   1.075  11.628 -2.4224  3.7037 -0.6099
 1750SOL     OW16711   2.606   4.712   3.925 -0.1696  0.6021 -0.5177
 1750SOL    HW116712   2.569   4.717   3.837 -0.8245 -1.0547 -0.3327
 1750SOL    HW216713   2.522   4.694   3.968  0.4845 -2.2835 -0.4711
 1751SOL     OW16714   3.568   2.757  12.761 -0.5476  0.0417  0.5109
 1751SOL    HW116715   3.604   2.733  12.675 -0.7294 -3.5188  1.4253
 1751SOL    HW216716   3.648   2.784  12.807 -1.5749  0.0864  2.2737
 1752SOL     OW16717   1.542   0.494   0.859 -0.5721  0.3032 -0.2236
 1752SOL    HW116718   1.548   0.498   0.954 -2.6540 -0.5844 -0.0525
 1752SOL    HW216719   1.497   0.578   0.849  1.4533  1.5178  0.8071
 1753SOL     OW16720   1.126   2.183  11.504 -0.3455 -0.7605  1.0081
 1753SOL    HW116721   1.090   2.234  11.431  0.8229  1.5714  2.0841
 1753SOL    HW216722   1.051   2.177  11.563 -0.1780 -0.7879  1.2155
 1754SOL     OW16723   3.959   1.774   3.788  0.1753 -0.8258 -0.6884
 1754SOL    HW116724   3.885   1.792   3.847 -0.5003 -0.0945 -1.7585
 1754SOL    HW216725   4.036   1.766   3.845 -0.4442  0.2987  0.3284
 1755SOL     OW16726   1.853   0.533  11.065  0.6597  0.0612  0.1141
 1755SOL    HW116727   1.856   0.501  11.155  1.3474  2.7745  1.0594
 1755SOL    HW216728   1.946   0.532  11.044  0.8261 -0.4508  0.8636
 1756SOL     OW16729   3.265   2.746   0.329  0.5195  0.1645 -0.2045
 1756SOL    HW116730   3.187   2.768   0.380  0.3338  0.7940 -0.7752
 1756SOL    HW216731   3.305   2.688   0.394  0.3118  0.5785  0.2921
 1757SOL     OW16732   1.158   0.317   9.515 -0.0283 -0.3284  0.7017
 1757SOL    HW116733   1.184   0.268   9.593 -0.4959 -2.5954 -0.5818
 1757SOL    HW216734   1.072   0.337   9.553 -0.8430 -1.4385 -0.5756
 1758SOL     OW16735   2.710   1.517   6.129 -0.0261 -0.0801 -0.1811
 1758SOL    HW116736   2.743   1.441   6.176 -0.5038  1.9348  3.4518
 1758SOL    HW216737   2.656   1.483   6.058 -0.5431  0.3244  0.0232
 1759SOL     OW16738   2.916   0.530   0.268  0.4511 -0.2920 -0.3390
 1759SOL    HW116739   2.970   0.491   0.200  3.1676 -1.0947  2.2707
 1759SOL    HW216740   2.879   0.607   0.226 -1.3167 -1.3258 -0.6962
 1760SOL     OW16741   1.229   1.589   4.351 -0.7042  0.3154 -0.1054
 1760SOL    HW116742   1.282   1.513   4.327 -1.8600 -0.2303 -0.9282
 1760SOL    HW216743   1.152   1.579   4.295  1.4558 -1.4783 -2.7723
 1761SOL     OW16744   2.951   1.466  11.770  0.7133  0.3878  0.1481
 1761SOL    HW116745   2.959   1.403  11.841  0.8503  0.1201 -0.1077
 1761SOL    HW216746   2.859   1.494  11.775  0.0273 -1.9508  0.5673
 1762SOL     OW16747   2.892   3.012   5.534  0.9019 -0.2723  0.0279
 1762SOL    HW116748   2.906   2.943   5.598 -0.4658  1.3464  2.1146
 1762SOL    HW216749   2.933   3.084   5.582  0.1953 -1.6743  2.7206
 1763SOL     OW16750   2.375   0.131   4.784  0.2697 -0.3218  0.3053
 1763SOL    HW116751   2.451   0.100   4.734  0.7320  0.1291  0.7372
 1763SOL    HW216752   2.407   0.123   4.873  0.9750  0.2460  0.1043
 1764SOL     OW16753   0.728   3.094   7.056 -0.3080  0.5318  0.0534
 1764SOL    HW116754   0.641   3.072   7.021 -0.0212 -0.4713 -0.0328
 1764SOL    HW216755   0.708   3.152   7.129 -2.8210  1.2146 -1.1661
 1765SOL     OW16756   1.941   0.536   5.471  0.6849  0.3021  0.4987
 1765SOL    HW116757   1.941   0.482   5.550  1.0467  1.4265  1.2659
 1765SOL    HW216758   2.027   0.577   5.473  1.0326 -0.5349  2.0062
 1766SOL     OW16759   4.290   0.478  15.806 -0.2372 -0.7704 -0.3389
 1766SOL    HW116760   4.286   0.547  15.873 -1.0405 -0.0907 -1.0913
 1766SOL    HW216761   4.239   0.402  15.833 -2.6029  1.5897  1.7777
 1767SOL     OW16762   2.504   0.808   4.025  0.0287 -0.3318  0.1370
 1767SOL    HW116763   2.520   0.714   4.022 -1.1700 -0.5394  0.4668
 1767SOL    HW216764   2.523   0.839   3.936 -2.6139  1.2546  0.1439
 1768SOL     OW16765   3.734   1.687   5.232 -0.3987  0.0911  0.0586
 1768SOL    HW116766   3.681   1.743   5.176  2.0513  2.0126 -0.3149
 1768SOL    HW216767   3.726   1.727   5.319 -0.3859  0.2444 -0.0118
 1769SOL     OW16768   3.128   0.828   4.453 -0.6245  0.4671  0.2947
 1769SOL    HW116769   3.172   0.745   4.468 -1.8458 -0.3744 -0.8016
 1769SOL    HW216770   3.096   0.801   4.367  0.7935 -1.3123  0.3450
 1770SOL     OW16771   2.001   4.560   6.962 -0.2735  0.0331  0.1768
 1770SOL    HW116772   2.024   4.568   7.055  1.2086  0.9394 -0.2761
 1770SOL    HW216773   1.908   4.538   6.968  0.0924 -0.9896  2.3387
 1771SOL     OW16774   1.996   3.534   6.839  0.4988  0.2102 -0.2270
 1771SOL    HW116775   1.988   3.592   6.763 -0.7321 -0.2948 -0.4906
 1771SOL    HW216776   1.924   3.570   6.892  0.7740 -0.0379  0.3045
 1772SOL     OW16777   0.805   0.775   1.301  0.4611 -0.3508 -0.1118
 1772SOL    HW116778   0.863   0.826   1.357 -0.1350 -0.7421  0.8626
 1772SOL    HW216779   0.781   0.851   1.248  0.1096 -1.1582 -1.1211
 1773SOL     OW16780   2.209   1.336   9.076 -0.3529 -0.0010  0.3863
 1773SOL    HW116781   2.117   1.341   9.050  0.4141 -0.2413 -2.3618
 1773SOL    HW216782   2.228   1.242   9.068  0.0410  0.1675 -0.6135
 1774SOL     OW16783   4.248   2.673   9.548 -0.3457 -0.8366 -0.2679
 1774SOL    HW116784   4.225   2.604   9.610 -1.9345 -0.5144 -0.5007
 1774SOL    HW216785   4.163   2.714   9.533 -0.1969 -0.4969 -0.1968
 1775SOL     OW16786   4.584   3.562   4.687  0.7167  0.4949 -0.0060
 1775SOL    HW116787   4.524   3.511   4.632 -0.6582  0.0189  1.9544
 1775SOL    HW216788   4.543   3.648   4.685 -2.0145 -0.8269 -1.0783
 1776SOL     OW16789   0.662   3.989   9.619  0.4653 -0.0970  0.0741
 1776SOL    HW116790   0.649   4.042   9.697 -1.8680 -0.2984 -0.1804
 1776SOL    HW216791   0.755   4.003   9.598  0.4441  1.1039  0.7883
 1777SOL     OW16792   2.333   3.166   0.676 -0.4643  0.0140 -0.7696
 1777SOL    HW116793   2.340   3.196   0.767  0.9596  2.6291 -1.7427
 1777SOL    HW216794   2.239   3.149   0.670 -0.6184  0.8706 -0.7474
 1778SOL     OW16795   0.256   3.233   3.903 -0.0906 -0.1435 -0.0157
 1778SOL    HW116796   0.215   3.262   3.822 -2.3048 -0.6486  0.9146
 1778SOL    HW216797   0.345   3.229   3.869  0.2527  1.3171  0.6904
 1779SOL     OW16798   3.243   2.081   1.213  0.1893  0.6110  0.0328
 1779SOL    HW116799   3.236   2.170   1.248 -0.0041 -0.0643  1.7023
 1779SOL    HW216800   3.260   2.033   1.294  0.4631 -0.0505 -0.4150
 1780SOL     OW16801   3.151   1.761   1.198 -0.5247  0.1572  0.1545
 1780SOL    HW116802   3.064   1.759   1.159 -0.5046 -1.1636  0.1706
 1780SOL    HW216803   3.147   1.829   1.265 -1.5304  1.6533 -1.4209
 1781SOL     OW16804   4.679   0.939  13.066  0.5354 -0.3174  1.0227
 1781SOL    HW116805   4.603   0.997  13.071 -0.5537 -1.5755 -0.9963
 1781SOL    HW216806   4.633   0.862  13.099 -0.3291 -0.4342 -0.4583
 1782SOL     OW16807   0.838   3.116   4.713  1.0683 -0.0532 -0.2904
 1782SOL    HW116808   0.912   3.093   4.770  0.7710  0.3419  0.2551
 1782SOL    HW216809   0.841   3.212   4.713 -1.4341  0.0476  1.3556
 1783SOL     OW16810   0.727   0.597  15.579 -0.5061 -0.9655  0.2653
 1783SOL    HW116811   0.659   0.651  15.539  0.6274  0.0402 -0.3186
 1783SOL    HW216812   0.795   0.628  15.519 -0.8199  2.1105  1.4874
 1784SOL     OW16813   3.560   2.568   7.191  0.0497  0.2030  0.0137
 1784SOL    HW116814   3.644   2.610   7.174  0.1184 -0.9992 -2.5787
 1784SOL    HW216815   3.512   2.650   7.175 -0.7004  0.0462  1.4971
 1785SOL     OW16816   0.249   4.461  13.439 -0.7389 -0.0378  0.2836
 1785SOL    HW116817   0.334   4.504  13.443 -1.1453  0.8599 -0.9410
 1785SOL    HW216818   0.208   4.479  13.524  3.0874  0.4772  2.0150
 1786SOL     OW16819   1.786   4.624   4.480  0.4822 -0.4672 -0.3012
 1786SOL    HW116820   1.840   4.694   4.516 -1.0267 -0.2578  1.5300
 1786SOL    HW216821   1.797   4.554   4.545  0.7739 -0.8582 -0.7714
 1787SOL     OW16822   2.654   1.301  11.617 -0.3222  0.6018 -0.0943
 1787SOL    HW116823   2.607   1.224  11.646 -0.9975  0.7526 -0.8087
 1787SOL    HW216824   2.746   1.275  11.629 -0.8837 -0.3311  2.1576
 1788SOL     OW16825   1.515   2.535   8.635 -0.3321  0.1515 -0.1513
 1788SOL    HW116826   1.521   2.447   8.599  2.2662 -0.0905  0.9399
 1788SOL    HW216827   1.431   2.559   8.596 -0.2056 -2.8229 -2.2021
 1789SOL     OW16828   0.035   2.163   0.398 -0.3640 -0.2545 -0.7048
 1789SOL    HW116829   0.037   2.131   0.488 -1.6845 -1.0585 -0.9593
 1789SOL    HW216830   4.671   2.147   0.360 -1.0247  1.6215  0.0624
 1790SOL     OW16831   3.104   4.341   3.014  0.4462 -0.2690 -0.1766
 1790SOL    HW116832   3.167   4.285   2.968  1.0550 -0.6293  1.0787
 1790SOL    HW216833   3.042   4.331   2.942 -0.1325 -1.4707  0.4832
 1791SOL     OW16834   2.645   0.358   1.421 -0.3431 -0.4120  0.1478
 1791SOL    HW116835   2.629   0.320   1.507 -1.2860  1.9880  1.0458
 1791SOL    HW216836   2.682   0.286   1.370  1.6405 -0.0119  1.0201
 1792SOL     OW16837   1.183   3.222   2.088 -0.0504  0.3148  0.0553
 1792SOL    HW116838   1.241   3.157   2.048 -0.3727  1.3643 -2.0667
 1792SOL    HW216839   1.226   3.307   2.088  2.0709 -0.7361  2.4001
 1793SOL     OW16840   0.977   2.231  16.935  0.0652  0.5566  0.1958
 1793SOL    HW116841   0.898   2.267  16.895  0.5790 -0.5748 -1.8004
 1793SOL    HW216842   1.003   2.155  16.884  2.0585  1.3214  0.0765
 1794SOL     OW16843   4.649   4.028   8.047 -0.2922  0.7050  0.2908
 1794SOL    HW116844   4.706   3.951   8.052  0.7012  1.4317  0.0938
 1794SOL    HW216845   4.620   4.012   7.957  0.8913  0.2887 -0.0139
 1795SOL     OW16846   3.017   0.360   6.887  0.0192 -0.2365  0.7640
 1795SOL    HW116847   3.050   0.398   6.969 -0.0140  1.3519  0.0441
 1795SOL    HW216848   3.021   0.438   6.832  1.6378  0.1453  1.4322
 1796SOL     OW16849   4.304   3.461  10.764 -0.1315 -0.3640  0.4383
 1796SOL    HW116850   4.343   3.499  10.843  1.5272 -0.2556 -0.4499
 1796SOL    HW216851   4.211   3.482  10.778 -0.3580 -1.1192  0.0703
 1797SOL     OW16852   0.959   4.718  10.229  0.1095 -0.1145  0.3370
 1797SOL    HW116853   1.001   4.632  10.228  2.4175  1.0189 -0.4262
 1797SOL    HW216854   1.033   0.054  10.214 -1.4799  2.2372  1.8499
 1798SOL     OW16855   1.609   3.819   3.881  0.0083 -0.1157  0.1182
 1798SOL    HW116856   1.658   3.786   3.805 -3.0950  0.0732 -1.9809
 1798SOL    HW216857   1.533   3.845   3.829  0.1504  0.6663  0.3104
 1799SOL     OW16858   3.116   1.530   8.262  0.2535 -0.0041 -0.3862
 1799SOL    HW116859   3.059   1.454   8.253  0.2937 -0.1577  0.6590
 1799SOL    HW216860   3.155   1.509   8.347 -1.7928 -1.4939  0.1835
 1800SOL     OW16861   4.459   0.305   6.389 -0.7570  0.2624 -0.2137
 1800SOL    HW116862   4.510   0.226   6.372 -2.1711 -0.6378 -0.1975
 1800SOL    HW216863   4.374   0.265   6.409  1.2628 -2.3590  3.2394
 1801SOL     OW16864   3.291   1.321   4.912  0.3287  0.1600 -0.0977
 1801SOL    HW116865   3.371   1.370   4.929  0.3417  0.0413  0.1831
 1801SOL    HW216866   3.328   1.252   4.855  1.6554 -0.3961  1.4386
 1802SOL     OW16867   1.980   3.610   7.839  0.0622 -0.2470  0.2971
 1802SOL    HW116868   2.030   3.543   7.791  0.5915  0.1269  0.3286
 1802SOL    HW216869   2.020   3.609   7.925  2.1333 -2.0797 -0.6789
 1803SOL     OW16870   1.910   1.108  16.025  0.2934  0.4504 -0.0197
 1803SOL    HW116871   1.882   1.048  16.094 -2.3695 -0.4592 -1.8843
 1803SOL    HW216872   1.868   1.190  16.052  0.5815  1.1152 -1.5438
 1804SOL     OW16873   3.843   0.211   8.688 -0.3306 -0.2511  0.6370
 1804SOL    HW116874   3.907   0.208   8.758  1.2396 -1.9404 -0.8719
 1804SOL    HW216875   3.837   0.303   8.663 -0.4051 -0.1958  0.8571
 1805SOL     OW16876   2.002   3.915   5.412 -0.7511  0.0860 -0.3606
 1805SOL    HW116877   1.944   3.978   5.368  0.2795 -0.2587 -2.2023
 1805SOL    HW216878   2.028   3.862   5.337 -0.1702  0.8006 -0.6716
 1806SOL     OW16879   1.792   2.669   4.691 -0.4456 -0.1180  0.2891
 1806SOL    HW116880   1.866   2.709   4.736 -0.5362  4.1629 -3.3333
 1806SOL    HW216881   1.787   2.592   4.747  2.4403 -0.1057  0.5374
 1807SOL     OW16882   1.315   1.381  15.066  0.5211  0.4443  0.5170
 1807SOL    HW116883   1.332   1.473  15.047  1.1450 -0.1082 -1.5623
 1807SOL    HW216884   1.310   1.390  15.161  2.9245  1.3589  0.5472
 1808SOL     OW16885   4.491   2.068   2.880 -0.2942  0.1895  1.2785
 1808SOL    HW116886   4.576   2.048   2.842  0.0657  2.4558  0.9206
 1808SOL    HW216887   4.452   1.982   2.863  1.3852 -0.3600  0.2589
 1809SOL     OW16888   0.670   1.936   7.585  0.8838  0.7210 -0.4241
 1809SOL    HW116889   0.678   1.861   7.525  0.9128  0.1765  0.2521
 1809SOL    HW216890   0.678   1.994   7.509 -1.2369  1.5254 -0.0237
 1810SOL     OW16891   2.316   0.499   3.958 -0.1274 -0.8038  0.2613
 1810SOL    HW116892   2.295   0.407   3.943  0.9326 -0.5746 -2.5296
 1810SOL    HW216893   2.300   0.537   3.872  0.1149 -3.0780 -0.7663
 1811SOL     OW16894   0.105   0.938  17.245  0.0822 -0.1870 -0.1738
 1811SOL    HW116895   0.070   1.027  17.236 -3.3844 -1.5225  0.0665
 1811SOL    HW216896   0.093   0.910  17.336  2.2165 -0.8891 -0.1245
 1812SOL     OW16897   4.543   2.046   2.560  0.4297 -0.2998  0.1413
 1812SOL    HW116898   4.625   2.094   2.571 -0.8160  1.9503 -0.4506
 1812SOL    HW216899   4.478   2.111   2.535  1.5646 -0.0283 -2.1017
 1813SOL     OW16900   3.212   0.570   7.457 -0.0203 -0.3994 -0.1602
 1813SOL    HW116901   3.264   0.495   7.485  3.0736  1.8657  0.1209
 1813SOL    HW216902   3.287   0.628   7.460 -1.0565  0.9962 -1.2001
 1814SOL     OW16903   2.150   3.074   8.571  0.0011 -0.3957  0.4537
 1814SOL    HW116904   2.186   2.988   8.552 -0.6203 -0.4995 -0.2650
 1814SOL    HW216905   2.222   3.113   8.621  0.7072  0.9966 -1.6453
 1815SOL     OW16906   1.861   3.489   8.364  0.3035  0.3303 -0.1821
 1815SOL    HW116907   1.812   3.496   8.282 -1.4325 -0.7604  0.7650
 1815SOL    HW216908   1.871   3.579   8.393  2.4668 -0.2808  0.9988
 1816SOL     OW16909   2.869   3.935   9.004 -0.2595  0.1682 -0.9660
 1816SOL    HW116910   2.857   3.950   8.910  2.1309 -0.3365 -1.3548
 1816SOL    HW216911   2.794   3.982   9.041  1.8554  1.6818  1.4717
 1817SOL     OW16912   2.206   2.881  16.097 -0.1205 -0.1993  0.4457
 1817SOL    HW116913   2.162   2.843  16.021  1.4491  0.2320 -0.6788
 1817SOL    HW216914   2.247   2.961  16.064  0.6744 -0.4029  0.9298
 1818SOL     OW16915   3.974   3.629   5.763  0.2500 -0.2448 -0.2761
 1818SOL    HW116916   3.929   3.548   5.783 -0.8255  0.8838  1.7894
 1818SOL    HW216917   3.910   3.682   5.715  0.2777 -0.0056 -0.0509
 1819SOL     OW16918   1.219   0.502   6.364 -0.4028  0.6840  0.5815
 1819SOL    HW116919   1.188   0.562   6.433  0.2544  1.8901 -0.1636
 1819SOL    HW216920   1.143   0.486   6.309 -1.7328  0.6970  2.4094
 1820SOL     OW16921   3.528   0.446  15.543  0.3411 -0.0287  0.2273
 1820SOL    HW116922   3.496   0.486  15.624 -0.7975  0.9044 -0.6734
 1820SOL    HW216923   3.547   0.356  15.568 -2.0110 -0.1537  1.5513
 1821SOL     OW16924   0.464   2.859  14.037 -0.3201 -0.4977 -0.0201
 1821SOL    HW116925   0.555   2.834  14.019  0.8325  3.6909  0.0019
 1821SOL    HW216926   0.474   2.952  14.018 -1.9922 -0.3758 -0.2847
 1822SOL     OW16927   0.991   0.358   3.014  0.0188 -0.0189 -0.4093
 1822SOL    HW116928   0.961   0.448   3.008 -0.4614 -0.2706 -1.9069
 1822SOL    HW216929   0.916   0.308   2.983 -0.1789 -0.2443  0.4267
 1823SOL     OW16930   1.269   3.352   6.312 -0.1205 -0.2163  0.0683
 1823SOL    HW116931   1.280   3.301   6.232 -1.1154 -0.0389 -0.1697
 1823SOL    HW216932   1.181   3.317   6.327  0.0812 -0.7213  0.0669
 1824SOL     OW16933   3.243   2.752   7.556 -0.0076  0.3801  0.2269
 1824SOL    HW116934   3.281   2.837   7.578  0.5983  0.4944 -1.2636
 1824SOL    HW216935   3.301   2.691   7.602 -0.0574 -1.2950 -1.9445
 1825SOL     OW16936   3.296   3.923   6.573  0.4779  0.0981 -0.1946
 1825SOL    HW116937   3.387   3.922   6.544  0.8472  1.6371  0.9299
 1825SOL    HW216938   3.258   3.855   6.518  1.7783 -0.9693  0.2122
 1826SOL     OW16939   1.435   1.334   3.203 -0.6945 -0.5211 -0.3233
 1826SOL    HW116940   1.478   1.392   3.265 -1.9605  0.9152 -0.7972
 1826SOL    HW216941   1.489   1.255   3.200  0.2640  0.1219 -0.3805
 1827SOL     OW16942   2.848   1.344  17.551 -0.2411  0.1464  0.5916
 1827SOL    HW116943   2.886   1.413  17.497  0.0851 -2.4367 -2.5411
 1827SOL    HW216944   2.847   1.267  17.494  2.5104  0.1987  0.4708
 1828SOL     OW16945   2.532   4.488   5.220 -0.1302 -0.1633 -0.1351
 1828SOL    HW116946   2.471   4.492   5.293 -1.0260 -4.3049 -0.6419
 1828SOL    HW216947   2.476   4.506   5.144  1.4450 -2.2714 -1.8124
 1829SOL     OW16948   0.843   2.782   4.197 -0.2259 -0.1456  0.0359
 1829SOL    HW116949   0.779   2.813   4.260  0.4620 -0.1571  0.7384
 1829SOL    HW216950   0.826   2.688   4.199  1.1955 -0.3762  1.7658
 1830SOL     OW16951   0.875   3.361   8.153  0.1806  0.5774 -0.6128
 1830SOL    HW116952   0.843   3.356   8.243  0.5073 -1.8978 -0.6555
 1830SOL    HW216953   0.812   3.298   8.117  2.4366 -0.8309 -2.1027
 1831SOL     OW16954   1.005   2.970  13.921  0.5242  0.5619  0.3250
 1831SOL    HW116955   1.009   2.875  13.912  1.8533  0.8540 -2.1662
 1831SOL    HW216956   1.036   2.991  13.833 -0.7862  0.5521 -0.1492
 1832SOL     OW16957   0.973   1.371   2.634  0.3595  0.2304  0.1987
 1832SOL    HW116958   0.967   1.458   2.594 -0.2459  0.2966  0.4218
 1832SOL    HW216959   0.880   1.347   2.639  0.5323  0.0191  2.4141
 1833SOL     OW16960   0.362   0.582   6.049 -0.2988 -0.6240  0.0154
 1833SOL    HW116961   0.286   0.638   6.061 -0.3756 -0.6911 -0.1510
 1833SOL    HW216962   0.357   0.546   5.960 -1.0802 -0.7996  0.1268
 1834SOL     OW16963   1.190   2.917   5.012 -0.0677  0.0823  0.5998
 1834SOL    HW116964   1.283   2.932   5.029  0.2967 -0.2083 -1.0760
 1834SOL    HW216965   1.172   2.833   5.055  1.4616 -0.7679 -0.3788
 1835SOL     OW16966   0.186   4.562  10.966  0.2968  0.2944 -0.1322
 1835SOL    HW116967   0.158   4.473  10.948  0.3060  0.4136 -0.7492
 1835SOL    HW216968   0.224   4.594  10.883 -0.7993  0.3620 -0.6110
 1836SOL     OW16969   4.620   4.172  11.585 -0.2629 -0.2255 -0.0309
 1836SOL    HW116970   4.533   4.205  11.566  0.5157  1.4841 -0.5515
 1836SOL    HW216971   4.628   4.216  11.669 -2.2590  1.4179 -0.7183
 1837SOL     OW16972   0.634   4.617   2.386  0.1080  0.5211 -0.2909
 1837SOL    HW116973   0.677   4.537   2.354 -2.1734 -1.0010  0.4692
 1837SOL    HW216974   0.579   4.602   2.462  0.7105 -0.5432 -0.0692
 1838SOL     OW16975   4.417   2.063  14.497 -0.2944 -0.3480  0.0079
 1838SOL    HW116976   4.443   1.996  14.435  0.7168  0.8304 -0.8381
 1838SOL    HW216977   4.480   2.134  14.483 -0.1254 -0.3899  0.5883
 1839SOL     OW16978   4.067   4.458   9.896 -0.2752  0.0185 -0.8272
 1839SOL    HW116979   4.146   4.404   9.903  0.2557  0.9120  0.0346
 1839SOL    HW216980   4.016   4.392   9.849 -0.0910  0.4067 -1.5693
 1840SOL     OW16981   1.638   1.778   3.695  0.1747 -0.0402 -0.8607
 1840SOL    HW116982   1.548   1.769   3.663 -0.1601  0.6786 -0.1105
 1840SOL    HW216983   1.688   1.774   3.613  1.0460  1.4404 -0.3905
 1841SOL     OW16984   0.367   4.130   5.436 -0.0675 -0.2458  0.0824
 1841SOL    HW116985   0.370   4.202   5.373  0.3502 -0.8685 -0.6214
 1841SOL    HW216986   0.373   4.191   5.509  1.4837 -1.8338  1.2783
 1842SOL     OW16987   0.208   2.404   7.399 -0.3084 -0.0129  0.2469
 1842SOL    HW116988   0.156   2.464   7.452 -1.1717  0.2508 -0.8911
 1842SOL    HW216989   0.293   2.448   7.396 -0.2541 -0.0509  1.1337
 1843SOL     OW16990   3.552   3.222   5.329 -0.0800 -0.3123 -0.1938
 1843SOL    HW116991   3.629   3.213   5.274  0.7720  0.4401  0.8623
 1843SOL    HW216992   3.541   3.317   5.339  0.7513 -0.4776  2.4016
 1844SOL     OW16993   3.734   2.914   1.694  0.4139 -0.0003  0.0312
 1844SOL    HW116994   3.749   2.995   1.742  0.8757 -0.1066  0.0641
 1844SOL    HW216995   3.662   2.876   1.744 -1.4113  1.5506 -1.4006
 1845SOL     OW16996   0.806   1.487   0.369 -0.2239  0.3606  0.2123
 1845SOL    HW116997   0.765   1.543   0.436 -0.7719 -0.4171  0.5308
 1845SOL    HW216998   0.876   1.545   0.341  1.6003 -1.0186  1.9001
 1846SOL     OW16999   1.499   1.388   9.573 -0.0853  0.1973  0.5717
 1846SOL    HW117000   1.444   1.411   9.499 -1.3858 -0.1736  1.4238
 1846SOL    HW217001   1.468   1.444   9.644  0.7223  1.6110 -0.2052
 1847SOL     OW17002   0.250   3.422  12.973 -0.1599  0.1879  0.3323
 1847SOL    HW117003   0.227   3.474  12.895  0.0721  0.4686  0.4518
 1847SOL    HW217004   0.345   3.428  12.982  0.0017  0.8232 -1.7018
 1848SOL     OW17005   2.240   1.390   6.516 -0.1993 -0.0508 -0.1401
 1848SOL    HW117006   2.151   1.380   6.483  0.4576 -0.1175 -1.8871
 1848SOL    HW217007   2.298   1.391   6.440  0.7969 -0.7137  0.6006
 1849SOL     OW17008   1.464   1.976   7.134 -0.2752  0.1406 -0.2172
 1849SOL    HW117009   1.381   1.958   7.180 -0.3150  0.0491 -0.3239
 1849SOL    HW217010   1.426   2.022   7.059 -0.6924  2.0329  1.1415
 1850SOL     OW17011   4.300   1.684   7.223 -0.2171 -0.4149  0.6007
 1850SOL    HW117012   4.374   1.638   7.261  0.0686 -0.3853  0.0824
 1850SOL    HW217013   4.340   1.771   7.221  0.2918 -0.6997 -1.1737
 1851SOL     OW17014   2.313   3.252  13.458  0.3990  0.1313  0.1414
 1851SOL    HW117015   2.332   3.160  13.478  0.3766  0.3429  1.1143
 1851SOL    HW217016   2.250   3.277  13.526 -0.6665 -0.8699 -0.4662
 1852SOL     OW17017   1.655   3.519   5.412  0.0346 -0.3621  0.2821
 1852SOL    HW117018   1.562   3.499   5.398  0.1144  0.1867 -1.0969
 1852SOL    HW217019   1.671   3.575   5.336 -0.0639  0.1637  0.6497
 1853SOL     OW17020   0.699   1.743   0.168  0.2181 -0.0423 -0.1467
 1853SOL    HW117021   0.696   1.833   0.199 -0.4254 -0.3794  0.7635
 1853SOL    HW217022   0.657   1.691   0.236 -0.1532  1.4369  0.7493
 1854SOL     OW17023   0.536   3.300   3.470 -0.1073  0.0027 -0.8252
 1854SOL    HW117024   0.511   3.208   3.469  0.7353 -0.2813  2.0135
 1854SOL    HW217025   0.627   3.284   3.444  0.2893  2.3741 -0.9364
 1855SOL     OW17026   4.590   3.985   6.884 -0.2111  0.9215 -0.1811
 1855SOL    HW117027   4.618   3.896   6.906  1.6412  1.9076  1.4420
 1855SOL    HW217028   4.621   4.028   6.964  2.5512  0.3869 -0.9639
 1856SOL     OW17029   3.178   4.391  12.877 -0.3270  0.7846  0.4499
 1856SOL    HW117030   3.195   4.333  12.951 -0.6928  0.3314  0.1820
 1856SOL    HW217031   3.264   4.385  12.835 -1.0216  0.7294 -0.9983
 1857SOL     OW17032   1.724   1.313  16.329 -0.0242  0.2049 -0.1931
 1857SOL    HW117033   1.804   1.317  16.276 -0.3236 -0.6534 -0.7180
 1857SOL    HW217034   1.751   1.340  16.417 -1.0690  0.1326  0.1447
 1858SOL     OW17035   3.223   0.468   0.502 -0.3842  0.1573  0.5585
 1858SOL    HW117036   3.186   0.556   0.502  0.3709  0.4761  0.4875
 1858SOL    HW217037   3.160   0.420   0.556 -0.9010 -1.1025 -1.1628
 1859SOL     OW17038   2.241   0.841   3.704 -0.6096 -0.6996 -0.2777
 1859SOL    HW117039   2.233   0.748   3.682  0.9697 -0.9723  0.3330
 1859SOL    HW217040   2.236   0.835   3.800 -0.0338 -2.1732 -0.3407
 1860SOL     OW17041   3.536   4.442   2.382 -0.3267  0.4220 -0.1502
 1860SOL    HW117042   3.453   4.489   2.378 -0.2866  0.4792 -0.2919
 1860SOL    HW217043   3.560   4.456   2.474  1.1135  0.8645 -0.5998
 1861SOL     OW17044   3.557   2.824  16.274  0.4156  0.2341  0.5293
 1861SOL    HW117045   3.591   2.914  16.269  1.0788 -0.0277  0.3484
 1861SOL    HW217046   3.535   2.810  16.182  0.8080  1.9893  0.1683
 1862SOL     OW17047   3.668   2.380  14.939  0.7854 -0.6364  0.1408
 1862SOL    HW117048   3.607   2.356  14.869  2.3584 -0.1986 -1.3688
 1862SOL    HW217049   3.748   2.359  14.891  0.1634 -1.4074 -0.5696
 1863SOL     OW17050   4.308   4.321   6.444  0.2061 -0.3300 -0.3721
 1863SOL    HW117051   4.253   4.399   6.430 -1.1157 -1.0148  1.1459
 1863SOL    HW217052   4.247   4.269   6.495  0.2895 -1.3887 -1.3453
 1864SOL     OW17053   0.893   0.004   1.956 -0.4132  0.6370  0.5962
 1864SOL    HW117054   0.828   4.715   1.887 -0.9589 -3.2228  1.8172
 1864SOL    HW217055   0.869   0.091   1.990 -0.5885  0.7333  0.2321
 1865SOL     OW17056   0.799   4.426   9.797  0.2343  0.4934  0.4735
 1865SOL    HW117057   0.888   4.457   9.813  0.0720 -0.4385  3.1325
 1865SOL    HW217058   0.786   4.386   9.883  0.1776  1.1206  0.7526
 1866SOL     OW17059   1.507   2.420   6.091 -0.1374  0.4111  0.5009
 1866SOL    HW117060   1.497   2.364   6.014 -0.6961  0.2649  0.6810
 1866SOL    HW217061   1.440   2.397   6.156 -1.4205  0.3595 -0.8336
 1867SOL     OW17062   0.285   1.694  14.712  0.5992 -0.2141 -0.1868
 1867SOL    HW117063   0.192   1.698  14.689  0.7613 -0.0895 -0.8025
 1867SOL    HW217064   0.283   1.755  14.785 -1.5847 -0.7060  0.1754
 1868SOL     OW17065   0.725   2.423   4.473  0.0860  0.1980 -0.8231
 1868SOL    HW117066   0.765   2.345   4.513 -2.1532 -1.1452 -1.2071
 1868SOL    HW217067   0.763   2.425   4.385 -0.3440 -0.4096 -1.0218
 1869SOL     OW17068   3.004   0.865   4.195 -0.1939  0.5230 -0.2119
 1869SOL    HW117069   2.930   0.804   4.200  1.8015 -1.8345  0.1505
 1869SOL    HW217070   2.967   0.940   4.242  0.9323  0.3048  0.9987
 1870SOL     OW17071   0.603   1.036   6.533 -0.0272 -0.6655 -0.2363
 1870SOL    HW117072   0.519   1.060   6.493 -0.1166 -1.1423 -0.3312
 1870SOL    HW217073   0.562   1.001   6.612  0.2264  2.2755  1.2277
 1871SOL     OW17074   0.891   1.403   4.882  0.4295  0.1824 -0.0723
 1871SOL    HW117075   0.812   1.454   4.865 -0.3462 -0.7053  0.8249
 1871SOL    HW217076   0.962   1.451   4.839  0.4059  0.2945  0.0113
 1872SOL     OW17077   3.272   3.427   2.888  0.4602  0.1162  0.1499
 1872SOL    HW117078   3.196   3.437   2.946  0.6243 -2.1499  0.7338
 1872SOL    HW217079   3.236   3.435   2.800 -1.8075 -0.3317  1.0410
 1873SOL     OW17080   1.249   2.420   4.175 -0.1302  0.4165 -0.4191
 1873SOL    HW117081   1.242   2.446   4.267  1.8301 -1.7647  0.3442
 1873SOL    HW217082   1.166   2.375   4.161  0.6389 -0.5743 -1.7857
 1874SOL     OW17083   4.257   1.880   2.165  0.0434  0.5890  0.5923
 1874SOL    HW117084   4.194   1.813   2.193  1.5212 -0.5086  1.2663
 1874SOL    HW217085   4.195   1.942   2.127  2.7902  2.3550 -0.9739
 1875SOL     OW17086   2.948   3.586  11.178  0.1887 -0.1480 -0.4646
 1875SOL    HW117087   2.886   3.652  11.209 -0.3224 -0.7632 -0.1691
 1875SOL    HW217088   2.902   3.507  11.205  1.6505 -0.9880 -0.4477
 1876SOL     OW17089   3.196   2.176   8.677 -0.1914  0.6830 -0.7032
 1876SOL    HW117090   3.187   2.168   8.772 -2.9235 -0.1722 -1.0291
 1876SOL    HW217091   3.120   2.232   8.661 -1.0816 -0.7570 -1.5095
 1877SOL     OW17092   1.772   1.071  13.583  0.2961  0.4445 -0.4199
 1877SOL    HW117093   1.844   1.086  13.521 -0.0854  1.0863 -0.7071
 1877SOL    HW217094   1.697   1.089  13.527 -1.3200  0.0598  1.6041
 1878SOL     OW17095   1.692   1.604   0.936  0.2727  0.1251 -0.1519
 1878SOL    HW117096   1.604   1.603   0.899  0.3941  0.2014 -0.4483
 1878SOL    HW217097   1.675   1.613   1.029  0.9363 -1.7413  0.1554
 1879SOL     OW17098   1.402   0.222   3.082  0.0941  0.0577 -0.4198
 1879SOL    HW117099   1.326   0.168   3.063 -0.3927 -0.4899  3.1865
 1879SOL    HW217100   1.371   0.272   3.157  0.3949 -1.9378  1.0420
 1880SOL     OW17101   1.255   3.404   1.559  0.1408 -0.1360 -0.2750
 1880SOL    HW117102   1.165   3.375   1.538  0.2814 -0.1938 -0.8086
 1880SOL    HW217103   1.288   3.319   1.588 -0.1407  0.3870  1.5416
 1881SOL     OW17104   3.686   3.902   4.974 -0.3335  0.4766 -0.2445
 1881SOL    HW117105   3.770   3.945   4.991  0.4645 -1.3120  0.3052
 1881SOL    HW217106   3.696   3.886   4.880 -0.1377  1.0797 -0.3279
 1882SOL     OW17107   1.065   4.015  11.237 -0.0237  0.4550 -0.0064
 1882SOL    HW117108   1.098   3.926  11.229 -0.0256  0.6051 -1.7318
 1882SOL    HW217109   1.144   4.055  11.201  0.3862 -1.5825 -1.3628
 1883SOL     OW17110   0.764   1.554  14.981 -0.4314  0.4579  0.1612
 1883SOL    HW117111   0.682   1.587  14.944  0.5419  1.2365 -1.2939
 1883SOL    HW217112   0.770   1.470  14.936  1.7287  0.0797  1.1568
 1884SOL     OW17113   1.119   4.359   1.903  0.2287 -0.4671 -0.7334
 1884SOL    HW117114   1.091   4.391   1.989  1.7192  1.2433 -0.8683
 1884SOL    HW217115   1.169   4.438   1.879 -1.1903  0.2388 -1.3318
 1885SOL     OW17116   0.540   2.066   4.908  0.3915  0.1954 -0.6070
 1885SOL    HW117117   0.520   1.972   4.907  1.3439 -0.0473  2.2924
 1885SOL    HW217118   0.594   2.074   4.987  1.4322 -0.7528 -1.2193
 1886SOL     OW17119   0.558   1.487   1.976 -0.2086  0.3730  0.0412
 1886SOL    HW117120   0.483   1.530   1.934  0.5526  3.5359  1.8812
 1886SOL    HW217121   0.507   1.441   2.043  1.7766 -1.1944  0.4568
 1887SOL     OW17122   2.938   0.589   9.065  0.3335 -0.3584 -0.8023
 1887SOL    HW117123   2.897   0.530   9.002 -0.4516  0.1672 -0.7898
 1887SOL    HW217124   2.922   0.559   9.154 -0.7575 -1.5220 -1.3890
 1888SOL     OW17125   1.551   3.201  17.491  0.3767  0.4439 -0.3626
 1888SOL    HW117126   1.521   3.122  17.535  0.5532 -0.9543 -2.6957
 1888SOL    HW217127   1.473   3.222  17.439  0.5428 -0.6776 -1.0669
 1889SOL     OW17128   3.113   0.151   8.000 -0.5930 -0.0841  0.4847
 1889SOL    HW117129   3.110   0.225   7.940 -0.0845 -0.5610 -0.1360
 1889SOL    HW217130   3.179   0.104   7.948 -0.9091 -1.0248  0.9335
 1890SOL     OW17131   1.623   0.940   0.151 -0.4103 -0.2987  0.4657
 1890SOL    HW117132   1.688   0.877   0.182 -0.2423  0.8881  2.5430
 1890SOL    HW217133   1.675   1.001   0.099 -0.3923 -0.7748 -0.0758
 1891SOL     OW17134   4.670   0.976   6.894  0.3267  0.3608  0.0605
 1891SOL    HW117135   4.605   0.974   6.964  0.4797  4.2770  0.2789
 1891SOL    HW217136   0.002   0.898   6.906 -0.4885 -0.3532 -0.8360
 1892SOL     OW17137   3.455   0.735  11.499  0.2908  0.1034 -0.1885
 1892SOL    HW117138   3.499   0.819  11.507 -0.2845  0.3287  0.6164
 1892SOL    HW217139   3.369   0.760  11.533  0.8214 -0.2944  1.4135
 1893SOL     OW17140   0.244   4.471   4.660 -0.3052 -1.3740  0.4484
 1893SOL    HW117141   0.208   4.497   4.575  2.3529  0.0388 -0.2379
 1893SOL    HW217142   0.336   4.496   4.654 -0.5300 -0.5479  0.4312
 1894SOL     OW17143   2.818   3.650   8.366  0.1503  0.3829  0.1930
 1894SOL    HW117144   2.748   3.613   8.313 -0.5533 -0.4593  1.7380
 1894SOL    HW217145   2.809   3.594   8.442  0.0648  1.1018  0.7119
 1895SOL     OW17146   1.305   1.553   8.277  0.3662  0.4481  0.1018
 1895SOL    HW117147   1.368   1.483   8.295  2.1189  1.8133 -0.7442
 1895SOL    HW217148   1.225   1.501   8.280  1.3492 -1.0141  1.2178
 1896SOL     OW17149   3.253   2.846   4.607  0.0672  0.1115  0.2022
 1896SOL    HW117150   3.307   2.768   4.623  0.3422  0.3572  0.4656
 1896SOL    HW217151   3.174   2.806   4.571 -0.4520  0.3918  1.0271
 1897SOL     OW17152   3.281   4.479   7.947 -0.6406 -0.0394 -0.4360
 1897SOL    HW117153   3.376   4.474   7.938 -0.6852 -1.9698  0.2074
 1897SOL    HW217154   3.262   4.531   7.869  1.1089 -0.7602 -1.3133
 1898SOL     OW17155   0.033   2.746   5.557  0.0133 -0.0226 -0.3303
 1898SOL    HW117156   4.695   2.693   5.609 -1.0935  1.6492  0.1098
 1898SOL    HW217157   4.689   2.811   5.532  0.3884  0.2957 -0.4990
 1899SOL     OW17158   1.776   0.177  13.877 -0.4551 -0.8496  0.7418
 1899SOL    HW117159   1.849   0.221  13.835 -1.4430 -0.0416 -0.1168
 1899SOL    HW217160   1.794   0.200  13.969 -1.8484  0.9492  0.5664
 1900SOL     OW17161   1.232   2.361  14.206 -0.4131 -0.3370 -0.0055
 1900SOL    HW117162   1.164   2.426  14.221  0.2415 -0.0835  1.9603
 1900SOL    HW217163   1.197   2.272  14.211 -0.7766 -0.1865  0.0931
 1901SOL     OW17164   1.951   1.878  15.919  0.4677  0.0923 -0.6242
 1901SOL    HW117165   1.989   1.826  15.848 -2.2689 -3.3659  0.4102
 1901SOL    HW217166   1.918   1.954  15.872  0.6327 -0.4298 -1.5803
 1902SOL     OW17167   4.642   4.039   9.622 -0.0361 -0.1910 -0.2275
 1902SOL    HW117168   4.686   3.954   9.623 -0.5522 -0.4468  0.4191
 1902SOL    HW217169   4.661   4.066   9.532 -0.1649  2.5791  0.5637
 1903SOL     OW17170   2.470   1.750  13.809  0.3208 -0.2901 -0.0541
 1903SOL    HW117171   2.562   1.775  13.824 -0.5117  2.8438 -0.2096
 1903SOL    HW217172   2.449   1.695  13.885  1.0236  0.0830  0.4114
 1904SOL     OW17173   2.524   0.812  14.706 -0.2994  0.0967  0.0110
 1904SOL    HW117174   2.581   0.805  14.629 -0.0179  1.5625  0.0808
 1904SOL    HW217175   2.478   0.893  14.686  0.8169  1.1624  1.7763
 1905SOL     OW17176   3.344   0.039   7.371  0.6303  0.6265 -0.0677
 1905SOL    HW117177   3.361   0.128   7.340  1.8435 -0.3092 -2.0900
 1905SOL    HW217178   3.253   0.053   7.395 -0.4651 -0.4416 -3.5625
 1906SOL     OW17179   1.602   3.375   3.424  0.0754  0.6250 -0.3089
 1906SOL    HW117180   1.671   3.435   3.450  0.4124  0.2787 -0.3981
 1906SOL    HW217181   1.656   3.297   3.435  1.6648  1.6263 -1.1229
 1907SOL     OW17182   2.199   2.738  16.439  0.1584  0.2972 -0.0760
 1907SOL    HW117183   2.220   2.685  16.362 -0.9012 -0.0923 -0.0980
 1907SOL    HW217184   2.108   2.761  16.419 -0.7333 -0.4273  3.2163
 1908SOL     OW17185   2.612   3.886   8.122  0.1606  0.1480  0.3137
 1908SOL    HW117186   2.582   3.874   8.212 -1.1027 -2.0885 -0.4037
 1908SOL    HW217187   2.707   3.886   8.138  0.4478  1.5333 -1.3418
 1909SOL     OW17188   2.443   2.007   4.957  0.2442  0.1680  0.0215
 1909SOL    HW117189   2.380   2.055   5.010  0.3669  1.7624 -1.2845
 1909SOL    HW217190   2.411   2.035   4.871 -0.1571 -0.4800 -0.0437
 1910SOL     OW17191   1.088   0.478  10.587  0.4072  0.5836 -0.1938
 1910SOL    HW117192   1.112   0.467  10.679 -1.3437  1.9272  0.4043
 1910SOL    HW217193   1.087   0.387  10.557  1.8754  0.8691 -1.1453
 1911SOL     OW17194   4.580   4.029  16.311 -0.8035 -0.6181 -0.1489
 1911SOL    HW117195   4.634   4.107  16.299  0.3938 -1.3777  0.2959
 1911SOL    HW217196   4.536   4.044  16.394 -1.5776 -1.2250 -0.4511
 1912SOL     OW17197   1.175   3.704  15.328 -0.3664 -0.1140 -0.1153
 1912SOL    HW117198   1.162   3.731  15.237 -0.0083 -0.8430 -0.3861
 1912SOL    HW217199   1.097   3.741  15.369  0.5612  0.2557  1.3339
 1913SOL     OW17200   4.211   4.543   0.733 -0.1605  0.3235  0.3846
 1913SOL    HW117201   4.236   4.523   0.643 -0.3093 -1.1147  0.6528
 1913SOL    HW217202   4.187   4.453   0.758  3.4588 -1.4137 -2.3896
 1914SOL     OW17203   2.012   3.592   6.290  0.7861 -0.2978  0.4171
 1914SOL    HW117204   2.014   3.500   6.316  1.6563  0.0343  1.5303
 1914SOL    HW217205   1.992   3.639   6.371  2.2960  0.7388  0.2068
 1915SOL     OW17206   3.186   3.535   3.608  0.0011  0.1829 -0.2863
 1915SOL    HW117207   3.171   3.604   3.671  2.6703 -0.3860  0.9706
 1915SOL    HW217208   3.144   3.466   3.659  0.6126 -0.6757 -0.9390
 1916SOL     OW17209   1.933   3.885   2.457  0.3227 -0.1787  0.3294
 1916SOL    HW117210   1.936   3.799   2.500 -1.2199 -0.4358 -0.0973
 1916SOL    HW217211   1.967   3.863   2.370 -0.0434 -2.4003  0.7548
 1917SOL     OW17212   0.323   2.449   1.537  0.1035  0.4836  0.1181
 1917SOL    HW117213   0.343   2.363   1.574 -1.6932  0.8245  1.8211
 1917SOL    HW217214   0.402   2.450   1.482 -1.5917  0.7321 -2.3422
 1918SOL     OW17215   3.513   4.374   1.891  0.0347 -0.2108 -0.0588
 1918SOL    HW117216   3.450   4.432   1.933 -0.1405 -1.6554  1.6697
 1918SOL    HW217217   3.486   4.398   1.802  0.9275 -0.3345 -0.3612
 1919SOL     OW17218   0.394   4.069  16.944 -0.0993 -0.0950  0.5453
 1919SOL    HW117219   0.367   4.145  16.994 -0.2774  0.8705 -1.0153
 1919SOL    HW217220   0.373   4.096  16.854  1.1024  2.2461  0.9778
 1920SOL     OW17221   3.657   4.275   5.802  0.3708 -0.9700 -0.4982
 1920SOL    HW117222   3.652   4.199   5.744 -0.7292 -0.9429 -0.4387
 1920SOL    HW217223   3.626   4.243   5.887  1.3653 -0.3356  0.1137
 1921SOL     OW17224   4.703   1.971   4.546 -0.8886  0.4041  0.5254
 1921SOL    HW117225   4.677   1.900   4.604  1.1495  1.4594  2.7142
 1921SOL    HW217226   4.622   1.989   4.498  0.8348  1.6045 -1.9798
 1922SOL     OW17227   0.999   4.373   7.859  0.3739 -0.3819  0.9688
 1922SOL    HW117228   0.972   4.450   7.908  0.5585  1.3078 -1.5664
 1922SOL    HW217229   1.048   4.407   7.784 -1.9493  0.5536 -0.1114
 1923SOL     OW17230   4.706   2.063   6.852 -0.2761 -0.1515 -0.3917
 1923SOL    HW117231   0.059   2.021   6.810  0.5612  0.6635  0.3068
 1923SOL    HW217232   4.641   1.995   6.832  2.1923 -2.4900 -0.5620
 1924SOL     OW17233   3.432   0.450  14.993 -0.3505 -0.1442  0.1666
 1924SOL    HW117234   3.486   0.498  14.930 -0.8538  1.9089  1.2904
 1924SOL    HW217235   3.423   0.525  15.053 -1.3751 -1.3694  1.5324
 1925SOL     OW17236   4.627   0.081   3.331  0.4695 -0.5267  0.0869
 1925SOL    HW117237   4.571   0.090   3.254  0.5253  1.4696  0.2641
 1925SOL    HW217238   4.567   0.030   3.385  0.8212 -1.0071  0.0259
 1926SOL     OW17239   0.060   3.712  11.030  0.4830  1.1087 -0.4112
 1926SOL    HW117240   0.152   3.708  11.002  0.1189 -0.7587 -1.2881
 1926SOL    HW217241   0.027   3.798  11.002  0.8254  1.2251 -0.4620
 1927SOL     OW17242   3.919   1.194   0.966  0.0889 -0.4370  0.8042
 1927SOL    HW117243   3.861   1.258   0.924  1.4981  0.7879  0.7398
 1927SOL    HW217244   3.882   1.109   0.943 -0.4801  0.3670 -1.2462
 1928SOL     OW17245   0.661   2.576   2.546 -0.0473 -0.6792 -0.0259
 1928SOL    HW117246   0.662   2.514   2.474 -1.1135 -0.0358 -0.5898
 1928SOL    HW217247   0.636   2.655   2.499 -2.1450 -0.6452  1.1509
 1929SOL     OW17248   3.360   1.257   9.082  0.0158  0.3090 -0.2925
 1929SOL    HW117249   3.333   1.247   9.174 -0.8880 -0.6674 -0.6693
 1929SOL    HW217250   3.276   1.288   9.050  0.1950  1.0501 -0.0635
 1930SOL     OW17251   4.705   4.145   6.684 -0.4774 -0.4678 -0.3816
 1930SOL    HW117252   0.069   4.105   6.672  0.7251  1.7470  0.9257
 1930SOL    HW217253   4.665   4.097   6.756 -1.3573  0.1485 -0.4646
 1931SOL     OW17254   3.267   2.802   3.766  0.2189  0.0840 -0.0524
 1931SOL    HW117255   3.339   2.783   3.706 -0.4135 -0.2487 -0.6861
 1931SOL    HW217256   3.199   2.828   3.704 -0.6468 -1.1454  0.3824
 1932SOL     OW17257   2.333   3.272   0.131 -0.8189  0.0925  0.1262
 1932SOL    HW117258   2.246   3.263   0.168 -0.4964  1.2909  1.1587
 1932SOL    HW217259   2.301   3.269   0.041 -1.4500  2.1805  0.2805
 1933SOL     OW17260   3.093   0.714  16.675 -0.4622 -0.2596  0.3891
 1933SOL    HW117261   3.052   0.744  16.756  0.6318  0.5249  0.6523
 1933SOL    HW217262   3.021   0.685  16.619  0.0277  1.0438 -0.9180
 1934SOL     OW17263   2.401   1.167   8.263 -0.2456 -0.1596 -0.0362
 1934SOL    HW117264   2.416   1.224   8.338 -0.6054 -1.2422  0.8678
 1934SOL    HW217265   2.307   1.179   8.248  0.1484  0.0809 -2.1987
 1935SOL     OW17266   3.001   0.858   3.857  0.0968  0.0656 -0.4026
 1935SOL    HW117267   2.960   0.941   3.830  1.2227  0.3807 -1.1374
 1935SOL    HW217268   3.009   0.830   3.766 -1.0403 -3.0153  0.4461
 1936SOL     OW17269   3.842   4.125   3.471 -0.5035  0.0520  0.1651
 1936SOL    HW117270   3.857   4.181   3.547 -0.6715 -1.0421  1.0047
 1936SOL    HW217271   3.754   4.148   3.440 -0.5835 -1.0154 -0.4314
 1937SOL     OW17272   1.016   3.369   2.849  0.3155  0.2772 -0.0603
 1937SOL    HW117273   0.995   3.450   2.803 -1.6135  1.0111  2.0579
 1937SOL    HW217274   1.111   3.357   2.843  0.4685  0.9728  0.8987
 1938SOL     OW17275   4.106   2.828   6.315  0.0758  0.1639 -0.0403
 1938SOL    HW117276   4.104   2.835   6.220  1.5843  0.2417 -0.0639
 1938SOL    HW217277   4.034   2.885   6.342 -0.4957 -0.6736  0.1953
 1939SOL     OW17278   3.665   2.213   8.234 -0.2024  0.2318  0.3744
 1939SOL    HW117279   3.571   2.205   8.250  0.0070  1.7639  2.3389
 1939SOL    HW217280   3.689   2.121   8.234  1.0266  0.5574 -1.8036
 1940SOL     OW17281   0.920   1.652   6.396  0.1113 -0.1581 -0.0330
 1940SOL    HW117282   0.844   1.613   6.353  1.0770 -1.0903 -0.9039
 1940SOL    HW217283   0.992   1.601   6.359 -0.3594 -0.4277 -0.5733
 1941SOL     OW17284   1.144   2.061  14.276 -0.0674  0.0564 -0.2930
 1941SOL    HW117285   1.128   1.983  14.223 -2.7879 -1.0256  2.1303
 1941SOL    HW217286   1.203   2.039  14.347  1.6309 -0.2899 -1.8126
 1942SOL     OW17287   2.439   4.040   6.553 -0.3824  0.1787 -0.0778
 1942SOL    HW117288   2.451   4.122   6.505 -0.8809  1.0839  1.3650
 1942SOL    HW217289   2.355   4.060   6.592 -0.3538  0.3655 -0.1127
 1943SOL     OW17290   3.561   3.617  11.213 -0.6401 -0.3538  0.9492
 1943SOL    HW117291   3.601   3.537  11.247  0.7255 -0.0966 -0.0557
 1943SOL    HW217292   3.548   3.660  11.298  0.4889  2.5429 -0.3574
 1944SOL     OW17293   4.126   0.132   1.088 -0.5529  0.3082  0.0132
 1944SOL    HW117294   4.185   0.205   1.105 -1.2155  0.8479 -0.0175
 1944SOL    HW217295   4.087   0.134   1.175 -2.2219 -2.9125 -0.6728
 1945SOL     OW17296   0.095   4.109   0.876  0.0856  0.1306 -0.1883
 1945SOL    HW117297   0.179   4.123   0.920  0.3988 -0.0901 -0.7141
 1945SOL    HW217298   0.072   4.023   0.911  1.5010 -1.5019 -3.2440
 1946SOL     OW17299   1.652   1.076  16.227 -0.7539 -0.0405  0.1725
 1946SOL    HW117300   1.577   1.101  16.174 -2.0806  0.2624  2.1757
 1946SOL    HW217301   1.657   1.160  16.273  0.1146  1.5885 -2.9170
 1947SOL     OW17302   1.650   0.021   7.060  0.4447  0.0711  0.0320
 1947SOL    HW117303   1.740   0.053   7.070 -0.0230  1.2719  0.3583
 1947SOL    HW217304   1.635   0.043   6.968 -0.1709 -2.6355 -0.5104
 1948SOL     OW17305   0.727   0.518   4.245  0.3570 -0.2454 -0.1464
 1948SOL    HW117306   0.771   0.500   4.162  0.4907  1.2431 -0.3930
 1948SOL    HW217307   0.765   0.604   4.263 -0.4591  0.3064 -1.0410
 1949SOL     OW17308   0.985   3.699  16.272  0.2364  0.6993 -0.0034
 1949SOL    HW117309   1.033   3.629  16.228  0.2036  3.3364 -4.2167
 1949SOL    HW217310   0.965   3.653  16.354  0.6230  2.4134  1.0523
 1950SOL     OW17311   3.162   2.600   8.218 -0.1288 -0.0184  0.4428
 1950SOL    HW117312   3.168   2.695   8.221 -3.5563  0.1740  2.0849
 1950SOL    HW217313   3.232   2.569   8.160 -0.0355 -0.1695  0.6366
 1951SOL     OW17314   4.027   1.020   4.084 -0.1916 -0.3008  0.5977
 1951SOL    HW117315   4.014   0.932   4.050 -1.3079  0.2482 -0.3947
 1951SOL    HW217316   3.941   1.049   4.115  0.3260  1.2994  0.5506
 1952SOL     OW17317   1.790   0.530   2.242  0.4245 -0.0361 -0.5652
 1952SOL    HW117318   1.741   0.449   2.259 -0.0983  0.2306 -0.7941
 1952SOL    HW217319   1.719   0.587   2.211 -0.5234 -0.9270 -0.0486
 1953SOL     OW17320   4.498   0.112  11.204 -0.1434  0.1814 -0.5579
 1953SOL    HW117321   4.504   0.071  11.118 -3.4999 -1.4749 -0.0324
 1953SOL    HW217322   4.441   0.058  11.258  1.0664  0.7613  1.2913
 1954SOL     OW17323   4.292   2.871   3.009 -0.1335  0.3115 -0.6311
 1954SOL    HW117324   4.270   2.946   2.956  0.3291  0.8865 -0.0118
 1954SOL    HW217325   4.210   2.826   3.029 -0.1470 -0.0566 -1.5173
 1955SOL     OW17326   0.965   3.474   2.206 -0.3280 -0.0270 -0.1175
 1955SOL    HW117327   0.939   3.382   2.204  0.0080 -0.1124 -0.5024
 1955SOL    HW217328   1.002   3.472   2.118  2.2132 -0.2221  0.9534
 1956SOL     OW17329   4.647   3.683   8.294 -0.1422 -0.3184 -0.6925
 1956SOL    HW117330   4.689   3.718   8.215  2.3457 -1.6695  0.0380
 1956SOL    HW217331   4.693   3.728   8.364 -2.3060  2.5767 -1.1163
 1957SOL     OW17332   4.584   1.818   0.064  0.1202 -0.0246  0.1306
 1957SOL    HW117333   4.541   1.901   0.084  0.8896  0.0390  1.4789
 1957SOL    HW217334   4.504   1.780   0.028 -1.0002  0.8977  1.6773
 1958SOL     OW17335   1.509   0.045   6.281  0.1166  0.6831 -0.4433
 1958SOL    HW117336   1.444   0.039   6.211 -1.4339 -0.7289  1.0984
 1958SOL    HW217337   1.451   0.020   6.353  1.1222 -2.0768 -0.5952
 1959SOL     OW17338   3.476   3.136   0.889  0.3889 -0.6327  0.0800
 1959SOL    HW117339   3.551   3.164   0.836  0.6309 -2.9591 -0.7867
 1959SOL    HW217340   3.480   3.207   0.953  1.6386 -0.4647 -0.1811
 1960SOL     OW17341   4.475   4.274  10.316  0.0504  0.1094 -0.1764
 1960SOL    HW117342   4.479   4.265  10.221 -1.7560  1.4039 -0.3893
 1960SOL    HW217343   4.500   4.366  10.322 -0.4705  0.3631 -1.7453
 1961SOL     OW17344   4.313   1.550   9.119  0.0974 -0.1296  0.6769
 1961SOL    HW117345   4.278   1.628   9.076  2.8474  1.5485  1.5242
 1961SOL    HW217346   4.337   1.590   9.202  0.0374  1.5119 -0.1083
 1962SOL     OW17347   1.971   2.428   2.880 -0.1893 -0.2847  0.2375
 1962SOL    HW117348   1.887   2.425   2.834  0.9083 -1.0245 -1.7412
 1962SOL    HW217349   2.000   2.496   2.819  0.7359 -0.6572  0.2597
 1963SOL     OW17350   1.691   2.823  12.229  0.6069 -0.2899 -0.5016
 1963SOL    HW117351   1.673   2.867  12.313 -0.3500  2.2447 -2.0521
 1963SOL    HW217352   1.601   2.824  12.198  0.6346  1.4199 -0.4997
 1964SOL     OW17353   1.023   2.918   8.546 -0.1584  0.4130 -0.7239
 1964SOL    HW117354   1.008   2.913   8.641 -0.6095  0.5406 -0.7876
 1964SOL    HW217355   1.110   2.957   8.551  0.2845 -0.3950 -2.2774
 1965SOL     OW17356   2.677   3.770  12.681 -0.0170 -0.5236  0.0517
 1965SOL    HW117357   2.639   3.689  12.647  0.6990 -0.9535  0.2776
 1965SOL    HW217358   2.649   3.834  12.615 -1.5664  0.0255  1.2723
 1966SOL     OW17359   4.510   3.765   2.875 -0.4529 -0.0186  0.4872
 1966SOL    HW117360   4.527   3.686   2.927 -1.5750  1.1340  2.6400
 1966SOL    HW217361   4.567   3.829   2.919 -1.7971  1.1234  0.5824
 1967SOL     OW17362   4.634   3.740   9.116 -0.6536 -0.3954  0.6291
 1967SOL    HW117363   4.662   3.656   9.079  0.7570 -0.3980  1.7136
 1967SOL    HW217364   4.556   3.757   9.062  1.1117  1.4512 -1.3262
 1968SOL     OW17365   3.428   1.396  14.213  0.3929  0.2770 -0.0029
 1968SOL    HW117366   3.344   1.357  14.236  0.6410  0.8743  1.8859
 1968SOL    HW217367   3.451   1.447  14.291 -0.6216  0.8635 -0.0923
 1969SOL     OW17368   3.546   3.048   9.902 -0.2937 -0.0773  0.2945
 1969SOL    HW117369   3.607   3.002   9.960 -0.1475 -2.4105 -1.6959
 1969SOL    HW217370   3.577   3.033   9.813  1.1267  2.5583  0.3441
 1970SOL     OW17371   1.900   1.437   8.066  0.2509  0.1785 -0.2090
 1970SOL    HW117372   1.877   1.416   7.976  1.3457 -1.4740 -0.1067
 1970SOL    HW217373   1.984   1.482   8.065  0.2448  0.1921 -0.1367
 1971SOL     OW17374   3.269   1.989   6.449 -0.2498 -0.0122  0.1856
 1971SOL    HW117375   3.198   1.931   6.477  0.4847 -0.5275  0.9942
 1971SOL    HW217376   3.335   1.920   6.438 -0.7460 -0.4045 -0.3267
 1972SOL     OW17377   1.879   0.910   2.149 -0.1174 -0.0482  0.1708
 1972SOL    HW117378   1.793   0.894   2.112  0.2991 -0.4956 -0.6059
 1972SOL    HW217379   1.935   0.861   2.089  0.9356  0.9786  0.3047
 1973SOL     OW17380   3.046   1.418  15.845  0.3704  0.5995  0.0041
 1973SOL    HW117381   2.972   1.464  15.807  0.8826 -0.7272 -2.5973
 1973SOL    HW217382   3.056   1.471  15.924 -0.5471  1.5054 -0.4975
 1974SOL     OW17383   2.348   2.774   3.276 -0.1212  0.0051 -0.2469
 1974SOL    HW117384   2.424   2.814   3.318  1.0161 -1.6703 -0.7286
 1974SOL    HW217385   2.339   2.834   3.201  1.1112  0.0348 -0.3795
 1975SOL     OW17386   2.404   1.042  11.313 -0.2671  0.9726  0.3641
 1975SOL    HW117387   2.350   1.049  11.234 -0.5149  0.5541  0.4947
 1975SOL    HW217388   2.347   0.988  11.368 -0.1011  0.2074 -0.2150
 1976SOL     OW17389   1.514   1.948   8.650 -0.1646 -0.1522 -0.1353
 1976SOL    HW117390   1.477   2.019   8.597  1.2311 -0.5839 -1.6716
 1976SOL    HW217391   1.560   2.001   8.715  0.2927 -0.0824 -0.5204
 1977SOL     OW17392   4.284   2.836   4.795 -1.0220  0.4664 -0.0384
 1977SOL    HW117393   4.297   2.741   4.796  2.1669  0.9061  0.7240
 1977SOL    HW217394   4.355   2.861   4.854 -1.7513 -0.2526  1.1469
 1978SOL     OW17395   0.945   3.598   0.787  0.1454 -0.6596 -0.0254
 1978SOL    HW117396   1.018   3.592   0.725  0.2633 -1.9303  0.2192
 1978SOL    HW217397   0.972   3.538   0.857  1.2176 -0.1594 -0.0179
 1979SOL     OW17398   1.744   1.251  11.228  0.0865  0.6588  0.6354
 1979SOL    HW117399   1.716   1.160  11.221  0.4622  0.6684 -1.1750
 1979SOL    HW217400   1.683   1.293  11.289  0.2555 -0.0838  1.3093
 1980SOL     OW17401   1.507   2.820   8.411  0.3263  0.5430 -1.1974
 1980SOL    HW117402   1.492   2.727   8.399 -1.8640  0.7116  0.2976
 1980SOL    HW217403   1.416   2.848   8.425  0.4047  0.5308 -0.6757
 1981SOL     OW17404   2.593   0.523   5.204  0.2191 -0.0391  0.4381
 1981SOL    HW117405   2.566   0.437   5.172  0.1777  0.7597 -1.6730
 1981SOL    HW217406   2.512   0.556   5.243 -0.2994 -1.8578  0.9341
 1982SOL     OW17407   4.029   0.007   6.235 -0.4893  0.5117 -0.0339
 1982SOL    HW117408   3.947   4.681   6.240  0.6749 -1.4308 -0.3059
 1982SOL    HW217409   4.010   0.078   6.297 -1.9401 -1.3766  1.6690
 1983SOL     OW17410   0.996   2.045   6.032 -0.3760 -0.4761 -0.2432
 1983SOL    HW117411   1.029   2.075   5.948  1.5968 -0.0402  0.6964
 1983SOL    HW217412   0.908   2.083   6.023 -0.9804 -1.2806  2.2012
 1984SOL     OW17413   0.474   3.080   6.983  0.1332  0.5327 -0.3539
 1984SOL    HW117414   0.396   3.028   7.003  0.9217 -1.2362 -1.8279
 1984SOL    HW217415   0.442   3.143   6.918  0.8423  1.7195  0.4533
 1985SOL     OW17416   0.878   2.270   8.505 -0.7971  0.2872  0.6625
 1985SOL    HW117417   0.809   2.204   8.508  0.5639 -1.0876  1.2553
 1985SOL    HW217418   0.933   2.242   8.577 -0.2475 -1.0412 -0.2768
 1986SOL     OW17419   0.386   3.112   1.072 -0.7193  0.7640  0.1944
 1986SOL    HW117420   0.346   3.035   1.034 -1.6324  0.6312  1.4362
 1986SOL    HW217421   0.357   3.174   1.006  0.0961  0.6646 -0.2608
 1987SOL     OW17422   0.329   0.941  15.539  0.6707  1.1594 -0.0298
 1987SOL    HW117423   0.364   1.022  15.576  1.1260  2.3234 -3.0081
 1987SOL    HW217424   0.257   0.969  15.482 -0.0010 -0.3140  0.1009
 1988SOL     OW17425   3.063   0.061   8.714 -0.1190  0.1439 -0.1292
 1988SOL    HW117426   3.137   0.107   8.752 -0.4805 -0.6759  1.5793
 1988SOL    HW217427   2.993   0.073   8.779  0.0736 -1.3239  0.3566
 1989SOL     OW17428   2.940   1.475   8.724  0.2541  0.0286 -0.1780
 1989SOL    HW117429   2.853   1.497   8.756 -0.3162  2.5857 -3.4620
 1989SOL    HW217430   2.920   1.405   8.661  1.2430  0.1867 -0.6640
 1990SOL     OW17431   0.434   3.036   7.322  0.2162 -0.2457 -0.1740
 1990SOL    HW117432   0.521   3.073   7.306  0.8261 -0.9643  1.5123
 1990SOL    HW217433   0.393   3.096   7.260  0.3117 -0.0884 -0.0853
 1991SOL     OW17434   3.431   4.471   5.831 -0.0021  0.1285 -0.0882
 1991SOL    HW117435   3.340   4.499   5.819  0.6968  1.7457 -1.5076
 1991SOL    HW217436   3.420   4.385   5.871  0.8468  0.0195 -0.0872
 1992SOL     OW17437   1.424   1.961   2.346  0.3877  0.5657 -0.2289
 1992SOL    HW117438   1.371   1.960   2.267 -3.0812  0.8401  2.0709
 1992SOL    HW217439   1.489   2.025   2.319  1.1651 -0.5744 -1.0327
 1993SOL     OW17440   3.192   2.150   8.262 -0.0483  0.3931 -0.0965
 1993SOL    HW117441   3.122   2.143   8.327  0.4746  1.3727  0.5781
 1993SOL    HW217442   3.199   2.057   8.245 -0.9511  0.5173 -1.1801
 1994SOL     OW17443   2.945   2.396   8.831 -0.2519 -0.1276 -0.8357
 1994SOL    HW117444   3.038   2.374   8.844 -0.0319  1.5624  0.4066
 1994SOL    HW217445   2.917   2.419   8.919  1.2987  1.3069 -0.7145
 1995SOL     OW17446   2.021   3.145  15.471 -0.1020 -0.3725  0.3650
 1995SOL    HW117447   2.036   3.224  15.523 -0.0581 -1.4646  2.0223
 1995SOL    HW217448   1.974   3.177  15.394  0.2701 -0.6996  0.0025
 1996SOL     OW17449   3.745   3.475   2.639 -0.1263  0.0526 -0.3019
 1996SOL    HW117450   3.767   3.568   2.629  0.7829 -0.0965  0.3006
 1996SOL    HW217451   3.709   3.456   2.552  1.6285 -0.8563 -0.8527
 1997SOL     OW17452   0.174   0.036  11.389 -0.1543 -0.1680 -0.9075
 1997SOL    HW117453   0.200   4.667  11.391  0.6811  0.1058  0.2674
 1997SOL    HW217454   0.149   0.045  11.296  0.2996 -1.3133 -1.1400
 1998SOL     OW17455   2.156   3.844   4.629 -0.2020  0.3317 -0.6798
 1998SOL    HW117456   2.170   3.766   4.575 -2.9936 -0.7760  0.2068
 1998SOL    HW217457   2.236   3.896   4.622  0.8066 -1.4412 -2.3507
 1999SOL     OW17458   0.769   0.806   4.300 -0.6414 -0.0626 -0.1523
 1999SOL    HW117459   0.816   0.882   4.334  0.2999  0.5305 -2.7803
 1999SOL    HW217460   0.687   0.811   4.349 -0.0002  1.4974  0.7793
 2000SOL     OW17461   2.618   4.017   9.122 -0.4793  0.0284 -0.2014
 2000SOL    HW117462   2.613   4.016   9.026  2.7273 -0.2026 -0.3919
 2000SOL    HW217463   2.538   4.063   9.144  0.0827  0.7457  0.3266
 2001SOL     OW17464   3.749   1.806   3.967 -0.0128  0.2863 -0.2468
 2001SOL    HW117465   3.723   1.733   4.024 -0.6567  0.3123 -0.5147
 2001SOL    HW217466   3.668   1.842   3.932 -0.2217  0.7113  0.6926
 2002SOL     OW17467   2.378   1.313   8.475  0.2396  0.5419  0.0484
 2002SOL    HW117468   2.377   1.251   8.549  2.2082  1.4677  0.8616
 2002SOL    HW217469   2.351   1.393   8.521 -1.8842  0.3720 -0.9111
 2003SOL     OW17470   0.897   1.659   3.213  0.3793  0.1095 -0.1684
 2003SOL    HW117471   0.806   1.663   3.240  0.0457 -0.7990 -1.1520
 2003SOL    HW217472   0.900   1.577   3.163 -0.3010 -1.1865  1.9304
 2004SOL     OW17473   3.317   1.192   6.718 -0.6621 -0.6312 -0.0997
 2004SOL    HW117474   3.281   1.206   6.805 -1.7195  1.9330 -0.9446
 2004SOL    HW217475   3.412   1.187   6.726 -0.2937  3.2268 -1.9493
 2005SOL     OW17476   3.232   1.037   5.395 -0.4091 -0.7354  0.8037
 2005SOL    HW117477   3.181   1.048   5.475  0.3824  0.9535  1.0645
 2005SOL    HW217478   3.295   0.971   5.426  0.5491  0.6797  1.8517
 2006SOL     OW17479   3.210   3.269  17.086 -0.1814 -0.2201  0.2442
 2006SOL    HW117480   3.215   3.288  17.180 -0.8176 -2.3087  0.6852
 2006SOL    HW217481   3.117   3.249  17.071 -0.0241 -2.0458  1.8193
 2007SOL     OW17482   1.939   0.139   5.797 -0.1197 -0.5443 -0.1494
 2007SOL    HW117483   1.887   0.132   5.877 -0.2918  1.7699 -0.0567
 2007SOL    HW217484   2.020   0.112   5.840  0.2906  1.3502  0.2741
 2008SOL     OW17485   2.679   1.806   7.440 -0.0051 -0.2940 -0.2951
 2008SOL    HW117486   2.748   1.762   7.490  0.2136  2.4983  1.9159
 2008SOL    HW217487   2.686   1.895   7.475 -1.4959 -1.0585  1.9419
 2009SOL     OW17488   3.021   2.935  11.729  0.1230 -0.5040 -0.2079
 2009SOL    HW117489   3.037   2.877  11.803 -0.5561 -1.2586 -0.6568
 2009SOL    HW217490   3.079   3.008  11.753  1.8274 -1.7639 -0.4788
 2010SOL     OW17491   3.142   0.763   7.066 -0.3297  0.6286 -0.1385
 2010SOL    HW117492   3.087   0.684   7.067 -0.4841  0.7521  1.1625
 2010SOL    HW217493   3.085   0.839   7.075 -1.6480 -0.4588  0.6426
 2011SOL     OW17494   3.325   1.324   7.692  0.2627 -0.5061 -0.1761
 2011SOL    HW117495   3.289   1.327   7.603  0.9770 -1.9099 -0.5200
 2011SOL    HW217496   3.421   1.319   7.684  0.1951 -1.5745 -0.4317
 2012SOL     OW17497   0.615   1.430   4.800 -0.1206 -0.1122  0.0909
 2012SOL    HW117498   0.547   1.362   4.799 -2.7317  2.4428  2.2160
 2012SOL    HW217499   0.636   1.437   4.893 -1.1589  1.0947  0.2299
 2013SOL     OW17500   3.652   1.083   3.743 -0.0584 -0.4736 -0.6516
 2013SOL    HW117501   3.613   1.135   3.814  0.6870  2.1915 -2.1956
 2013SOL    HW217502   3.732   1.136   3.746  0.3492 -1.1427  0.2053
 2014SOL     OW17503   0.475   0.418   6.683  0.5084 -0.2642 -1.2445
 2014SOL    HW117504   0.496   0.468   6.604  2.6904  1.6442  0.5544
 2014SOL    HW217505   0.521   0.468   6.751 -3.7649 -0.2815  1.6027
 2015SOL     OW17506   2.919   0.997  16.717 -0.0606  1.2705  0.2068
 2015SOL    HW117507   2.920   0.923  16.777 -0.1773  1.8273  0.8867
 2015SOL    HW217508   2.883   0.960  16.636 -0.5447  1.0054  0.5510
 2016SOL     OW17509   2.421   3.185   3.163  0.6472  0.1490 -0.0253
 2016SOL    HW117510   2.492   3.139   3.118 -1.3294 -0.0364 -3.0117
 2016SOL    HW217511   2.379   3.220   3.084  1.3654 -0.4394 -0.6694
 2017SOL     OW17512   2.856   4.690   8.069  0.3618 -0.5646 -0.1316
 2017SOL    HW117513   2.812   0.005   8.145  0.4641  1.5829 -1.1295
 2017SOL    HW217514   2.937   0.018   8.064  1.1813 -1.8930 -0.3120
 2018SOL     OW17515   0.249   2.752   8.141  0.0766  0.0089 -0.2189
 2018SOL    HW117516   0.160   2.764   8.109 -0.4295 -0.3400  1.0572
 2018SOL    HW217517   0.230   2.712   8.226  0.0518 -0.0477 -0.2506
 2019SOL     OW17518   0.919   1.182   3.421  0.1550 -0.0289 -0.5964
 2019SOL    HW117519   0.972   1.134   3.485  1.2815  2.1432  0.0823
 2019SOL    HW217520   0.848   1.220   3.472  0.1355 -2.4613  1.1826
 2020SOL     OW17521   0.340   3.738   0.050 -0.0519  0.0790 -0.0488
 2020SOL    HW117522   0.424   3.760   0.010  0.8354 -2.9126  0.1739
 2020SOL    HW217523   0.323   3.666  17.683 -2.0752  1.1138 -0.7026
 2021SOL     OW17524   0.069   0.037  11.654 -0.3544  0.2541 -0.1515
 2021SOL    HW117525   4.719   4.699  11.645  1.0612 -1.2470 -1.3401
 2021SOL    HW217526   0.075   0.066  11.563 -0.0122  1.2579  0.1844
 2022SOL     OW17527   1.311   0.886   2.537 -0.1078 -0.2771  0.0525
 2022SOL    HW117528   1.298   0.923   2.450  3.2653  1.5520  0.3529
 2022SOL    HW217529   1.320   0.961   2.595 -0.1922 -0.9667  0.9586
 2023SOL     OW17530   1.426   3.892   5.108 -0.3076 -0.2795 -0.5600
 2023SOL    HW117531   1.353   3.938   5.149 -1.5525 -1.6728 -1.2385
 2023SOL    HW217532   1.422   3.929   5.020  0.9680  1.4990  0.1095
 2024SOL     OW17533   2.194   3.491  17.228  0.6722  0.4205 -0.0890
 2024SOL    HW117534   2.197   3.542  17.309  1.8151  1.3546 -0.7312
 2024SOL    HW217535   2.254   3.420  17.249 -1.4380 -1.0641  0.9960
 2025SOL     OW17536   3.410   2.688  15.756 -0.2018  0.0544  0.4958
 2025SOL    HW117537   3.402   2.779  15.728  0.6331 -0.0631 -0.1568
 2025SOL    HW217538   3.433   2.710  15.846 -1.4976 -1.9951  1.3325
 2026SOL     OW17539   1.366   0.331   3.610  0.1024 -0.4114  0.5711
 2026SOL    HW117540   1.363   0.274   3.686  1.0539  0.5431  1.3309
 2026SOL    HW217541   1.278   0.364   3.593  0.1631 -0.7983 -0.5294
 2027SOL     OW17542   1.826   4.032  17.539 -0.6397 -0.2980 -0.1647
 2027SOL    HW117543   1.915   4.027  17.503 -0.1999  0.6778  0.7998
 2027SOL    HW217544   1.840   4.056  17.631 -2.2316 -1.7725  0.4521
 2028SOL     OW17545   2.849   4.433   8.457 -0.3449 -0.2145 -0.0388
 2028SOL    HW117546   2.783   4.371   8.425 -0.8340  0.8428 -1.0756
 2028SOL    HW217547   2.786   4.504   8.468 -0.1810 -0.4248  2.1922
 2029SOL     OW17548   3.872   1.756   9.966 -0.0852  0.1279  0.2997
 2029SOL    HW117549   3.821   1.726   9.891  1.6119 -2.3004  0.1162
 2029SOL    HW217550   3.803   1.758  10.032 -0.0592 -4.3191  0.4617
 2030SOL     OW17551   1.891   1.230  12.541 -0.2403 -0.4404  0.2989
 2030SOL    HW117552   1.881   1.326  12.539  2.5089 -0.2166 -2.0531
 2030SOL    HW217553   1.974   1.215  12.496 -1.0236 -0.1275 -1.2583
 2031SOL     OW17554   2.643   4.594   8.566  0.0373 -0.4764 -0.1436
 2031SOL    HW117555   2.644   4.582   8.661 -0.8054 -2.4100 -0.3864
 2031SOL    HW217556   2.686   4.679   8.558 -0.5418 -0.3318 -1.7542
 2032SOL     OW17557   0.935   2.644   8.768 -0.0256  0.0669  0.1351
 2032SOL    HW117558   1.009   2.648   8.829  0.4757  0.5194 -0.4953
 2032SOL    HW217559   0.933   2.740   8.760 -1.7727  0.1989  2.1253
 2033SOL     OW17560   3.476   3.017   2.076  0.1170 -0.2589 -0.4282
 2033SOL    HW117561   3.531   2.983   2.147  1.2870  2.9391  0.2066
 2033SOL    HW217562   3.412   2.947   2.064  1.1949 -0.8946 -2.4342
 2034SOL     OW17563   2.891   2.291  16.461 -0.4254  0.3750  0.4964
 2034SOL    HW117564   2.932   2.354  16.402  0.4884 -1.5074 -0.9062
 2034SOL    HW217565   2.880   2.217  16.401 -0.7691  1.8636 -1.2876
 2035SOL     OW17566   0.262   1.883  17.502  0.1217  0.4106 -0.0135
 2035SOL    HW117567   0.255   1.834  17.419  0.8878 -1.5576  1.0842
 2035SOL    HW217568   0.173   1.917  17.494  0.4325  1.3921  0.7580
 2036SOL     OW17569   4.196   0.263  12.931  0.6041  0.3345  0.4760
 2036SOL    HW117570   4.235   0.231  13.012  0.2235 -0.6790  0.2674
 2036SOL    HW217571   4.247   0.214  12.867 -0.3899 -2.4363  1.8238
 2037SOL     OW17572   4.116   1.861   4.485 -0.0612  0.0750  0.1578
 2037SOL    HW117573   4.097   1.779   4.532 -1.0528 -0.0927 -0.5435
 2037SOL    HW217574   4.027   1.893   4.473 -0.7880 -1.6985  0.7889
 2038SOL     OW17575   1.858   2.812   2.216  0.2196  0.2354  0.3827
 2038SOL    HW117576   1.933   2.752   2.216  0.6739  0.8099  1.6816
 2038SOL    HW217577   1.890   2.891   2.259 -0.8802  0.7004  0.3561
 2039SOL     OW17578   3.334   3.319   3.335  0.9443 -0.3048 -0.7793
 2039SOL    HW117579   3.396   3.274   3.278  1.8777  2.6596 -2.0924
 2039SOL    HW217580   3.384   3.396   3.362  0.0864 -0.0124 -0.0078
 2040SOL     OW17581   2.510   4.496   7.174  0.5282  0.4997 -0.4458
 2040SOL    HW117582   2.520   4.405   7.201 -2.3382  0.5362  0.6659
 2040SOL    HW217583   2.416   4.495   7.161  0.1112  2.8500  2.2266
 2041SOL     OW17584   1.357   0.621   3.252 -0.1741 -0.1184  0.1615
 2041SOL    HW117585   1.409   0.700   3.234  0.5307 -1.3082 -3.0254
 2041SOL    HW217586   1.273   0.661   3.275 -0.3586 -0.2072 -0.3775
 2042SOL     OW17587   0.077   1.323   7.778 -0.3990  0.1835 -0.2608
 2042SOL    HW117588   0.131   1.336   7.857 -1.3652  2.3010  0.0691
 2042SOL    HW217589   0.003   1.315   7.838  0.6846  1.6995  1.3329
 2043SOL     OW17590   0.742   0.422   2.727  0.7418 -0.6191  0.1037
 2043SOL    HW117591   0.813   0.381   2.677 -1.7134 -1.3097 -2.8609
 2043SOL    HW217592   0.791   0.491   2.772 -1.6827  1.4941 -0.5260
 2044SOL     OW17593   4.467   4.040   7.346  0.1458 -0.3589 -0.7391
 2044SOL    HW117594   4.383   4.020   7.305  0.6654 -2.8147 -0.6255
 2044SOL    HW217595   4.442   4.040   7.438 -1.7461  0.9681 -1.2567
 2045SOL     OW17596   3.588   1.089  17.634 -0.5040  0.2478 -0.4008
 2045SOL    HW117597   3.505   1.044  17.650  0.7064 -2.4255 -1.7462
 2045SOL    HW217598   3.620   1.036  17.561  0.8696  0.2410  0.2118
 2046SOL     OW17599   1.782   3.079   9.387  1.2182 -0.2988 -0.1794
 2046SOL    HW117600   1.840   3.059   9.461 -2.2655 -0.7763  2.3848
 2046SOL    HW217601   1.715   3.011   9.384 -0.0717  0.8785  2.3958
 2047SOL     OW17602   4.156   4.208   5.824  0.5442  0.2653  0.1430
 2047SOL    HW117603   4.170   4.132   5.767  0.6533  0.9074 -0.6782
 2047SOL    HW217604   4.069   4.236   5.797  0.0041 -0.5124  1.0798
 2048SOL     OW17605   0.545   3.385   6.609  0.4956 -0.1411 -0.6342
 2048SOL    HW117606   0.564   3.462   6.663 -0.1265  0.2099 -0.9173
 2048SOL    HW217607   0.583   3.310   6.655  0.0249  1.8391  2.9964
 2049SOL     OW17608   4.615   0.709   3.819  0.6172 -0.2380 -0.8394
 2049SOL    HW117609   4.525   0.722   3.788 -0.2232  0.0862  1.7586
 2049SOL    HW217610   4.653   0.735   3.735  0.9002 -0.8958 -0.9149
 2050SOL     OW17611   0.780   4.014   8.956  0.7191  0.2827 -0.0891
 2050SOL    HW117612   0.774   4.008   8.861  2.2137  1.7739 -0.2837
 2050SOL    HW217613   0.713   3.957   8.995  1.4422 -1.1748 -1.0119
 2051SOL     OW17614   0.752   1.581  12.511 -0.6336  0.2889  0.5337
 2051SOL    HW117615   0.757   1.489  12.484 -1.1632 -0.0132  1.4731
 2051SOL    HW217616   0.842   1.610  12.496  0.4250 -3.4745 -0.4198
 2052SOL     OW17617   3.250   4.699   9.034 -0.7416  0.0840  0.0737
 2052SOL    HW117618   3.242   4.649   8.953  0.5859 -1.7658  1.0852
 2052SOL    HW217619   3.318   0.042   9.016  0.9373 -0.9097  2.8055
 2053SOL     OW17620   2.059   0.748  13.787 -0.8750  0.2450  0.0806
 2053SOL    HW117621   2.068   0.670  13.842  2.7194  1.0824  0.7073
 2053SOL    HW217622   1.973   0.781  13.813  0.4873  2.2840  1.9731
 2054SOL     OW17623   4.404   0.197   2.475  0.2794 -0.1218 -0.2442
 2054SOL    HW117624   4.392   0.219   2.568 -0.0571 -0.2886 -0.2465
 2054SOL    HW217625   4.343   0.124   2.463  1.3732 -0.8849 -1.1363
 2055SOL     OW17626   4.285   2.256   3.578  0.3142  0.0000  0.8965
 2055SOL    HW117627   4.274   2.186   3.514 -0.9926 -0.1966  1.3426
 2055SOL    HW217628   4.315   2.211   3.657  0.1041 -1.9411 -0.1424
 2056SOL     OW17629   0.385   2.126   3.319 -0.0659  0.4113  0.5869
 2056SOL    HW117630   0.341   2.045   3.295 -0.4574  1.3405 -1.8280
 2056SOL    HW217631   0.309   2.180   3.341  1.4105  2.1930  1.3620
 2057SOL     OW17632   3.577   4.219   2.627  0.1094 -0.5220 -0.1463
 2057SOL    HW117633   3.656   4.222   2.573  2.7624 -1.0028  3.7589
 2057SOL    HW217634   3.602   4.274   2.701  0.5852  0.2164 -0.8560
 2058SOL     OW17635   0.363   0.389   5.036 -0.3292 -0.2612 -0.1149
 2058SOL    HW117636   0.438   0.419   4.985  0.0888 -0.7601  0.2109
 2058SOL    HW217637   0.293   0.454   5.042  1.8025  1.9021  1.2310
 2059SOL     OW17638   1.321   1.976   7.549  0.0790  0.5146  0.3860
 2059SOL    HW117639   1.388   2.040   7.574 -0.4876  0.9853  0.7013
 2059SOL    HW217640   1.300   1.927   7.628  1.4186  0.0074  0.4254
 2060SOL     OW17641   4.225   2.217  13.212  0.4166  0.1034  0.0764
 2060SOL    HW117642   4.229   2.250  13.302 -1.2100 -1.2747  0.6566
 2060SOL    HW217643   4.228   2.122  13.229  1.5037  0.2770  0.8062
 2061SOL     OW17644   0.388   4.336   5.590  0.0288 -0.4298  0.1075
 2061SOL    HW117645   0.336   4.381   5.656  0.3461  1.6217 -1.0585
 2061SOL    HW217646   0.467   4.389   5.589  0.3883 -0.9340  1.8127
 2062SOL     OW17647   1.755   2.294   6.564 -0.5909  0.1668  0.2900
 2062SOL    HW117648   1.726   2.226   6.503  0.4612 -0.8312  0.9040
 2062SOL    HW217649   1.669   2.336   6.572 -1.3815 -1.4391  0.3049
 2063SOL     OW17650   0.134   4.203   3.182 -0.2519  0.1126  0.2593
 2063SOL    HW117651   0.135   4.185   3.276  2.4085 -0.3619  0.1134
 2063SOL    HW217652   0.104   4.294   3.181  0.1070  0.2368  0.8476
 2064SOL     OW17653   4.321   0.577  10.915  0.0443  0.0371 -0.0569
 2064SOL    HW117654   4.407   0.572  10.958 -0.7659 -2.1628  1.2773
 2064SOL    HW217655   4.322   0.512  10.845 -0.2097  0.9791 -0.9401
 2065SOL     OW17656   1.407   3.707   3.148  0.3320  0.1036  0.4226
 2065SOL    HW117657   1.331   3.700   3.089  0.8683  1.1773 -0.4026
 2065SOL    HW217658   1.435   3.617   3.165  1.9706  0.3587 -0.9689
 2066SOL     OW17659   1.548   3.319   7.789 -0.0576 -0.5622  0.1911
 2066SOL    HW117660   1.598   3.356   7.862  0.0819 -0.9598  0.2997
 2066SOL    HW217661   1.461   3.356   7.802  0.4785 -0.2499  2.8943
 2067SOL     OW17662   0.898   2.165   2.493  0.7515  0.2296  0.6464
 2067SOL    HW117663   0.904   2.259   2.504  0.2459  0.4196 -0.6356
 2067SOL    HW217664   0.976   2.153   2.438  0.6428  1.2517  0.2729
 2068SOL     OW17665   3.980   4.005   7.489  0.8395 -0.2094 -0.5345
 2068SOL    HW117666   4.016   4.059   7.559  2.9610 -1.4388 -0.6842
 2068SOL    HW217667   4.018   4.038   7.408 -0.0873 -0.8271 -1.2287
 2069SOL     OW17668   3.521   3.199   4.914  0.1275 -0.7026  0.0905
 2069SOL    HW117669   3.590   3.137   4.936  0.7023  0.0690  0.4686
 2069SOL    HW217670   3.542   3.268   4.978  0.9689 -2.2625  1.4973
 2070SOL     OW17671   2.653   4.714   5.619 -0.0603 -0.7045  0.0053
 2070SOL    HW117672   2.642   0.037   5.536 -2.4273  0.2329  0.8360
 2070SOL    HW217673   2.616   0.060   5.675  0.0916 -1.9738  1.6520
 2071SOL     OW17674   0.662   2.731  11.889 -0.2771  0.0997 -0.0772
 2071SOL    HW117675   0.744   2.718  11.841 -0.8915  2.4932 -1.7719
 2071SOL    HW217676   0.690   2.752  11.978 -1.0662 -1.2144  0.4895
 2072SOL     OW17677   4.012   2.040  10.258  0.1849 -1.1230  0.1676
 2072SOL    HW117678   4.016   2.013  10.166  2.8071 -2.0758  0.5584
 2072SOL    HW217679   4.101   2.073  10.274 -0.1014 -1.0566  1.5766
 2073SOL     OW17680   3.727   3.891   9.323 -0.5271  0.1587 -0.3814
 2073SOL    HW117681   3.790   3.820   9.311 -1.9465 -1.2479  0.5448
 2073SOL    HW217682   3.759   3.937   9.401  0.5877  1.6030 -1.6830
 2074SOL     OW17683   2.678   1.997  11.690 -0.0246  0.2889  0.5792
 2074SOL    HW117684   2.598   1.988  11.638 -1.1848 -2.6316  2.8370
 2074SOL    HW217685   2.744   1.953  11.636  0.4600 -1.7195  2.8143
 2075SOL     OW17686   1.205   1.151  15.005 -0.7764  0.0117  0.0098
 2075SOL    HW117687   1.124   1.194  14.975 -1.2040 -2.6974 -2.8854
 2075SOL    HW217688   1.249   1.224  15.047  0.9715 -0.7845 -0.4294
 2076SOL     OW17689   3.865   3.376   5.840 -0.1825 -0.3747 -0.2164
 2076SOL    HW117690   3.786   3.322   5.841 -1.1192  0.9615 -1.6425
 2076SOL    HW217691   3.888   3.358   5.749 -1.5734 -0.0328 -0.6373
 2077SOL     OW17692   1.476   1.350   0.843 -0.2695  0.1122 -0.1279
 2077SOL    HW117693   1.529   1.328   0.766 -0.6783 -0.1572 -0.3297
 2077SOL    HW217694   1.465   1.444   0.831 -0.5819 -0.1290 -1.7305
 2078SOL     OW17695   1.684   3.732   3.278  0.2961  0.3419  0.1875
 2078SOL    HW117696   1.706   3.682   3.200  2.2385  1.8800 -0.2617
 2078SOL    HW217697   1.594   3.701   3.282  0.5787 -0.7064 -1.5906
 2079SOL     OW17698   3.685   1.706   0.025 -0.1504 -0.5183 -0.2119
 2079SOL    HW117699   3.733   1.657  17.651 -2.7996 -1.2254 -1.6093
 2079SOL    HW217700   3.719   1.795   0.017 -0.4820 -0.1917  2.2622
 2080SOL     OW17701   2.682   2.968  17.556 -0.4786  0.3066 -0.0880
 2080SOL    HW117702   2.598   3.007  17.533 -0.3003  0.2424 -0.8489
 2080SOL    HW217703   2.670   2.955  17.650  0.2294 -2.7380 -0.4186
 2081SOL     OW17704   1.139   2.436   8.439  0.7451  0.2109 -0.0017
 2081SOL    HW117705   1.209   2.426   8.503 -1.4858 -1.7800  2.1560
 2081SOL    HW217706   1.179   2.429   8.353 -1.9552 -0.5544 -1.2101
 2082SOL     OW17707   3.870   3.299   2.047  0.8953 -0.4350  0.0830
 2082SOL    HW117708   3.880   3.332   2.136 -0.0692 -2.8331  1.0830
 2082SOL    HW217709   3.850   3.379   1.998  0.5165 -0.7587 -0.2971
 2083SOL     OW17710   0.284   3.668   3.610  0.1404 -0.0647 -0.0251
 2083SOL    HW117711   0.333   3.639   3.533 -0.2315 -1.9624  0.4644
 2083SOL    HW217712   0.193   3.672   3.580 -0.2180 -0.4551  1.0066
 2084SOL     OW17713   3.452   2.420  15.211  0.0367 -0.0530 -0.2522
 2084SOL    HW117714   3.471   2.349  15.149 -0.4663 -0.8083  0.4519
 2084SOL    HW217715   3.360   2.447  15.199  0.5545  1.5090 -0.7446
 2085SOL     OW17716   1.677   3.851   4.862 -0.6710  0.5534 -0.6925
 2085SOL    HW117717   1.736   3.920   4.894 -0.8589  0.6151 -0.4859
 2085SOL    HW217718   1.591   3.886   4.883 -0.8515  1.7487 -3.3007
 2086SOL     OW17719   2.921   0.469   7.645 -0.1152 -0.5441  0.5832
 2086SOL    HW117720   2.871   0.528   7.701  0.1346  0.2045  0.0243
 2086SOL    HW217721   2.864   0.392   7.647 -2.0536  0.8271 -0.8143
 2087SOL     OW17722   2.156   0.582   7.613 -0.2327 -0.0653 -0.0042
 2087SOL    HW117723   2.238   0.624   7.640 -1.0487  0.2859  1.9178
 2087SOL    HW217724   2.181   0.537   7.532 -2.1559  1.9803 -1.7195
 2088SOL     OW17725   2.860   2.692   7.135  0.0329  0.0641  1.0139
 2088SOL    HW117726   2.864   2.661   7.226  0.0148 -0.3122  0.8865
 2088SOL    HW217727   2.770   2.721   7.146  0.4706  0.2982  3.9862
 2089SOL     OW17728   3.339   0.429   4.605 -0.2394 -0.9954 -0.0133
 2089SOL    HW117729   3.314   0.519   4.582 -0.2319 -0.8276  0.6170
 2089SOL    HW217730   3.372   0.410   4.518 -1.0973 -0.2816 -0.4925
 2090SOL     OW17731   4.573   4.377   6.373  0.5782  0.4181  0.3214
 2090SOL    HW117732   4.625   4.410   6.446  0.9222  2.2620 -0.7411
 2090SOL    HW217733   4.483   4.362   6.401 -0.3371  1.9939 -1.7063
 2091SOL     OW17734   1.788   3.608   0.541 -0.6310  0.1328 -0.1735
 2091SOL    HW117735   1.799   3.593   0.635 -0.9127  0.5095 -0.0804
 2091SOL    HW217736   1.866   3.655   0.513 -0.0592 -0.5606  0.2472
 2092SOL     OW17737   1.611   4.369   4.516  0.0890  0.2475 -0.1610
 2092SOL    HW117738   1.678   4.397   4.578 -1.4998  0.3511  1.5194
 2092SOL    HW217739   1.664   4.358   4.437 -1.2806 -1.0611 -0.8897
 2093SOL     OW17740   2.370   4.525   5.004  0.3172 -0.2588 -0.2755
 2093SOL    HW117741   2.413   4.449   4.965 -0.1299 -0.4239 -0.4397
 2093SOL    HW217742   2.372   4.584   4.929 -0.7301 -0.8609 -0.7741
 2094SOL     OW17743   4.299   1.660   4.762  0.6118  0.1572 -0.0774
 2094SOL    HW117744   4.209   1.667   4.729  0.2702 -0.3625  0.7539
 2094SOL    HW217745   4.323   1.752   4.771  1.9381 -0.0363 -1.6411
 2095SOL     OW17746   0.783   0.226   4.266 -0.1193 -0.3662 -0.3270
 2095SOL    HW117747   0.769   0.205   4.358 -0.8277 -0.3343 -0.4305
 2095SOL    HW217748   0.778   0.322   4.267 -0.6115 -0.3540 -3.2404
 2096SOL     OW17749   0.869   0.934   3.253  0.3161  0.0152  0.4000
 2096SOL    HW117750   0.876   1.007   3.315  0.6699  0.1230  0.2308
 2096SOL    HW217751   0.783   0.906   3.286 -1.5849  2.7206 -2.3417
 2097SOL     OW17752   2.467   1.446  16.356 -0.2972 -0.2514 -0.0520
 2097SOL    HW117753   2.505   1.375  16.408  0.8592  1.4199  1.3858
 2097SOL    HW217754   2.541   1.497  16.324  0.5947 -2.3225 -1.3009
 2098SOL     OW17755   1.585   0.514  15.054 -0.0628  0.2314 -1.2002
 2098SOL    HW117756   1.596   0.573  15.129  2.1378 -0.4864 -0.9783
 2098SOL    HW217757   1.674   0.480  15.046  0.0430  0.7969 -2.3458
 2099SOL     OW17758   4.633   1.511   5.597  0.3481  0.5158 -0.3365
 2099SOL    HW117759   4.638   1.588   5.654 -1.5635  2.5352 -2.9150
 2099SOL    HW217760   4.667   1.541   5.513  2.9141 -2.2389 -0.2534
 2100SOL     OW17761   0.961   3.915  17.104  0.3411  0.0941  0.0587
 2100SOL    HW117762   0.944   3.986  17.165 -0.0026 -0.1849  0.2832
 2100SOL    HW217763   0.885   3.864  17.133  1.2689 -0.7017  1.0995
 2101SOL     OW17764   4.642   3.192  12.885  0.2608  0.4315  0.2928
 2101SOL    HW117765   4.629   3.109  12.838 -0.4657 -0.1067  1.4324
 2101SOL    HW217766   4.558   3.234  12.869  0.8258  0.7606 -1.8246
 2102SOL     OW17767   1.312   2.756   7.380  0.3586  0.5919  0.1818
 2102SOL    HW117768   1.311   2.716   7.467  1.5460  1.2525  0.5059
 2102SOL    HW217769   1.328   2.849   7.399 -3.2542  0.6862  2.7248
 2103SOL     OW17770   4.179   2.255   4.929  0.2359 -0.3782 -0.3604
 2103SOL    HW117771   4.117   2.260   4.855  1.2089  1.6848 -1.0487
 2103SOL    HW217772   4.220   2.171   4.909 -1.5106 -1.3417  0.0961
 2104SOL     OW17773   2.997   2.738   7.664 -0.1262 -0.7490 -0.8333
 2104SOL    HW117774   3.085   2.774   7.652 -0.1358 -0.6676 -0.6642
 2104SOL    HW217775   2.998   2.693   7.580  0.0766  0.4869 -1.4877
 2105SOL     OW17776   0.305   4.722  17.519 -0.2319 -0.0110 -0.4705
 2105SOL    HW117777   0.266   0.016  17.605 -1.5760  0.8996 -1.2624
 2105SOL    HW217778   0.316   4.627  17.517  3.0609  0.3356  2.0229
 2106SOL     OW17779   2.441   0.364  12.453  0.3099  0.5395 -0.2311
 2106SOL    HW117780   2.374   0.404  12.397 -0.5808  2.1477  2.0061
 2106SOL    HW217781   2.486   0.304  12.394 -1.5970  0.1014 -1.2339
 2107SOL     OW17782   3.450   2.805   2.904  0.5651  0.8618  0.6648
 2107SOL    HW117783   3.440   2.851   2.987  2.3788  0.4009  1.1479
 2107SOL    HW217784   3.401   2.723   2.911 -0.2669  1.3637  0.5826
 2108SOL     OW17785   2.595   3.767   5.944  0.2960  0.1265  0.4049
 2108SOL    HW117786   2.670   3.770   6.004  0.1213  1.4551  0.5537
 2108SOL    HW217787   2.643   3.722   5.874  0.0384 -1.2106  1.0785
 2109SOL     OW17788   1.414   0.083   5.252 -0.0050  0.4534 -0.1170
 2109SOL    HW117789   1.473   0.154   5.228 -0.7827  0.6689 -1.3969
 2109SOL    HW217790   1.351   0.083   5.180 -1.5452 -1.6274  1.2169
 2110SOL     OW17791   3.071   3.070  14.316 -0.0915  0.3512 -0.0944
 2110SOL    HW117792   3.140   3.099  14.375 -1.4112  0.9752  1.1593
 2110SOL    HW217793   3.065   2.978  14.343  0.2636 -0.2798 -2.1586
 2111SOL     OW17794   1.315   3.977  15.393  0.3427 -0.4749  0.2056
 2111SOL    HW117795   1.272   3.911  15.448  1.5410 -1.3877  0.0379
 2111SOL    HW217796   1.332   4.047  15.457 -2.8950  0.4663  0.0653
 2112SOL     OW17797   4.327   2.705  13.801  0.0059 -0.5565 -0.2937
 2112SOL    HW117798   4.287   2.632  13.754  0.4133 -0.0778 -1.3870
 2112SOL    HW217799   4.381   2.659  13.866 -0.7814 -0.6790  0.2709
 2113SOL     OW17800   4.360   2.253   2.216  0.0308  0.3898  0.0545
 2113SOL    HW117801   4.392   2.315   2.151  0.6080 -0.0386 -0.0721
 2113SOL    HW217802   4.443   2.211   2.239  0.7111  0.9332 -1.4350
 2114SOL     OW17803   3.378   1.910  15.903 -0.1451 -0.3226 -0.0281
 2114SOL    HW117804   3.385   1.940  15.994 -0.3062  0.4597 -0.2690
 2114SOL    HW217805   3.417   1.823  15.899  1.9354  0.6036 -0.2687
 2115SOL     OW17806   2.798   4.094   3.546 -0.1918  0.1166 -0.7269
 2115SOL    HW117807   2.778   4.184   3.571 -1.3264  0.2640 -2.1507
 2115SOL    HW217808   2.876   4.097   3.490  1.8293  0.4706  2.1175
 2116SOL     OW17809   2.726   3.829   5.066  0.0826 -0.1875 -0.0007
 2116SOL    HW117810   2.701   3.891   4.998  3.1890  1.1342  0.0445
 2116SOL    HW217811   2.679   3.748   5.047 -0.1168  0.4266 -2.1838
 2117SOL     OW17812   3.585   1.880   5.084  0.3196 -0.4620 -0.2605
 2117SOL    HW117813   3.644   1.945   5.121 -0.9959  1.4176 -1.4729
 2117SOL    HW217814   3.576   1.894   4.990  3.0859  0.2033 -0.4100
 2118SOL     OW17815   2.471   0.847   6.764 -0.2471  0.6230  0.3092
 2118SOL    HW117816   2.499   0.845   6.672  0.4745  1.5549  0.5136
 2118SOL    HW217817   2.541   0.804   6.814  0.1020 -0.2592 -0.9300
 2119SOL     OW17818   2.671   1.495   9.537  0.3857 -0.0858 -0.2907
 2119SOL    HW117819   2.648   1.417   9.589  3.1885  1.4267  3.2171
 2119SOL    HW217820   2.663   1.480   9.443  1.6515  1.1244 -0.5910
 2120SOL     OW17821   1.438   4.701   9.663  0.2515 -0.3544  0.1187
 2120SOL    HW117822   1.511   4.684   9.721 -1.0018 -1.3233  1.4166
 2120SOL    HW217823   1.460   4.670   9.575  1.6298  0.6905  0.1073
 2121SOL     OW17824   2.719   0.445   8.343  0.2106  0.2207  0.0525
 2121SOL    HW117825   2.652   0.479   8.284  0.6426 -1.3310 -1.3531
 2121SOL    HW217826   2.671   0.435   8.425 -0.7284  2.0784 -0.2761
 2122SOL     OW17827   2.255   0.205  12.698  0.3824 -0.0905 -0.6957
 2122SOL    HW117828   2.230   0.225  12.788 -1.5595  0.6682 -1.3912
 2122SOL    HW217829   2.188   0.142  12.673 -0.7700  0.1304  1.7881
 2123SOL     OW17830   1.029   1.712   5.557  0.3252 -0.1385 -0.8855
 2123SOL    HW117831   0.959   1.777   5.558 -0.3568 -0.8890  0.6466
 2123SOL    HW217832   1.105   1.766   5.579 -0.4852  0.2484  1.0059
 2124SOL     OW17833   4.220   0.136  11.355 -0.9338 -0.4023 -0.2558
 2124SOL    HW117834   4.283   0.146  11.426 -1.2456 -0.9649  0.0996
 2124SOL    HW217835   4.140   0.171  11.394 -0.3044 -1.0366  1.5719
 2125SOL     OW17836   3.160   2.559   7.359 -0.0908 -0.0209 -0.2059
 2125SOL    HW117837   3.173   2.646   7.320  1.4344  0.3842  1.2178
 2125SOL    HW217838   3.187   2.579   7.449  1.5985  0.8740 -0.9070
 2126SOL     OW17839   0.615   1.302   0.308  0.0491  0.0856 -0.5774
 2126SOL    HW117840   0.696   1.354   0.308 -0.5632  1.0427  0.0283
 2126SOL    HW217841   0.548   1.361   0.274 -0.3347  0.3731  0.6645
 2127SOL     OW17842   4.350   2.198   6.966 -0.0898  0.1677 -0.4369
 2127SOL    HW117843   4.311   2.181   7.052  2.4006 -0.6531  0.5225
 2127SOL    HW217844   4.393   2.282   6.981  1.2618 -0.5846 -0.0960
 2128SOL     OW17845   3.602   4.278   8.238  0.5232  0.9989 -0.4076
 2128SOL    HW117846   3.531   4.233   8.191  0.0203  2.5893 -1.1707
 2128SOL    HW217847   3.587   4.371   8.221  2.4007  1.2048 -0.8739
 2129SOL     OW17848   3.613   3.606   4.702 -0.0067  0.1992  0.3495
 2129SOL    HW117849   3.689   3.548   4.708  0.0097  0.2162  0.3026
 2129SOL    HW217850   3.654   3.690   4.724  1.6516 -0.2927 -0.9458
 2130SOL     OW17851   2.559   4.231   7.252  0.1528 -0.1116  0.3719
 2130SOL    HW117852   2.515   4.148   7.267 -0.1645  0.2582  1.4923
 2130SOL    HW217853   2.627   4.222   7.319 -0.3592  1.5407  1.1094
 2131SOL     OW17854   1.184   1.209  17.340 -0.9704  0.2358  0.3531
 2131SOL    HW117855   1.089   1.211  17.325 -1.2784 -0.2110  2.1839
 2131SOL    HW217856   1.204   1.117  17.357 -1.4524  0.2805  1.1481
 2132SOL     OW17857   2.446   0.740  15.803  0.2343 -0.3464  0.3409
 2132SOL    HW117858   2.488   0.681  15.740 -1.6810 -1.7694  0.3848
 2132SOL    HW217859   2.353   0.718  15.791 -0.1505  1.1211  0.6876
 2133SOL     OW17860   4.019   2.768   2.992  0.2380 -0.0212  0.0664
 2133SOL    HW117861   3.940   2.820   2.979  1.4631  2.0111  0.7947
 2133SOL    HW217862   3.985   2.679   2.984 -1.6955  0.7935 -0.8539
 2134SOL     OW17863   4.143   4.536   6.403 -0.1916 -0.3860  0.1412
 2134SOL    HW117864   4.188   4.620   6.390  0.9627 -0.8014  1.4407
 2134SOL    HW217865   4.077   4.544   6.471 -0.7599  0.2768 -0.4856
 2135SOL     OW17866   0.450   1.600  15.092  0.1024 -0.6048  0.0308
 2135SOL    HW117867   0.515   1.546  15.138 -0.6111 -1.6018 -0.1154
 2135SOL    HW217868   0.434   1.674  15.150 -0.9244 -1.4392  0.8255
 2136SOL     OW17869   1.992   4.672   3.588  0.2962 -0.2039 -0.2393
 2136SOL    HW117870   1.935   4.595   3.590  1.5526 -1.0843  1.2027
 2136SOL    HW217871   2.075   4.626   3.601  0.3493  0.4908  1.7095
 2137SOL     OW17872   3.943   1.925   7.079  0.1054  0.1288  0.1333
 2137SOL    HW117873   3.959   1.978   7.001 -0.1352  1.4242  0.9591
 2137SOL    HW217874   3.856   1.949   7.110  0.0212 -0.1094  0.0802
 2138SOL     OW17875   1.057   0.113   6.055 -1.1781  0.0608  0.5803
 2138SOL    HW117876   0.985   0.176   6.049 -0.2195  1.3605  2.6781
 2138SOL    HW217877   1.106   0.125   5.973 -1.6047  0.1224  0.3370
 2139SOL     OW17878   1.525   1.992   5.433  0.0085 -0.1186 -0.5117
 2139SOL    HW117879   1.490   1.923   5.377  0.8573 -2.8811  2.3384
 2139SOL    HW217880   1.617   1.968   5.424  0.3911 -0.4181  4.1692
 2140SOL     OW17881   1.071   2.795   9.159 -0.1967 -0.8030 -0.0712
 2140SOL    HW117882   1.088   2.739   9.234  0.9712 -1.9898 -1.2166
 2140SOL    HW217883   1.144   2.855   9.148 -0.8705  0.0711  0.2425
 2141SOL     OW17884   1.081   2.607   2.726 -0.6573  0.3753  0.0777
 2141SOL    HW117885   1.003   2.662   2.734 -0.4425  0.4412  1.5608
 2141SOL    HW217886   1.151   2.670   2.743 -0.6354 -0.1374  1.8201
 2142SOL     OW17887   3.476   3.060   6.612 -0.6828 -0.3339 -0.4644
 2142SOL    HW117888   3.474   2.978   6.563 -1.5089 -1.7568  1.9507
 2142SOL    HW217889   3.417   3.031   6.681  0.1067 -1.8316 -0.4054
 2143SOL     OW17890   3.099   1.128   4.903  0.7975 -0.1187 -0.1786
 2143SOL    HW117891   3.156   1.204   4.917 -0.5634  0.7577  0.6068
 2143SOL    HW217892   3.113   1.078   4.983  0.2558  0.7518  0.4709
 2144SOL     OW17893   0.719   2.712   6.537 -0.0648  0.4084  0.1156
 2144SOL    HW117894   0.742   2.715   6.629 -1.6840 -2.1492  0.5967
 2144SOL    HW217895   0.798   2.663   6.515  0.1698  0.9979 -0.3586
 2145SOL     OW17896   4.483   4.063   5.731 -0.7108  0.0534 -0.1184
 2145SOL    HW117897   4.572   4.038   5.706 -1.1360 -2.3960  0.8064
 2145SOL    HW217898   4.500   4.140   5.785 -0.3008  0.6736 -1.1536
 2146SOL     OW17899   3.417   0.755   8.536 -0.6894 -0.5028  0.1394
 2146SOL    HW117900   3.338   0.747   8.589 -1.1427  2.6850 -0.0674
 2146SOL    HW217901   3.492   0.775   8.591 -0.7132  0.2020 -0.0905
 2147SOL     OW17902   3.791   1.969  11.721  0.0901  0.2652 -0.0141
 2147SOL    HW117903   3.771   1.876  11.729  1.4347 -0.1291 -1.2844
 2147SOL    HW217904   3.739   2.007  11.791  2.3388 -1.2835  2.4889
 2148SOL     OW17905   4.355   1.389   8.022  0.1544  0.4611  0.0667
 2148SOL    HW117906   4.298   1.350   8.089 -0.3470  0.5499 -0.3036
 2148SOL    HW217907   4.349   1.483   8.040 -1.0830  0.6695 -1.3793
 2149SOL     OW17908   2.235   0.067  17.442 -0.5905  0.2135 -0.0743
 2149SOL    HW117909   2.295   0.126  17.396  0.9310 -1.6505 -0.5012
 2149SOL    HW217910   2.302   0.006  17.473  1.1580  2.2583  0.1579
 2150SOL     OW17911   2.012   1.406   5.128  0.6563  0.2391 -0.2466
 2150SOL    HW117912   1.999   1.499   5.109 -0.8503  0.0647 -0.0621
 2150SOL    HW217913   2.024   1.409   5.223 -2.3037  1.4059  0.0870
 2151SOL     OW17914   4.686   3.388   0.143  0.3058  0.3401 -0.1468
 2151SOL    HW117915   4.663   3.356   0.056 -2.4188  2.5278 -0.2332
 2151SOL    HW217916   0.058   3.395   0.133  0.5918 -0.5302  1.8419
 2152SOL     OW17917   3.571   0.849   0.187  0.3860 -0.2614 -0.0562
 2152SOL    HW117918   3.492   0.818   0.231  0.3145  1.4501  1.0366
 2152SOL    HW217919   3.571   0.788   0.114 -0.4366 -1.2608  0.7894
 2153SOL     OW17920   1.339   4.592  15.825 -0.6856 -0.0410  0.0598
 2153SOL    HW117921   1.250   4.590  15.860 -0.4906  2.4093  0.6862
 2153SOL    HW217922   1.368   4.683  15.834 -0.4034 -0.2237  0.9941
 2154SOL     OW17923   0.325   0.291   7.946 -0.4779  0.0539 -0.0379
 2154SOL    HW117924   0.382   0.310   8.021 -0.3025  2.2426 -0.7281
 2154SOL    HW217925   0.357   0.203   7.923  1.6389  0.5374  1.0408
 2155SOL     OW17926   3.861   1.558   4.455 -0.2130  0.0691  0.2020
 2155SOL    HW117927   3.881   1.583   4.365 -2.1968  3.1356  0.6203
 2155SOL    HW217928   3.837   1.467   4.436  1.0394  0.0059 -1.0647
 2156SOL     OW17929   0.464   4.369   1.534 -0.7582 -0.5055 -0.4437
 2156SOL    HW117930   0.526   4.441   1.520 -0.3447 -0.3295  2.3035
 2156SOL    HW217931   0.382   4.415   1.552  0.2756  1.4689 -0.6614
 2157SOL     OW17932   4.301   3.053   2.760 -0.5771  0.4453  0.2229
 2157SOL    HW117933   4.294   2.966   2.720  0.9671 -0.5403  2.1110
 2157SOL    HW217934   4.341   3.098   2.685  0.4709 -1.0234 -0.0856
 2158SOL     OW17935   1.698   3.658   5.193  0.2119 -0.5592  0.0144
 2158SOL    HW117936   1.769   3.601   5.164 -1.1408 -1.9235 -0.5941
 2158SOL    HW217937   1.638   3.638   5.121 -0.0792  2.6265 -0.6511
 2159SOL     OW17938   0.912   1.080  13.271  0.6808 -0.2441 -0.0961
 2159SOL    HW117939   0.957   1.027  13.205 -1.5757 -1.1533 -0.8836
 2159SOL    HW217940   0.822   1.051  13.261  0.2022  1.3583 -0.5457
 2160SOL     OW17941   0.947   0.366   6.948 -0.5729 -0.1358  0.3809
 2160SOL    HW117942   0.992   0.294   6.993  0.0087  0.1077  0.1860
 2160SOL    HW217943   0.952   0.324   6.862  1.3063  1.3012 -0.1836
 2161SOL     OW17944   1.036   4.470   2.131 -0.3221 -0.0778  0.7015
 2161SOL    HW117945   1.066   4.546   2.180  0.5453  1.6391 -2.5017
 2161SOL    HW217946   0.942   4.475   2.146 -0.2016 -1.7713  2.0783
 2162SOL     OW17947   4.160   4.126   3.418 -0.1709 -0.1073 -0.5225
 2162SOL    HW117948   4.233   4.064   3.413 -0.1247 -0.3524  2.9711
 2162SOL    HW217949   4.118   4.098   3.337 -0.3538  2.2618 -1.2552
 2163SOL     OW17950   1.657   0.441   1.473 -0.4133  0.6737 -0.4154
 2163SOL    HW117951   1.644   0.496   1.551  0.8255 -0.1333  0.3614
 2163SOL    HW217952   1.629   0.504   1.406 -2.9539 -0.8447 -0.7790
 2164SOL     OW17953   0.865   2.494   4.180  0.6462  0.1785 -0.3758
 2164SOL    HW117954   0.791   2.472   4.124 -0.3980  0.9433  0.6976
 2164SOL    HW217955   0.932   2.426   4.171  1.3994  1.0551 -1.3415
 2165SOL     OW17956   4.519   0.341  11.378 -0.5510 -0.5927 -0.8076
 2165SOL    HW117957   4.501   0.270  11.316 -3.2035 -0.2376 -0.4252
 2165SOL    HW217958   4.485   0.308  11.462  0.2268 -1.0100 -0.6581
 2166SOL     OW17959   1.225   1.387  13.053  0.0970  0.3270  0.1098
 2166SOL    HW117960   1.273   1.305  13.061 -1.4912 -0.5834  0.3307
 2166SOL    HW217961   1.133   1.367  13.070 -0.3126  0.4995 -1.9192
 2167SOL     OW17962   1.860   3.247   4.097  0.2429 -0.1961  0.5470
 2167SOL    HW117963   1.855   3.323   4.039  0.7485  0.8397  1.8613
 2167SOL    HW217964   1.955   3.246   4.110  0.2496  1.8589  0.7206
 2168SOL     OW17965   1.352   2.521   1.285  0.1745 -0.1600  0.1453
 2168SOL    HW117966   1.437   2.503   1.326  0.1674  1.3531  0.8020
 2168SOL    HW217967   1.310   2.435   1.289 -2.8193  1.3098  0.8047
 2169SOL     OW17968   3.860   1.037   5.479  0.0840 -0.3424 -0.7167
 2169SOL    HW117969   3.847   0.967   5.544  1.5728 -0.2017 -0.2669
 2169SOL    HW217970   3.936   1.075   5.522  0.6608 -2.5361  0.2159
 2170SOL     OW17971   0.197   0.844   2.591 -0.3821 -0.0016  0.9816
 2170SOL    HW117972   0.221   0.785   2.663  2.0511 -1.3464 -0.9547
 2170SOL    HW217973   0.268   0.907   2.609 -1.1854  0.9191  0.9073
 2171SOL     OW17974   0.379   4.480   7.955 -0.6899  0.0832  0.0243
 2171SOL    HW117975   0.308   4.437   8.004 -0.1852  0.7924  1.3613
 2171SOL    HW217976   0.459   4.434   7.980 -1.1343  0.0173  1.3665
 2172SOL     OW17977   2.463   1.426   5.477  0.2441  0.9945  0.1800
 2172SOL    HW117978   2.544   1.414   5.528 -0.4823  1.8102  1.5068
 2172SOL    HW217979   2.411   1.483   5.533 -0.2865  1.6999 -1.0401
 2173SOL     OW17980   2.740   4.393   5.376 -0.3271 -1.0190 -0.0341
 2173SOL    HW117981   2.665   4.413   5.320  0.7170 -1.9305 -1.7509
 2173SOL    HW217982   2.787   4.475   5.366 -1.2378 -0.4728  0.1452
 2174SOL     OW17983   2.491   3.545  11.158  0.6970  0.3102 -0.2896
 2174SOL    HW117984   2.511   3.453  11.146 -0.6421 -0.1511  1.0412
 2174SOL    HW217985   2.426   3.543  11.228  1.1261 -0.1707  0.0888
 2175SOL     OW17986   2.273   1.095  11.069 -0.1785  0.0861  0.0867
 2175SOL    HW117987   2.186   1.089  11.029  1.5410 -0.2237 -3.5175
 2175SOL    HW217988   2.327   1.145  11.009 -0.7122  1.2984  0.6276
 2176SOL     OW17989   2.756   3.077   3.547 -0.2273 -0.1757 -0.3118
 2176SOL    HW117990   2.712   3.106   3.627 -1.0578  0.4558 -0.9953
 2176SOL    HW217991   2.734   3.159   3.504 -1.3644 -0.0123  0.5926
 2177SOL     OW17992   2.739   1.691   8.846 -0.3308 -0.4352 -0.2239
 2177SOL    HW117993   2.673   1.630   8.812 -1.1938 -0.0516  0.7548
 2177SOL    HW217994   2.716   1.697   8.938  2.1418 -2.6006  0.5388
 2178SOL     OW17995   0.443   1.726  11.441 -0.1331  0.0122  0.0560
 2178SOL    HW117996   0.527   1.693  11.411 -0.0341  0.5739 -0.2879
 2178SOL    HW217997   0.460   1.723  11.535 -0.2420  2.6921  0.1849
 2179SOL     OW17998   1.660   0.549  14.292 -0.1645 -0.2831  0.1984
 2179SOL    HW117999   1.651   0.497  14.212 -1.0562  0.6543 -0.3175
 2179SOL    HW218000   1.710   0.622  14.255 -2.6886  1.8288  0.9791
 2180SOL     OW18001   0.694   1.323   2.337  0.2735 -0.0555 -0.0929
 2180SOL    HW118002   0.605   1.313   2.303  0.4078 -0.8224 -0.2163
 2180SOL    HW218003   0.698   1.268   2.415 -0.2376  1.2891  0.8780
 2181SOL     OW18004   2.237   2.954   1.309 -0.0717  0.0061 -0.4411
 2181SOL    HW118005   2.328   2.956   1.338  0.3452 -0.6176 -1.7025
 2181SOL    HW218006   2.239   2.912   1.223 -1.9222  0.4659 -0.7138
 2182SOL     OW18007   2.852   2.343   7.554 -0.3314 -0.4926  0.8113
 2182SOL    HW118008   2.887   2.256   7.536 -0.7585 -0.6146  0.5556
 2182SOL    HW218009   2.807   2.334   7.639  1.3769  0.1411  1.7778
 2183SOL     OW18010   3.862   0.323   7.983 -0.6764 -0.2727 -0.0223
 2183SOL    HW118011   3.840   0.329   8.076  2.2240 -0.7144  0.6889
 2183SOL    HW218012   3.956   0.307   7.989 -0.6882 -0.0242  0.8109
 2184SOL     OW18013   2.430   1.762   6.783 -0.1939  0.6955 -0.7329
 2184SOL    HW118014   2.425   1.799   6.695  3.5135 -0.1096 -1.2950
 2184SOL    HW218015   2.371   1.688   6.776 -0.0093  0.3925  0.8482
 2185SOL     OW18016   3.264   0.366   6.351 -0.2816 -0.2418  0.2211
 2185SOL    HW118017   3.280   0.448   6.304 -0.2879 -0.4102 -0.0731
 2185SOL    HW218018   3.260   0.299   6.283  0.6142  1.7159 -1.7368
 2186SOL     OW18019   4.687   1.230   8.333 -0.0310 -0.5435  0.3791
 2186SOL    HW118020   0.050   1.230   8.290  0.0960 -0.4848  0.6315
 2186SOL    HW218021   4.687   1.320   8.364 -2.2506 -0.3259 -0.2722
 2187SOL     OW18022   1.204   2.527   1.609 -0.2871 -0.6291 -0.2025
 2187SOL    HW118023   1.181   2.436   1.625  0.6765 -1.1773 -1.8490
 2187SOL    HW218024   1.146   2.555   1.538  0.9314  1.6576 -0.3063
 2188SOL     OW18025   3.883   0.839   6.049 -0.0808  0.1827  0.6137
 2188SOL    HW118026   3.922   0.798   5.972 -1.5588 -0.1622  0.0591
 2188SOL    HW218027   3.792   0.857   6.028  0.0944 -0.2864 -0.5321
 2189SOL     OW18028   2.393   0.127  11.392  0.1035  0.3698 -0.0804
 2189SOL    HW118029   2.373   0.164  11.306  0.0035  0.9539  0.1943
 2189SOL    HW218030   2.417   0.041  11.358 -0.0447  0.1555  0.3522
 2190SOL     OW18031   0.157   3.615   7.610  0.0540 -0.6241 -0.1880
 2190SOL    HW118032   0.173   3.618   7.705 -2.2063 -0.6108  0.1841
 2190SOL    HW218033   0.212   3.691   7.589 -0.6930 -0.6021 -2.0339
 2191SOL     OW18034   0.652   0.827   4.773 -0.0690 -0.2617  0.5377
 2191SOL    HW118035   0.689   0.763   4.713 -1.1680 -0.7754  0.4093
 2191SOL    HW218036   0.731   0.828   4.827  0.8718 -0.4859 -0.8397
 2192SOL     OW18037   1.691   0.989  12.489  0.3705  0.0630 -0.0582
 2192SOL    HW118038   1.627   0.951  12.549  0.9716 -0.4932  0.2388
 2192SOL    HW218039   1.727   1.068  12.530 -2.1875  0.8381  0.6757
 2193SOL     OW18040   2.411   4.720  13.627 -0.1516  0.0400 -0.5525
 2193SOL    HW118041   2.431   4.659  13.698 -1.8861  0.6053  0.4234
 2193SOL    HW218042   2.468   0.073  13.643  0.5600 -0.8302  1.0926
 2194SOL     OW18043   1.721   1.325   4.012  0.6983  0.3480 -0.0443
 2194SOL    HW118044   1.672   1.389   3.961 -0.3677  0.6375  1.3380
 2194SOL    HW218045   1.676   1.244   3.989  1.0517  0.6055 -1.6718
 2195SOL     OW18046   4.485   4.510  12.626  0.0081 -0.5813 -0.0084
 2195SOL    HW118047   4.499   4.450  12.552 -1.1176  1.6980 -2.0826
 2195SOL    HW218048   4.405   4.476  12.666 -0.3775 -2.6250 -2.4945
 2196SOL     OW18049   2.299   1.634   3.792  0.2303 -0.2430  0.1444
 2196SOL    HW118050   2.272   1.552   3.833  1.2513 -0.8561 -0.4028
 2196SOL    HW218051   2.224   1.691   3.807 -0.3303  0.0152 -3.5961
 2197SOL     OW18052   4.432   4.457   7.415  0.2846  0.1896 -0.0716
 2197SOL    HW118053   4.338   4.444   7.417  0.2657  0.2905 -0.3301
 2197SOL    HW218054   4.432   4.551   7.398 -0.5029  0.2049  0.0299
 2198SOL     OW18055   2.380   0.915   8.653 -0.3187 -0.4694  0.6671
 2198SOL    HW118056   2.474   0.901   8.644 -0.1043  0.3917  1.5739
 2198SOL    HW218057   2.352   0.876   8.570 -1.8632 -2.0218  1.8977
 2199SOL     OW18058   3.107   0.077   7.484  0.3468  0.7070  0.0268
 2199SOL    HW118059   3.013   0.089   7.492  0.0013 -0.4968 -1.9794
 2199SOL    HW218060   3.108   4.714   7.526 -0.0719  0.5662 -0.2430
 2200SOL     OW18061   0.690   1.588  10.032  0.7687  0.1147  0.3842
 2200SOL    HW118062   0.742   1.638  10.094 -1.7081  3.0292  0.0941
 2200SOL    HW218063   0.745   1.577   9.954  1.1253 -1.2357  0.8242
 2201SOL     OW18064   2.088   2.158   8.268  0.1215  0.3716  0.5540
 2201SOL    HW118065   2.133   2.184   8.349  4.2701 -1.9867 -1.0212
 2201SOL    HW218066   2.138   2.205   8.202  0.9657 -3.3416 -1.4244
 2202SOL     OW18067   0.324   3.825   2.385 -0.0046 -0.3526  0.3116
 2202SOL    HW118068   0.410   3.793   2.358 -0.2796 -1.2516  0.5170
 2202SOL    HW218069   0.281   3.743   2.408  1.5010 -0.1145  3.9723
 2203SOL     OW18070   4.154   2.344   7.148 -0.4476  0.1326  0.0331
 2203SOL    HW118071   4.098   2.368   7.074  1.4161  0.1236 -1.4042
 2203SOL    HW218072   4.108   2.385   7.220 -0.7664 -0.0249 -0.0791
 2204SOL     OW18073   1.614   3.433   7.138  0.2673 -0.2035  0.3857
 2204SOL    HW118074   1.688   3.491   7.122  1.0737 -1.3515 -0.1023
 2204SOL    HW218075   1.563   3.489   7.196 -2.2686 -0.0651 -1.9926
 2205SOL     OW18076   1.323   2.571   5.782  0.0329  0.2218  0.8962
 2205SOL    HW118077   1.287   2.632   5.847 -1.4329 -1.4160  1.6304
 2205SOL    HW218078   1.246   2.521   5.755 -0.4182  1.6338 -0.4192
 2206SOL     OW18079   3.767   0.260  11.498  0.4049  0.4123 -0.0446
 2206SOL    HW118080   3.856   0.296  11.489  0.1435  1.1671  0.3376
 2206SOL    HW218081   3.723   0.342  11.476 -0.6012 -0.3861 -1.0193
 2207SOL     OW18082   2.679   4.377  14.336 -0.3520 -0.1618 -0.1069
 2207SOL    HW118083   2.754   4.419  14.294 -0.1955  0.0138  0.3500
 2207SOL    HW218084   2.613   4.446  14.345  0.7821  0.8724  0.2574
 2208SOL     OW18085   1.760   4.441   5.419  0.1430 -0.5565  0.3075
 2208SOL    HW118086   1.740   4.523   5.375 -0.7966  0.0855  1.9246
 2208SOL    HW218087   1.687   4.425   5.479 -0.4876  0.4084 -0.2130
 2209SOL     OW18088   4.178   2.270  10.089 -0.0275  0.5731  0.1680
 2209SOL    HW118089   4.216   2.243  10.173  1.5600  1.4735 -0.2778
 2209SOL    HW218090   4.256   2.251  10.037 -0.1947 -3.7470  1.4211
 2210SOL     OW18091   2.718   0.641   2.945 -0.3472  0.2935  0.2200
 2210SOL    HW118092   2.733   0.621   3.038  1.7554  0.5912 -0.0560
 2210SOL    HW218093   2.624   0.623   2.939  0.4090 -3.4796 -0.4901
 2211SOL     OW18094   3.782   1.745   3.295 -0.7301 -0.4577 -0.2876
 2211SOL    HW118095   3.806   1.737   3.203  0.6746  2.0375 -0.1443
 2211SOL    HW218096   3.836   1.817   3.328 -0.0933 -0.2666 -1.7192
 2212SOL     OW18097   3.653   3.276   6.341  0.2909 -0.2390 -0.2812
 2212SOL    HW118098   3.639   3.351   6.284  0.3357  0.5789  0.7756
 2212SOL    HW218099   3.597   3.300   6.415  1.6108  1.8022  0.0663
 2213SOL     OW18100   2.537   0.095  15.342  0.7720  0.4626  0.9657
 2213SOL    HW118101   2.476   0.091  15.269  1.1644  0.7738  0.6180
 2213SOL    HW218102   2.514   0.026  15.404 -0.7384  1.0691  1.0817
 2214SOL     OW18103   4.343   0.265   5.251 -0.3027  0.2065  0.5512
 2214SOL    HW118104   4.342   0.182   5.299 -0.8820  0.7334  1.4638
 2214SOL    HW218105   4.370   0.321   5.324 -0.9413  0.6205  0.4698
 2215SOL     OW18106   3.735   0.509   8.877  0.3144  0.0402  0.0979
 2215SOL    HW118107   3.750   0.495   8.784 -2.3721  0.6434 -0.4475
 2215SOL    HW218108   3.825   0.503   8.907  0.4295  1.0793 -0.0175
 2216SOL     OW18109   1.395   2.794  12.216 -0.7402 -0.2532 -0.2105
 2216SOL    HW118110   1.353   2.776  12.300 -0.8398  3.0790  0.4728
 2216SOL    HW218111   1.388   2.889  12.201 -4.2775 -0.8137 -1.9298
 2217SOL     OW18112   1.783   1.353   7.805 -0.0894  0.4224 -0.3534
 2217SOL    HW118113   1.741   1.395   7.730 -0.0119 -0.0845 -0.6813
 2217SOL    HW218114   1.709   1.296   7.826 -1.4246  2.6554  1.0216
 2218SOL     OW18115   2.781   3.170   4.024 -0.1324  0.1631  0.1449
 2218SOL    HW118116   2.759   3.154   3.932  0.0182 -0.4642  0.2143
 2218SOL    HW218117   2.847   3.239   4.017 -0.3864  0.2528 -1.4817
 2219SOL     OW18118   4.579   3.186   6.914 -0.4073  0.1815 -0.4826
 2219SOL    HW118119   4.586   3.235   6.832  1.4347 -0.0677 -0.4675
 2219SOL    HW218120   4.515   3.120   6.889 -0.3515  0.6331 -1.7908
 2220SOL     OW18121   1.038   1.491   8.316  0.0750 -0.3459  0.2314
 2220SOL    HW118122   0.980   1.489   8.393 -1.6632 -1.4112 -1.1095
 2220SOL    HW218123   1.055   1.584   8.299 -1.2550 -0.3252 -1.0680
 2221SOL     OW18124   1.689   2.182   7.432 -0.4355 -0.2452  0.2088
 2221SOL    HW118125   1.694   2.097   7.387  0.9356 -0.1074  0.1052
 2221SOL    HW218126   1.608   2.167   7.480 -1.2651 -0.2282 -1.1804
 2222SOL     OW18127   3.242   2.072   3.746 -0.3398 -0.4402 -0.2778
 2222SOL    HW118128   3.257   1.985   3.782 -0.9852  0.0135  1.0850
 2222SOL    HW218129   3.299   2.120   3.805 -0.8846 -0.2663  0.1062
 2223SOL     OW18130   4.574   3.038   4.927  0.4463  0.3372 -0.2507
 2223SOL    HW118131   4.662   3.000   4.930  0.1265 -0.1831  2.7235
 2223SOL    HW218132   4.580   3.085   4.844 -2.3479 -0.1848 -0.7642
 2224SOL     OW18133   0.208   2.801   0.799  0.7318  0.1919 -0.1575
 2224SOL    HW118134   0.116   2.818   0.780  0.2306 -2.0182  0.2729
 2224SOL    HW218135   0.237   2.732   0.738  0.9303  0.7779 -0.7276
 2225SOL     OW18136   2.842   3.248   9.933  1.0254  0.2947 -0.2647
 2225SOL    HW118137   2.902   3.254   9.858  1.0813 -2.9921 -0.5142
 2225SOL    HW218138   2.763   3.293   9.902 -0.4207 -1.5703  0.7380
 2226SOL     OW18139   3.960   4.138   6.477  0.3431  0.1351 -0.2389
 2226SOL    HW118140   3.981   4.171   6.390 -0.8073  0.7095 -0.3008
 2226SOL    HW218141   3.864   4.145   6.473  0.4433  0.3485 -2.0450
 2227SOL     OW18142   2.822   1.886   8.262 -0.4637 -0.8342 -0.2692
 2227SOL    HW118143   2.739   1.848   8.230 -1.0341 -0.7785  1.1686
 2227SOL    HW218144   2.824   1.861   8.354 -0.8441 -1.3255 -0.3876
 2228SOL     OW18145   0.042   3.422  13.159  0.6380  0.2024  0.1705
 2228SOL    HW118146   0.086   3.338  13.145 -0.4649 -0.5465  1.1748
 2228SOL    HW218147   0.100   3.475  13.105  1.5161  0.8344  1.7370
 2229SOL     OW18148   2.068   4.403   5.738  0.1061  0.7078  0.5655
 2229SOL    HW118149   2.023   4.328   5.700  0.1191  0.8163  0.3372
 2229SOL    HW218150   2.011   4.470   5.701 -0.3749 -0.5543 -0.9693
 2230SOL     OW18151   3.988   3.439   1.695  0.5665  0.0334 -0.3149
 2230SOL    HW118152   4.035   3.518   1.723 -0.6373  0.9131 -0.7409
 2230SOL    HW218153   3.911   3.441   1.752  1.6384  1.4418  1.0933
 2231SOL     OW18154   0.344   3.219   6.784  0.1632  0.3777 -0.1191
 2231SOL    HW118155   0.321   3.240   6.693  0.0885 -3.2157 -0.8997
 2231SOL    HW218156   0.302   3.297   6.822 -0.0742  0.9325 -1.5238
 2232SOL     OW18157   2.225   4.362   7.454  0.2340 -0.2888  0.5549
 2232SOL    HW118158   2.183   4.277   7.462 -0.1335 -0.0626  1.0836
 2232SOL    HW218159   2.236   4.380   7.361 -1.6326  1.1175  0.5994
 2233SOL     OW18160   1.095   1.712  15.232 -0.3995 -0.2500 -0.0062
 2233SOL    HW118161   1.136   1.757  15.159  1.6750 -0.9585  0.7355
 2233SOL    HW218162   1.172   1.684  15.281  0.8890 -0.1121 -1.9837
 2234SOL     OW18163   3.311   1.202   2.768  0.4038  0.0130  0.5275
 2234SOL    HW118164   3.220   1.231   2.779  0.4747  0.4737 -0.1113
 2234SOL    HW218165   3.344   1.274   2.715 -1.9898  0.6175 -0.1545
 2235SOL     OW18166   1.509   0.485   8.151 -0.2931  0.4216  0.5513
 2235SOL    HW118167   1.428   0.454   8.111 -0.7788  1.1366  0.9879
 2235SOL    HW218168   1.531   0.550   8.084  3.4278  0.3801  1.7614
 2236SOL     OW18169   1.570   3.942   5.923  0.0007 -0.3828  0.2385
 2236SOL    HW118170   1.656   3.979   5.941  0.0472 -0.7590  0.7969
 2236SOL    HW218171   1.588   3.890   5.845  1.0954 -0.5405  0.5969
 2237SOL     OW18172   1.565   1.337  16.935  0.0208  0.1183  0.1239
 2237SOL    HW118173   1.553   1.244  16.916 -0.4911  0.2176 -0.0658
 2237SOL    HW218174   1.478   1.366  16.965 -0.1608 -0.3974  0.0964
 2238SOL     OW18175   2.462   0.205   9.138  0.3204  1.1303 -0.3573
 2238SOL    HW118176   2.556   0.205   9.124  0.3530  1.1728 -0.1292
 2238SOL    HW218177   2.446   0.208   9.232  0.5719  1.1479 -0.3173
 2239SOL     OW18178   3.187   0.828  12.106 -0.1404  0.1920  1.5085
 2239SOL    HW118179   3.114   0.789  12.058  0.7141 -1.8091  1.8429
 2239SOL    HW218180   3.233   0.873  12.036  0.6368 -3.2441 -0.1945
 2240SOL     OW18181   0.374   2.622  15.322  0.7466 -0.1743 -0.1757
 2240SOL    HW118182   0.422   2.607  15.240  3.5828  0.5558  1.3529
 2240SOL    HW218183   0.389   2.539  15.366  0.1850 -1.1570 -1.8142
 2241SOL     OW18184   0.660   0.830   2.771 -0.5379 -0.2733  0.2103
 2241SOL    HW118185   0.645   0.737   2.753 -0.8020  0.2960 -2.4930
 2241SOL    HW218186   0.601   0.840   2.846 -2.5521  0.2540 -1.4420
 2242SOL     OW18187   3.335   3.504  13.507  0.0763 -0.0312 -0.1216
 2242SOL    HW118188   3.281   3.456  13.570  1.4141  0.6265  1.5644
 2242SOL    HW218189   3.407   3.521  13.569  1.3975 -1.7672 -1.1824
 2243SOL     OW18190   1.998   1.507   7.354  0.4677 -0.5414 -0.2363
 2243SOL    HW118191   1.914   1.495   7.310  0.9654 -2.4429 -0.6414
 2243SOL    HW218192   2.035   1.421   7.337 -0.2438 -0.6776 -1.1209
 2244SOL     OW18193   3.511   0.526  17.231  0.1973  0.1434  0.3959
 2244SOL    HW118194   3.604   0.543  17.245  0.4005  0.0290 -0.8221
 2244SOL    HW218195   3.489   0.573  17.151 -1.1472 -1.4640 -0.1842
 2245SOL     OW18196   3.961   2.109   6.883 -0.5136  0.5148 -0.9230
 2245SOL    HW118197   3.988   2.201   6.883  2.0156 -0.2243  0.0482
 2245SOL    HW218198   4.044   2.067   6.862 -0.9920 -1.4144  1.0192
 2246SOL     OW18199   1.201   3.566   2.981 -0.2851 -0.0768  0.1104
 2246SOL    HW118200   1.149   3.507   3.035 -1.0055  0.5773  0.1336
 2246SOL    HW218201   1.221   3.510   2.906  0.1633  1.2795 -0.7905
 2247SOL     OW18202   1.023   1.318  14.886 -0.3967  0.0053 -0.0158
 2247SOL    HW118203   0.929   1.322  14.866 -0.1475 -2.6210 -1.6168
 2247SOL    HW218204   1.027   1.397  14.940 -0.6902 -0.4263  0.6260
 2248SOL     OW18205   4.329   3.642  14.160 -0.5399  0.1901 -0.2141
 2248SOL    HW118206   4.328   3.554  14.121 -1.0334  0.3650 -0.5993
 2248SOL    HW218207   4.308   3.701  14.088  1.7531 -1.5551 -2.3338
 2249SOL     OW18208   0.320   4.039   3.666  0.2883  0.0082  0.1357
 2249SOL    HW118209   0.235   4.077   3.643  0.2276  1.7106  3.1784
 2249SOL    HW218210   0.365   4.036   3.582 -0.1097  1.9083 -0.1490
 2250SOL     OW18211   4.631   2.782   7.358 -0.4555  0.1305  0.6005
 2250SOL    HW118212   4.547   2.740   7.339 -0.8987  1.8304 -1.1979
 2250SOL    HW218213   4.618   2.825   7.442 -1.5164  1.1246 -0.0828
 2251SOL     OW18214   4.112   3.431   8.941 -0.0041  0.3049 -0.4511
 2251SOL    HW118215   4.196   3.412   8.899  1.3071  3.6814  0.5967
 2251SOL    HW218216   4.142   3.416   9.030 -1.3522  0.1438 -0.0217
 2252SOL     OW18217   1.677   1.128  13.957 -0.1875 -0.0873  0.3388
 2252SOL    HW118218   1.656   1.212  13.999  0.4064 -0.2053  0.8714
 2252SOL    HW218219   1.729   1.089  14.026 -0.2696 -1.5703 -0.4333
 2253SOL     OW18220   1.571   2.979   3.333  0.1427  0.4737  0.1868
 2253SOL    HW118221   1.659   3.012   3.352 -0.3561  2.0144 -0.2461
 2253SOL    HW218222   1.561   3.010   3.243  1.7189 -1.9695 -0.8294
 2254SOL     OW18223   4.542   0.011   6.607 -0.1220 -0.2525  0.0811
 2254SOL    HW118224   4.546   0.025   6.513  2.6528 -1.3921  0.0448
 2254SOL    HW218225   4.481   0.079   6.636 -1.7324 -1.9947  0.8037
 2255SOL     OW18226   1.166   2.784   4.159 -0.4044 -0.6063  0.3766
 2255SOL    HW118227   1.253   2.807   4.192 -0.1894 -0.8268 -0.0332
 2255SOL    HW218228   1.114   2.779   4.239 -0.5469  0.6513  0.3603
 2256SOL     OW18229   0.525   0.210   6.306  0.1292 -0.4571  0.4558
 2256SOL    HW118230   0.455   0.274   6.293  0.6184 -0.3008 -1.3726
 2256SOL    HW218231   0.497   0.188   6.395 -1.4633  1.4703  0.4305
 2257SOL     OW18232   0.248   3.665  10.152 -0.0507 -0.0570  0.3626
 2257SOL    HW118233   0.200   3.711  10.220  0.7042 -0.3396  1.0813
 2257SOL    HW218234   0.337   3.697  10.166  0.4951 -1.6474  0.4895
 2258SOL     OW18235   1.449   1.688   8.697 -0.3709 -0.1932 -0.3661
 2258SOL    HW118236   1.492   1.773   8.689 -1.0940  0.2909  0.8617
 2258SOL    HW218237   1.491   1.638   8.766 -0.8972  0.6258  0.5491
 2259SOL     OW18238   2.071   3.167   1.281 -0.4599 -0.6481 -0.2788
 2259SOL    HW118239   2.142   3.104   1.295 -0.2262 -0.0726  1.1779
 2259SOL    HW218240   2.008   3.109   1.323 -2.0188  0.9236 -0.4513
 2260SOL     OW18241   1.266   2.831   7.894  0.2003 -0.4493 -0.1652
 2260SOL    HW118242   1.262   2.762   7.960 -1.6857 -2.3063 -2.1930
 2260SOL    HW218243   1.348   2.877   7.914 -0.2554  0.7135 -0.9956
 2261SOL     OW18244   0.806   2.258   9.317 -0.2344 -0.8303 -0.6100
 2261SOL    HW118245   0.845   2.230   9.400  0.5627 -1.3469 -1.1580
 2261SOL    HW218246   0.727   2.203   9.325 -0.7697 -0.1985 -1.6151
 2262SOL     OW18247   3.110   0.194   9.166 -0.3483  0.4056 -0.1329
 2262SOL    HW118248   3.173   0.126   9.141 -1.4229 -1.2391  1.7156
 2262SOL    HW218249   3.093   0.236   9.081  1.4091  0.4474 -0.4771
 2263SOL     OW18250   1.042   3.602   1.338  0.6582 -0.0900 -0.2675
 2263SOL    HW118251   0.947   3.595   1.329  0.7687 -1.0968 -0.6811
 2263SOL    HW218252   1.050   3.508   1.357 -1.1985 -0.3933 -0.9507
 2264SOL     OW18253   4.632   2.473   3.235  0.1778 -0.2197 -0.1961
 2264SOL    HW118254   4.595   2.458   3.322  1.6560  2.6444  0.9200
 2264SOL    HW218255   4.615   2.565   3.215  2.9426  0.8122  2.2159
 2265SOL     OW18256   4.584   1.320  11.994  0.4871 -0.0592  0.2307
 2265SOL    HW118257   4.590   1.227  12.014  1.7972 -0.0838 -0.2492
 2265SOL    HW218258   4.606   1.372  12.072 -2.1440  1.6515 -0.1724
 2266SOL     OW18259   3.207   0.922   2.621 -0.4814  0.2567  0.2890
 2266SOL    HW118260   3.185   0.956   2.534  0.6536  0.7491  0.1891
 2266SOL    HW218261   3.285   0.974   2.641  0.0642 -0.7284  0.7103
 2267SOL     OW18262   4.112   0.179   5.640 -0.2908  0.1946 -0.3950
 2267SOL    HW118263   4.088   0.221   5.557 -0.0305  1.4329  0.1456
 2267SOL    HW218264   4.108   0.254   5.700  0.1298 -0.3147  0.2640
 2268SOL     OW18265   1.283   3.440   2.383  0.2658  0.2392  1.0729
 2268SOL    HW118266   1.301   3.462   2.292 -0.4997  0.5619  0.9965
 2268SOL    HW218267   1.340   3.366   2.403 -1.4164 -1.1021  0.8785
 2269SOL     OW18268   2.674   1.923  15.254 -0.6505 -0.1696 -0.0479
 2269SOL    HW118269   2.589   1.880  15.268 -1.0129  1.0001  1.3723
 2269SOL    HW218270   2.679   1.909  15.160  2.1439 -1.8308  0.3292
 2270SOL     OW18271   1.607   1.293   5.144 -0.6343 -0.3079 -0.2956
 2270SOL    HW118272   1.690   1.267   5.184 -0.9798 -0.1208  0.5356
 2270SOL    HW218273   1.544   1.294   5.217  1.5785 -1.9734  1.6297
 2271SOL     OW18274   3.679   0.470   0.907 -0.1568 -0.0085  0.0097
 2271SOL    HW118275   3.699   0.394   0.962 -3.3188  1.0665  2.5929
 2271SOL    HW218276   3.762   0.484   0.860  0.2444  3.4214  1.7442
 2272SOL     OW18277   3.700   3.169  17.614  0.0478 -0.7616 -0.2983
 2272SOL    HW118278   3.717   3.165  17.520  2.1241 -0.8628  0.0638
 2272SOL    HW218279   3.693   3.264  17.618  3.2585 -0.4461 -1.3870
 2273SOL     OW18280   0.449   4.303  11.225  0.0180  0.1603 -0.2187
 2273SOL    HW118281   0.373   4.362  11.228  0.1667  0.3060  0.6717
 2273SOL    HW218282   0.520   4.360  11.254  2.0277 -1.5363 -1.8374
 2274SOL     OW18283   2.992   2.951   3.623  0.2379 -0.0695  0.6065
 2274SOL    HW118284   2.958   2.864   3.643 -0.4543  0.3844  1.4148
 2274SOL    HW218285   2.918   2.989   3.577  1.7540  0.2588 -1.5468
 2275SOL     OW18286   3.803   3.854   6.216 -0.0825  0.2752 -0.3784
 2275SOL    HW118287   3.773   3.940   6.187  1.7866  0.9765 -0.2047
 2275SOL    HW218288   3.754   3.796   6.157  0.9610 -0.6197 -0.3607
 2276SOL     OW18289   1.715   3.593   7.448 -0.4166  0.0786 -0.3283
 2276SOL    HW118290   1.682   3.633   7.529  0.0467 -0.5979  0.1948
 2276SOL    HW218291   1.689   3.502   7.462 -2.1365  0.6849  0.4559
 2277SOL     OW18292   4.653   2.385  13.059 -0.0365 -0.5882  0.4733
 2277SOL    HW118293   0.018   2.373  13.023 -0.2868 -0.2162 -0.2561
 2277SOL    HW218294   4.618   2.300  13.035 -1.2052 -0.3189  1.2326
 2278SOL     OW18295   2.161   3.498   2.389 -0.2918  0.3142 -0.4200
 2278SOL    HW118296   2.222   3.571   2.376 -0.0303  0.2120  0.2265
 2278SOL    HW218297   2.211   3.427   2.351  0.8070  1.9706 -2.0563
 2279SOL     OW18298   0.910   0.886   4.889  0.0157 -0.6102  0.7071
 2279SOL    HW118299   0.916   0.856   4.979 -0.4026 -1.1356  0.5648
 2279SOL    HW218300   0.887   0.978   4.903 -1.0057 -0.6562 -0.6025
 2280SOL     OW18301   3.940   2.368  12.345  0.1265 -0.0323 -0.0409
 2280SOL    HW118302   4.015   2.417  12.379 -0.1884  0.7005 -0.4054
 2280SOL    HW218303   3.893   2.350  12.426 -3.0796 -0.2213 -1.9473
 2281SOL     OW18304   1.767   2.827   5.732 -0.2416 -0.2366 -0.6129
 2281SOL    HW118305   1.747   2.917   5.757  0.3403 -0.3195  0.1392
 2281SOL    HW218306   1.772   2.788   5.819 -1.1596  0.5863 -0.1887
 2282SOL     OW18307   0.580   2.404   9.751  0.5380  0.5935  0.4761
 2282SOL    HW118308   0.500   2.371   9.710  0.7786  0.4074  0.1457
 2282SOL    HW218309   0.587   2.349   9.829  0.2364  2.5750  1.8966
 2283SOL     OW18310   3.818   3.456  17.556  0.2604 -0.4518  0.0558
 2283SOL    HW118311   3.913   3.443  17.555  0.3547  0.2401  0.2797
 2283SOL    HW218312   3.795   3.451  17.463 -1.3546 -2.8986  0.5729
 2284SOL     OW18313   2.174   2.849   3.496 -0.4155 -0.0404  0.0277
 2284SOL    HW118314   2.220   2.800   3.427  0.2964  0.7088 -0.0315
 2284SOL    HW218315   2.103   2.785   3.503 -0.5052  0.0100 -0.4323
 2285SOL     OW18316   0.263   0.464  17.611 -0.1890  0.1939 -0.4305
 2285SOL    HW118317   0.209   0.501  17.541 -0.9334  0.3443  0.2359
 2285SOL    HW218318   0.278   0.375  17.579 -1.6832 -0.2561  0.1511
 2286SOL     OW18319   0.414   0.135  14.249  0.0947  0.3137 -0.2069
 2286SOL    HW118320   0.391   0.054  14.204  1.1424  1.3353 -2.5846
 2286SOL    HW218321   0.424   0.180  14.166  0.5912  1.6728  0.5958
 2287SOL     OW18322   2.166   4.102   7.200 -0.2611  0.0024  0.1820
 2287SOL    HW118323   2.183   4.163   7.129 -0.4357  0.4836  0.5533
 2287SOL    HW218324   2.074   4.077   7.188 -0.3538  1.3117 -1.7863
 2288SOL     OW18325   4.561   1.817   6.904  0.1990 -0.2480  0.2752
 2288SOL    HW118326   4.647   1.778   6.922  0.2327  0.0429  0.7466
 2288SOL    HW218327   4.512   1.794   6.982  0.3066  0.8290  0.6533
 2289SOL     OW18328   1.189   0.530   3.754 -0.4306 -0.0087 -0.2257
 2289SOL    HW118329   1.214   0.549   3.844 -2.6040 -0.9194  0.5605
 2289SOL    HW218330   1.130   0.456   3.766  0.3948 -1.0264 -2.4318
 2290SOL     OW18331   2.622   0.173   5.401 -0.2742  0.1983 -0.0357
 2290SOL    HW118332   2.555   0.122   5.355  0.9621 -0.2551 -1.3542
 2290SOL    HW218333   2.575   0.253   5.425  1.7760  1.5543 -0.4512
 2291SOL     OW18334   3.836   3.915   7.225  0.5735 -0.2677  0.1613
 2291SOL    HW118335   3.839   3.898   7.131  0.8801  0.8897 -0.0296
 2291SOL    HW218336   3.928   3.939   7.237  0.3043  1.1356 -0.7048
 2292SOL     OW18337   0.078   4.486  13.661  0.2240 -0.3860  0.4371
 2292SOL    HW118338   4.707   4.492  13.642  0.0284 -0.1854  1.4839
 2292SOL    HW218339   0.078   4.515  13.752  2.9570  2.2815 -0.4006
 2293SOL     OW18340   3.456   1.409   7.262  1.0216 -0.0024  0.0954
 2293SOL    HW118341   3.407   1.337   7.300  0.2163  1.0762  1.0765
 2293SOL    HW218342   3.384   1.458   7.223  2.6328  0.9399 -1.7253
 2294SOL     OW18343   0.025   1.665   1.772  0.2989  0.2442  0.0081
 2294SOL    HW118344   4.663   1.709   1.760  1.1073  1.8640  0.1975
 2294SOL    HW218345   0.080   1.727   1.725  1.6337 -0.5626  0.5318
 2295SOL     OW18346   1.681   1.052   9.359  0.4424  0.4039  0.1003
 2295SOL    HW118347   1.661   0.969   9.403  1.5684 -0.6349 -1.3331
 2295SOL    HW218348   1.708   1.108   9.433  0.9381  0.0278  0.2079
 2296SOL     OW18349   2.794   2.406  14.172  0.2305 -0.4541 -0.1717
 2296SOL    HW118350   2.884   2.424  14.145 -0.6956  2.1680 -1.5697
 2296SOL    HW218351   2.751   2.487  14.144 -0.6567 -1.2767 -1.1905
 2297SOL     OW18352   0.388   2.763   1.296  0.6756  0.4362 -0.0550
 2297SOL    HW118353   0.384   2.771   1.200 -0.4408  0.4084 -0.0046
 2297SOL    HW218354   0.471   2.715   1.293  0.2289 -0.2662 -1.3479
 2298SOL     OW18355   2.576   1.127   6.286  0.3273 -0.0519 -0.3528
 2298SOL    HW118356   2.586   1.121   6.191  1.3676 -2.5270 -0.1054
 2298SOL    HW218357   2.495   1.080   6.303  0.1494 -0.1369 -1.4147
 2299SOL     OW18358   3.377   3.741  16.033 -0.2870 -0.2190 -0.7288
 2299SOL    HW118359   3.294   3.706  16.066  0.6391 -1.6805  0.0807
 2299SOL    HW218360   3.359   3.831  16.008 -0.5883 -0.7045 -2.2752
 2300SOL     OW18361   3.636   3.790  15.086  0.1719  0.3338 -0.2152
 2300SOL    HW118362   3.652   3.800  15.180 -0.6688  1.0756 -0.1540
 2300SOL    HW218363   3.715   3.742  15.060 -0.2400 -0.1576 -0.5783
 2301SOL     OW18364   3.558   4.691   1.820  0.0446  0.7342  0.8208
 2301SOL    HW118365   3.517   0.011   1.744 -1.2385 -1.2888  0.3920
 2301SOL    HW218366   3.483   4.658   1.869  2.0119 -2.3960  1.6959
 2302SOL     OW18367   1.922   3.262   4.590 -0.2116 -0.1748 -0.1223
 2302SOL    HW118368   1.931   3.311   4.508  1.7808 -1.5411 -0.7075
 2302SOL    HW218369   1.893   3.328   4.653 -3.0934 -2.0844  0.5207
 2303SOL     OW18370   3.365   3.445   8.302  0.1035 -0.8520 -0.3050
 2303SOL    HW118371   3.436   3.508   8.293 -0.8864  0.3548  0.2764
 2303SOL    HW218372   3.292   3.507   8.301 -0.4853 -1.5742 -1.6305
 2304SOL     OW18373   0.290   2.716   4.769  0.0114 -0.2212 -0.1191
 2304SOL    HW118374   0.276   2.801   4.810  1.2099  0.5633 -1.3545
 2304SOL    HW218375   0.208   2.667   4.759 -0.7281  0.9465  0.3154
 2305SOL     OW18376   3.256   2.117   5.567  0.2040 -0.5690 -0.2634
 2305SOL    HW118377   3.168   2.154   5.568 -0.1397 -1.3196 -2.7190
 2305SOL    HW218378   3.241   2.028   5.598  0.1110 -0.6004 -0.3951
 2306SOL     OW18379   2.099   1.096  15.719 -0.2839 -0.2023 -0.6662
 2306SOL    HW118380   2.011   1.098  15.756 -0.7679  0.9925 -1.8738
 2306SOL    HW218381   2.145   1.034  15.776 -2.7052  0.3510  1.9004
 2307SOL     OW18382   3.819   3.237  10.496 -0.4723 -0.0363 -0.3070
 2307SOL    HW118383   3.835   3.152  10.454  1.8283  0.1600  0.1564
 2307SOL    HW218384   3.807   3.211  10.587 -0.4486  0.9608 -0.0244
 2308SOL     OW18385   1.421   2.431   2.156 -0.2467  0.6674 -0.0311
 2308SOL    HW118386   1.416   2.415   2.061 -0.7726  3.7613 -0.5444
 2308SOL    HW218387   1.338   2.476   2.173  0.3367  1.4092  0.8263
 2309SOL     OW18388   3.388   3.475   4.851 -0.0570 -0.8004  0.0239
 2309SOL    HW118389   3.428   3.433   4.927  3.0590 -0.9156 -1.6596
 2309SOL    HW218390   3.462   3.521   4.810 -0.3249 -1.0894 -0.7850
 2310SOL     OW18391   0.250   3.013  16.854  0.4561 -0.4529 -0.3079
 2310SOL    HW118392   0.202   2.962  16.790  1.7891 -1.4217 -0.5436
 2310SOL    HW218393   0.211   3.100  16.849 -1.2061 -1.2006 -0.1333
 2311SOL     OW18394   0.337   1.392   5.404 -0.3593 -0.4709  0.1224
 2311SOL    HW118395   0.343   1.326   5.334 -0.6129 -0.9948  0.5875
 2311SOL    HW218396   0.396   1.461   5.374 -0.4282 -0.2558  0.4808
 2312SOL     OW18397   3.259   3.595  16.898  0.2721 -0.2105  0.4317
 2312SOL    HW118398   3.223   3.577  16.811 -0.0016  0.5777  0.3854
 2312SOL    HW218399   3.179   3.605  16.951  1.3447  2.5996  1.5075
 2313SOL     OW18400   1.730   4.415  13.187 -0.4887 -0.2293 -0.0072
 2313SOL    HW118401   1.738   4.320  13.179 -1.6877 -0.4802  1.9389
 2313SOL    HW218402   1.824   4.432  13.175 -0.1088 -0.9234  2.0381
 2314SOL     OW18403   3.412   3.242   7.897  0.1682  0.2946 -0.2757
 2314SOL    HW118404   3.489   3.299   7.901 -0.6538  1.3732  0.4533
 2314SOL    HW218405   3.381   3.253   7.988 -0.3161  1.0306 -0.5291
 2315SOL     OW18406   3.507   3.350   4.344  0.0502  0.1838  0.1591
 2315SOL    HW118407   3.432   3.372   4.398  1.9719  3.3488  1.5506
 2315SOL    HW218408   3.468   3.325   4.260 -1.0242 -2.6956  1.5335
 2316SOL     OW18409   0.341   1.459   3.322  0.0467 -0.3098 -0.0879
 2316SOL    HW118410   0.297   1.544   3.317  1.5831  0.3110 -2.7602
 2316SOL    HW218411   0.271   1.397   3.300  0.9747 -1.4325  0.1176
 2317SOL     OW18412   3.517   0.107   1.518  0.2009  0.2987 -0.5145
 2317SOL    HW118413   3.426   0.117   1.544 -0.3957  1.0470 -2.8738
 2317SOL    HW218414   3.521   0.014   1.492  1.5411  0.1318  0.2683
 2318SOL     OW18415   2.451   0.341   2.222 -0.2901 -0.0146 -0.0178
 2318SOL    HW118416   2.524   0.339   2.284  0.1547 -0.0731 -0.5454
 2318SOL    HW218417   2.416   0.430   2.227  0.5800  0.4007 -1.3789
 2319SOL     OW18418   0.580   2.182   0.078 -0.1619 -0.4531  0.3506
 2319SOL    HW118419   0.555   2.272   0.061  1.0019  0.0073  1.0825
 2319SOL    HW218420   0.549   2.138  17.692 -0.9259 -1.4745  1.2177
 2320SOL     OW18421   0.578   3.686   2.371  0.3956  0.3696 -0.0511
 2320SOL    HW118422   0.656   3.717   2.326 -0.7708 -0.2872 -2.5295
 2320SOL    HW218423   0.551   3.613   2.315 -0.5014  1.0307 -0.5037
 2321SOL     OW18424   3.828   4.719   0.530  0.0304  0.0028  0.0042
 2321SOL    HW118425   3.853   4.628   0.547  0.1271 -0.1112 -0.7448
 2321SOL    HW218426   3.757   4.709   0.467  0.9708 -1.4778 -0.8448
 2322SOL     OW18427   1.432   3.734  13.302  0.3788 -0.0939 -0.1173
 2322SOL    HW118428   1.414   3.822  13.334  1.3298 -0.2652  0.8782
 2322SOL    HW218429   1.520   3.750  13.267 -0.2759  1.0710 -1.2287
 2323SOL     OW18430   3.407   1.317   5.564 -0.4271 -0.5049 -0.0743
 2323SOL    HW118431   3.449   1.231   5.557 -2.4793 -1.4762 -0.3677
 2323SOL    HW218432   3.396   1.339   5.471  0.3208  1.5708  0.3247
 2324SOL     OW18433   4.521   4.001   2.423  0.1346  0.7046 -0.2262
 2324SOL    HW118434   4.477   3.964   2.347 -0.1564 -0.2750  0.4238
 2324SOL    HW218435   4.453   3.983   2.488 -0.8154 -0.2190 -1.4863
 2325SOL     OW18436   0.129   2.295   1.779 -0.1221  0.0538 -0.2715
 2325SOL    HW118437   0.077   2.282   1.858 -0.1385  0.7139 -0.1746
 2325SOL    HW218438   0.091   2.229   1.721 -0.9781  0.2362  0.0797
 2326SOL     OW18439   1.248   0.183  15.180 -0.6362  0.3598  0.4342
 2326SOL    HW118440   1.273   0.271  15.208  2.2432  0.3003 -1.8677
 2326SOL    HW218441   1.239   0.191  15.085 -0.4389 -0.2965  0.3612
 2327SOL     OW18442   0.527   1.798   6.110 -0.0504  0.7818  0.2351
 2327SOL    HW118443   0.488   1.829   6.027 -1.1451  0.1962  0.5286
 2327SOL    HW218444   0.618   1.814   6.086 -0.1972  1.8282  0.3478
 2328SOL     OW18445   1.853   4.556  12.297  0.1615 -0.3540 -0.1593
 2328SOL    HW118446   1.872   4.558  12.390 -1.0198  0.5160  0.0640
 2328SOL    HW218447   1.936   4.573  12.253 -0.6519  0.3641 -1.4362
 2329SOL     OW18448   0.476   1.992   5.849  0.4196  0.9095 -0.1432
 2329SOL    HW118449   0.419   1.986   5.773 -0.1193  0.5050  0.2900
 2329SOL    HW218450   0.408   2.024   5.910 -1.3855  0.1137 -1.7463
 2330SOL     OW18451   3.499   1.184   1.935  0.0029  0.3666 -0.6437
 2330SOL    HW118452   3.526   1.147   1.851 -0.4658 -0.6313 -0.3577
 2330SOL    HW218453   3.510   1.275   1.910  4.4385  0.3179  1.2367
 2331SOL     OW18454   2.085   4.608   2.315 -0.2508 -0.0294  0.0328
 2331SOL    HW118455   2.154   4.588   2.252 -0.5159  2.1656 -0.9641
 2331SOL    HW218456   2.004   4.574   2.276 -0.6662  0.7199  0.2443
 2332SOL     OW18457   1.464   3.679   3.447 -0.7348 -1.1696 -0.4150
 2332SOL    HW118458   1.389   3.730   3.478  1.1882  1.8687 -0.7513
 2332SOL    HW218459   1.429   3.590   3.452 -0.7195 -1.1387  0.2951
 2333SOL     OW18460   3.692   3.874   1.377  0.1836  0.3904 -0.1879
 2333SOL    HW118461   3.712   3.967   1.385  0.5226  0.4906 -2.4045
 2333SOL    HW218462   3.754   3.841   1.312  0.3117 -1.3816  0.8216
 2334SOL     OW18463   2.160   1.212   3.075  0.4695  0.1907 -0.8363
 2334SOL    HW118464   2.125   1.224   2.987  1.7678  2.6006 -1.0310
 2334SOL    HW218465   2.111   1.281   3.121 -0.4781 -1.5232  0.7114
 2335SOL     OW18466   1.346   1.179   0.407 -0.0504  0.1639 -0.3851
 2335SOL    HW118467   1.429   1.214   0.440 -0.2628  1.6988 -1.4552
 2335SOL    HW218468   1.318   1.134   0.486 -0.1764  0.9978  0.0426
 2336SOL     OW18469   0.375   4.139   8.860  0.1911  0.1980 -0.1042
 2336SOL    HW118470   0.397   4.056   8.819  1.4180  0.0026  0.9345
 2336SOL    HW218471   0.382   4.192   8.781 -0.5371 -0.0677 -0.3476
 2337SOL     OW18472   0.696   0.747   5.559  0.0197 -0.2845 -0.0850
 2337SOL    HW118473   0.670   0.681   5.495  0.8356 -0.3041 -0.3898
 2337SOL    HW218474   0.631   0.732   5.629 -0.0178  1.1154  0.1803
 2338SOL     OW18475   1.789   4.489   3.637 -0.1853 -0.4815 -0.1133
 2338SOL    HW118476   1.747   4.558   3.689  0.5909  1.2200 -1.7611
 2338SOL    HW218477   1.726   4.478   3.565 -0.2555  0.5841 -0.2087
 2339SOL     OW18478   0.740   3.865  10.300  0.1530 -0.1441 -0.3582
 2339SOL    HW118479   0.774   3.935  10.356 -0.8046  0.0996 -0.0861
 2339SOL    HW218480   0.752   3.897  10.210 -3.3515 -0.8110 -1.0319
 2340SOL     OW18481   3.475   2.972   7.557  0.8717  0.3762 -0.4571
 2340SOL    HW118482   3.453   3.059   7.524 -0.5519 -0.3057 -1.3388
 2340SOL    HW218483   3.500   2.993   7.647 -1.7553  1.5209  0.0043
 2341SOL     OW18484   1.777   2.826   7.113  0.7286 -0.1956 -1.0541
 2341SOL    HW118485   1.724   2.755   7.149  0.0243  0.9929  0.2124
 2341SOL    HW218486   1.709   2.884   7.079  1.8333  3.0445  2.2465
 2342SOL     OW18487   3.204   4.119   7.063  0.1745  0.0524  0.0752
 2342SOL    HW118488   3.219   4.075   7.147 -1.3310 -1.5588 -0.5121
 2342SOL    HW218489   3.124   4.079   7.031 -0.2350  0.1326  1.0032
 2343SOL     OW18490   2.311   4.400  12.783 -0.7204 -0.3575 -0.0753
 2343SOL    HW118491   2.322   4.429  12.874 -0.5111  1.2239 -0.6157
 2343SOL    HW218492   2.304   4.305  12.798 -0.1234 -0.2045  1.1811
 2344SOL     OW18493   1.987   3.955  12.917  0.5349  0.2854 -0.0210
 2344SOL    HW118494   1.984   3.862  12.893 -0.1400  0.3936 -0.3451
 2344SOL    HW218495   1.960   3.953  13.009 -0.9363 -2.4933 -0.5047
 2345SOL     OW18496   2.953   2.789  13.423 -0.0086 -0.4471  1.0578
 2345SOL    HW118497   3.020   2.839  13.378 -3.1212  1.1071 -1.8527
 2345SOL    HW218498   2.949   2.848  13.499  0.4842 -0.2025  0.8909
 2346SOL     OW18499   4.692   2.264   1.503  0.3246 -0.4229 -0.0951
 2346SOL    HW118500   4.654   2.184   1.537 -0.1705 -1.4333 -3.0168
 2346SOL    HW218501   4.628   2.331   1.527 -0.2840 -0.9600 -0.2217
 2347SOL     OW18502   4.236   4.454   0.458  0.5088  0.2958  1.2066
 2347SOL    HW118503   4.215   4.370   0.417 -0.3108  0.0604  2.1134
 2347SOL    HW218504   4.196   4.524   0.407  2.3098 -0.6012 -1.4325
 2348SOL     OW18505   2.223   2.502   5.209 -0.0679 -0.1586  0.1518
 2348SOL    HW118506   2.140   2.547   5.222 -1.3023 -2.4536  0.2910
 2348SOL    HW218507   2.284   2.568   5.241 -1.5164  1.0566  0.3932
 2349SOL     OW18508   1.709   1.590   2.702  0.3889 -0.1184 -0.2313
 2349SOL    HW118509   1.651   1.514   2.690 -0.0129  0.1576 -0.0345
 2349SOL    HW218510   1.794   1.545   2.704  0.2827 -0.3022  0.2052
 2350SOL     OW18511   1.566   2.421   1.422 -0.7204 -0.0572  0.1199
 2350SOL    HW118512   1.528   2.337   1.448 -1.0777  0.6258  1.7689
 2350SOL    HW218513   1.657   2.399   1.443 -0.7572  1.1653  1.5947
 2351SOL     OW18514   1.368   3.123   1.245 -0.0343  0.3136 -0.3156
 2351SOL    HW118515   1.369   3.101   1.338  0.6832  0.0051 -0.3951
 2351SOL    HW218516   1.420   3.203   1.253  0.9921 -0.4903  0.9572
 2352SOL     OW18517   3.167   3.781   6.359 -0.6555 -0.3426 -0.6416
 2352SOL    HW118518   3.152   3.691   6.331  1.0525 -0.8345 -0.0051
 2352SOL    HW218519   3.079   3.806   6.385 -0.1568 -1.9898  2.6736
 2353SOL     OW18520   4.119   1.470   0.567 -0.2713 -0.1128 -0.1777
 2353SOL    HW118521   4.105   1.560   0.597  0.8060 -1.0460  3.1334
 2353SOL    HW218522   4.184   1.471   0.498  0.9871 -1.1824  0.9894
 2354SOL     OW18523   0.207   2.707  17.660 -0.2417  0.6871  0.8875
 2354SOL    HW118524   0.224   2.675   0.055  0.1941 -2.7369 -0.4031
 2354SOL    HW218525   0.274   2.774  17.653 -0.6441  0.8021 -2.1453
 2355SOL     OW18526   4.088   0.560  11.115 -0.0598  0.5991 -0.3221
 2355SOL    HW118527   4.082   0.559  11.020 -1.7798  0.5723 -0.2169
 2355SOL    HW218528   4.147   0.488  11.137 -0.0308  0.4078 -1.0233
 2356SOL     OW18529   4.613   0.742   5.294  0.4284  0.3021 -0.3085
 2356SOL    HW118530   4.550   0.747   5.222  1.0091  0.7963 -0.7866
 2356SOL    HW218531   4.579   0.664   5.338  1.2844 -1.3121 -2.4385
 2357SOL     OW18532   3.657   1.919  15.447  0.4087 -0.1444  0.0674
 2357SOL    HW118533   3.737   1.926  15.498  1.0899  0.8115 -1.1254
 2357SOL    HW218534   3.693   1.954  15.366 -0.5479 -3.0647 -1.6188
 2358SOL     OW18535   2.372   0.297  15.391 -0.1583 -0.2829  0.0609
 2358SOL    HW118536   2.428   0.226  15.422  1.5641  0.6277 -0.9821
 2358SOL    HW218537   2.344   0.265  15.305  3.5288 -1.9413 -0.5477
 2359SOL     OW18538   0.448   0.500   4.252 -0.0495  0.1388 -0.0195
 2359SOL    HW118539   0.403   0.490   4.168  1.9846  0.1867 -1.0980
 2359SOL    HW218540   0.536   0.522   4.223 -0.7044  1.8647 -0.6962
 2360SOL     OW18541   1.316   3.213   5.730 -0.4326  0.0958  0.2666
 2360SOL    HW118542   1.223   3.210   5.705  0.0681  0.5358 -1.6533
 2360SOL    HW218543   1.323   3.291   5.675  3.0082  0.1118  0.7448
 2361SOL     OW18544   4.037   2.433   6.044 -0.1486 -0.0295  0.1935
 2361SOL    HW118545   3.992   2.434   6.129 -1.9593 -2.3860 -0.7423
 2361SOL    HW218546   3.983   2.369   5.999 -0.8885 -0.6374  1.9282
 2362SOL     OW18547   3.598   4.230   0.517  0.1848  0.3083 -0.0092
 2362SOL    HW118548   3.633   4.149   0.555  2.2933  0.5569 -1.3636
 2362SOL    HW218549   3.521   4.197   0.472  1.7380 -0.5233 -2.0768
 2363SOL     OW18550   0.363   4.206   9.314  0.0103 -0.1696 -0.0706
 2363SOL    HW118551   0.372   4.155   9.394  1.7249  0.2923  0.0304
 2363SOL    HW218552   0.336   4.143   9.247 -0.5171 -0.4354  0.3972
 2364SOL     OW18553   2.772   3.369  10.169 -0.1156 -0.2308 -0.9502
 2364SOL    HW118554   2.795   3.324  10.088  1.8981  2.2269 -1.7254
 2364SOL    HW218555   2.679   3.391  10.160  0.0714  0.8995 -0.0804
 2365SOL     OW18556   3.294   1.415   5.857 -0.6470 -0.0696  0.7147
 2365SOL    HW118557   3.244   1.460   5.788  1.0397 -2.1586 -1.8630
 2365SOL    HW218558   3.227   1.350   5.879 -1.3623  0.3368 -0.2333
 2366SOL     OW18559   4.461   0.536   2.840 -0.1509 -0.2017 -0.4105
 2366SOL    HW118560   4.498   0.568   2.922 -0.3169 -0.0178 -0.4077
 2366SOL    HW218561   4.531   0.474   2.819 -2.2179 -2.4621 -0.7329
 2367SOL     OW18562   3.047   1.002   2.907  0.6331  0.2719  0.1678
 2367SOL    HW118563   3.090   0.936   2.853  1.5045  0.8822  0.1211
 2367SOL    HW218564   2.982   0.957   2.960 -0.5142  0.7275 -0.8632
 2368SOL     OW18565   2.973   4.000   0.157  0.3821  0.5480  0.2291
 2368SOL    HW118566   3.037   3.951   0.105 -0.0976  0.5006 -0.3155
 2368SOL    HW218567   2.904   4.030   0.098 -0.5180 -0.3107  0.8533
 2369SOL     OW18568   4.600   3.087   3.231 -0.0244 -0.1947 -0.5209
 2369SOL    HW118569   4.671   3.024   3.237 -0.7227 -0.9673 -0.4252
 2369SOL    HW218570   4.603   3.100   3.136 -2.2484 -0.3711 -0.6145
 2370SOL     OW18571   0.413   0.010   0.673  0.3700 -0.6105  0.8621
 2370SOL    HW118572   0.470   0.028   0.599 -0.4450 -1.6888 -0.0297
 2370SOL    HW218573   0.333   0.059   0.651  0.1510 -1.7738 -0.8860
 2371SOL     OW18574   4.572   1.092   7.904  0.5201 -0.1037 -0.3418
 2371SOL    HW118575   4.507   1.117   7.839  1.6961 -0.1501 -1.5236
 2371SOL    HW218576   4.583   1.174   7.953 -1.2639 -0.1657  0.1669
 2372SOL     OW18577   4.323   1.262  10.899  0.4381  0.0880  0.6899
 2372SOL    HW118578   4.318   1.319  10.822 -0.0117 -0.1811  0.5194
 2372SOL    HW218579   4.354   1.179  10.861 -0.6798 -1.2506  2.6757
 2373SOL     OW18580   0.733   4.505   5.450  0.2824 -0.1526  0.6169
 2373SOL    HW118581   0.827   4.488   5.456  0.8374  2.2850 -1.5028
 2373SOL    HW218582   0.707   4.413   5.455  1.9337 -0.5707  1.4371
 2374SOL     OW18583   0.718   2.060   5.991  0.2527  0.6568 -0.4004
 2374SOL    HW118584   0.646   2.081   5.932 -0.3490  0.0551  0.1216
 2374SOL    HW218585   0.693   2.094   6.077  0.0698  1.4269 -0.7523
 2375SOL     OW18586   3.284   2.031   8.986 -0.2577 -0.6575 -0.8496
 2375SOL    HW118587   3.260   1.949   9.030 -0.0007 -2.0869 -3.4037
 2375SOL    HW218588   3.345   2.068   9.050 -0.7783 -0.0609 -0.7069
 2376SOL     OW18589   1.051   0.328   1.140  0.2701  0.0665 -0.1182
 2376SOL    HW118590   1.007   0.333   1.224  1.5948 -0.2900  0.5863
 2376SOL    HW218591   1.050   0.422   1.123  0.0628 -0.0979 -1.0697
 2377SOL     OW18592   3.443   1.578   6.027 -0.9125  0.7730  0.1786
 2377SOL    HW118593   3.476   1.541   6.109 -2.4771  0.6816  0.7688
 2377SOL    HW218594   3.375   1.512   6.011  0.3503 -1.1238  2.5886
 2378SOL     OW18595   2.243   1.553   6.717 -0.0210 -0.0356  0.1808
 2378SOL    HW118596   2.161   1.602   6.727 -1.1756 -1.7998 -0.4733
 2378SOL    HW218597   2.232   1.498   6.639  1.9398  0.2696 -0.3037
 2379SOL     OW18598   2.504   3.340   5.500  0.1639  0.4548  0.3794
 2379SOL    HW118599   2.526   3.247   5.506  2.7448  1.0751  0.0982
 2379SOL    HW218600   2.455   3.347   5.582  0.3210 -0.3344  0.5487
 2380SOL     OW18601   0.668   4.695   3.917 -0.0480 -0.6844  0.0742
 2380SOL    HW118602   0.627   4.616   3.880  2.3180 -3.7627  3.9936
 2380SOL    HW218603   0.755   4.662   3.937  0.5496 -0.4461 -2.1835
 2381SOL     OW18604   2.577   2.940  14.658 -0.2373  0.6568  0.2054
 2381SOL    HW118605   2.636   2.876  14.698 -0.9690 -0.3747 -0.3696
 2381SOL    HW218606   2.580   2.911  14.567  0.5487  1.9966 -0.1987
 2382SOL     OW18607   0.656   3.331   1.104 -0.5683  0.1676  0.2109
 2382SOL    HW118608   0.697   3.245   1.103 -1.6059 -0.3416  1.8650
 2382SOL    HW218609   0.650   3.344   1.009 -0.2720  0.8373  0.2817
 2383SOL     OW18610   1.845   4.444   7.195 -0.0111  0.0315  0.3174
 2383SOL    HW118611   1.764   4.459   7.243  0.3623  2.3982  0.1986
 2383SOL    HW218612   1.821   4.462   7.105  1.2642 -2.2506 -0.4865
 2384SOL     OW18613   1.296   1.458  16.940 -0.0162 -0.1252  0.0102
 2384SOL    HW118614   1.249   1.476  17.021 -2.0209  1.6583 -1.5343
 2384SOL    HW218615   1.300   1.549  16.911 -1.4306  0.2598  1.0571
 2385SOL     OW18616   3.396   1.533   1.897  0.1562  0.8511  0.4930
 2385SOL    HW118617   3.409   1.536   1.802 -1.7509 -0.1992  0.1907
 2385SOL    HW218618   3.301   1.524   1.884 -0.0251 -1.3468  3.4262
 2386SOL     OW18619   0.470   4.019   2.898 -0.3505 -0.2216 -0.0274
 2386SOL    HW118620   0.564   4.004   2.894 -0.4286 -0.7073 -0.0030
 2386SOL    HW218621   0.449   4.064   2.816  0.0137 -0.1854 -0.1002
 2387SOL     OW18622   3.709   4.377  16.857 -0.0381 -0.5506  0.3832
 2387SOL    HW118623   3.679   4.287  16.873 -0.6563 -0.7137 -1.6461
 2387SOL    HW218624   3.748   4.375  16.769 -2.7927  0.3915 -0.8552
 2388SOL     OW18625   1.875   0.113   6.078 -0.0783  0.9439 -0.1970
 2388SOL    HW118626   1.799   0.055   6.080  0.3874  0.3977  1.5371
 2388SOL    HW218627   1.836   0.195   6.110  0.4849 -0.0380  3.0560
 2389SOL     OW18628   0.094   0.799  10.636 -0.0351  0.1855  0.3692
 2389SOL    HW118629   0.026   0.736  10.614 -1.0742  1.4869 -0.1462
 2389SOL    HW218630   0.045   0.857  10.694 -1.9967  0.6098 -1.7028
 2390SOL     OW18631   3.518   1.556  12.795  0.1824 -0.3398 -0.1539
 2390SOL    HW118632   3.478   1.639  12.771 -0.5856  0.1382  2.7830
 2390SOL    HW218633   3.485   1.556  12.885  0.6576  1.8191  0.0025
 2391SOL     OW18634   0.408   4.627   3.557 -0.6182 -0.0412  0.0415
 2391SOL    HW118635   0.312   4.635   3.556 -0.6563 -0.4724  0.2481
 2391SOL    HW218636   0.426   4.579   3.638 -0.3071  0.2562  0.1470
 2392SOL     OW18637   0.748   3.092   5.546  0.2798  0.1239  0.0882
 2392SOL    HW118638   0.755   3.167   5.487 -0.8568  2.1747  2.5836
 2392SOL    HW218639   0.667   3.114   5.591  1.6441  0.8822  2.1337
 2393SOL     OW18640   0.763   4.211  16.400 -0.1226  0.2146  0.2652
 2393SOL    HW118641   0.847   4.176  16.430 -0.0882 -0.0079 -0.0898
 2393SOL    HW218642   0.779   4.305  16.397 -0.5850  0.2885  0.0598
 2394SOL     OW18643   4.468   4.572  11.375 -0.5117  0.2996  0.2991
 2394SOL    HW118644   4.431   4.547  11.290  0.1742 -1.4416  0.5110
 2394SOL    HW218645   4.432   4.502  11.429  2.0949 -0.8226  0.6037
 2395SOL     OW18646   1.224   3.297   7.407  0.0310 -0.3299  0.1707
 2395SOL    HW118647   1.221   3.208   7.441  0.9709 -0.0191  1.0929
 2395SOL    HW218648   1.133   3.320   7.391  0.1627  0.9772  1.2328
 2396SOL     OW18649   0.136   1.759  15.675 -0.4727 -0.1357  0.1744
 2396SOL    HW118650   0.092   1.787  15.756 -1.1515  0.2360 -0.3305
 2396SOL    HW218651   0.097   1.832  15.627  0.4756  0.4918  0.3655
 2397SOL     OW18652   4.299   2.624   9.067  0.5311  0.7517  0.1525
 2397SOL    HW118653   4.342   2.702   9.029 -0.0152  0.8741 -0.2162
 2397SOL    HW218654   4.222   2.614   9.011 -1.2704 -0.5439  2.8807
 2398SOL     OW18655   2.242   2.900   3.042  0.1345 -0.4913 -0.3269
 2398SOL    HW118656   2.221   2.924   2.952 -0.9703 -1.6845 -0.3855
 2398SOL    HW218657   2.197   2.964   3.097  0.3404 -2.1034  1.7513
 2399SOL     OW18658   2.619   2.532   4.543 -0.4933  0.0366 -0.0159
 2399SOL    HW118659   2.685   2.501   4.606  1.8007  0.4687 -2.2333
 2399SOL    HW218660   2.642   2.480   4.466 -0.0781  1.0214 -0.5551
 2400SOL     OW18661   2.732   2.975   7.195  0.6332  0.5022  0.1690
 2400SOL    HW118662   2.707   2.935   7.278  1.1670 -1.8919 -0.8268
 2400SOL    HW218663   2.779   3.050   7.232  1.6264 -1.3529  2.6564
 2401SOL     OW18664   0.424   2.912  14.917 -0.5572 -0.2442 -0.1503
 2401SOL    HW118665   0.439   2.995  14.964 -0.7614  0.0232 -0.5588
 2401SOL    HW218666   0.504   2.864  14.937 -0.1716 -0.9837 -3.5769
 2402SOL     OW18667   0.574   1.169   7.466 -0.0580 -0.4988 -0.5995
 2402SOL    HW118668   0.537   1.086   7.437 -2.4291  0.8508 -1.4484
 2402SOL    HW218669   0.619   1.145   7.547  0.3084 -0.5440 -0.8186
 2403SOL     OW18670   3.916   2.467  10.281  0.3054 -0.1308 -0.0854
 2403SOL    HW118671   4.007   2.493  10.297 -0.0269  0.3313  1.0823
 2403SOL    HW218672   3.903   2.424  10.366  2.2004  0.6101  0.5732
 2404SOL     OW18673   4.533   2.960  13.114  0.5734 -0.0799  0.0850
 2404SOL    HW118674   4.539   2.964  13.018  1.1051 -0.9500  0.0805
 2404SOL    HW218675   4.454   2.906  13.110 -0.0615  1.0135 -2.6783
 2405SOL     OW18676   4.500   3.008   8.630  0.4287  0.3891 -0.1313
 2405SOL    HW118677   4.525   3.039   8.717 -1.6451  0.2331  0.5046
 2405SOL    HW218678   4.548   2.925   8.621 -0.3034  0.0432 -0.8537
 2406SOL     OW18679   2.893   0.984   0.406 -0.1341 -0.2117 -0.0519
 2406SOL    HW118680   2.888   0.916   0.473  2.1400  0.1266  0.4596
 2406SOL    HW218681   2.803   1.016   0.398 -0.1933  0.1368  2.0098
 2407SOL     OW18682   4.323   2.478  11.290 -0.0730 -0.7250  0.5914
 2407SOL    HW118683   4.327   2.558  11.237 -1.8961 -2.0899 -1.6217
 2407SOL    HW218684   4.363   2.422  11.222 -2.2180  0.2925 -1.5113
 2408SOL     OW18685   1.440   2.491  13.826  0.3479 -0.1109 -0.5806
 2408SOL    HW118686   1.527   2.508  13.863  1.0129 -0.0385 -2.1673
 2408SOL    HW218687   1.465   2.455  13.740 -0.9034  0.7714 -1.3114
 2409SOL     OW18688   0.167   0.306   1.300 -0.1252 -0.0033 -0.8914
 2409SOL    HW118689   0.107   0.232   1.308 -1.4485  1.4255  2.4932
 2409SOL    HW218690   0.146   0.338   1.212  1.3863 -0.8039 -1.5445
 2410SOL     OW18691   4.488   0.265   6.998 -0.0573 -0.6094 -0.1852
 2410SOL    HW118692   4.553   0.220   7.052 -1.4475 -0.9966  1.1595
 2410SOL    HW218693   4.432   0.321   7.051 -2.6457 -0.9071 -2.6339
 2411SOL     OW18694   0.769   3.209   3.957  0.1793 -0.3414 -0.2722
 2411SOL    HW118695   0.833   3.150   3.918  0.8307  0.0860  0.1573
 2411SOL    HW218696   0.692   3.183   3.906 -0.3534 -0.1298  0.4134
 2412SOL     OW18697   3.156   2.624  10.518 -1.1758 -0.2500  0.2581
 2412SOL    HW118698   3.210   2.668  10.453  0.4076 -0.2343  1.5927
 2412SOL    HW218699   3.214   2.608  10.592 -1.7273  3.1564  1.4129
 2413SOL     OW18700   3.546   0.586   0.120 -0.2604  0.0970  0.0901
 2413SOL    HW118701   3.490   0.550   0.189  0.5211 -4.1628 -1.5281
 2413SOL    HW218702   3.523   0.530   0.046 -1.3998 -0.9546  1.2366
 2414SOL     OW18703   2.984   0.766   5.966  0.7758  0.1924 -0.0915
 2414SOL    HW118704   2.993   0.699   6.033  1.7667 -0.0669 -0.4880
 2414SOL    HW218705   3.014   0.852   5.997  0.7662  1.2434 -2.9765
 2415SOL     OW18706   3.356   4.441  12.373 -0.5544 -0.3564  0.2033
 2415SOL    HW118707   3.337   4.527  12.410 -0.7474 -0.8740  1.3251
 2415SOL    HW218708   3.396   4.400  12.450 -0.1456 -0.3611 -0.0125
 2416SOL     OW18709   0.056   3.836  12.348  0.4875  0.6204 -0.6925
 2416SOL    HW118710   0.119   3.893  12.393 -0.2742  1.4890 -0.7470
 2416SOL    HW218711   0.118   3.766  12.325  0.2809  0.3719 -0.4963
 2417SOL     OW18712   4.682   3.515   8.633  0.3073 -1.4267 -0.0432
 2417SOL    HW118713   0.016   3.472   8.569 -0.8267 -0.0561 -1.9982
 2417SOL    HW218714   0.018   3.540   8.704 -1.7414  3.4699 -0.0447
 2418SOL     OW18715   2.195   4.068   7.856 -0.2027  0.6020  0.4119
 2418SOL    HW118716   2.266   4.091   7.796 -1.1193  1.1485 -0.4615
 2418SOL    HW218717   2.164   3.982   7.825 -1.0269  1.1451 -0.2791
 2419SOL     OW18718   4.245   3.225  12.231  0.0602  0.0636 -0.8294
 2419SOL    HW118719   4.151   3.213  12.214 -0.2789 -0.8817  1.7123
 2419SOL    HW218720   4.285   3.160  12.173  1.8762 -0.3146  0.8484
 2420SOL     OW18721   3.100   3.814   2.848  0.4245 -0.3491  0.4524
 2420SOL    HW118722   3.058   3.728   2.836  0.5133  0.0660 -2.6473
 2420SOL    HW218723   3.137   3.789   2.933 -1.2862  0.7148  1.5134
 2421SOL     OW18724   3.553   1.369   9.267 -0.2089 -0.7847 -0.0788
 2421SOL    HW118725   3.599   1.310   9.327  0.0195  0.2328  0.7606
 2421SOL    HW218726   3.466   1.376   9.307 -0.3325 -1.9700 -0.1472
 2422SOL     OW18727   3.290   0.905  11.872  0.3708  0.2200 -0.0685
 2422SOL    HW118728   3.296   0.843  11.799  0.4468  0.6241 -0.4047
 2422SOL    HW218729   3.331   0.983  11.835 -0.7300 -0.0428 -1.8616
 2423SOL     OW18730   0.225   1.943   4.456 -0.0581  0.3564  0.4631
 2423SOL    HW118731   0.261   2.024   4.493  0.7319  1.2915 -2.2980
 2423SOL    HW218732   0.134   1.957   4.482  0.0560 -0.0483  1.0679
 2424SOL     OW18733   1.206   1.335   7.132  0.6997 -0.3335 -0.3371
 2424SOL    HW118734   1.216   1.350   7.038  2.2925  1.3892  0.0987
 2424SOL    HW218735   1.298   1.317   7.151  0.8518  1.4911  0.6962
 2425SOL     OW18736   1.609   2.978  12.425  0.2203 -0.4339 -0.8736
 2425SOL    HW118737   1.587   3.019  12.341 -2.0293 -0.4843 -0.3039
 2425SOL    HW218738   1.591   3.045  12.491 -1.1130 -3.1174  1.4700
 2426SOL     OW18739   0.318   0.518   0.965  0.3432  0.5917  0.2156
 2426SOL    HW118740   0.383   0.465   1.012  0.2290 -0.8480 -1.2635
 2426SOL    HW218741   0.233   0.481   0.986  0.0173  1.4778  0.4515
 2427SOL     OW18742   4.239   3.796   9.090  0.2624 -0.2427 -0.4711
 2427SOL    HW118743   4.291   3.741   9.031  1.7367  0.4210  0.2010
 2427SOL    HW218744   4.274   3.880   9.062 -0.5598  0.1269 -0.3767
 2428SOL     OW18745   3.634   1.807   7.451 -0.0075  0.3599 -0.8981
 2428SOL    HW118746   3.627   1.897   7.482  1.9180  0.5344 -0.9965
 2428SOL    HW218747   3.665   1.764   7.530  0.3008  2.1930 -0.0540
 2429SOL     OW18748   3.031   0.635   6.736 -0.1921 -0.0944  0.2653
 2429SOL    HW118749   3.048   0.726   6.712 -2.2709  0.0216 -0.7252
 2429SOL    HW218750   3.125   0.619   6.745 -0.3562 -0.3041  1.5629
 2430SOL     OW18751   4.353   3.387  12.962  0.4892 -0.4391 -0.2273
 2430SOL    HW118752   4.306   3.312  12.926  0.6592 -0.9125  0.5390
 2430SOL    HW218753   4.409   3.352  13.031  0.2027 -0.6946 -0.1290
 2431SOL     OW18754   0.031   1.374   5.279 -0.5584  0.1547 -0.2711
 2431SOL    HW118755   0.067   1.449   5.326  0.6404 -1.4725  1.4215
 2431SOL    HW218756   4.664   1.394   5.253 -1.4394  0.5927  3.0891
 2432SOL     OW18757   2.759   0.204   6.561  0.5585  0.1365 -0.3163
 2432SOL    HW118758   2.824   0.217   6.630  0.5418  1.3054 -0.5166
 2432SOL    HW218759   2.759   0.110   6.546 -0.2280  0.1572 -0.4112
 2433SOL     OW18760   3.717   2.972   5.370  0.0701 -0.7913 -0.6530
 2433SOL    HW118761   3.781   3.038   5.396  0.3358 -1.2551 -0.1379
 2433SOL    HW218762   3.750   2.899   5.422 -1.2027 -0.6430  0.3443
 2434SOL     OW18763   0.486   2.633   5.425 -0.0947  0.0497 -0.5206
 2434SOL    HW118764   0.495   2.724   5.451  2.4606  0.2653 -2.1503
 2434SOL    HW218765   0.392   2.630   5.408 -0.5840  4.1351  1.4958
 2435SOL     OW18766   3.902   0.806   9.411  0.1435 -0.5066 -0.2261
 2435SOL    HW118767   3.929   0.780   9.323 -1.6658  4.3039 -2.1864
 2435SOL    HW218768   3.992   0.814   9.444 -0.2837  1.7456  0.3942
 2436SOL     OW18769   0.255   4.352   4.911  0.0050 -0.8548  0.2873
 2436SOL    HW118770   0.228   4.430   4.960 -0.5120  0.0757 -1.4638
 2436SOL    HW218771   0.234   4.381   4.822 -0.6866 -2.0599  0.0605
 2437SOL     OW18772   0.983   4.158   2.894 -0.4562  0.2131  0.4899
 2437SOL    HW118773   0.890   4.176   2.909 -0.8844 -1.1403 -0.5682
 2437SOL    HW218774   0.991   4.155   2.798 -0.8002 -0.4129  0.4809
 2438SOL     OW18775   4.045   3.760   3.228 -0.2459  0.0517 -0.3239
 2438SOL    HW118776   4.058   3.826   3.297 -0.2410 -0.1570 -0.1244
 2438SOL    HW218777   4.049   3.812   3.148 -0.4320 -0.8424 -0.9012
 2439SOL     OW18778   3.091   3.010   9.165 -0.0669 -0.1048 -0.2777
 2439SOL    HW118779   3.115   3.066   9.091  0.1859 -0.6587 -0.6149
 2439SOL    HW218780   3.063   3.078   9.226 -1.4814 -2.1815  1.4059
 2440SOL     OW18781   0.128   3.924   2.216  0.1236 -0.0896  0.0790
 2440SOL    HW118782   0.135   3.845   2.163  1.0988  0.7445 -1.0325
 2440SOL    HW218783   0.188   3.901   2.288  1.3338  2.1846 -0.1818
 2441SOL     OW18784   3.470   0.488   0.384 -0.1022 -0.3791  0.0365
 2441SOL    HW118785   3.385   0.477   0.426  0.0131  0.7467  0.5771
 2441SOL    HW218786   3.533   0.458   0.450 -2.6875 -1.4363  2.0315
 2442SOL     OW18787   3.942   0.013   3.977 -0.2893  0.0368  0.4702
 2442SOL    HW118788   3.912   0.069   3.905 -0.0926 -1.6649 -0.9221
 2442SOL    HW218789   3.879   4.664   3.978  0.0488 -0.2801 -0.6166
 2443SOL     OW18790   4.354   4.107   7.027 -0.7118 -0.3268  0.2273
 2443SOL    HW118791   4.399   4.028   6.996  2.6928  2.6047 -2.3596
 2443SOL    HW218792   4.326   4.147   6.945  2.3959  2.8979  0.7010
 2444SOL     OW18793   3.786   3.274  17.086  0.1676  0.4008  0.2281
 2444SOL    HW118794   3.875   3.266  17.054 -0.0525  0.4269 -0.3939
 2444SOL    HW218795   3.796   3.357  17.132 -1.5100 -0.0330  1.4014
 2445SOL     OW18796   1.407   0.132   3.795  0.6532 -0.5015 -0.3642
 2445SOL    HW118797   1.445   0.086   3.721 -0.1110 -0.1344 -0.9981
 2445SOL    HW218798   1.326   0.082   3.806  0.2561  0.4886  1.3649
 2446SOL     OW18799   4.186   3.754  11.708  0.0891  0.6009  0.1622
 2446SOL    HW118800   4.245   3.713  11.771 -1.4717 -1.2047  0.4492
 2446SOL    HW218801   4.141   3.675  11.679 -1.4187  1.9917 -1.2445
 2447SOL     OW18802   4.706   1.007   3.540 -0.1927 -0.4160 -0.1514
 2447SOL    HW118803   0.032   1.090   3.542 -0.1746 -0.4282 -0.0481
 2447SOL    HW218804   4.653   1.009   3.620 -0.6951  0.9654 -0.5156
 2448SOL     OW18805   3.698   1.985   7.234  0.1784 -0.0510 -0.0789
 2448SOL    HW118806   3.606   2.011   7.226  0.2759  0.3788  0.2520
 2448SOL    HW218807   3.694   1.921   7.305  0.0553  0.8346  0.7095
 2449SOL     OW18808   0.050   1.446   3.876 -0.1216 -0.1583  0.7059
 2449SOL    HW118809   0.139   1.448   3.912 -0.2235  0.1511  0.9372
 2449SOL    HW218810   0.060   1.457   3.782  0.9588 -3.3279  0.4313
 2450SOL     OW18811   3.354   0.747   0.332 -0.9216 -0.1405 -0.4578
 2450SOL    HW118812   3.393   0.668   0.369 -2.5950 -1.1354 -0.7930
 2450SOL    HW218813   3.328   0.796   0.411 -1.3852 -0.7498 -0.2227
 2451SOL     OW18814   3.415   2.212  13.734  0.3138  0.0824 -0.7167
 2451SOL    HW118815   3.442   2.243  13.647  0.4036  2.2459  0.0822
 2451SOL    HW218816   3.364   2.136  13.706  1.9100 -1.0666 -0.5554
 2452SOL     OW18817   4.104   2.635   8.595 -0.4130  0.4383 -0.1750
 2452SOL    HW118818   4.192   2.644   8.558  0.3225  0.0445  1.5255
 2452SOL    HW218819   4.049   2.691   8.539 -1.5642 -0.1318  0.3954
 2453SOL     OW18820   2.689   3.749  12.958 -0.1177  0.4661  0.0911
 2453SOL    HW118821   2.658   3.760  12.868 -1.1441 -1.1917  0.2356
 2453SOL    HW218822   2.752   3.678  12.948 -0.2195  0.5039 -0.8408
 2454SOL     OW18823   4.695   3.989   8.727 -0.4450 -0.1913 -0.1187
 2454SOL    HW118824   4.667   4.073   8.764  1.1498 -0.9122  2.7046
 2454SOL    HW218825   4.670   4.002   8.636 -1.1791  0.4042  0.1632
 2455SOL     OW18826   4.210   2.309   3.982 -0.0840  0.3519 -0.0273
 2455SOL    HW118827   4.295   2.276   3.951  0.4990 -0.2965  2.2888
 2455SOL    HW218828   4.157   2.240   4.020 -2.3895  1.8481 -0.5111
 2456SOL     OW18829   2.069   3.125   9.098  0.3209 -0.8242 -0.1703
 2456SOL    HW118830   1.992   3.091   9.142  0.8101 -0.9902  0.5518
 2456SOL    HW218831   2.033   3.139   9.011  1.1928  0.8764 -0.2620
 2457SOL     OW18832   1.723   4.049   2.347  0.1566  0.0794  0.9347
 2457SOL    HW118833   1.788   4.118   2.347 -0.2295  0.4298  2.2412
 2457SOL    HW218834   1.769   3.969   2.370  1.9042  0.9324  0.3625
 2458SOL     OW18835   3.903   1.523   9.644 -0.0989 -0.5720 -0.7214
 2458SOL    HW118836   3.905   1.478   9.728 -0.5159  0.7261 -0.0190
 2458SOL    HW218837   3.819   1.568   9.654 -0.1586 -0.9723  0.5532
 2459SOL     OW18838   2.005   3.605   5.828  0.0523  0.6339  1.1852
 2459SOL    HW118839   2.012   3.684   5.775  1.2617 -0.3091 -0.0898
 2459SOL    HW218840   1.915   3.583   5.804  0.1312  1.0383  0.5315
 2460SOL     OW18841   4.389   1.372  17.615 -0.4193  0.1432 -0.5297
 2460SOL    HW118842   4.459   1.393  17.676 -0.9718 -1.0630  0.5352
 2460SOL    HW218843   4.412   1.424  17.539  1.0047 -1.3132 -1.0957
 2461SOL     OW18844   4.557   1.543   4.971  0.4718 -0.2014 -0.3196
 2461SOL    HW118845   4.543   1.509   5.060 -1.9905  1.7141  0.0098
 2461SOL    HW218846   4.512   1.627   4.976  0.5259 -0.1041 -1.7489
 2462SOL     OW18847   0.860   2.284   7.240  0.1824  0.0117 -0.4477
 2462SOL    HW118848   0.942   2.331   7.258  0.3599 -1.4085  2.3188
 2462SOL    HW218849   0.809   2.354   7.199  0.9489  0.5725 -0.4454
 2463SOL     OW18850   3.681   3.705   6.012 -0.2542  0.0036  0.1581
 2463SOL    HW118851   3.645   3.705   5.923  2.3598  0.4432 -0.9078
 2463SOL    HW218852   3.767   3.743   5.995 -0.3042 -0.1873 -0.5270
 2464SOL     OW18853   0.927   1.405  12.335 -0.1083  0.0264 -0.3130
 2464SOL    HW118854   0.933   1.418  12.240  0.3325 -0.0706 -0.2990
 2464SOL    HW218855   0.905   1.313  12.345 -0.7530 -0.0479 -2.3383
 2465SOL     OW18856   1.506   3.609  16.310 -0.5321 -0.4572 -0.1544
 2465SOL    HW118857   1.516   3.518  16.280  0.5370  0.1239 -1.5484
 2465SOL    HW218858   1.420   3.605  16.352  0.0163  0.2991  1.0433
 2466SOL     OW18859   3.180   4.163  12.163  0.3528 -0.6388 -0.1800
 2466SOL    HW118860   3.154   4.074  12.140 -0.8968 -0.6641  1.3423
 2466SOL    HW218861   3.094   4.195  12.189  0.5665 -0.4512  0.2916
 2467SOL     OW18862   3.048   2.878   7.932  0.5542  0.3549 -0.0431
 2467SOL    HW118863   2.960   2.912   7.946  0.8605  0.6389  1.2193
 2467SOL    HW218864   3.036   2.835   7.847 -0.7603  1.1641 -0.2690
 2468SOL     OW18865   1.092   0.286   3.747 -0.5503 -0.0652 -0.4197
 2468SOL    HW118866   1.123   0.196   3.752 -1.2537 -0.2970 -0.3024
 2468SOL    HW218867   1.012   0.279   3.799 -0.6471  1.1990 -0.4063
 2469SOL     OW18868   0.048   2.255   6.248 -0.4507  0.0183  0.1624
 2469SOL    HW118869   4.716   2.255   6.169 -0.3859 -3.8795  0.1179
 2469SOL    HW218870   4.712   2.288   6.317  0.2465 -0.2504  0.8881
 2470SOL     OW18871   2.324   4.674  12.928 -0.9403 -0.4830 -0.3931
 2470SOL    HW118872   2.367   4.683  12.843  0.6200  0.5409  0.5011
 2470SOL    HW218873   2.351   0.032  12.972 -0.7857 -1.5491  1.4543
 2471SOL     OW18874   0.158   1.458   0.247  0.1843 -0.4353 -0.2839
 2471SOL    HW118875   0.209   1.529   0.209 -0.2981 -1.5540 -2.9907
 2471SOL    HW218876   0.073   1.503   0.254  1.3134  1.6105  0.2628
 2472SOL     OW18877   3.092   0.656  10.539  0.3188 -0.0471  0.3119
 2472SOL    HW118878   3.111   0.741  10.579  1.5272  0.2879 -0.9952
 2472SOL    HW218879   3.179   0.627  10.511 -0.1188 -0.6039 -0.4682
 2473SOL     OW18880   0.955   4.296   9.277 -0.3443  0.4915 -0.0514
 2473SOL    HW118881   0.923   4.296   9.367  0.1480  1.5487  0.1244
 2473SOL    HW218882   0.923   4.209   9.251  0.0112  1.4899 -3.8605
 2474SOL     OW18883   0.631   4.046   3.821  0.6262 -0.4766 -0.6115
 2474SOL    HW118884   0.669   3.968   3.780 -0.1526 -0.5691 -1.1579
 2474SOL    HW218885   0.582   4.077   3.745  1.0098 -0.4320 -0.8394
 2475SOL     OW18886   3.764   2.698  10.309 -0.1487 -0.2318 -0.0316
 2475SOL    HW118887   3.784   2.607  10.331  1.4613  0.5291  1.6756
 2475SOL    HW218888   3.695   2.693  10.243 -0.2939  0.6618  0.0589
 2476SOL     OW18889   4.049   0.479   5.798  0.4866  0.3545  0.2856
 2476SOL    HW118890   4.143   0.463   5.796  0.4437  0.3448 -1.3421
 2476SOL    HW218891   4.023   0.397   5.841 -1.2558 -0.2451 -1.8778
 2477SOL     OW18892   0.759   0.210   5.751 -0.3904 -0.1678 -0.0436
 2477SOL    HW118893   0.807   0.253   5.680 -0.5531  0.8278  0.4590
 2477SOL    HW218894   0.772   0.119   5.725  0.3140  0.8205 -3.1513
 2478SOL     OW18895   3.421   1.661   4.394 -0.1712  0.0156  0.5313
 2478SOL    HW118896   3.483   1.703   4.334 -2.3085  0.7216 -1.1784
 2478SOL    HW218897   3.426   1.723   4.467 -1.5041 -0.2731  0.8670
 2479SOL     OW18898   4.206   1.751   0.532 -0.4053 -0.1415 -0.5709
 2479SOL    HW118899   4.223   1.760   0.626 -0.8118 -0.6904 -0.4489
 2479SOL    HW218900   4.137   1.817   0.528 -1.1504 -0.9533 -1.0340
 2480SOL     OW18901   2.407   0.120   6.713  0.0975 -0.2297 -0.1442
 2480SOL    HW118902   2.466   0.057   6.671 -1.4773 -1.8532  0.0580
 2480SOL    HW218903   2.431   0.116   6.806  0.7064  1.8879 -0.1960
 2481SOL     OW18904   0.562   2.106   7.785 -0.2352  0.3314  0.1801
 2481SOL    HW118905   0.487   2.145   7.742 -0.0199 -1.0634 -1.4454
 2481SOL    HW218906   0.609   2.062   7.714 -0.1423  1.3204 -0.3673
 2482SOL     OW18907   0.886   4.625   0.244  0.2002 -0.1899 -0.4795
 2482SOL    HW118908   0.857   4.546   0.289 -0.6072 -0.2878 -1.1709
 2482SOL    HW218909   0.966   4.639   0.294  0.2456  0.1094 -0.6339
 2483SOL     OW18910   0.632   1.989   0.282 -0.5241 -0.3805  0.4402
 2483SOL    HW118911   0.588   1.999   0.366 -0.3549  1.2340  0.3391
 2483SOL    HW218912   0.590   2.063   0.238  1.8343  0.6600 -0.0810
 2484SOL     OW18913   3.065   0.089   9.419 -0.3629  0.2467 -0.0916
 2484SOL    HW118914   2.982   0.042   9.409 -0.1219  0.0054 -0.9638
 2484SOL    HW218915   3.058   0.144   9.340  3.6377  1.9134  0.7032
 2485SOL     OW18916   3.524   0.689   7.145  0.1031  0.4998 -0.6408
 2485SOL    HW118917   3.599   0.672   7.201  0.1983  1.3195 -0.5135
 2485SOL    HW218918   3.463   0.618   7.165  1.1574 -0.7567 -1.8613
 2486SOL     OW18919   4.333   3.724  14.945  0.7264  0.5167  0.4965
 2486SOL    HW118920   4.375   3.645  14.978  0.3922  0.2029  0.1869
 2486SOL    HW218921   4.327   3.768  15.029  0.5375 -0.2929  0.9016
 2487SOL     OW18922   3.579   0.747  16.772 -0.1766 -0.0868 -0.2763
 2487SOL    HW118923   3.535   0.681  16.718 -0.0764  1.6608 -2.5126
 2487SOL    HW218924   3.502   0.785  16.812 -1.2484 -2.2780 -0.2731
 2488SOL     OW18925   4.450   2.951   2.451  0.2520  0.0867 -0.8566
 2488SOL    HW118926   4.497   3.017   2.501  1.2957  0.4818 -2.3753
 2488SOL    HW218927   4.359   2.980   2.441  0.7397  2.1460  0.6934
 2489SOL     OW18928   2.237   3.364   7.161  0.0069  0.1016  0.2403
 2489SOL    HW118929   2.227   3.357   7.256  0.7409  0.0210  0.3133
 2489SOL    HW218930   2.270   3.279   7.131  0.2935  0.0534  0.7019
 2490SOL     OW18931   3.086   2.433  15.951  0.4924 -0.2128  0.3366
 2490SOL    HW118932   3.023   2.487  15.999  1.5373  1.3718 -0.0920
 2490SOL    HW218933   3.056   2.434  15.860  0.9460  2.2119  0.2020
 2491SOL     OW18934   3.696   0.799   7.761  0.0410 -0.1672  0.1616
 2491SOL    HW118935   3.721   0.813   7.853  2.8274  0.6642 -0.7236
 2491SOL    HW218936   3.684   0.705   7.766  1.4948 -0.3745 -0.2880
 2492SOL     OW18937   1.856   4.445   0.561  0.0512  0.3125 -0.3513
 2492SOL    HW118938   1.844   4.538   0.575  1.1290  0.7060 -2.0260
 2492SOL    HW218939   1.768   4.407   0.556 -0.0575  0.4727  0.3408
 2493SOL     OW18940   0.656   3.078   0.917  0.7635 -0.0254  0.2891
 2493SOL    HW118941   0.646   3.160   0.869 -0.9932 -0.4746 -0.1131
 2493SOL    HW218942   0.592   3.025   0.871  0.0968 -0.0372  1.2306
 2494SOL     OW18943   3.170   4.678  13.140  0.2392  0.1409 -0.3491
 2494SOL    HW118944   3.244   4.696  13.082 -0.1924 -0.7005 -1.1525
 2494SOL    HW218945   3.102   0.012  13.105 -0.7364 -0.5059  0.5187
 2495SOL     OW18946   1.210   4.062  12.282 -0.3497  0.0276 -0.1355
 2495SOL    HW118947   1.171   4.142  12.318  1.7186  0.9133  0.1530
 2495SOL    HW218948   1.184   4.070  12.190 -0.7823 -0.8985 -0.0957
 2496SOL     OW18949   4.135   3.971   2.222 -0.1606 -0.4794  1.0223
 2496SOL    HW118950   4.105   4.030   2.153 -0.6136 -1.2740  0.5395
 2496SOL    HW218951   4.230   3.965   2.209 -0.4205 -1.0983 -0.6498
 2497SOL     OW18952   1.696   1.584   9.419 -0.2678 -0.1998 -0.3920
 2497SOL    HW118953   1.780   1.586   9.464 -0.0983 -0.4041 -0.6980
 2497SOL    HW218954   1.651   1.521   9.475  0.6702  0.5152  1.1530
 2498SOL     OW18955   2.138   0.965  13.977 -0.1949 -1.2634 -0.1355
 2498SOL    HW118956   2.201   0.923  14.036  0.7041  0.3623  0.0447
 2498SOL    HW218957   2.138   0.905  13.902  0.5909  0.7221 -1.7146
 2499SOL     OW18958   2.895   0.176  10.312 -0.1441 -0.0527 -0.2693
 2499SOL    HW118959   2.966   0.240  10.325 -1.7112  1.4961  0.6026
 2499SOL    HW218960   2.934   0.090  10.327 -1.5210 -0.7731 -0.8229
 2500SOL     OW18961   2.466   2.129   1.317  0.0969  0.0189  0.4477
 2500SOL    HW118962   2.378   2.162   1.336 -0.7342 -1.3996 -0.8523
 2500SOL    HW218963   2.460   2.042   1.356  1.2386 -0.3689 -0.2247
 2501SOL     OW18964   4.632   0.168   4.601  0.3605  0.1092  0.2428
 2501SOL    HW118965   4.605   0.233   4.666  1.5543 -0.0130  0.8440
 2501SOL    HW218966   4.587   0.092   4.638 -2.1654  0.8944 -1.1779
 2502SOL     OW18967   1.446   0.843  17.656 -0.4179  0.4383 -0.0803
 2502SOL    HW118968   1.494   0.886   0.034 -0.2340  2.3559 -1.3464
 2502SOL    HW218969   1.521   0.796  17.619 -0.8790 -0.0351 -0.4126
 2503SOL     OW18970   0.632   3.591   8.758 -1.1682  0.3889 -0.0785
 2503SOL    HW118971   0.679   3.606   8.676 -0.3500  1.9846  0.6932
 2503SOL    HW218972   0.695   3.534   8.803 -0.6180  1.4921  0.5378
 2504SOL     OW18973   4.317   3.557   8.216 -0.3731  0.4314  0.3810
 2504SOL    HW118974   4.335   3.627   8.279  0.5453  0.1004  0.4925
 2504SOL    HW218975   4.354   3.486   8.268  1.2964 -1.2059 -3.0533
 2505SOL     OW18976   0.654   0.191   7.320 -0.2556  0.0598  0.4689
 2505SOL    HW118977   0.693   0.275   7.294  0.7807 -1.0189 -1.4398
 2505SOL    HW218978   0.566   0.196   7.284 -0.1828 -2.5038 -0.0591
 2506SOL     OW18979   0.039   2.547   2.532 -0.2424  0.6399 -0.1763
 2506SOL    HW118980   0.024   2.571   2.623 -1.5146  1.5919 -0.6342
 2506SOL    HW218981   4.670   2.558   2.508 -0.0856  1.7859 -0.2817
 2507SOL     OW18982   4.621   3.363   2.768 -0.1346  0.0666  0.5924
 2507SOL    HW118983   4.602   3.438   2.713  0.3853  0.1815  0.5615
 2507SOL    HW218984   4.698   3.397   2.814  2.0116 -0.3743 -2.6595
 2508SOL     OW18985   0.879   1.716   9.147 -0.6940  0.0121 -0.7322
 2508SOL    HW118986   0.945   1.771   9.107 -0.2635 -0.6058 -0.8762
 2508SOL    HW218987   0.855   1.767   9.224  0.8112  0.9997 -0.9362
 2509SOL     OW18988   1.274   0.236   6.633  0.7350 -0.6329 -0.1566
 2509SOL    HW118989   1.287   0.144   6.655 -3.4500 -1.1868 -0.0188
 2509SOL    HW218990   1.179   0.248   6.634  0.7178 -0.7474 -1.2501
 2510SOL     OW18991   4.682   4.329   3.910 -0.2246  0.2353 -1.0953
 2510SOL    HW118992   4.595   4.294   3.894 -0.6063  0.4501  0.5331
 2510SOL    HW218993   4.659   4.412   3.950 -0.7700 -0.6120  0.3458
 2511SOL     OW18994   2.961   2.147   6.741 -0.1182  0.3015  0.1980
 2511SOL    HW118995   2.867   2.153   6.759 -0.0742  2.1609 -0.2212
 2511SOL    HW218996   2.992   2.193   6.819 -0.2029  0.3708  0.1906
 2512SOL     OW18997   0.479   3.609   7.628  0.2583 -0.0888  0.4644
 2512SOL    HW118998   0.499   3.680   7.688  2.3842  0.4391 -0.8436
 2512SOL    HW218999   0.443   3.658   7.553  3.2612  3.1655  1.1243
 2513SOL     OW19000   1.426   4.547   8.124  0.1227 -0.3268 -0.1574
 2513SOL    HW119001   1.488   4.610   8.088 -0.6165  0.8571  0.6508
 2513SOL    HW219002   1.378   4.612   8.175  0.8688  1.1391 -1.3301
 2514SOL     OW19003   1.555   3.687   8.671  0.2513  0.0536  0.5544
 2514SOL    HW119004   1.557   3.692   8.575  1.7231  1.2241  0.6474
 2514SOL    HW219005   1.623   3.746   8.704 -0.7061  2.6102 -2.1144
 2515SOL     OW19006   1.772   1.327   3.288 -0.0543  0.1501 -0.1573
 2515SOL    HW119007   1.810   1.348   3.374  0.4953  1.5716 -0.7643
 2515SOL    HW219008   1.847   1.312   3.231 -0.8842  0.9399 -1.4355
 2516SOL     OW19009   2.954   1.275  16.477  0.3696  0.1286 -0.6931
 2516SOL    HW119010   2.955   1.354  16.422 -1.3353  0.6962  0.0951
 2516SOL    HW219011   2.903   1.214  16.423  0.4917  1.3522 -2.1974
 2517SOL     OW19012   4.578   3.498   3.284  1.3343  0.3764 -0.3299
 2517SOL    HW119013   4.488   3.468   3.293  0.9790  1.1847 -1.1267
 2517SOL    HW219014   4.571   3.544   3.201 -0.5755 -2.2429 -1.6100
 2518SOL     OW19015   3.914   2.164  17.577  0.1092 -0.0161  0.8178
 2518SOL    HW119016   3.872   2.173  17.662 -0.1713  0.9098  0.5799
 2518SOL    HW219017   4.000   2.198  17.603 -1.0255  1.3174  2.7798
 2519SOL     OW19018   3.132   0.102  14.642  0.4545  0.7207 -0.5400
 2519SOL    HW119019   3.124   0.138  14.553 -0.4163  0.6965 -0.4760
 2519SOL    HW219020   3.073   0.027  14.632  2.8798 -0.9736 -2.2846
 2520SOL     OW19021   4.547   0.273   6.009 -0.1900 -0.1837  0.2814
 2520SOL    HW119022   4.625   0.235   6.048  0.6259  1.7223  0.5110
 2520SOL    HW219023   4.537   0.207   5.941  0.0168 -1.1531  1.1874
 2521SOL     OW19024   1.859   3.027   7.309  0.5584  0.0056  0.6066
 2521SOL    HW119025   1.949   3.010   7.336  0.0968 -1.3445  1.3149
 2521SOL    HW219026   1.835   2.944   7.266  0.4052  0.2618  0.1990
 2522SOL     OW19027   2.515   3.434   9.088  0.1344 -0.4466 -0.3531
 2522SOL    HW119028   2.538   3.341   9.084  0.6811 -0.2921 -0.6868
 2522SOL    HW219029   2.421   3.414   9.094  0.5998 -1.9605  2.0991
 2523SOL     OW19030   0.647   1.708   7.080  0.2927  0.1272 -0.0226
 2523SOL    HW119031   0.676   1.631   7.031 -0.8373 -0.4118  0.1661
 2523SOL    HW219032   0.570   1.677   7.127  0.0836  0.9239  0.1686
 2524SOL     OW19033   2.499   2.940   8.121  0.0939  0.0229 -0.1797
 2524SOL    HW119034   2.526   2.910   8.035 -0.6741  0.0850 -0.4410
 2524SOL    HW219035   2.408   2.968   8.109  0.1951  0.7320  0.6926
 2525SOL     OW19036   2.674   0.328  16.935  0.1806  0.7539  0.4588
 2525SOL    HW119037   2.655   0.271  17.009 -1.4234  0.0368 -0.4880
 2525SOL    HW219038   2.678   0.275  16.855 -0.7520  0.3385  0.6765
 2526SOL     OW19039   1.950   1.596   2.443  0.1306  0.3239 -0.4352
 2526SOL    HW119040   1.899   1.529   2.488  0.5777  2.0475  2.6253
 2526SOL    HW219041   1.884   1.665   2.436  0.3553  0.5584 -0.2457
 2527SOL     OW19042   2.779   2.317   1.992  0.1098  0.2771  0.2995
 2527SOL    HW119043   2.755   2.337   1.902  1.9106 -1.0414 -0.4453
 2527SOL    HW219044   2.839   2.386   2.022 -0.6299  0.8474  0.4670
 2528SOL     OW19045   3.415   4.140   7.465 -0.5470 -0.7790  0.2557
 2528SOL    HW119046   3.370   4.078   7.407 -0.0981 -0.0096 -0.9086
 2528SOL    HW219047   3.499   4.094   7.468 -0.3282 -0.5193 -2.4611
 2529SOL     OW19048   1.098   3.740   6.803  0.0153  0.0732 -0.6578
 2529SOL    HW119049   1.022   3.780   6.845  0.5958 -0.6536  1.0965
 2529SOL    HW219050   1.065   3.651   6.787  1.3097 -0.5019 -0.0894
 2530SOL     OW19051   1.751   4.009   6.332  0.0135 -0.6933 -0.0909
 2530SOL    HW119052   1.687   3.994   6.403  1.8168 -0.0748  1.6705
 2530SOL    HW219053   1.722   3.942   6.270 -1.5128 -0.9208  0.8471
 2531SOL     OW19054   1.395   2.625   9.339 -0.5393 -0.0953 -0.0840
 2531SOL    HW119055   1.407   2.641   9.245 -1.5082  1.5294  0.0487
 2531SOL    HW219056   1.343   2.545   9.341  0.9332 -1.0822 -1.9761
 2532SOL     OW19057   0.075   1.472   6.881 -0.5702 -0.2020 -0.0463
 2532SOL    HW119058   0.087   1.556   6.926  0.7059 -0.0419 -0.7017
 2532SOL    HW219059   0.144   1.476   6.814  0.8213  1.1143  1.4875
 2533SOL     OW19060   3.886   3.402  13.104 -0.6361  0.1086 -0.6778
 2533SOL    HW119061   3.893   3.366  13.016 -0.5270  1.8557 -1.3832
 2533SOL    HW219062   3.978   3.399  13.133 -1.3713  0.1854  1.6505
 2534SOL     OW19063   2.097   3.650  10.116  0.1646 -0.4015 -0.3490
 2534SOL    HW119064   2.084   3.592  10.191  0.0352 -0.1173 -0.1501
 2534SOL    HW219065   2.165   3.706  10.152 -0.6098  0.4460 -0.1927
 2535SOL     OW19066   3.933   3.194   2.948 -0.0158  0.1349 -0.0393
 2535SOL    HW119067   3.884   3.116   2.923 -1.1756  0.4440  1.2986
 2535SOL    HW219068   3.952   3.229   2.861  0.1955  0.3287  0.0818
 2536SOL     OW19069   1.715   2.562  14.396  0.0105 -0.1582  0.0343
 2536SOL    HW119070   1.729   2.508  14.474  0.0854 -0.0445  0.0990
 2536SOL    HW219071   1.630   2.530  14.365  0.4260 -1.9552  0.7062
 2537SOL     OW19072   1.230   3.555   4.165 -0.0403  0.6346  0.7098
 2537SOL    HW119073   1.325   3.557   4.161  0.0138 -1.8868  0.3025
 2537SOL    HW219074   1.218   3.568   4.259  0.2833 -1.6903  1.0893
 2538SOL     OW19075   2.812   3.845  13.201 -0.1200  0.4243 -0.0483
 2538SOL    HW119076   2.801   3.788  13.125  0.7317  0.2756 -0.0594
 2538SOL    HW219077   2.891   3.811  13.241 -0.1591 -1.6827 -1.7386
 2539SOL     OW19078   0.966   1.413  15.247  0.1171 -0.2147 -0.3528
 2539SOL    HW119079   0.931   1.461  15.323 -0.1924  1.4711 -1.5431
 2539SOL    HW219080   1.007   1.483  15.196  0.2948 -0.7501 -0.9385
 2540SOL     OW19081   3.273   3.210   3.909  0.5570 -0.3249  0.6605
 2540SOL    HW119082   3.341   3.204   3.841  0.4309  1.4135  0.3771
 2540SOL    HW219083   3.315   3.258   3.980  0.6450  1.8285 -0.8505
 2541SOL     OW19084   3.000   2.052   7.476 -0.0208  0.4155  0.3810
 2541SOL    HW119085   3.001   2.041   7.571 -0.4390  1.1426  0.4668
 2541SOL    HW219086   3.081   2.099   7.455  0.5357  0.3247  2.4052
 2542SOL     OW19087   0.859   4.188   3.897 -0.0866  0.1252 -0.1080
 2542SOL    HW119088   0.790   4.122   3.902  1.8257 -1.9391 -0.9165
 2542SOL    HW219089   0.817   4.273   3.908 -0.9558 -0.2259 -0.7601
 2543SOL     OW19090   3.222   2.932   0.141 -0.0431 -0.2707  0.5870
 2543SOL    HW119091   3.251   2.865   0.081  1.3603  0.8230  0.0617
 2543SOL    HW219092   3.241   2.879   0.219  1.6167 -0.9534 -0.3057
 2544SOL     OW19093   4.228   1.219   5.965  0.2339  0.4965 -0.5218
 2544SOL    HW119094   4.191   1.283   5.905  1.4388 -0.8152 -2.6527
 2544SOL    HW219095   4.155   1.190   6.020 -0.3080 -0.0289 -1.5335
 2545SOL     OW19096   2.581   3.884   8.634  0.1779 -0.3416  0.4180
 2545SOL    HW119097   2.491   3.868   8.661 -0.0362 -0.9781 -0.6339
 2545SOL    HW219098   2.626   3.897   8.718 -0.2459  1.5562  0.3532
 2546SOL     OW19099   0.590   0.029  17.518  0.0710 -0.1374  0.2213
 2546SOL    HW119100   0.495   0.032  17.531  0.2539  1.6018  1.0821
 2546SOL    HW219101   0.616   0.013  17.609 -0.2961 -1.9926  0.0055
 2547SOL     OW19102   0.978   3.994   0.023 -0.0743  0.5597  0.1866
 2547SOL    HW119103   0.915   3.951  17.660  1.3687  0.6834 -1.5146
 2547SOL    HW219104   1.035   3.924   0.054 -2.0503 -1.2226 -0.3017
 2548SOL     OW19105   1.667   4.152   9.013  0.3243  0.2983 -0.1088
 2548SOL    HW119106   1.605   4.222   8.997 -0.9675 -0.9080 -0.3248
 2548SOL    HW219107   1.715   4.159   8.930  0.5100  1.5999  0.1178
 2549SOL     OW19108   4.191   4.281   4.092 -0.0897  0.0339 -0.1344
 2549SOL    HW119109   4.156   4.221   4.027 -0.1716  0.8498 -0.8402
 2549SOL    HW219110   4.122   4.347   4.102 -0.8919 -0.8576  0.1056
 2550SOL     OW19111   2.437   2.304   4.404  0.2633 -0.2566 -0.1197
 2550SOL    HW119112   2.511   2.354   4.369 -0.6073 -0.2726 -1.9938
 2550SOL    HW219113   2.489   2.237   4.450  1.6838  1.6348  1.0076
 2551SOL     OW19114   3.778   4.201   9.411 -0.0616  0.0946  0.1319
 2551SOL    HW119115   3.778   4.283   9.361 -0.0463 -1.7263 -2.8515
 2551SOL    HW219116   3.685   4.194   9.431  0.1462 -2.2702  0.2873
 2552SOL     OW19117   2.946   3.496   7.987 -0.7126 -0.0015  0.8969
 2552SOL    HW119118   3.026   3.485   7.934 -0.9060  1.3861  0.3333
 2552SOL    HW219119   2.923   3.584   7.960 -3.2137 -0.4139  1.7042
 2553SOL     OW19120   4.579   0.409   6.593 -0.2549 -0.4028  0.0679
 2553SOL    HW119121   4.532   0.393   6.511 -0.1569  0.7430 -0.2148
 2553SOL    HW219122   4.518   0.363   6.651 -1.9684  1.5187 -0.1982
 2554SOL     OW19123   0.348   2.176  10.747 -0.2159  0.1161 -0.1638
 2554SOL    HW119124   0.411   2.188  10.675 -1.3138  0.6841 -1.0267
 2554SOL    HW219125   0.397   2.120  10.808 -0.1198 -0.5315 -0.8215
 2555SOL     OW19126   4.301   4.637   9.221 -0.4480  0.0094 -0.1652
 2555SOL    HW119127   4.255   4.673   9.296  0.0048  4.0165 -1.7865
 2555SOL    HW219128   4.321   4.719   9.174  1.1928 -0.4463 -0.2539
 2556SOL     OW19129   2.653   1.413   2.660 -0.5199 -0.0470 -0.3000
 2556SOL    HW119130   2.643   1.451   2.573  0.7718 -0.3078 -0.5565
 2556SOL    HW219131   2.611   1.327   2.652 -0.0512 -0.3327  0.3659
 2557SOL     OW19132   0.834   3.478  12.022 -0.3451  0.0984  0.1715
 2557SOL    HW119133   0.910   3.421  12.030  0.1499  0.4745 -1.6619
 2557SOL    HW219134   0.881   3.548  11.975 -1.0840  1.7402  1.9080
 2558SOL     OW19135   0.841   3.796   6.913  0.3336 -0.5291  0.1428
 2558SOL    HW119136   0.772   3.809   6.978 -0.8103 -3.8788 -0.3851
 2558SOL    HW219137   0.813   3.859   6.846  2.9339  1.0355  0.5141
 2559SOL     OW19138   2.390   4.519   6.569 -0.7004  0.1427  0.2680
 2559SOL    HW119139   2.477   4.545   6.598 -0.2577 -2.1193  1.0156
 2559SOL    HW219140   2.338   4.576   6.625 -0.7039  1.5595 -1.1918
 2560SOL     OW19141   1.523   3.083   2.110  0.1243 -0.0628 -0.6736
 2560SOL    HW119142   1.434   3.068   2.079  0.2399 -0.7433 -0.6701
 2560SOL    HW219143   1.549   2.998   2.144  1.2208  0.0721 -1.1677
 2561SOL     OW19144   3.957   0.116   9.240  0.4504 -0.1158  0.2054
 2561SOL    HW119145   3.917   0.193   9.281  0.1227 -0.8290  1.2324
 2561SOL    HW219146   4.038   0.113   9.291  1.2824 -0.6311 -1.1369
 2562SOL     OW19147   0.588   3.865   7.759 -0.7709 -1.0671  0.3197
 2562SOL    HW119148   0.561   3.954   7.740  1.2604 -1.0311 -2.4232
 2562SOL    HW219149   0.677   3.872   7.725 -1.3326  1.8183 -0.5594
 2563SOL     OW19150   1.987   3.210  17.093 -0.1753  0.1320 -0.0962
 2563SOL    HW119151   1.951   3.267  17.025 -2.0523  0.9390  1.5952
 2563SOL    HW219152   2.026   3.145  17.035 -0.0542  0.9823 -0.9628
 2564SOL     OW19153   4.051   1.947   1.861 -0.1364  0.2439  0.1165
 2564SOL    HW119154   3.964   1.963   1.823  2.0134  3.1568 -3.4995
 2564SOL    HW219155   4.044   2.015   1.928  3.3663  0.9795 -0.2646
 2565SOL     OW19156   2.653   2.586  10.092  0.0208  0.4521  0.8387
 2565SOL    HW119157   2.688   2.519  10.033 -1.5560 -0.7139  1.2121
 2565SOL    HW219158   2.610   2.650  10.034  0.8903 -0.7201 -1.1120
 2566SOL     OW19159   2.375   0.212   4.263  0.2425  1.0087  0.2118
 2566SOL    HW119160   2.306   0.238   4.203 -0.3119  1.0220  0.8562
 2566SOL    HW219161   2.390   0.300   4.298  2.6565  0.6698 -0.0013
 2567SOL     OW19162   2.597   1.696  11.126  0.3517  0.2181  0.7485
 2567SOL    HW119163   2.667   1.704  11.061 -0.2168 -1.6252 -0.0908
 2567SOL    HW219164   2.644   1.647  11.194 -0.0164 -0.4567  0.5166
 2568SOL     OW19165   0.043   1.001   8.148 -0.1620 -0.1662 -0.0559
 2568SOL    HW119166   0.038   1.093   8.123 -0.9259 -0.6273 -1.5598
 2568SOL    HW219167   0.025   1.008   8.242  1.0952 -1.2402  0.2690
 2569SOL     OW19168   3.438   0.790   5.058 -0.2393 -0.3045 -0.5137
 2569SOL    HW119169   3.503   0.833   5.114 -0.7712 -1.4749  1.0031
 2569SOL    HW219170   3.435   0.699   5.088 -0.5236  0.7131  2.5338
 2570SOL     OW19171   1.604   4.658   0.525 -0.6799 -0.1059 -0.6085
 2570SOL    HW119172   1.597   4.573   0.569  0.1431 -0.5971 -1.4218
 2570SOL    HW219173   1.608   4.707   0.607  0.9700 -1.1335 -0.0572
 2571SOL     OW19174   2.029   3.293   0.702 -0.0981  0.1961 -0.4916
 2571SOL    HW119175   2.030   3.256   0.790  0.7453  0.6004 -0.3322
 2571SOL    HW219176   2.062   3.383   0.710 -0.1730  0.2351 -0.6328
 2572SOL     OW19177   4.439   3.144   7.335 -0.3374  0.1199  0.0939
 2572SOL    HW119178   4.430   3.103   7.421 -1.3577 -0.5735 -0.3452
 2572SOL    HW219179   4.524   3.188   7.332 -0.5388  0.1908 -5.0992
 2573SOL     OW19180   2.776   0.110   8.272 -0.0656  0.2117  0.1657
 2573SOL    HW119181   2.794   0.099   8.365 -0.2524  2.6982  0.4745
 2573SOL    HW219182   2.837   0.182   8.257  0.8562 -0.7228 -0.5664
 2574SOL     OW19183   2.961   3.287   7.004 -0.0236 -0.1694  0.6549
 2574SOL    HW119184   2.885   3.336   6.972  0.8175  1.6044  1.3906
 2574SOL    HW219185   3.026   3.355   6.985 -1.1956  1.3744  2.1077
 2575SOL     OW19186   0.303   2.194   8.380  0.4786 -0.1259 -0.2352
 2575SOL    HW119187   0.375   2.245   8.416 -0.0097  0.0592  0.4757
 2575SOL    HW219188   0.310   2.199   8.285  0.0010 -0.2981 -0.2786
 2576SOL     OW19189   1.947   0.773   7.287 -0.1562 -0.4030 -0.0046
 2576SOL    HW119190   2.015   0.821   7.240 -0.4365 -1.8982 -1.9584
 2576SOL    HW219191   1.931   0.699   7.228  0.7127  0.6588 -1.5684
 2577SOL     OW19192   2.237   2.225   8.479 -0.2827 -0.6427 -0.3749
 2577SOL    HW119193   2.303   2.294   8.477 -0.5402 -0.5170 -3.4265
 2577SOL    HW219194   2.212   2.226   8.572 -1.9691  0.7475 -0.8356
 2578SOL     OW19195   0.794   2.916  16.962  0.0510  0.4394 -0.5918
 2578SOL    HW119196   0.816   2.827  16.990  1.5796  0.2788 -2.2829
 2578SOL    HW219197   0.877   2.947  16.925  0.3615 -0.9150 -1.0343
 2579SOL     OW19198   1.539   0.498  14.789 -0.3507  0.0433  0.1408
 2579SOL    HW119199   1.450   0.482  14.759 -1.1878  4.1679  0.4210
 2579SOL    HW219200   1.532   0.502  14.885  0.7806 -2.5954  0.3166
 2580SOL     OW19201   1.830   3.970   6.862 -0.4398 -0.6377  0.2328
 2580SOL    HW119202   1.906   3.948   6.917 -1.3095 -2.5872  0.6520
 2580SOL    HW219203   1.766   3.913   6.904 -0.1681  0.2762  1.8905
 2581SOL     OW19204   2.409   1.835   9.902  0.5130  0.3506  0.4637
 2581SOL    HW119205   2.455   1.909   9.941 -1.7908 -0.1365  4.0983
 2581SOL    HW219206   2.472   1.807   9.835  2.0815 -0.9671  2.5071
 2582SOL     OW19207   3.707   1.786   4.795 -0.1993  0.1804 -0.1180
 2582SOL    HW119208   3.683   1.710   4.742 -1.7884  1.1785 -0.8181
 2582SOL    HW219209   3.624   1.832   4.803 -0.3229 -0.0404 -0.1447
 2583SOL     OW19210   1.183   4.390   4.521 -0.2174 -0.0171  0.1418
 2583SOL    HW119211   1.240   4.335   4.575 -1.1821 -1.5683 -0.4063
 2583SOL    HW219212   1.110   4.413   4.579 -0.1393  1.3865 -0.3102
 2584SOL     OW19213   1.840   1.373  12.046 -0.0803 -0.7780 -0.4879
 2584SOL    HW119214   1.776   1.380  11.975 -0.3250 -0.4215 -0.2299
 2584SOL    HW219215   1.880   1.459  12.036 -0.0869 -0.8337 -0.9823
 2585SOL     OW19216   3.785   3.759   3.465  0.3257  0.2346  0.1838
 2585SOL    HW119217   3.777   3.664   3.450  0.5589  0.3977 -1.0309
 2585SOL    HW219218   3.709   3.782   3.519 -0.0249  4.2088 -1.9972
 2586SOL     OW19219   1.463   4.319   8.994  0.3713  0.0549  0.8270
 2586SOL    HW119220   1.408   4.305   8.916  1.1890 -2.3017  0.6763
 2586SOL    HW219221   1.395   4.349   9.054  1.0715  4.1415 -0.3797
 2587SOL     OW19222   3.666   2.305   6.607 -0.0322  0.7798  0.0648
 2587SOL    HW119223   3.626   2.366   6.669  0.4713  1.8363 -0.6681
 2587SOL    HW219224   3.710   2.238   6.659  1.4587  0.6145 -1.4084
 2588SOL     OW19225   1.523   1.263   1.110  0.3636  0.0363 -0.3626
 2588SOL    HW119226   1.497   1.298   1.025  2.1999  1.8130 -0.2154
 2588SOL    HW219227   1.447   1.303   1.152  0.2283  0.5417 -1.0788
 2589SOL     OW19228   2.960   0.347   0.566 -0.4434  0.2693  0.2918
 2589SOL    HW119229   2.881   0.400   0.578  0.3309  1.4235  0.3104
 2589SOL    HW219230   2.968   0.351   0.471  0.7949  0.4560  0.3953
 2590SOL     OW19231   1.327   3.524   6.835 -0.2908 -0.8649  0.3591
 2590SOL    HW119232   1.411   3.479   6.837 -0.0311 -0.3877  0.3054
 2590SOL    HW219233   1.292   3.511   6.747  1.2825 -0.3416 -0.3608
 2591SOL     OW19234   3.272   4.556   9.354  0.2001 -0.1215 -0.3278
 2591SOL    HW119235   3.324   4.502   9.295 -1.1383 -1.6773 -0.0763
 2591SOL    HW219236   3.336   4.618   9.388 -2.3792  3.5048 -1.9933
 2592SOL     OW19237   1.746   0.794   5.886 -0.2986  0.2701 -0.1387
 2592SOL    HW119238   1.655   0.797   5.856 -0.7577  0.7685  1.3256
 2592SOL    HW219239   1.768   0.884   5.864  0.9107 -0.0220 -0.1281
 2593SOL     OW19240   2.653   1.637  16.270  0.1579 -0.0021 -0.0659
 2593SOL    HW119241   2.626   1.654  16.180  1.6965  0.2091 -0.4907
 2593SOL    HW219242   2.649   1.725  16.308 -2.9621 -0.1902  0.0480
 2594SOL     OW19243   2.738   4.212   1.558  0.1653  0.6519 -0.6800
 2594SOL    HW119244   2.709   4.180   1.644 -0.9998 -0.1294 -1.3644
 2594SOL    HW219245   2.832   4.213   1.572 -0.1814  2.9225  1.4509
 2595SOL     OW19246   3.278   4.262  11.116 -0.4989  0.5003 -0.4524
 2595SOL    HW119247   3.242   4.296  11.198 -0.9748  2.1441 -1.3387
 2595SOL    HW219248   3.341   4.195  11.140 -0.7321  0.8085  1.0381
 2596SOL     OW19249   1.679   2.744   6.622 -0.7020 -0.1579 -0.0499
 2596SOL    HW119250   1.625   2.706   6.552 -0.4356 -0.2157 -0.2258
 2596SOL    HW219251   1.768   2.738   6.589 -0.6601 -1.0395  0.2291
 2597SOL     OW19252   2.139   2.185   7.663  0.2695  0.0805  0.1722
 2597SOL    HW119253   2.099   2.228   7.587  0.0935  1.0394  0.7914
 2597SOL    HW219254   2.124   2.257   7.725  0.0484  1.1426 -1.0888
 2598SOL     OW19255   4.190   0.120   4.675 -0.1462 -0.0169 -0.2443
 2598SOL    HW119256   4.119   0.162   4.626 -0.7666  0.8135  1.3735
 2598SOL    HW219257   4.138   0.080   4.744  1.2206 -2.8758 -0.8679
 2599SOL     OW19258   1.622   0.393   1.978 -0.3393 -0.0975  0.4288
 2599SOL    HW119259   1.648   0.465   2.036  0.2429 -0.7601  0.9801
 2599SOL    HW219260   1.582   0.326   2.034 -0.7417  2.2012  2.8942
 2600SOL     OW19261   1.400   0.623   2.506 -0.7255  0.4745 -0.1294
 2600SOL    HW119262   1.358   0.709   2.500 -0.1747  0.9387  2.6476
 2600SOL    HW219263   1.493   0.647   2.503 -0.3889 -0.6105  1.7979
 2601SOL     OW19264   1.848   2.477   7.236  0.2294  0.2430 -0.5494
 2601SOL    HW119265   1.764   2.523   7.242 -0.2867 -0.7972  0.2433
 2601SOL    HW219266   1.904   2.543   7.195 -2.3310  2.1760 -0.9638
 2602SOL     OW19267   3.265   1.776   9.119 -0.3012  0.1915 -0.5047
 2602SOL    HW119268   3.324   1.703   9.137 -1.7487 -0.9453 -0.4402
 2602SOL    HW219269   3.184   1.739   9.154  0.0958 -0.8434 -0.6879
 2603SOL     OW19270   1.772   3.492   3.871 -0.1718 -0.6995 -0.3668
 2603SOL    HW119271   1.806   3.509   3.783  0.4635 -0.2625 -0.0396
 2603SOL    HW219272   1.786   3.580   3.908  1.9186 -1.2777  0.2249
 2604SOL     OW19273   3.685   1.980  12.301 -0.3604 -0.2840 -0.4508
 2604SOL    HW119274   3.679   2.066  12.341  1.1308 -0.0111 -0.7968
 2604SOL    HW219275   3.764   1.949  12.346  0.7353  2.0467 -0.7277
 2605SOL     OW19276   1.084   3.376   6.044  0.4050 -0.3588 -0.0990
 2605SOL    HW119277   1.046   3.350   6.127 -1.7998 -1.4866 -1.4478
 2605SOL    HW219278   1.035   3.458   6.031  0.4322  0.0220  2.3510
 2606SOL     OW19279   0.540   3.389  10.275  0.8516  0.0561 -0.5658
 2606SOL    HW119280   0.635   3.384  10.263  0.5468 -2.1224 -2.1852
 2606SOL    HW219281   0.512   3.302  10.303  0.2741  0.8102  1.2069
 2607SOL     OW19282   1.595   4.658   5.020 -0.1672 -0.6269 -0.0835
 2607SOL    HW119283   1.536   4.657   5.095  1.1028 -1.5421  0.9170
 2607SOL    HW219284   1.679   4.646   5.066 -0.9798  1.3028  1.8816
 2608SOL     OW19285   1.069   2.840   3.025 -0.3908  0.3153 -0.4947
 2608SOL    HW119286   1.122   2.902   2.975 -2.2422  1.7992 -0.6108
 2608SOL    HW219287   1.111   2.863   3.108  1.8487 -1.0133 -1.2614
 2609SOL     OW19288   1.305   1.774  13.913  0.1209 -0.2989 -0.5226
 2609SOL    HW119289   1.363   1.723  13.970  0.8095 -0.0394 -0.9918
 2609SOL    HW219290   1.245   1.807  13.980  1.5723  0.9017  0.1712
 2610SOL     OW19291   1.117   4.578   7.023 -0.7606 -0.6484 -0.1575
 2610SOL    HW119292   1.093   4.502   7.077 -0.5400 -0.2976  0.4354
 2610SOL    HW219293   1.132   4.533   6.940  1.2123 -1.9166  0.8837
 2611SOL     OW19294   1.597   2.829  14.954  0.4149 -0.1929  0.0015
 2611SOL    HW119295   1.628   2.753  14.906  0.6237  0.9743 -1.7056
 2611SOL    HW219296   1.674   2.885  14.963  0.6342 -0.3208 -1.1242
 2612SOL     OW19297   0.729   2.109   5.247 -0.6532 -0.4443  0.0005
 2612SOL    HW119298   0.718   2.042   5.314  2.3432  0.1249  1.0584
 2612SOL    HW219299   0.798   2.076   5.190  1.2368  1.1927  1.3252
 2613SOL     OW19300   3.350   1.275   8.165 -0.1034 -0.2526  0.6592
 2613SOL    HW119301   3.398   1.358   8.160  1.0766 -1.0632 -1.2385
 2613SOL    HW219302   3.259   1.304   8.173 -0.7232 -1.4654 -2.0897
 2614SOL     OW19303   2.062   1.887  12.817  0.2893  0.1998 -0.4722
 2614SOL    HW119304   1.968   1.897  12.806  0.4015  1.8823  0.1020
 2614SOL    HW219305   2.078   1.823  12.748 -1.8022 -1.2518  0.4077
 2615SOL     OW19306   2.854   0.835   2.247  0.8656 -0.0579  0.0749
 2615SOL    HW119307   2.873   0.744   2.227  2.2729  0.4024 -0.6165
 2615SOL    HW219308   2.859   0.842   2.342 -0.0859 -1.1037  0.2122
 2616SOL     OW19309   4.211   1.691   0.827 -0.1040 -0.2922 -0.5022
 2616SOL    HW119310   4.233   1.717   0.916  0.9510 -1.1395 -0.5132
 2616SOL    HW219311   4.116   1.689   0.830 -0.0554 -1.1632  0.2496
 2617SOL     OW19312   0.705   1.235   0.564  0.1095  0.3316 -0.1207
 2617SOL    HW119313   0.669   1.235   0.475  0.7826  0.3417 -0.3937
 2617SOL    HW219314   0.798   1.231   0.540 -0.5811 -1.0224 -2.5941
 2618SOL     OW19315   0.277   2.457   2.422 -0.8824  0.2949  0.0683
 2618SOL    HW119316   0.190   2.478   2.455 -0.3548  2.3443  0.1670
 2618SOL    HW219317   0.321   2.426   2.501  0.9726  0.3840 -0.9108
 2619SOL     OW19318   3.395   3.335   8.887 -0.0015  0.5934 -0.2663
 2619SOL    HW119319   3.320   3.292   8.928  2.2908 -3.2357 -0.0871
 2619SOL    HW219320   3.462   3.299   8.946 -0.6427 -2.4379 -1.3650
 2620SOL     OW19321   0.315   1.451   3.876 -0.0637 -0.0840  0.2601
 2620SOL    HW119322   0.308   1.356   3.861 -0.6795 -0.0343  0.2311
 2620SOL    HW219323   0.382   1.449   3.945  0.4399  1.2359 -0.2036
 2621SOL     OW19324   1.530   2.515   2.709  0.2845  0.1983 -0.1700
 2621SOL    HW119325   1.614   2.472   2.692  0.2093  0.6401 -1.6285
 2621SOL    HW219326   1.533   2.477   2.797  0.1159  1.6098  0.4478
 2622SOL     OW19327   4.159   3.922  16.620 -0.3297 -0.2882  0.0546
 2622SOL    HW119328   4.250   3.913  16.650 -0.3848 -0.0448  0.2988
 2622SOL    HW219329   4.139   3.835  16.587 -1.1822  0.4097 -1.2692
 2623SOL     OW19330   0.659   0.163   4.532  0.2432 -0.2729 -0.2042
 2623SOL    HW119331   0.741   0.201   4.564 -0.1947  0.3362  0.2091
 2623SOL    HW219332   0.601   0.239   4.542  0.6431 -0.2966  2.3088
 2624SOL     OW19333   4.536   4.619   6.072  0.2867  0.2423 -0.1519
 2624SOL    HW119334   4.612   4.674   6.056 -1.1797  2.1720 -0.4684
 2624SOL    HW219335   4.584   4.538   6.091 -1.6888 -0.8305  0.3169
 2625SOL     OW19336   2.046   1.619   1.735  0.1805 -0.1777 -0.3944
 2625SOL    HW119337   2.029   1.540   1.787 -0.2200  0.6361  0.7061
 2625SOL    HW219338   2.080   1.577   1.656 -0.3083 -0.6955 -0.3334
 2626SOL     OW19339   3.631   1.850   2.515 -0.1713 -0.3303  0.2719
 2626SOL    HW119340   3.541   1.854   2.483 -1.1883 -1.2439  2.9783
 2626SOL    HW219341   3.620   1.784   2.584 -0.2914 -1.0305 -0.4132
 2627SOL     OW19342   0.164   1.625   7.301  0.0231 -0.4993 -0.4193
 2627SOL    HW119343   0.108   1.698   7.276  1.2411  1.2438  1.9332
 2627SOL    HW219344   0.137   1.605   7.391  2.8805 -0.0641  0.5401
 2628SOL     OW19345   2.147   0.776   8.360  0.5595 -0.2218  0.4160
 2628SOL    HW119346   2.087   0.846   8.385  2.1083  1.6961 -1.1873
 2628SOL    HW219347   2.231   0.823   8.370  1.0815 -1.0542 -0.0585
 2629SOL     OW19348   4.545   0.309  14.252 -0.2305 -0.9565 -0.1555
 2629SOL    HW119349   4.579   0.233  14.299 -0.8308  0.7479  3.0512
 2629SOL    HW219350   4.504   0.359  14.322 -1.8215 -2.0441 -0.3059
 2630SOL     OW19351   1.872   0.628   4.974  0.5864 -0.2861 -0.3700
 2630SOL    HW119352   1.883   0.723   4.972 -0.3576 -0.1279  1.7142
 2630SOL    HW219353   1.957   0.594   5.004  0.0841 -1.5335 -0.3652
 2631SOL     OW19354   3.662   0.617   7.402  0.6487 -0.0787 -0.1070
 2631SOL    HW119355   3.751   0.651   7.408  0.6271  0.5000 -3.0568
 2631SOL    HW219356   3.685   0.524   7.404 -1.4417 -0.5480  2.5166
 2632SOL     OW19357   3.438   2.331  12.558 -0.6200  0.2943  0.4900
 2632SOL    HW119358   3.357   2.320  12.509  0.2031 -0.4047 -0.7203
 2632SOL    HW219359   3.417   2.298  12.645  0.7191 -1.1792  0.2380
 2633SOL     OW19360   4.572   4.301   3.316 -0.1667 -0.2333 -0.3120
 2633SOL    HW119361   4.659   4.333   3.292  0.1138  0.1723  1.2018
 2633SOL    HW219362   4.519   4.360   3.263  0.3381 -0.5985 -1.2158
 2634SOL     OW19363   4.105   2.764  10.241 -0.6756 -0.3383  0.3050
 2634SOL    HW119364   4.089   2.670  10.228 -1.3532 -0.1680 -0.1170
 2634SOL    HW219365   4.195   2.772  10.211 -0.3947 -2.0285  0.7119
 2635SOL     OW19366   3.346   0.655   4.454  0.1247  0.2310 -0.0721
 2635SOL    HW119367   3.372   0.747   4.461 -2.2828  0.7368  2.2949
 2635SOL    HW219368   3.367   0.629   4.364  1.3835  3.2879 -0.6610
 2636SOL     OW19369   4.715   0.443   5.371  0.1811  0.1928 -0.3610
 2636SOL    HW119370   0.053   0.484   5.309 -1.3594 -0.3679 -2.2442
 2636SOL    HW219371   0.040   0.436   5.453  0.4237 -2.1962 -0.7013
 2637SOL     OW19372   3.913   3.635   4.550  0.2507 -0.2291 -0.3207
 2637SOL    HW119373   3.923   3.553   4.500  2.2869 -1.5351  2.2460
 2637SOL    HW219374   3.892   3.690   4.474  1.7057  1.4153  0.4759
 2638SOL     OW19375   2.241   0.948  16.639  1.1643  0.4001 -0.4016
 2638SOL    HW119376   2.228   0.962  16.546  0.9844  1.3685 -0.2351
 2638SOL    HW219377   2.151   0.940  16.672  0.9393 -1.1983 -1.4202
 2639SOL     OW19378   3.374   1.534   9.125 -0.1295  0.1652  0.3523
 2639SOL    HW119379   3.373   1.555   9.031  0.7474  0.0789  0.3249
 2639SOL    HW219380   3.435   1.462   9.138 -1.7013 -0.8689  2.0012
 2640SOL     OW19381   1.276   0.026   4.629  0.3630 -0.5272 -0.0511
 2640SOL    HW119382   1.328   4.707   4.560 -0.0409 -0.0969 -0.6166
 2640SOL    HW219383   1.266   4.675   4.689 -1.9311 -0.3053 -0.1510
 2641SOL     OW19384   2.072   1.816   4.736  0.5340  0.6804 -0.7285
 2641SOL    HW119385   2.011   1.882   4.703  0.6788 -0.1933 -2.7831
 2641SOL    HW219386   2.159   1.853   4.721  1.8227 -1.4174  1.5204
 2642SOL     OW19387   1.297   2.684   9.590  0.1959  0.4201 -0.1587
 2642SOL    HW119388   1.326   2.665   9.500 -0.7860 -0.2202 -0.3451
 2642SOL    HW219389   1.323   2.775   9.603 -0.4908  0.2155  2.6477
 2643SOL     OW19390   1.085   3.305   6.670 -0.6381  0.2040  0.5852
 2643SOL    HW119391   1.180   3.311   6.654 -0.6446  1.1437  0.9185
 2643SOL    HW219392   1.048   3.360   6.601 -2.0900 -2.9971 -1.1911
 2644SOL     OW19393   3.675   4.569  15.488  0.3651  0.1435 -0.1493
 2644SOL    HW119394   3.762   4.593  15.455  0.3895  0.3116  0.0418
 2644SOL    HW219395   3.672   4.473  15.484  1.8504  0.0874 -0.0594
 2645SOL     OW19396   0.874   0.435   8.920 -0.0500  0.3929 -0.1514
 2645SOL    HW119397   0.888   0.352   8.966 -0.1023  0.7183  0.4564
 2645SOL    HW219398   0.963   0.472   8.928  0.0980 -0.2114  1.1129
 2646SOL     OW19399   3.132   1.210  11.826 -0.8225  0.1373 -0.5472
 2646SOL    HW119400   3.113   1.164  11.745 -0.5895 -1.2705  0.1978
 2646SOL    HW219401   3.096   1.152  11.893  1.7718  0.9455  1.5887
 2647SOL     OW19402   3.113   0.575   3.599  0.4250  0.1228  0.0342
 2647SOL    HW119403   3.098   0.507   3.664 -0.9047 -0.5015 -0.9361
 2647SOL    HW219404   3.187   0.528   3.562 -0.3210 -0.7326 -0.3559
 2648SOL     OW19405   1.259   0.750   4.475  0.2219 -0.1831  0.2362
 2648SOL    HW119406   1.202   0.793   4.411  1.3683  0.1961 -0.5456
 2648SOL    HW219407   1.284   0.819   4.536  0.7167 -2.5728  2.7762
 2649SOL     OW19408   3.990   4.450   4.052 -0.1998  0.6019 -0.8164
 2649SOL    HW119409   3.973   4.515   4.120  0.7242  1.0992 -1.0566
 2649SOL    HW219410   3.902   4.448   4.014 -1.3112  1.5841  1.7135
 2650SOL     OW19411   1.735   1.512   3.079  0.0961  0.0758  0.0367
 2650SOL    HW119412   1.708   1.427   3.044 -1.6287  1.5276 -2.2088
 2650SOL    HW219413   1.736   1.492   3.172 -1.5004 -1.1380 -0.2017
 2651SOL     OW19414   0.532   4.307  14.369 -0.0356 -0.5448  0.4235
 2651SOL    HW119415   0.455   4.265  14.332  1.8528  0.0056 -4.1429
 2651SOL    HW219416   0.580   4.336  14.291 -1.3733 -2.2706 -1.0140
 2652SOL     OW19417   2.499   1.206   8.762  0.2746 -0.5924  0.0150
 2652SOL    HW119418   2.512   1.155   8.842 -0.7403 -0.1961  0.4404
 2652SOL    HW219419   2.533   1.293   8.784 -0.7489 -0.4660  1.1297
 2653SOL     OW19420   4.403   1.033   3.448  0.3471 -0.5940 -0.0216
 2653SOL    HW119421   4.364   1.000   3.367 -1.4020 -0.4181  0.7433
 2653SOL    HW219422   4.484   0.982   3.442 -0.8781 -2.5243 -0.4340
 2654SOL     OW19423   1.509   0.162   2.024 -0.2583  0.1057 -0.2701
 2654SOL    HW119424   1.531   0.117   2.106  0.0217 -0.6849 -0.7767
 2654SOL    HW219425   1.507   0.091   1.960  0.0897  0.9662 -1.2317
 2655SOL     OW19426   2.815   0.465   6.373  0.3214 -0.1804  0.7780
 2655SOL    HW119427   2.875   0.459   6.446  0.2587 -0.0229  0.8435
 2655SOL    HW219428   2.830   0.381   6.331 -2.4137 -0.8980  1.1989
 2656SOL     OW19429   2.881   4.191  17.421  0.2388  0.1353  0.4161
 2656SOL    HW119430   2.887   4.251  17.346 -0.0842  0.7192  0.8570
 2656SOL    HW219431   2.790   4.162  17.427  0.1730 -0.0727 -1.3437
 2657SOL     OW19432   3.136   1.036   4.036 -0.5601 -0.0599  0.3262
 2657SOL    HW119433   3.100   0.964   4.088 -0.1910 -0.5338 -0.0734
 2657SOL    HW219434   3.090   1.027   3.953  1.2061 -1.8624 -0.4769
 2658SOL     OW19435   1.267   1.792   7.778 -0.5025  0.0926  0.2543
 2658SOL    HW119436   1.230   1.754   7.859 -0.3546 -1.3398 -0.3470
 2658SOL    HW219437   1.291   1.877   7.813 -2.7171 -0.0882  2.2193
 2659SOL     OW19438   4.602   2.118   7.109  0.5275 -0.7839 -0.5116
 2659SOL    HW119439   4.650   2.198   7.124  0.8280 -0.6343 -2.2148
 2659SOL    HW219440   4.611   2.114   7.014 -0.8166  2.1966 -0.7611
 2660SOL     OW19441   4.127   0.170   7.558 -0.0640  0.0510 -0.2445
 2660SOL    HW119442   4.138   0.160   7.463 -1.5943 -1.6174 -0.2395
 2660SOL    HW219443   4.141   0.265   7.559 -2.1180  0.3402  1.2461
 2661SOL     OW19444   4.632   0.315   7.425  0.0914  0.6171  0.4554
 2661SOL    HW119445   4.573   0.290   7.496  1.7158 -2.6979  0.6580
 2661SOL    HW219446   4.711   0.299   7.477 -0.9226  1.9127  2.3970
 2662SOL     OW19447   1.978   1.759  13.040  0.2354 -0.0571 -0.3129
 2662SOL    HW119448   2.039   1.685  13.052  1.2295  0.3708 -2.6512
 2662SOL    HW219449   2.029   1.802  12.971  1.9226  0.9142  1.5430
 2663SOL     OW19450   0.341   1.451  14.886  0.6247  0.5659  0.1728
 2663SOL    HW119451   0.250   1.474  14.904  0.2561  0.4490 -1.5562
 2663SOL    HW219452   0.368   1.490  14.970  0.9620  0.0213  0.3163
 2664SOL     OW19453   3.460   2.530  10.525  0.2090  0.4321  0.5069
 2664SOL    HW119454   3.430   2.598  10.464  0.6923  1.1857  1.1028
 2664SOL    HW219455   3.408   2.454  10.499 -1.2134  0.7537  2.4163
 2665SOL     OW19456   1.027   2.762   7.605  0.0726 -0.1387 -0.5827
 2665SOL    HW119457   1.090   2.834   7.606  0.5201 -0.5337 -0.2879
 2665SOL    HW219458   0.949   2.793   7.651 -0.9273 -0.3311 -2.1741
 2666SOL     OW19459   0.422   2.535  14.823 -0.2844  0.1445 -0.1741
 2666SOL    HW119460   0.494   2.518  14.762 -0.8933 -1.4825 -0.4397
 2666SOL    HW219461   0.360   2.468  14.797  2.8667 -2.0033 -2.1758
 2667SOL     OW19462   3.978   1.435   2.970 -0.5752 -0.2001  0.3964
 2667SOL    HW119463   4.011   1.404   3.054  2.1039  1.9505  0.1807
 2667SOL    HW219464   3.977   1.531   2.977  0.6793  0.0069 -2.1516
 2668SOL     OW19465   4.436   1.791  17.509  0.5892 -0.3823  0.0689
 2668SOL    HW119466   4.400   1.869  17.468 -2.2397 -1.7513 -0.0727
 2668SOL    HW219467   4.360   1.758  17.559  0.5959 -0.5709 -0.0426
 2669SOL     OW19468   1.182   2.688   3.883 -0.6031 -0.0939  0.2754
 2669SOL    HW119469   1.184   2.706   3.977  0.0477  1.9299 -0.1192
 2669SOL    HW219470   1.270   2.653   3.868 -0.0884  1.3250  0.0639
 2670SOL     OW19471   1.221   4.102   1.486 -0.3338  0.4463  0.2316
 2670SOL    HW119472   1.165   4.060   1.420 -1.2881  0.8205  0.7975
 2670SOL    HW219473   1.166   4.154   1.544 -1.3775  0.0944 -0.4314
 2671SOL     OW19474   3.951   0.533   6.974  0.3982 -0.0689  0.0244
 2671SOL    HW119475   3.863   0.498   6.985  0.1551  0.6761  0.4643
 2671SOL    HW219476   3.978   0.530   7.066 -1.8883 -0.3101  0.6903
 2672SOL     OW19477   1.012   3.418   3.782  0.0237  0.2737 -0.1278
 2672SOL    HW119478   1.080   3.412   3.850 -1.3153  4.8326  1.6250
 2672SOL    HW219479   0.935   3.445   3.832  0.1280  1.2407 -0.4741
 2673SOL     OW19480   1.696   1.377   4.797 -0.5782 -0.2859  0.1462
 2673SOL    HW119481   1.719   1.450   4.854 -1.4561  0.2533 -0.1819
 2673SOL    HW219482   1.631   1.421   4.741 -0.6588  0.3053  0.7156
 2674SOL     OW19483   2.826   0.655   4.278  0.3463 -0.3469  0.4298
 2674SOL    HW119484   2.917   0.628   4.293 -0.1273 -2.1134  0.1118
 2674SOL    HW219485   2.791   0.591   4.217 -1.0689  1.5167 -0.7057
 2675SOL     OW19486   0.906   2.882  15.658 -0.2177 -0.0893  0.0041
 2675SOL    HW119487   0.893   2.962  15.710  0.7929 -0.2564  0.5000
 2675SOL    HW219488   0.905   2.926  15.573 -2.8160  1.3626  0.7818
 2676SOL     OW19489   0.289   0.060  13.784 -0.0600 -0.1634  0.3721
 2676SOL    HW119490   0.378   0.070  13.751 -0.1780 -0.0808  0.0792
 2676SOL    HW219491   0.264   0.143  13.825  1.7656 -0.1680  1.5183
 2677SOL     OW19492   0.975   3.996   6.584  0.1445  0.4760 -0.1472
 2677SOL    HW119493   1.023   4.001   6.501 -0.9186  1.6382 -0.6850
 2677SOL    HW219494   0.894   4.030   6.546  0.5825  0.6011 -0.9692
 2678SOL     OW19495   0.107   4.205   2.320  0.1059 -0.2909 -0.2285
 2678SOL    HW119496   0.102   4.111   2.301  1.3064 -0.4203  0.1296
 2678SOL    HW219497   0.144   4.248   2.243  0.5822 -2.0424 -0.9682
 2679SOL     OW19498   3.982   2.744   3.289  0.0111 -0.2587  0.3226
 2679SOL    HW119499   3.891   2.716   3.275  0.2298 -1.2489  0.8744
 2679SOL    HW219500   4.029   2.686   3.229 -1.2276 -0.2099 -0.7023
 2680SOL     OW19501   0.977   4.234  13.497  0.3334  0.4986  0.5364
 2680SOL    HW119502   1.004   4.172  13.429  0.3690  3.1074 -1.8469
 2680SOL    HW219503   1.058   4.260  13.541  1.0518  0.2899 -0.6640
 2681SOL     OW19504   3.458   2.564  13.720  0.3405  0.0252 -0.1345
 2681SOL    HW119505   3.413   2.518  13.649  0.0717  0.1239 -0.0286
 2681SOL    HW219506   3.385   2.572  13.782  0.4112  0.9376 -0.1731
 2682SOL     OW19507   2.929   0.122   2.478 -0.1692 -0.5789 -0.3542
 2682SOL    HW119508   2.862   0.055   2.464 -1.1932 -0.1660  2.4256
 2682SOL    HW219509   3.011   0.074   2.493 -1.8076 -2.5891  2.3042
 2683SOL     OW19510   0.137   3.445  10.384 -0.5048 -0.1945 -0.6417
 2683SOL    HW119511   0.217   3.498  10.377 -1.2611  1.0065 -0.1074
 2683SOL    HW219512   0.083   3.480  10.314 -0.0377 -2.2768 -2.0291
 2684SOL     OW19513   0.533   0.744   1.177 -0.1420 -0.6597  0.3563
 2684SOL    HW119514   0.561   0.812   1.238  0.0022  0.5284 -1.0271
 2684SOL    HW219515   0.561   0.779   1.093 -0.8003  1.3693  0.9911
 2685SOL     OW19516   3.848   2.584   6.763 -0.7383 -0.9852 -0.2950
 2685SOL    HW119517   3.774   2.552   6.814 -2.4274  1.9810 -0.8778
 2685SOL    HW219518   3.791   2.626   6.698 -1.4978 -1.5799 -0.0056
 2686SOL     OW19519   2.441   3.088  17.531 -0.2591  0.3071 -0.0899
 2686SOL    HW119520   2.399   3.105  17.615  1.1440  2.8127  0.1131
 2686SOL    HW219521   2.366   3.076  17.473 -0.9472 -1.6681  1.2224
 2687SOL     OW19522   3.559   0.422   5.360  0.3073 -0.4609 -0.4485
 2687SOL    HW119523   3.553   0.342   5.308 -0.8993 -1.0206  0.5403
 2687SOL    HW219524   3.504   0.400   5.435 -0.0800 -0.3045 -0.6847
 2688SOL     OW19525   2.823   2.023   2.769 -0.0523  0.4176  0.1851
 2688SOL    HW119526   2.766   2.065   2.833  1.2022  0.2535  1.4227
 2688SOL    HW219527   2.765   2.015   2.694 -0.6520  1.4485  0.5458
 2689SOL     OW19528   1.488   4.682   5.841 -0.1000 -0.6700 -0.1875
 2689SOL    HW119529   1.477   0.026   5.773 -3.3588 -1.2033 -0.1856
 2689SOL    HW219530   1.532   4.620   5.783  2.9930  1.8775 -0.5546
 2690SOL     OW19531   2.131   0.237   4.131  0.3906  0.0758  0.3504
 2690SOL    HW119532   2.052   0.288   4.112  0.3050 -1.3439 -2.9720
 2690SOL    HW219533   2.082   0.167   4.175  1.2523 -0.8874 -0.2447
 2691SOL     OW19534   2.671   4.169  12.338  0.3689  0.0789  0.3513
 2691SOL    HW119535   2.650   4.161  12.245  1.1043 -1.9764  0.3511
 2691SOL    HW219536   2.628   4.251  12.362 -0.3615  0.1294 -1.1545
 2692SOL     OW19537   1.494   3.474  15.952  0.0402 -0.1541 -0.7597
 2692SOL    HW119538   1.454   3.460  15.867 -0.0416 -0.7930 -0.6232
 2692SOL    HW219539   1.436   3.409  15.992 -0.0538 -0.7899 -1.9445
 2693SOL     OW19540   4.417   4.302   7.697 -0.1185  0.0428  0.0994
 2693SOL    HW119541   4.411   4.304   7.601 -0.6295 -0.0401  0.1300
 2693SOL    HW219542   4.492   4.359   7.711 -1.1779  1.7684 -1.1765
 2694SOL     OW19543   3.956   3.394  15.268  0.4719 -0.0407 -0.0013
 2694SOL    HW119544   3.887   3.403  15.202  1.1317 -0.4420 -0.7465
 2694SOL    HW219545   4.022   3.460  15.249  0.9625 -0.5489 -0.0384
 2695SOL     OW19546   1.198   1.211  17.022  0.0973  0.1220 -0.7870
 2695SOL    HW119547   1.231   1.287  16.973  0.2854  1.0576  0.7942
 2695SOL    HW219548   1.202   1.243  17.112 -1.1383 -1.9773 -0.0106
 2696SOL     OW19549   4.536   3.902   1.618 -0.0864 -0.3792 -0.2278
 2696SOL    HW119550   4.511   3.814   1.647 -1.1638 -0.5932 -1.7949
 2696SOL    HW219551   4.597   3.874   1.551  2.1241  2.1130  0.7613
 2697SOL     OW19552   3.552   0.190   6.069  0.3082 -0.4298 -0.0661
 2697SOL    HW119553   3.631   0.146   6.038 -0.0385 -1.5428  0.6273
 2697SOL    HW219554   3.593   0.276   6.079 -0.3134 -0.1591  0.1669
 2698SOL     OW19555   1.577   1.338   7.611 -0.0083 -0.3174 -0.1876
 2698SOL    HW119556   1.560   1.402   7.541 -1.0591  0.0671  0.4206
 2698SOL    HW219557   1.487   1.326   7.640 -0.4552  0.8627 -1.0973
 2699SOL     OW19558   2.028   1.617   5.702 -0.2933 -0.6196 -0.7299
 2699SOL    HW119559   2.005   1.674   5.628  0.9194  2.1106  0.9666
 2699SOL    HW219560   1.943   1.582   5.727  0.9978 -2.4885  0.9943
 2700SOL     OW19561   2.726   1.242   2.933  0.3987  0.2606 -0.4339
 2700SOL    HW119562   2.803   1.192   2.905 -1.6069 -1.7895 -2.2586
 2700SOL    HW219563   2.767   1.300   2.997  0.6221 -0.2234 -0.1330
 2701SOL     OW19564   0.028   3.029   7.039 -0.1717 -0.0776  0.2714
 2701SOL    HW119565   0.067   2.984   6.963 -1.8585 -0.3455 -0.4307
 2701SOL    HW219566   4.678   3.074   6.996 -1.4503 -0.8640  1.6022
 2702SOL     OW19567   3.934   3.906   1.590  0.2959  0.6060  0.3726
 2702SOL    HW119568   3.848   3.914   1.632  0.4328 -2.0334  1.1842
 2702SOL    HW219569   3.933   3.967   1.517  1.1532  1.6407  1.2163
 2703SOL     OW19570   1.337   3.004   7.478 -0.1553  0.3836  0.2703
 2703SOL    HW119571   1.264   2.988   7.538  0.9974  1.4399  1.9075
 2703SOL    HW219572   1.399   3.039   7.541 -0.3057  1.9137 -0.4293
 2704SOL     OW19573   0.982   2.686   1.490 -0.3135 -0.6031  0.0107
 2704SOL    HW119574   0.945   2.622   1.429 -0.1107 -0.3108 -0.4156
 2704SOL    HW219575   0.918   2.677   1.561  0.1194 -1.8574  0.2355
 2705SOL     OW19576   0.623   1.081   0.773 -0.1895  0.2638 -0.2764
 2705SOL    HW119577   0.676   1.122   0.842  0.4236 -0.7878 -0.1329
 2705SOL    HW219578   0.665   1.130   0.703 -0.2646  0.9597  0.1633
 2706SOL     OW19579   2.491   2.337   4.809  0.3297  0.8235  0.0672
 2706SOL    HW119580   2.408   2.294   4.828  0.5570 -0.1841 -1.1797
 2706SOL    HW219581   2.499   2.398   4.882  0.5877  0.3792  0.4103
 2707SOL     OW19582   0.517   3.339  15.132  0.2749  0.0498  0.9088
 2707SOL    HW119583   0.580   3.363  15.064 -0.5516 -0.7970 -0.1427
 2707SOL    HW219584   0.553   3.385  15.208  0.4370 -0.4928  1.1629
 2708SOL     OW19585   0.695   0.926   5.240  0.0742 -0.2984 -0.0822
 2708SOL    HW119586   0.636   0.970   5.179  2.6243  0.6246 -1.8824
 2708SOL    HW219587   0.625   0.898   5.300  1.5080 -0.5357  1.4774
 2709SOL     OW19588   4.526   0.437  11.057  0.0670  0.1416  0.3002
 2709SOL    HW119589   4.454   0.375  11.063 -1.0330  1.9488  6.9806
 2709SOL    HW219590   4.563   0.428  11.145  1.1559  0.9822 -0.0684
 2710SOL     OW19591   2.871   2.614   7.915  0.1240  0.4146  0.0109
 2710SOL    HW119592   2.931   2.685   7.892 -0.1031  0.3729 -0.6963
 2710SOL    HW219593   2.860   2.625   8.010  0.2116  0.0736  0.0621
 2711SOL     OW19594   0.489   1.155  15.630  0.5593 -0.7821  0.6099
 2711SOL    HW119595   0.494   1.251  15.624 -0.2071 -0.6899  1.5090
 2711SOL    HW219596   0.583   1.134  15.627  0.4423 -1.4947  2.4456
 2712SOL     OW19597   0.366   3.177   8.514  0.2254 -0.3245  0.0711
 2712SOL    HW119598   0.336   3.183   8.605 -0.0487 -0.6212 -0.0016
 2712SOL    HW219599   0.425   3.102   8.524  1.8049  1.0674  1.2280
 2713SOL     OW19600   1.854   4.280  17.022 -0.4127 -0.4307  0.0329
 2713SOL    HW119601   1.815   4.219  17.085 -0.7041  0.1945  0.4595
 2713SOL    HW219602   1.868   4.347  17.089  1.6611 -0.1426 -0.6997
 2714SOL     OW19603   2.997   1.742   8.743  0.0921  0.6963 -0.1130
 2714SOL    HW119604   2.984   1.647   8.744  1.1274  0.5529  0.8568
 2714SOL    HW219605   2.929   1.765   8.806 -2.0538 -0.5509 -1.9896
 2715SOL     OW19606   3.519   1.097   4.770  0.3332  0.4081 -0.5324
 2715SOL    HW119607   3.574   1.175   4.769  0.5807  0.2447  0.9967
 2715SOL    HW219608   3.456   1.131   4.706  1.2572  1.5733 -0.8333
 2716SOL     OW19609   2.108   4.529   6.592 -0.0135  0.6100  0.3675
 2716SOL    HW119610   2.176   4.467   6.618 -0.2787 -0.0537 -0.5225
 2716SOL    HW219611   2.088   4.494   6.505 -3.3661 -2.2370  2.2977
 2717SOL     OW19612   1.064   3.132   1.251 -0.4811  0.0905  0.5751
 2717SOL    HW119613   1.090   3.084   1.330 -1.5157  0.4128  1.1062
 2717SOL    HW219614   1.037   3.063   1.191 -1.4743 -0.0246  1.1574
 2718SOL     OW19615   0.750   2.359  16.805 -0.0791  0.7998  0.2620
 2718SOL    HW119616   0.796   2.439  16.779 -1.1989  1.5040  0.4389
 2718SOL    HW219617   0.733   2.378  16.898 -0.1459 -1.0569  0.6315
 2719SOL     OW19618   1.581   1.267   0.511  0.0532 -0.5007 -0.3219
 2719SOL    HW119619   1.672   1.238   0.501  0.7341  0.9123  1.6291
 2719SOL    HW219620   1.591   1.362   0.516 -2.6623 -0.2279 -0.3763
 2720SOL     OW19621   1.855   4.465   6.021 -0.3311 -0.1536 -0.3666
 2720SOL    HW119622   1.793   4.508   6.081  0.9871  1.2206 -0.0060
 2720SOL    HW219623   1.832   4.373   6.037 -1.4123  0.2602  0.4781
 2721SOL     OW19624   2.837   4.247   8.640  0.0448  0.3829 -0.6777
 2721SOL    HW119625   2.866   4.314   8.579  2.1599 -1.2787 -1.5220
 2721SOL    HW219626   2.751   4.274   8.671  1.2449  2.1772  1.0479
 2722SOL     OW19627   0.538   0.211  13.759 -0.0574 -0.6330 -0.1789
 2722SOL    HW119628   0.569   0.234  13.847 -2.0494  0.2244  0.3115
 2722SOL    HW219629   0.601   0.149  13.725  0.0119  0.2603 -1.6615
 2723SOL     OW19630   1.479   0.945   6.625 -0.0741  0.0335 -0.0216
 2723SOL    HW119631   1.447   0.856   6.610  0.8705 -0.6239  1.8406
 2723SOL    HW219632   1.427   0.982   6.554 -0.8223  0.0600  0.5419
 2724SOL     OW19633   1.262   4.652  15.366  0.4515  0.0291 -0.0215
 2724SOL    HW119634   1.329   4.705  15.409  0.3510 -0.4033  0.6762
 2724SOL    HW219635   1.291   4.568  15.402  0.8377  0.2835  0.2613
 2725SOL     OW19636   3.066   3.303   3.439  0.2981 -0.6491  0.5960
 2725SOL    HW119637   3.017   3.248   3.377 -3.3412 -1.0800  3.8580
 2725SOL    HW219638   3.148   3.319   3.392 -0.3737 -0.3607 -0.4960
 2726SOL     OW19639   3.017   2.890  12.880  1.0471 -0.1478 -0.0636
 2726SOL    HW119640   3.074   2.917  12.953 -1.2902  0.5185  1.5092
 2726SOL    HW219641   2.963   2.969  12.873 -0.1822 -0.8508  1.5579
 2727SOL     OW19642   2.988   1.838  14.521  0.4729  0.6699 -0.3791
 2727SOL    HW119643   2.985   1.809  14.430 -0.3024 -0.8211  0.1327
 2727SOL    HW219644   3.001   1.932  14.503 -0.1763  0.9896  0.8230
 2728SOL     OW19645   2.690   4.483   6.064  0.5805  0.1993  0.0977
 2728SOL    HW119646   2.637   4.407   6.086  1.5447 -0.5012  0.0237
 2728SOL    HW219647   2.761   4.452   6.007 -0.7432 -2.3466 -0.1395
 2729SOL     OW19648   1.558   2.136   2.926  0.0236 -0.4084  0.0104
 2729SOL    HW119649   1.567   2.050   2.965 -0.0930 -0.6161 -0.4179
 2729SOL    HW219650   1.531   2.105   2.839  1.3021  1.4156 -1.0379
 2730SOL     OW19651   3.369   1.066   3.818  0.1438 -0.1986  0.0829
 2730SOL    HW119652   3.300   1.116   3.774  0.3264 -0.3418 -0.3636
 2730SOL    HW219653   3.409   1.126   3.882  1.2782 -1.9431  1.0124
 2731SOL     OW19654   2.967   3.684   9.041  0.1257  0.8949 -0.4373
 2731SOL    HW119655   3.058   3.710   9.058  0.6029 -1.0403  0.0300
 2731SOL    HW219656   2.927   3.770   9.028 -0.0236  1.2385  2.2121
 2732SOL     OW19657   1.515   4.239   9.439  0.0506  0.3926  0.1954
 2732SOL    HW119658   1.559   4.315   9.402  1.4880 -0.2289  0.6242
 2732SOL    HW219659   1.523   4.181   9.363  3.1675 -0.5644  1.2698
 2733SOL     OW19660   2.312   4.644  15.473 -0.1430 -0.1017  0.2331
 2733SOL    HW119661   2.349   4.567  15.430 -0.1119  0.5036 -0.8147
 2733SOL    HW219662   2.222   4.643  15.439 -0.0399 -3.1587  0.0963
 2734SOL     OW19663   4.472   3.521   0.225  0.2255 -0.5764  0.2546
 2734SOL    HW119664   4.542   3.463   0.195 -0.1230 -0.1669 -1.3261
 2734SOL    HW219665   4.494   3.614   0.215 -1.1228 -0.4960 -1.8720
 2735SOL     OW19666   4.611   3.112   3.924 -0.0621 -0.0425 -0.1247
 2735SOL    HW119667   4.643   3.076   3.841 -1.6558  1.8446 -1.5809
 2735SOL    HW219668   4.520   3.090   3.905  0.0866 -0.3540 -0.4878
 2736SOL     OW19669   2.193   1.906   6.327  0.4558 -0.5627 -0.2423
 2736SOL    HW119670   2.216   1.830   6.274 -3.5730 -1.5933 -0.5047
 2736SOL    HW219671   2.106   1.926   6.291 -0.3597  1.5220  2.8727
 2737SOL     OW19672   1.960   3.110   4.921 -0.0045 -0.0821  0.3332
 2737SOL    HW119673   1.901   3.158   4.979 -0.1709  0.2050 -0.0764
 2737SOL    HW219674   1.946   3.023   4.958 -3.4710  0.1829 -0.3481
 2738SOL     OW19675   1.812   4.357  14.148  0.3148 -0.3859 -0.4876
 2738SOL    HW119676   1.792   4.363  14.055 -1.4667 -1.7317 -0.1990
 2738SOL    HW219677   1.814   4.263  14.166  0.7263 -0.3831 -0.5160
 2739SOL     OW19678   1.485   0.613  12.270 -0.1257  0.8807  0.2589
 2739SOL    HW119679   1.495   0.520  12.248  1.1474  0.7835  1.2142
 2739SOL    HW219680   1.390   0.613  12.278 -0.0401  2.0327  1.2561
 2740SOL     OW19681   0.091   1.714   6.986 -0.2650  0.1977  0.0738
 2740SOL    HW119682   0.167   1.717   7.044  0.4017 -0.5335 -0.7572
 2740SOL    HW219683   0.127   1.767   6.915 -0.7614 -0.8805 -0.9904
 2741SOL     OW19684   2.753   3.733  14.484  0.3144  0.4155 -0.3966
 2741SOL    HW119685   2.676   3.757  14.535  0.4508  0.4644 -0.2141
 2741SOL    HW219686   2.785   3.823  14.472  1.7735 -0.1593 -0.7884
 2742SOL     OW19687   1.149   3.178  13.323 -0.4467 -0.1674 -0.1086
 2742SOL    HW119688   1.060   3.149  13.347 -0.2429 -0.1911  0.6422
 2742SOL    HW219689   1.132   3.256  13.272  1.2890 -0.8076 -1.6278
 2743SOL     OW19690   4.545   0.074   7.651  0.4587 -0.5575 -0.5066
 2743SOL    HW119691   4.606   0.003   7.668 -1.0041 -1.6369  0.1867
 2743SOL    HW219692   4.573   0.142   7.712 -1.1234  0.0933 -0.4839
 2744SOL     OW19693   2.138   0.026   8.616 -0.2712  0.3695  0.3609
 2744SOL    HW119694   2.084   4.694   8.559 -1.9134 -0.7769  3.0803
 2744SOL    HW219695   2.164   0.095   8.554  1.0625  1.4753  2.1536
 2745SOL     OW19696   2.101   3.497   8.489  0.9152  0.1340  0.2527
 2745SOL    HW119697   2.061   3.546   8.560  0.7834  0.1901  0.1393
 2745SOL    HW219698   2.022   3.458   8.452  1.8653 -1.4055 -0.1709
 2746SOL     OW19699   4.046   2.859   7.929 -0.6601 -0.3362  0.1178
 2746SOL    HW119700   4.007   2.863   8.017  0.7724  1.7784  0.6470
 2746SOL    HW219701   3.966   2.866   7.878 -0.3877 -0.9613 -0.3898
 2747SOL     OW19702   4.042   1.112   3.461  0.1481 -0.6203 -0.0927
 2747SOL    HW119703   4.072   1.022   3.463 -1.3018 -1.1241 -0.4987
 2747SOL    HW219704   3.949   1.115   3.484  0.4416 -0.3061  1.0445
 2748SOL     OW19705   1.511   2.760   0.223  0.0677 -0.3164  0.0241
 2748SOL    HW119706   1.599   2.753   0.188  0.3616 -0.2547  0.7584
 2748SOL    HW219707   1.511   2.851   0.252  1.2606 -0.1542 -0.5217
 2749SOL     OW19708   0.964   3.429   9.819  0.1205 -0.7103 -0.1614
 2749SOL    HW119709   0.958   3.440   9.914  1.4704 -2.3133  0.1131
 2749SOL    HW219710   0.944   3.519   9.794 -0.4427 -0.8941 -0.3536
 2750SOL     OW19711   4.084   3.025   8.592  0.6549  0.6390  0.2936
 2750SOL    HW119712   4.015   2.979   8.545  2.0300 -2.5636  1.4553
 2750SOL    HW219713   4.042   3.105   8.625 -1.0418 -0.2951  0.3802
 2751SOL     OW19714   2.916   1.342   5.440  0.6157 -0.2759 -0.2600
 2751SOL    HW119715   2.974   1.283   5.488 -1.4684 -0.9554  1.3864
 2751SOL    HW219716   2.976   1.386   5.379 -1.2575  1.3366 -0.9424
 2752SOL     OW19717   2.090   2.942   2.420  0.4580  0.2052  0.3192
 2752SOL    HW119718   2.122   2.989   2.343 -1.4521  0.0946 -0.5605
 2752SOL    HW219719   2.140   2.862   2.411  1.2671  0.6956  0.4678
 2753SOL     OW19720   3.446   1.486  10.641 -0.9178 -0.2429 -0.2557
 2753SOL    HW119721   3.488   1.404  10.668  0.9168  1.4760  2.2602
 2753SOL    HW219722   3.430   1.471  10.548 -2.9751 -1.5828  0.3143
 2754SOL     OW19723   1.469   2.803  12.703 -0.0229  0.1383  0.4421
 2754SOL    HW119724   1.564   2.819  12.707  0.4051 -2.1894 -0.3154
 2754SOL    HW219725   1.459   2.756  12.786  2.4238  0.0121  0.6890
 2755SOL     OW19726   1.246   4.374   9.719 -0.3364 -0.3863 -0.6406
 2755SOL    HW119727   1.193   4.442   9.678  1.1037  0.6499 -0.7770
 2755SOL    HW219728   1.247   4.399   9.811  0.3491 -1.3159 -0.3994
 2756SOL     OW19729   2.511   3.151   9.204 -0.5345  0.3988  0.0968
 2756SOL    HW119730   2.454   3.095   9.150  1.5297 -0.6350 -1.0182
 2756SOL    HW219731   2.440   3.214   9.219  0.5200  1.1651  1.7642
 2757SOL     OW19732   2.916   1.915   8.546  0.1078 -0.1924 -0.6551
 2757SOL    HW119733   2.965   1.994   8.523  0.6879 -0.5272 -0.5929
 2757SOL    HW219734   2.965   1.866   8.613 -2.5266  0.1495  1.5192
 2758SOL     OW19735   4.096   3.103   8.218  0.4703 -0.0763  0.5332
 2758SOL    HW119736   4.037   3.069   8.285 -0.5788 -1.0187 -0.8772
 2758SOL    HW219737   4.184   3.074   8.243  0.5432 -0.7779 -0.5473
 2759SOL     OW19738   0.370   2.713   3.147 -0.6765 -0.0984 -0.6619
 2759SOL    HW119739   0.331   2.636   3.106 -0.5526 -0.0094 -0.9423
 2759SOL    HW219740   0.449   2.715   3.093 -1.1314  1.9298 -1.2335
 2760SOL     OW19741   3.460   0.379   4.363  0.0381  0.4093 -0.3239
 2760SOL    HW119742   3.548   0.415   4.373  0.9540 -1.5845 -0.9455
 2760SOL    HW219743   3.466   0.283   4.361  1.0849  0.4201  3.3420
 2761SOL     OW19744   4.330   3.400   4.009  0.6393 -0.2316 -0.3967
 2761SOL    HW119745   4.403   3.416   3.948  0.6388  0.4638 -0.2212
 2761SOL    HW219746   4.277   3.337   3.961  1.0152 -0.6403 -0.2807
 2762SOL     OW19747   3.088   2.789   5.201 -0.4931  0.1382 -0.7633
 2762SOL    HW119748   3.079   2.858   5.135  2.2201  0.7975 -0.4703
 2762SOL    HW219749   3.048   2.713   5.158 -0.7258  0.3157 -0.8604
 2763SOL     OW19750   3.712   1.341   4.721  0.1658 -0.4124  0.3691
 2763SOL    HW119751   3.787   1.347   4.780  0.6090  1.2320 -0.3571
 2763SOL    HW219752   3.751   1.296   4.646 -0.0010  0.2871 -0.1424
 2764SOL     OW19753   3.674   1.214   5.816  0.2868  0.0348  0.3888
 2764SOL    HW119754   3.619   1.183   5.743  1.6258 -2.0942  0.3049
 2764SOL    HW219755   3.723   1.284   5.773 -2.1902  0.9475 -0.9697
 2765SOL     OW19756   1.131   1.387   7.417  0.1289  0.2551  0.1759
 2765SOL    HW119757   1.047   1.357   7.381 -0.1042  1.2352 -0.0910
 2765SOL    HW219758   1.189   1.349   7.351  2.1370 -0.0409  2.1109
 2766SOL     OW19759   4.677   1.333  13.510 -0.2488  0.0183 -0.1968
 2766SOL    HW119760   4.689   1.297  13.597 -2.9481 -0.6885 -0.1143
 2766SOL    HW219761   4.584   1.320  13.490 -0.3653  0.3085  0.1557
 2767SOL     OW19762   4.618   2.603   9.604 -0.1402 -0.0034 -0.3514
 2767SOL    HW119763   4.630   2.545   9.529 -4.3107 -2.6753  1.0463
 2767SOL    HW219764   4.670   2.681   9.585 -1.1284  0.9488  0.7813
 2768SOL     OW19765   1.287   3.384   2.767 -0.0192 -0.5254 -0.1486
 2768SOL    HW119766   1.338   3.422   2.695 -0.3250 -1.9272 -1.1185
 2768SOL    HW219767   1.351   3.313   2.775  0.6861 -0.3158 -3.6011
 2769SOL     OW19768   1.811   4.206   3.697  0.3816  0.2427  0.0072
 2769SOL    HW119769   1.803   4.297   3.668 -1.9704  0.5581  1.5898
 2769SOL    HW219770   1.797   4.216   3.791 -0.5223 -0.0513 -0.0950
 2770SOL     OW19771   0.515   0.959   2.563  0.3476 -0.3855  0.4913
 2770SOL    HW119772   0.582   0.904   2.605  2.6003  0.7792 -1.6035
 2770SOL    HW219773   0.501   0.915   2.479 -1.4011 -0.5284  0.8535
 2771SOL     OW19774   2.893   2.897  12.383  0.2866 -0.6943 -0.2195
 2771SOL    HW119775   2.855   2.977  12.418 -0.2368 -0.5698 -1.0812
 2771SOL    HW219776   2.985   2.916  12.398  0.3326 -1.7960  0.9004
 2772SOL     OW19777   1.617   2.830   3.993 -0.0696  0.0005  0.1270
 2772SOL    HW119778   1.705   2.859   3.968  1.3719 -3.7007  0.9443
 2772SOL    HW219779   1.619   2.739   3.963  1.3120  0.2913 -0.6621
 2773SOL     OW19780   1.624   2.659   5.328 -1.1911  0.1279  0.5081
 2773SOL    HW119781   1.707   2.700   5.351 -0.0020 -2.5306  0.9204
 2773SOL    HW219782   1.555   2.719   5.356 -1.1786 -0.0194  0.8485
 2774SOL     OW19783   0.042   3.011   4.131  0.2186  0.0941 -0.8978
 2774SOL    HW119784   0.094   2.945   4.085  1.4219  0.2076  0.3055
 2774SOL    HW219785   4.700   3.024   4.062  2.2094  2.3464 -2.3650
 2775SOL     OW19786   1.229   4.316  13.647 -0.7676  0.5366  0.2771
 2775SOL    HW119787   1.190   4.394  13.685  0.2170  2.5521 -2.8248
 2775SOL    HW219788   1.282   4.280  13.718 -1.6974 -0.9099  0.2408
 2776SOL     OW19789   1.276   0.829   8.697  0.0341  0.0606  0.0594
 2776SOL    HW119790   1.360   0.822   8.743  0.5907  0.9989 -0.8261
 2776SOL    HW219791   1.270   0.924   8.687  2.1586  0.2351  0.3586
 2777SOL     OW19792   2.321   4.138   2.708 -0.5605  0.3545  0.7085
 2777SOL    HW119793   2.229   4.157   2.692 -0.5263 -0.7078 -0.7953
 2777SOL    HW219794   2.338   4.062   2.652 -2.4207 -0.8512  1.7845
 2778SOL     OW19795   1.154   2.160   2.813  0.5936  0.3374 -0.2606
 2778SOL    HW119796   1.163   2.232   2.876 -0.3823 -0.2768  0.5722
 2778SOL    HW219797   1.061   2.137   2.806  1.2139 -2.4525  0.8859
 2779SOL     OW19798   2.242   1.381   2.610 -0.0579  0.0704  0.1275
 2779SOL    HW119799   2.222   1.404   2.700  1.5925 -1.5596  0.9159
 2779SOL    HW219800   2.288   1.462   2.587  0.4503  0.3451  2.1698
 2780SOL     OW19801   2.922   1.304   2.115 -0.1594  0.0609  0.1792
 2780SOL    HW119802   2.963   1.220   2.134 -0.1962 -0.1700 -0.7770
 2780SOL    HW219803   2.851   1.288   2.054  0.0180 -0.4607  0.1088
 2781SOL     OW19804   1.527   3.927   2.891 -0.3233  0.1929  0.6092
 2781SOL    HW119805   1.531   3.838   2.856 -0.2313  0.5627 -0.3044
 2781SOL    HW219806   1.440   3.931   2.932 -0.1675  1.1614  0.8598
 2782SOL     OW19807   3.976   4.039   6.950 -0.5911 -0.5733  0.1387
 2782SOL    HW119808   3.948   4.125   6.919  2.9412  0.8341  0.8211
 2782SOL    HW219809   3.901   3.980   6.942  1.3306 -3.0623  0.6236
 2783SOL     OW19810   0.510   1.871   8.035  0.0118  0.2178 -0.1213
 2783SOL    HW119811   0.599   1.904   8.023 -0.2932  2.3487  3.3748
 2783SOL    HW219812   0.499   1.828   7.951 -0.4567  0.6129 -0.2614
 2784SOL     OW19813   0.952   0.871   2.125  0.3358 -0.6317 -0.3949
 2784SOL    HW119814   1.029   0.819   2.149  2.3579  1.1922 -2.9787
 2784SOL    HW219815   0.955   0.946   2.184 -0.7312 -0.3110 -0.7534
 2785SOL     OW19816   4.529   1.788  15.951  0.0534 -0.0452 -0.3122
 2785SOL    HW119817   4.497   1.786  15.861 -0.0558 -1.3203 -0.2374
 2785SOL    HW219818   4.457   1.748  15.999  1.1638  0.7356  2.0175
 2786SOL     OW19819   1.710   0.548   2.623 -0.0102 -1.0070 -1.2907
 2786SOL    HW119820   1.706   0.633   2.580  2.9841  0.2111  0.9358
 2786SOL    HW219821   1.746   0.580   2.705  0.1389 -3.6221 -0.3183
 2787SOL     OW19822   1.924   3.996   3.586 -0.1393 -0.1947  0.1058
 2787SOL    HW119823   1.974   3.972   3.664 -0.1089  2.8479  0.9943
 2787SOL    HW219824   1.866   4.063   3.621 -0.0355  0.2486 -0.5751
 2788SOL     OW19825   2.529   3.821   8.373  0.4732  0.0678 -0.1837
 2788SOL    HW119826   2.558   3.836   8.463  0.1080  1.1529 -0.2498
 2788SOL    HW219827   2.443   3.863   8.372  1.2528  1.6477 -0.6138
 2789SOL     OW19828   4.651   4.472  13.329 -0.0497 -0.6103 -0.3592
 2789SOL    HW119829   4.600   4.450  13.408  0.4035  1.4118  0.5076
 2789SOL    HW219830   4.690   4.557  13.351 -0.2103 -0.8144  0.7294
 2790SOL     OW19831   3.253   2.195   5.265  0.4665 -1.1417 -0.2866
 2790SOL    HW119832   3.259   2.215   5.359 -0.1658 -0.6597 -0.3471
 2790SOL    HW219833   3.305   2.114   5.265 -1.6873 -2.5202 -0.4213
 2791SOL     OW19834   1.157   2.425  12.348 -0.1344 -0.3316 -0.2745
 2791SOL    HW119835   1.087   2.478  12.385 -1.3882 -2.0936 -0.1701
 2791SOL    HW219836   1.160   2.463  12.260 -1.8380 -0.4757 -0.3949
 2792SOL     OW19837   0.061   2.016  14.227 -0.2390  0.5312 -0.4309
 2792SOL    HW119838   0.111   2.083  14.274 -0.5645  1.1046 -0.8988
 2792SOL    HW219839   0.061   2.055  14.139  0.6362  1.4199 -0.0381
 2793SOL     OW19840   4.287   3.123   4.603 -0.1775  0.1890 -0.3572
 2793SOL    HW119841   4.334   3.186   4.658 -0.6182  0.1297  0.0919
 2793SOL    HW219842   4.352   3.058   4.579 -2.3624 -1.5375 -1.6053
 2794SOL     OW19843   1.658   4.485   5.745 -0.0230  0.0131  0.6539
 2794SOL    HW119844   1.698   4.450   5.825  1.0972 -0.4428 -0.1108
 2794SOL    HW219845   1.730   4.502   5.685 -0.5698 -0.2572 -0.0876
 2795SOL     OW19846   4.338   3.908   3.368  0.3274  0.2512 -0.2388
 2795SOL    HW119847   4.424   3.951   3.365 -0.5640  1.9558 -1.2943
 2795SOL    HW219848   4.351   3.850   3.293  0.3784  0.8053 -0.6560
 2796SOL     OW19849   0.598   2.558   4.102  0.3761  0.6286 -0.1087
 2796SOL    HW119850   0.577   2.542   4.195 -1.6934 -0.4833 -0.7417
 2796SOL    HW219851   0.518   2.524   4.061  1.6158 -1.3251 -0.8937
 2797SOL     OW19852   1.220   3.022   5.364  0.0794 -0.0613 -0.3875
 2797SOL    HW119853   1.134   3.021   5.322  0.6073 -0.8567 -1.4598
 2797SOL    HW219854   1.282   3.055   5.299  0.5660 -1.0818 -0.4427
 2798SOL     OW19855   2.646   0.977   2.964 -0.2052 -0.2823  0.1392
 2798SOL    HW119856   2.716   0.920   2.995 -0.0064 -0.7460 -1.1413
 2798SOL    HW219857   2.673   1.069   2.964 -1.4413  0.0797 -0.0747
 2799SOL     OW19858   4.259   0.577   8.492 -0.5354 -0.0346  0.2834
 2799SOL    HW119859   4.295   0.512   8.552 -0.9253 -0.2024  0.3401
 2799SOL    HW219860   4.261   0.650   8.553 -0.2546 -0.7550  1.1386
 2800SOL     OW19861   3.376   1.603  15.348 -0.5900 -0.0680  0.7018
 2800SOL    HW119862   3.352   1.517  15.382  1.6846 -1.6612 -1.7333
 2800SOL    HW219863   3.301   1.626  15.292  2.2038 -2.0803 -3.8891
 2801SOL     OW19864   0.678   4.479  11.331 -0.1954 -0.1529 -0.2874
 2801SOL    HW119865   0.674   4.438  11.418 -1.4270  1.3312  0.3667
 2801SOL    HW219866   0.768   4.457  11.305  0.2166  0.4305  0.6073
 2802SOL     OW19867   0.663   2.872   4.439 -0.3044 -0.4693  0.0906
 2802SOL    HW119868   0.591   2.845   4.496  0.2885  0.6178  1.3642
 2802SOL    HW219869   0.646   2.964   4.416  2.9903 -0.1536 -1.0012
 2803SOL     OW19870   2.686   2.498  17.124 -0.2038  0.4368  0.1632
 2803SOL    HW119871   2.664   2.419  17.173 -1.8862  2.2756  2.3805
 2803SOL    HW219872   2.708   2.556  17.197 -2.9391  0.8559  0.6512
 2804SOL     OW19873   3.552   1.506   5.712  0.1508 -0.2019 -0.2642
 2804SOL    HW119874   3.490   1.488   5.783 -1.1256 -0.0505 -1.3327
 2804SOL    HW219875   3.516   1.448   5.645 -0.2601  0.4689 -0.6301
 2805SOL     OW19876   3.588   4.161   1.310 -0.0286  0.3071 -0.3530
 2805SOL    HW119877   3.516   4.098   1.302  0.2510  0.0323 -0.7333
 2805SOL    HW219878   3.548   4.247   1.297 -0.4640  0.0506 -0.7076
 2806SOL     OW19879   1.412   1.802   5.285  0.4467 -0.2753 -0.1667
 2806SOL    HW119880   1.378   1.725   5.330  0.1913 -0.7286 -1.1295
 2806SOL    HW219881   1.424   1.766   5.197  0.3231 -2.4083  0.6947
 2807SOL     OW19882   3.448   2.342   0.646  0.3478 -0.2195 -0.2299
 2807SOL    HW119883   3.471   2.276   0.711  0.5413  0.4214  0.3483
 2807SOL    HW219884   3.496   2.315   0.568 -0.8949  0.0677 -1.0944
 2808SOL     OW19885   2.339   2.689   6.612 -0.2399  0.2246  0.1017
 2808SOL    HW119886   2.354   2.637   6.691 -2.4010 -0.1196  0.2810
 2808SOL    HW219887   2.335   2.777   6.650  0.1985  0.0386  0.5721
 2809SOL     OW19888   3.956   4.683   5.176 -0.2260 -0.3122 -0.0301
 2809SOL    HW119889   3.998   0.043   5.197  0.7063 -1.0497  1.0415
 2809SOL    HW219890   4.014   4.626   5.227  2.6519  0.4305 -2.4668
 2810SOL     OW19891   0.895   1.233   5.932 -0.0956  0.0029 -0.2478
 2810SOL    HW119892   0.916   1.188   6.014 -0.2607 -1.7369 -1.1467
 2810SOL    HW219893   0.850   1.310   5.965  0.8634  0.3400  0.2666
 2811SOL     OW19894   4.458   1.773   2.920  0.0051 -0.3934  0.0689
 2811SOL    HW119895   4.524   1.706   2.937  1.6798  0.9104 -1.3252
 2811SOL    HW219896   4.445   1.765   2.826 -0.4093  0.9230  0.0056
 2812SOL     OW19897   2.197   3.918   6.281 -0.1725 -0.1475 -0.3336
 2812SOL    HW119898   2.254   3.957   6.215 -1.7361  0.7884 -1.1159
 2812SOL    HW219899   2.137   3.987   6.307  0.0169  0.0078 -0.3105
 2813SOL     OW19900   4.295   3.410   3.251  0.5121  0.7596  0.1167
 2813SOL    HW119901   4.210   3.453   3.245  0.4649  0.7100  0.4313
 2813SOL    HW219902   4.291   3.336   3.190 -1.2861 -0.1256  1.3018
 2814SOL     OW19903   1.665   1.649   6.854  0.2303 -0.0024  0.7836
 2814SOL    HW119904   1.754   1.613   6.852  1.3020  2.6821  0.3840
 2814SOL    HW219905   1.678   1.743   6.839  0.6185 -0.2439 -0.3472
 2815SOL     OW19906   3.830   0.906  11.440  0.2252  0.2333 -0.3335
 2815SOL    HW119907   3.765   0.969  11.408 -0.6337 -1.4230 -1.8594
 2815SOL    HW219908   3.865   0.876  11.356  4.6781  2.0385  0.8946
 2816SOL     OW19909   2.206   2.855   8.829  0.8108  0.2427  0.5477
 2816SOL    HW119910   2.166   2.913   8.764  2.6687 -2.6563 -3.2253
 2816SOL    HW219911   2.297   2.870   8.804  0.9229 -2.2813 -0.6734
 2817SOL     OW19912   0.313   4.708  14.059 -0.2138  0.4113 -0.2608
 2817SOL    HW119913   0.283   0.019  13.975  0.5159  0.0307 -0.6734
 2817SOL    HW219914   0.239   4.651  14.077  0.0823  0.0006 -0.3533
 2818SOL     OW19915   0.712   0.192   5.193 -0.0229  0.5147  0.3117
 2818SOL    HW119916   0.767   0.184   5.271  2.0208  0.7840 -1.0955
 2818SOL    HW219917   0.702   0.098   5.175  0.2239  0.5874 -0.1918
 2819SOL     OW19918   1.310   0.365   9.101  0.3792  0.2008  0.0593
 2819SOL    HW119919   1.245   0.424   9.138  0.6371  0.5694 -0.0790
 2819SOL    HW219920   1.312   0.305   9.176  2.0638 -0.0604 -0.1755
 2820SOL     OW19921   1.854   0.250   8.747 -0.1202  0.3163  0.2923
 2820SOL    HW119922   1.831   0.265   8.655 -0.0910 -1.1267  0.0456
 2820SOL    HW219923   1.880   0.335   8.782 -0.1497  0.6382 -0.4563
 2821SOL     OW19924   3.083   0.388   3.170 -0.2210 -0.2443 -0.6660
 2821SOL    HW119925   3.033   0.377   3.251 -0.9080  2.2150 -0.7515
 2821SOL    HW219926   3.011   0.386   3.107  1.4467 -0.1757 -2.5859
 2822SOL     OW19927   1.491   3.972   3.224 -0.3899  0.3670 -0.0190
 2822SOL    HW119928   1.565   3.939   3.173 -0.9036 -1.4734  0.4168
 2822SOL    HW219929   1.437   3.893   3.221  1.3292 -0.8621  0.8377
 2823SOL     OW19930   0.603   0.172   2.632 -0.3739  0.5520 -0.1911
 2823SOL    HW119931   0.674   0.113   2.606 -0.1906  0.6706  0.0511
 2823SOL    HW219932   0.654   0.242   2.672 -0.8837  0.2034  1.0516
 2824SOL     OW19933   0.167   2.920   4.433  0.0927  0.2110  0.3684
 2824SOL    HW119934   0.191   2.986   4.369 -0.4994  1.9531  1.9333
 2824SOL    HW219935   0.109   2.861   4.384 -3.0239  1.7834  2.0956
 2825SOL     OW19936   2.151   1.335   8.226 -0.1341  0.3649 -0.0562
 2825SOL    HW119937   2.111   1.345   8.313 -0.5237  2.9945 -0.5449
 2825SOL    HW219938   2.116   1.254   8.191  1.0586 -0.1730 -0.0096
 2826SOL     OW19939   4.528   3.291  13.161  0.0988  0.2596 -0.0930
 2826SOL    HW119940   4.579   3.216  13.132 -1.1436 -0.4929 -0.2972
 2826SOL    HW219941   4.598   3.354  13.143  2.8922 -2.7591  0.2720
 2827SOL     OW19942   2.629   1.559   4.145 -0.3973 -0.4622 -0.7456
 2827SOL    HW119943   2.680   1.509   4.209 -0.2143 -0.6404 -1.0262
 2827SOL    HW219944   2.692   1.616   4.101  1.6144 -0.0782  2.5980
 2828SOL     OW19945   2.193   2.362   4.434  0.0720  0.4195  0.3139
 2828SOL    HW119946   2.180   2.272   4.463 -1.1210  0.3840 -0.2964
 2828SOL    HW219947   2.285   2.361   4.409  0.4321 -2.1351  1.7711
 2829SOL     OW19948   1.315   4.716   8.609  0.0928 -1.1093 -0.6723
 2829SOL    HW119949   1.376   4.645   8.628  1.9780  0.0655 -2.3356
 2829SOL    HW219950   1.378   0.062   8.591 -1.2202  0.0476 -0.7977
 2830SOL     OW19951   4.714   2.946  13.317  0.3298  0.4233  0.4975
 2830SOL    HW119952   4.641   2.958  13.256 -0.2744  0.3812  1.2205
 2830SOL    HW219953   0.046   2.894  13.258 -0.2906  0.4687 -0.1255
 2831SOL     OW19954   3.115   2.747   6.120 -0.2759 -0.0638 -0.3649
 2831SOL    HW119955   3.154   2.691   6.186 -0.3384 -1.5042 -1.5534
 2831SOL    HW219956   3.081   2.686   6.055 -2.4747  0.0856  0.6625
 2832SOL     OW19957   2.034   3.862   3.818 -0.0717  0.9288 -0.0834
 2832SOL    HW119958   1.999   3.920   3.886 -2.4985 -0.7380  0.1274
 2832SOL    HW219959   2.128   3.878   3.816  0.5957 -2.6217  2.9397
 2833SOL     OW19960   0.468   0.284   3.411 -0.7420 -0.0061 -0.2583
 2833SOL    HW119961   0.544   0.336   3.439 -0.3906 -0.6686  0.0178
 2833SOL    HW219962   0.502   0.200   3.380  0.2015  0.8458 -1.5156
 2834SOL     OW19963   2.282   0.463   0.671 -0.4280  0.3098  0.1868
 2834SOL    HW119964   2.248   0.550   0.691  0.0397  0.7912 -1.1057
 2834SOL    HW219965   2.262   0.444   0.579 -0.3369 -0.0683  0.2436
 2835SOL     OW19966   0.296   2.478   3.003  0.1530  0.1530 -0.2315
 2835SOL    HW119967   0.217   2.436   2.968 -1.3106 -0.1868  3.5718
 2835SOL    HW219968   0.321   2.417   3.071 -1.5019  1.6993  1.7568
 2836SOL     OW19969   1.942   4.622   3.982 -0.5955  0.0983  0.3880
 2836SOL    HW119970   1.987   4.550   4.027 -1.7201 -0.6707  0.2951
 2836SOL    HW219971   1.900   4.664   4.057 -1.1225 -0.1639  0.2352
 2837SOL     OW19972   3.702   0.508  11.174  0.1817 -0.0174  0.1501
 2837SOL    HW119973   3.727   0.449  11.103  1.4787 -0.5395  1.0512
 2837SOL    HW219974   3.629   0.558  11.136 -0.9056 -0.4139  1.7087
 2838SOL     OW19975   4.342   1.632   2.484  0.0443  0.4355  0.1362
 2838SOL    HW119976   4.382   1.547   2.501 -0.5119  0.1888  0.2213
 2838SOL    HW219977   4.401   1.657   2.413  0.4350 -0.8372  0.0171
 2839SOL     OW19978   0.761   3.472   4.456  0.6598 -0.1308  0.3023
 2839SOL    HW119979   0.756   3.416   4.378  1.1643 -0.9246  0.8498
 2839SOL    HW219980   0.780   3.555   4.411  1.4050  0.4098  1.6028
 2840SOL     OW19981   3.867   3.453   8.829  0.2158 -0.1744  0.0403
 2840SOL    HW119982   3.934   3.441   8.896  0.4458  1.9873  0.1814
 2840SOL    HW219983   3.903   3.392   8.764  2.2688  0.0948  0.9418
 2841SOL     OW19984   2.865   1.323   9.397 -0.7848  0.0913  0.0022
 2841SOL    HW119985   2.914   1.282   9.325 -1.6773  1.4339 -1.3411
 2841SOL    HW219986   2.776   1.296   9.374 -0.8313  0.4710 -0.2564
 2842SOL     OW19987   2.212   0.626   4.183 -0.5187 -0.4447 -0.3296
 2842SOL    HW119988   2.272   0.605   4.255 -1.0250 -0.1004  0.1944
 2842SOL    HW219989   2.250   0.566   4.118 -0.8573 -0.4169 -0.5525
 2843SOL     OW19990   3.592   2.719  10.695 -0.0020  0.0925 -0.0885
 2843SOL    HW119991   3.535   2.659  10.648  1.7049 -2.1763  0.7926
 2843SOL    HW219992   3.575   2.802  10.649 -0.3760 -2.0267 -3.7334
 2844SOL     OW19993   0.290   0.472   9.835 -0.2906  0.5741 -0.8303
 2844SOL    HW119994   0.376   0.513   9.820  0.8109 -1.1094  0.9139
 2844SOL    HW219995   0.288   0.398   9.775  1.0364 -1.4326  1.6106
 2845SOL     OW19996   1.543   1.948   0.655 -0.2268 -0.1199 -0.2990
 2845SOL    HW119997   1.615   1.963   0.717  0.0863 -0.8002 -0.4989
 2845SOL    HW219998   1.492   1.888   0.708 -0.9309 -0.2402 -1.1148
 2846SOL     OW19999   2.757   0.525   4.948  0.9852  0.0189  0.2463
 2846SOL    HW120000   2.805   0.598   4.988  2.0609 -0.9778  0.7960
 2846SOL    HW220001   2.684   0.514   5.009  1.4283 -0.9400  0.6176
 2847SOL     OW20002   0.410   4.610   5.132 -0.1316  0.1409  0.0977
 2847SOL    HW120003   0.403   4.700   5.100 -0.2287 -0.5139 -1.7103
 2847SOL    HW220004   0.319   4.581   5.119 -0.4075  1.8694 -1.9383
 2848SOL     OW20005   2.719   1.032   8.715 -0.1441 -0.1722  0.2025
 2848SOL    HW120006   2.645   1.090   8.697  0.6659  1.3690  1.8100
 2848SOL    HW220007   2.690   0.954   8.669 -0.9534 -1.1024  2.2960
 2849SOL     OW20008   3.551   4.544   3.763 -0.2293  0.1021  0.3028
 2849SOL    HW120009   3.458   4.554   3.784 -0.8491 -0.6157 -2.0471
 2849SOL    HW220010   3.541   4.506   3.675 -1.1132  1.6163 -0.2460
 2850SOL     OW20011   0.327   2.231   4.833 -0.1513  0.7827  0.3408
 2850SOL    HW120012   0.324   2.214   4.738  0.2054  2.0198  0.1203
 2850SOL    HW220013   0.420   2.214   4.847 -0.5190 -1.7583 -0.2556
 2851SOL     OW20014   2.861   1.530   6.718  0.3095  0.1075 -0.5488
 2851SOL    HW120015   2.852   1.535   6.622  0.4738 -1.1596 -0.6332
 2851SOL    HW220016   2.780   1.568   6.750  0.2161 -0.7990  0.2795
 2852SOL     OW20017   4.026   1.888   3.179 -0.3661 -0.0397 -0.1015
 2852SOL    HW120018   4.025   1.982   3.198 -1.1247 -0.0627 -0.0227
 2852SOL    HW220019   3.972   1.886   3.100  0.6671 -0.9976 -0.7731
 2853SOL     OW20020   3.894   1.245   3.771  0.6885  0.1943 -0.5771
 2853SOL    HW120021   3.963   1.245   3.837  1.0346  1.1662 -0.9340
 2853SOL    HW220022   3.919   1.315   3.711 -0.2671  1.7015  0.7605
 2854SOL     OW20023   1.073   3.027   4.798  0.4765  0.2685 -0.1873
 2854SOL    HW120024   1.144   3.036   4.734 -0.6299  1.0932 -1.2843
 2854SOL    HW220025   1.119   2.985   4.870 -1.7396  0.6829  1.4479
 2855SOL     OW20026   0.956   2.845   1.237  0.3041 -0.1546  0.3726
 2855SOL    HW120027   1.009   2.780   1.283  2.9822  2.0873  0.5015
 2855SOL    HW220028   0.871   2.831   1.279  0.8564 -1.2640  1.1004
 2856SOL     OW20029   1.855   3.230  12.210 -0.2615  0.3284 -0.3059
 2856SOL    HW120030   1.860   3.211  12.303  0.8072  0.5953 -0.3141
 2856SOL    HW220031   1.769   3.195  12.184  0.2762  1.3526 -3.5209
 2857SOL     OW20032   0.275   2.529   1.883 -0.3561  0.0714 -0.2517
 2857SOL    HW120033   0.182   2.537   1.861 -0.5569  2.4946  1.4703
 2857SOL    HW220034   0.277   2.435   1.899  1.3727 -0.1741 -1.9187
 2858SOL     OW20035   4.337   3.963   3.850 -0.2098  0.7975  0.0704
 2858SOL    HW120036   4.338   3.924   3.762 -2.2689 -1.1195  0.9259
 2858SOL    HW220037   4.270   3.912   3.894 -0.8655 -0.6595 -2.6411
 2859SOL     OW20038   2.063   1.527   5.378  0.7252  0.2199  0.1805
 2859SOL    HW120039   2.109   1.609   5.358 -0.6250  0.9751  0.2276
 2859SOL    HW220040   1.971   1.551   5.387  0.6950  0.2234 -0.1517
 2860SOL     OW20041   3.798   0.337   1.121  0.1532  0.2663 -0.6797
 2860SOL    HW120042   3.737   0.379   1.182 -0.6984 -0.2376 -1.1874
 2860SOL    HW220043   3.850   0.291   1.187  0.1177 -0.2785 -1.0324
 2861SOL     OW20044   2.637   0.002   0.641 -0.7643 -0.4071 -0.4314
 2861SOL    HW120045   2.711   4.689   0.690 -1.7159 -1.1307  0.4784
 2861SOL    HW220046   2.560   4.706   0.694 -0.1921 -1.3340  0.0560
 2862SOL     OW20047   0.788   0.587   4.670  0.6209 -0.3357  0.2613
 2862SOL    HW120048   0.863   0.636   4.636 -1.1090  1.7883 -0.4984
 2862SOL    HW220049   0.809   0.499   4.640  1.6864  0.6075 -1.7259
 2863SOL     OW20050   0.681   4.290   2.860 -0.0974 -0.3523 -0.6818
 2863SOL    HW120051   0.708   4.322   2.774 -1.3873 -0.1176 -0.9986
 2863SOL    HW220052   0.588   4.305   2.843  0.2459  2.5328  0.1131
 2864SOL     OW20053   1.232   2.100   1.801  0.4437  0.4180  0.0064
 2864SOL    HW120054   1.195   2.014   1.817  1.4885  0.1195  0.7995
 2864SOL    HW220055   1.243   2.129   1.891 -0.5274 -1.6856  0.7798
 2865SOL     OW20056   2.289   2.211  15.971  0.2446 -0.0593 -0.2196
 2865SOL    HW120057   2.373   2.257  15.981  0.2771  0.1677 -1.5251
 2865SOL    HW220058   2.271   2.205  16.065 -0.0012 -0.8254 -0.3200
 2866SOL     OW20059   2.801   3.572  16.422  0.5450 -0.3513  0.0829
 2866SOL    HW120060   2.836   3.633  16.356 -0.0384 -1.8759 -1.6435
 2866SOL    HW220061   2.745   3.621  16.481 -2.0955 -1.4654 -1.5278
 2867SOL     OW20062   1.488   2.334  13.605  0.4075 -0.2462  0.6220
 2867SOL    HW120063   1.462   2.242  13.595  0.6925 -0.3559  0.9010
 2867SOL    HW220064   1.534   2.351  13.522  0.1118 -1.4428  0.2195
 2868SOL     OW20065   1.424   2.304   5.847  0.0069 -0.4342  0.4785
 2868SOL    HW120066   1.386   2.257   5.773  1.8234  1.4329 -1.6365
 2868SOL    HW220067   1.392   2.391   5.824 -0.5000 -0.5451  0.7711
 2869SOL     OW20068   2.986   3.802   4.763  0.0859 -0.4098 -0.3495
 2869SOL    HW120069   2.910   3.745   4.778  1.8235 -1.9511  2.4747
 2869SOL    HW220070   3.043   3.780   4.836  0.8732  4.2044  0.4248
 2870SOL     OW20071   2.448   4.573   8.365 -0.2298  0.1001 -0.1323
 2870SOL    HW120072   2.501   4.559   8.287 -0.3208 -1.0509  0.0162
 2870SOL    HW220073   2.512   4.572   8.436  0.1898  0.8070 -0.4990
 2871SOL     OW20074   2.911   3.040   4.219 -0.1829 -0.1210  0.2719
 2871SOL    HW120075   2.885   3.066   4.131  1.1750 -0.6601 -0.2932
 2871SOL    HW220076   2.974   2.969   4.207  3.0270  2.5736  0.9888
 2872SOL     OW20077   2.700   0.837  14.505 -0.2826  0.1243  0.3022
 2872SOL    HW120078   2.737   0.920  14.536 -1.2532  1.5483 -2.3590
 2872SOL    HW220079   2.735   0.833  14.416  0.3795  1.0042  0.5254
 2873SOL     OW20080   2.377   0.940  12.986  0.3170  0.2964 -0.2040
 2873SOL    HW120081   2.365   0.987  13.069 -1.7335  1.4187 -1.1238
 2873SOL    HW220082   2.444   0.990  12.940 -1.3104  0.8811 -1.9576
 2874SOL     OW20083   1.410   3.005  16.045 -0.4074 -0.1656  0.6383
 2874SOL    HW120084   1.354   2.978  15.972 -0.9976  2.0468  0.2776
 2874SOL    HW220085   1.499   2.982  16.017 -1.3161 -0.1868 -2.2316
 2875SOL     OW20086   2.955   1.003  13.424 -0.3392  0.0199 -0.5117
 2875SOL    HW120087   3.046   1.014  13.450 -0.2339 -2.8655  0.3703
 2875SOL    HW220088   2.924   0.951  13.499 -3.1852  0.5826 -1.2935
 2876SOL     OW20089   1.504   2.192   7.633  0.4197 -0.4284 -0.0667
 2876SOL    HW120090   1.591   2.187   7.670  0.0842 -2.3888  0.4311
 2876SOL    HW220091   1.479   2.283   7.653 -2.1377 -0.7004 -1.9208
 2877SOL     OW20092   1.908   4.671   7.851 -1.4267  0.2573 -0.0701
 2877SOL    HW120093   1.840   4.716   7.802  0.7584  1.6166 -1.8546
 2877SOL    HW220094   1.960   4.638   7.778  0.6686  1.9223  0.6402
 2878SOL     OW20095   3.913   2.018  17.336  0.3736 -0.7992  0.4924
 2878SOL    HW120096   3.909   1.927  17.366 -4.7115 -0.1319  1.8866
 2878SOL    HW220097   3.875   2.075  17.403  1.9176  1.2190 -0.3803
 2879SOL     OW20098   0.205   1.476   8.261  0.4387 -0.0737 -0.4984
 2879SOL    HW120099   0.299   1.482   8.245  0.1606  2.7534 -1.1634
 2879SOL    HW220100   0.190   1.516   8.347 -2.8181 -2.2402 -0.0332
 2880SOL     OW20101   2.062   4.480   4.403 -0.0515 -0.7529  0.4937
 2880SOL    HW120102   2.055   4.563   4.451 -0.3222 -0.6038  0.1936
 2880SOL    HW220103   2.066   4.409   4.466 -0.5735 -0.4265  0.8965
 2881SOL     OW20104   3.489   1.976   4.133  0.2139 -0.7558  0.0023
 2881SOL    HW120105   3.422   1.988   4.200  0.6424 -1.4657  0.5471
 2881SOL    HW220106   3.514   2.065   4.107  2.2605 -0.5800  2.5851
 2882SOL     OW20107   0.141   2.118   6.478 -0.6057  0.7044  0.2464
 2882SOL    HW120108   0.159   2.033   6.439  1.3099  0.8647  0.7497
 2882SOL    HW220109   0.103   2.172   6.409 -1.4830  3.0914  2.5937
 2883SOL     OW20110   0.357   1.482   6.502 -0.6071  0.0615 -0.0566
 2883SOL    HW120111   0.301   1.483   6.424  1.1332 -1.7003 -1.3279
 2883SOL    HW220112   0.418   1.411   6.486 -2.7520 -2.1855  1.8135
 2884SOL     OW20113   2.899   0.305   8.563 -0.0173 -0.0372 -0.2500
 2884SOL    HW120114   2.942   0.377   8.609 -0.0685 -1.0783  1.4367
 2884SOL    HW220115   2.808   0.328   8.581  0.6556  0.7347  2.1109
 2885SOL     OW20116   3.001   3.408   4.639 -0.2774 -0.1745  0.0910
 2885SOL    HW120117   2.964   3.363   4.563 -1.5700  0.7031  0.2021
 2885SOL    HW220118   3.070   3.351   4.673 -0.0442  0.0475 -0.0100
 2886SOL     OW20119   4.099   4.536   5.335 -0.2439  0.1870  0.4272
 2886SOL    HW120120   4.140   4.450   5.343 -0.3225  0.2053  1.0294
 2886SOL    HW220121   4.132   4.590   5.406  1.4074 -0.7179  0.3333
 2887SOL     OW20122   3.795   2.045  13.600 -0.2006 -0.6201  0.5968
 2887SOL    HW120123   3.797   2.104  13.524 -1.8714  0.8794  1.7055
 2887SOL    HW220124   3.880   2.068  13.640 -0.5758 -0.3227  1.2337
 2888SOL     OW20125   2.535   3.342  14.506  0.5848 -0.2313 -0.3881
 2888SOL    HW120126   2.441   3.343  14.522  0.4323  1.0361 -1.3020
 2888SOL    HW220127   2.583   3.410  14.553  0.3897  0.3675 -1.0448
 2889SOL     OW20128   4.341   4.061   6.738 -0.0586 -0.2104 -0.2118
 2889SOL    HW120129   4.413   4.018   6.784 -1.1108 -0.4766  1.2085
 2889SOL    HW220130   4.374   4.054   6.649  1.0491 -0.4726  0.2196
 2890SOL     OW20131   4.719   1.881  14.467 -0.6399 -0.7180 -0.2582
 2890SOL    HW120132   0.024   1.929  14.390 -2.1782 -2.0357 -1.6314
 2890SOL    HW220133   4.634   1.855  14.433 -0.8839  1.2455 -1.0984
 2891SOL     OW20134   2.947   2.554   5.063 -0.0778  0.4127  0.5390
 2891SOL    HW120135   2.927   2.479   5.119 -1.0765  0.6366  0.4858
 2891SOL    HW220136   2.932   2.512   4.978  0.4474 -1.5282  1.3984
 2892SOL     OW20137   1.577   1.088   4.393  0.0961 -0.4030 -0.0207
 2892SOL    HW120138   1.582   0.996   4.419  0.4082 -0.2600  0.4386
 2892SOL    HW220139   1.485   1.113   4.399  0.0961 -0.7742  1.7331
 2893SOL     OW20140   3.193   1.865   5.633  0.1097 -0.5192 -0.2164
 2893SOL    HW120141   3.280   1.829   5.619 -0.1549 -1.6205  1.0189
 2893SOL    HW220142   3.177   1.839   5.724  1.4130 -0.4614  0.0236
 2894SOL     OW20143   3.892   2.184   7.253  0.0490 -0.1067  0.2029
 2894SOL    HW120144   3.806   2.146   7.238  0.4928 -0.3255 -1.7408
 2894SOL    HW220145   3.943   2.137   7.188  1.0354  0.4892  0.5524
 2895SOL     OW20146   4.282   3.358   5.077  0.3851  0.1661 -0.5602
 2895SOL    HW120147   4.198   3.347   5.122  1.0098  1.7089  0.9847
 2895SOL    HW220148   4.335   3.403   5.142 -2.8252  1.3392  1.2384
 2896SOL     OW20149   0.395   3.868   5.818 -0.7838  0.1005 -0.2615
 2896SOL    HW120150   0.488   3.887   5.831 -0.6404 -0.8070  0.1033
 2896SOL    HW220151   0.382   3.785   5.865  0.4758 -0.5753 -1.1221
 2897SOL     OW20152   1.283   2.806  12.502 -0.3297 -0.3322  0.5009
 2897SOL    HW120153   1.223   2.756  12.558 -2.3131  0.1432 -1.1913
 2897SOL    HW220154   1.358   2.817  12.560  0.2199  1.2393 -0.5237
 2898SOL     OW20155   2.570   2.903   7.863 -0.7044  0.2449 -0.0121
 2898SOL    HW120156   2.494   2.926   7.810  0.2994  2.2420 -0.5823
 2898SOL    HW220157   2.639   2.902   7.797 -0.7308  0.2855 -0.0402
 2899SOL     OW20158   2.681   2.834   5.826  0.6835  0.5128 -0.2293
 2899SOL    HW120159   2.669   2.798   5.738 -3.2537  1.0931  0.0685
 2899SOL    HW220160   2.630   2.771   5.877  0.0093  0.5220 -0.8774
 2900SOL     OW20161   2.966   3.585   5.059 -0.1588  0.6412 -0.5572
 2900SOL    HW120162   2.996   3.551   5.143 -1.7992  0.4364 -0.0559
 2900SOL    HW220163   2.979   3.680   5.066  1.1991  0.5172 -1.3934
 2901SOL     OW20164   1.865   1.340   0.648 -0.0334 -0.3534 -0.3068
 2901SOL    HW120165   1.792   1.402   0.636  1.2044  1.1163 -0.2647
 2901SOL    HW220166   1.904   1.389   0.720  3.3619 -2.0933 -0.9837
 2902SOL     OW20167   2.362   0.067   5.358 -0.1567 -0.2507 -0.5615
 2902SOL    HW120168   2.337   4.719   5.417 -1.6499  0.8771  0.1559
 2902SOL    HW220169   2.306   0.142   5.379  0.0855 -0.2253 -0.0015
 2903SOL     OW20170   1.726   0.375   6.483 -0.0563 -0.4773  0.1984
 2903SOL    HW120171   1.633   0.393   6.473  0.3742 -0.0502 -2.9046
 2903SOL    HW220172   1.730   0.344   6.574  0.6334 -0.4831  0.1700
 2904SOL     OW20173   2.186   3.243   4.841 -0.5528  0.1591 -0.0846
 2904SOL    HW120174   2.228   3.278   4.919  0.9595 -1.4974 -0.1595
 2904SOL    HW220175   2.096   3.234   4.873  0.3424  0.5351  2.5083
 2905SOL     OW20176   2.824   3.112  12.582 -0.2576  0.2362  0.0357
 2905SOL    HW120177   2.755   3.073  12.636  1.3180  0.4915  2.2182
 2905SOL    HW220178   2.879   3.143  12.654 -4.0598  2.2775  2.0311
 2906SOL     OW20179   3.729   3.935   2.124 -0.4162 -0.3298  0.1971
 2906SOL    HW120180   3.721   3.850   2.168  0.3539 -1.3764 -1.7096
 2906SOL    HW220181   3.756   3.994   2.194  1.0734 -0.2639 -0.4411
 2907SOL     OW20182   3.279   0.614   5.406  0.1533  0.6027  0.4444
 2907SOL    HW120183   3.339   0.560   5.458  1.1390  1.6346  0.3918
 2907SOL    HW220184   3.240   0.563   5.335  0.9954  0.0253  0.3974
 2908SOL     OW20185   1.339   0.356   5.446 -0.5774  0.6692  0.4232
 2908SOL    HW120186   1.361   0.423   5.511 -1.5121 -0.5855  2.0527
 2908SOL    HW220187   1.314   0.413   5.374 -0.3816  1.6848  1.1640
 2909SOL     OW20188   1.948   3.910   4.771 -0.3607  0.5456 -0.1176
 2909SOL    HW120189   1.882   3.880   4.709 -0.4985  4.2482 -1.7662
 2909SOL    HW220190   2.024   3.867   4.731  0.0365  0.5862  0.6024
 2910SOL     OW20191   2.161   3.523   4.799 -0.1982  0.6552 -0.3006
 2910SOL    HW120192   2.197   3.434   4.796 -2.0112 -0.0217 -2.2282
 2910SOL    HW220193   2.171   3.544   4.706 -1.4917 -0.6102 -0.7346
 2911SOL     OW20194   2.263   2.648  11.523 -0.5947  0.2669  0.9780
 2911SOL    HW120195   2.251   2.635  11.429  1.8677  1.0926  0.5264
 2911SOL    HW220196   2.181   2.615  11.558 -2.1425  1.7619 -1.2582
 2912SOL     OW20197   0.057   2.004   0.670 -0.0580  0.0803 -0.2848
 2912SOL    HW120198   0.016   1.945   0.734  2.3771  0.2120  1.4125
 2912SOL    HW220199   0.146   1.973   0.685 -0.6373 -1.6360 -0.3170
 2913SOL     OW20200   4.128   4.532   7.396  0.2381 -0.1944  0.2060
 2913SOL    HW120201   4.145   4.589   7.322 -1.6569 -0.1243 -0.1686
 2913SOL    HW220202   4.097   4.598   7.458  0.0505  0.4046 -0.5275
 2914SOL     OW20203   0.928   1.130   2.252  0.3296 -0.2540  0.2262
 2914SOL    HW120204   0.869   1.204   2.265 -2.4932 -2.5008  0.0885
 2914SOL    HW220205   0.988   1.130   2.327 -0.9984  1.2730  1.2755
 2915SOL     OW20206   2.341   4.116   2.017 -0.1208  0.0829 -0.3112
 2915SOL    HW120207   2.361   4.024   1.998  0.2384  0.6649 -2.6865
 2915SOL    HW220208   2.324   4.159   1.934  2.2962 -1.6779 -1.7111
 2916SOL     OW20209   4.650   1.711   1.093 -0.7168  0.0660 -0.5572
 2916SOL    HW120210   0.021   1.695   1.084 -0.1783  1.0890  3.1168
 2916SOL    HW220211   4.631   1.644   1.159 -1.9861 -1.5560 -2.5692
 2917SOL     OW20212   3.404   0.473  15.766  0.2316 -0.4459  0.1939
 2917SOL    HW120213   3.326   0.417  15.761  0.3322 -0.5385 -0.2903
 2917SOL    HW220214   3.453   0.432  15.838 -0.0400  2.3305  1.9652
 2918SOL     OW20215   3.702   3.959   1.736 -0.1419  0.2540  0.4136
 2918SOL    HW120216   3.641   4.015   1.689 -1.0463 -1.0129  0.0635
 2918SOL    HW220217   3.678   4.000   1.819  2.1271 -1.5486  1.9533
 2919SOL     OW20218   4.315   0.943   3.737 -0.1571  0.2888  0.3597
 2919SOL    HW120219   4.247   0.882   3.707  0.3488 -0.2882  0.3910
 2919SOL    HW220220   4.378   0.925   3.667 -1.2409 -0.0178 -0.5339
 2920SOL     OW20221   3.878   1.629   2.172  0.0463 -0.2792  0.0364
 2920SOL    HW120222   3.947   1.672   2.222  0.0860 -1.6838  1.1998
 2920SOL    HW220223   3.814   1.700   2.170  1.8010  1.2687 -0.7943
 2921SOL     OW20224   4.613   0.140   1.013  0.4386  0.2939 -0.3970
 2921SOL    HW120225   4.698   0.143   0.969  1.4072 -2.9972  1.2318
 2921SOL    HW220226   4.626   0.082   1.089  0.8540 -1.2664 -1.6742
 2922SOL     OW20227   1.050   3.791   5.900  0.1085 -0.4094 -0.2048
 2922SOL    HW120228   0.990   3.771   5.828  0.4421 -0.3589 -0.4944
 2922SOL    HW220229   1.034   3.726   5.969  0.3600 -0.9881 -0.6848
 2923SOL     OW20230   2.311   2.502  11.021 -0.3150 -0.4568 -0.7832
 2923SOL    HW120231   2.291   2.499  11.115  2.0066  1.9347 -0.2270
 2923SOL    HW220232   2.403   2.477  11.029 -0.1171 -0.1067 -2.0138
 2924SOL     OW20233   1.576   1.522   3.901 -0.7613 -0.1445  0.2167
 2924SOL    HW120234   1.480   1.519   3.891 -0.6649 -0.5488 -0.6337
 2924SOL    HW220235   1.604   1.571   3.823  2.3262 -0.6807  1.0077
 2925SOL     OW20236   3.788   3.591   4.184  0.0119  0.3245  0.6493
 2925SOL    HW120237   3.816   3.609   4.094 -1.4660  0.5370  0.2320
 2925SOL    HW220238   3.783   3.496   4.190  3.0270  0.2564  1.7939
 2926SOL     OW20239   1.634   0.321   2.302 -0.0453 -0.0606 -0.1364
 2926SOL    HW120240   1.646   0.227   2.317  1.7031 -0.2583 -2.7888
 2926SOL    HW220241   1.580   0.347   2.377 -0.8412  0.3857 -0.8743
 2927SOL     OW20242   2.237   2.218  10.324  0.5967  0.2641 -0.5351
 2927SOL    HW120243   2.233   2.172  10.241 -2.6807 -1.5278  0.6251
 2927SOL    HW220244   2.204   2.146  10.378  1.2599  0.1115 -0.3415
 2928SOL     OW20245   3.376   2.825   1.670  0.2386 -0.9287  0.1546
 2928SOL    HW120246   3.403   2.909   1.708 -0.9485 -0.9582  1.0624
 2928SOL    HW220247   3.313   2.800   1.737  0.6186  0.5562  1.0797
 2929SOL     OW20248   0.840   2.156   1.776  0.0172  0.3111 -0.2581
 2929SOL    HW120249   0.806   2.245   1.766 -0.3021  0.0398 -1.7235
 2929SOL    HW220250   0.881   2.160   1.690  0.5165  0.1493 -0.0230
 2930SOL     OW20251   2.478   2.311  11.968  0.3569  0.9608 -0.0823
 2930SOL    HW120252   2.497   2.296  12.060  1.5612 -0.2190 -0.5329
 2930SOL    HW220253   2.568   2.298  11.937  0.8162  1.8553  0.8976
 2931SOL     OW20254   4.430   3.735   7.120  0.2751  0.4825  0.0472
 2931SOL    HW120255   4.344   3.746   7.161  0.3500 -4.6844  1.5770
 2931SOL    HW220256   4.411   3.680   7.043  0.0971 -0.0879  0.5014
 2932SOL     OW20257   3.875   1.892  17.615  0.2481 -0.2044 -0.0627
 2932SOL    HW120258   3.894   1.981  17.584 -0.1950 -0.9851 -2.5622
 2932SOL    HW220259   3.921   1.908   0.004  0.3761 -0.7598 -0.0306
 2933SOL     OW20260   2.771   2.971  14.216  0.5084 -0.3620  0.0103
 2933SOL    HW120261   2.834   3.015  14.274 -1.0165  2.5558 -0.5363
 2933SOL    HW220262   2.750   3.045  14.158 -1.5214 -1.2271 -0.3641
 2934SOL     OW20263   0.275   3.370   4.775  0.2232  0.2142 -0.2315
 2934SOL    HW120264   0.182   3.374   4.753  0.4276  0.6974 -1.0200
 2934SOL    HW220265   0.270   3.340   4.866 -0.7826  1.6196  0.1893
 2935SOL     OW20266   4.328   0.715   3.269  0.2006 -0.1367 -0.2098
 2935SOL    HW120267   4.360   0.626   3.253  0.3140 -0.1110 -0.1275
 2935SOL    HW220268   4.407   0.769   3.271  0.6846 -0.7744 -1.8100
 2936SOL     OW20269   0.514   4.094   1.110  0.0289 -0.0104  0.4047
 2936SOL    HW120270   0.421   4.072   1.121 -0.1798  0.4877 -0.3612
 2936SOL    HW220271   0.544   4.105   1.200  1.2397  2.2822 -0.2613
 2937SOL     OW20272   4.579   2.871  14.856  0.3459  0.4362  0.2279
 2937SOL    HW120273   4.599   2.781  14.883  1.3069  0.9665  1.2813
 2937SOL    HW220274   4.522   2.884  14.932 -0.5827  0.0768 -0.4095
 2938SOL     OW20275   4.214   1.702   7.498  0.0243 -0.2178 -0.1447
 2938SOL    HW120276   4.237   1.698   7.405 -0.3956  2.2105 -0.3628
 2938SOL    HW220277   4.296   1.695   7.547  0.6338 -0.2062 -1.1508
 2939SOL     OW20278   3.956   4.634   9.529 -0.0407 -0.4470  0.1704
 2939SOL    HW120279   4.016   4.698   9.491 -0.7879  0.0793 -0.1154
 2939SOL    HW220280   3.965   4.562   9.467  1.3189  0.6445 -0.8853
 2940SOL     OW20281   1.973   1.813   5.936 -0.1628 -0.1349  0.3066
 2940SOL    HW120282   1.990   1.739   5.879 -2.6799  1.2922 -2.3015
 2940SOL    HW220283   1.897   1.862   5.904 -0.2901 -0.4537  0.1274
 2941SOL     OW20284   2.558   0.690  14.071  0.0370 -0.4607  0.7410
 2941SOL    HW120285   2.530   0.603  14.099 -0.1596 -0.0588  1.8280
 2941SOL    HW220286   2.533   0.691  13.979 -0.3353 -2.5425  0.8323
 2942SOL     OW20287   0.409   2.141  13.685  0.4899  0.0056 -0.6001
 2942SOL    HW120288   0.449   2.069  13.732  1.7455 -0.0390 -1.7367
 2942SOL    HW220289   0.415   2.211  13.750  0.3154 -1.5341  1.0354
 2943SOL     OW20290   0.983   2.380   9.743  0.6125 -0.2906  0.0004
 2943SOL    HW120291   1.054   2.439   9.769 -0.0213  0.4271  0.0941
 2943SOL    HW220292   0.904   2.432   9.758 -0.5458 -1.5535 -1.6919
 2944SOL     OW20293   3.509   3.359  16.276  0.0080 -0.0473 -0.5434
 2944SOL    HW120294   3.483   3.377  16.366  2.6440  0.2739  0.1537
 2944SOL    HW220295   3.550   3.439  16.243 -0.5033 -0.0100 -1.0932
 2945SOL     OW20296   0.045   2.377   7.748 -0.3716 -0.2818  0.5314
 2945SOL    HW120297   0.027   2.296   7.699  1.8732 -0.1686 -0.4961
 2945SOL    HW220298   0.049   2.451   7.687  1.1599 -0.2454  0.6678
 2946SOL     OW20299   3.184   0.264   5.892 -0.7132  0.4110 -0.0321
 2946SOL    HW120300   3.251   0.332   5.885  0.6106 -0.9037 -0.2834
 2946SOL    HW220301   3.217   0.220   5.970 -1.7865  1.1013  0.8093
 2947SOL     OW20302   1.404   1.236   5.680 -0.9717  0.2693  0.0132
 2947SOL    HW120303   1.381   1.144   5.694 -2.5543  0.9232  1.6382
 2947SOL    HW220304   1.423   1.263   5.770 -2.7969 -0.8188  0.7043
 2948SOL     OW20305   3.268   0.405  13.602  0.1792  0.4462  0.3872
 2948SOL    HW120306   3.181   0.406  13.563  0.3142 -1.1629  0.0391
 2948SOL    HW220307   3.245   0.422  13.694  1.1374  1.2494  0.4808
 2949SOL     OW20308   4.094   4.236  15.825 -0.3209  0.2133  0.1118
 2949SOL    HW120309   4.079   4.317  15.776 -1.4131 -0.0412  0.0269
 2949SOL    HW220310   4.041   4.265  15.900 -3.1056 -0.4202 -1.6166
 2950SOL     OW20311   1.649   3.442  17.563 -0.1087  0.4716 -0.1319
 2950SOL    HW120312   1.626   3.350  17.553  1.5316  0.2150 -1.7157
 2950SOL    HW220313   1.658   3.446  17.658  1.6484 -1.5557 -0.2111
 2951SOL     OW20314   3.835   0.459   8.612 -0.1502 -0.1604  0.3564
 2951SOL    HW120315   3.863   0.473   8.521  0.4554 -1.7217  0.2897
 2951SOL    HW220316   3.893   0.510   8.668 -1.2924  2.0797 -0.5386
 2952SOL     OW20317   2.293   0.236   3.929 -0.4517  0.3063 -0.0296
 2952SOL    HW120318   2.256   0.179   3.861 -2.8369  2.1415 -0.2873
 2952SOL    HW220319   2.235   0.230   4.005  1.5903 -0.0360  1.4728
 2953SOL     OW20320   4.507   1.595   5.961 -0.3529  0.5206 -0.0836
 2953SOL    HW120321   4.427   1.612   6.011  0.3417 -1.0074  1.5722
 2953SOL    HW220322   4.577   1.565   6.018  0.1688  1.7634 -0.0853
 2954SOL     OW20323   0.722   0.995   7.944 -0.2616 -0.0873  0.5303
 2954SOL    HW120324   0.667   0.968   8.017 -0.3479 -2.2603 -0.3048
 2954SOL    HW220325   0.806   1.013   7.987 -0.5315  0.8160  0.6607
 2955SOL     OW20326   1.618   1.694   8.925  0.1603 -0.1752 -0.2465
 2955SOL    HW120327   1.587   1.756   8.991  0.5555  0.5498 -0.7344
 2955SOL    HW220328   1.651   1.626   8.983  2.2630  0.1350 -1.0534
 2956SOL     OW20329   0.740   4.050   8.670 -0.1662  0.5676 -0.5104
 2956SOL    HW120330   0.765   4.080   8.583 -0.9780 -0.6426 -1.1690
 2956SOL    HW220331   0.721   3.958   8.652  3.3782 -0.3556  0.4682
 2957SOL     OW20332   4.353   2.502   8.471 -1.0249  0.2989  0.0218
 2957SOL    HW120333   4.361   2.595   8.493 -0.7187  0.9789 -2.9839
 2957SOL    HW220334   4.408   2.493   8.394 -2.9411 -0.1446 -1.3026
 2958SOL     OW20335   4.078   1.932   3.587  0.1067  0.4305 -0.9857
 2958SOL    HW120336   4.066   1.857   3.647 -0.1477  0.3485 -1.1406
 2958SOL    HW220337   4.000   1.919   3.533  0.7360  0.2646 -1.8409
 2959SOL     OW20338   1.218   3.619   6.208 -0.3607  0.0680 -0.2722
 2959SOL    HW120339   1.286   3.601   6.143  1.6899  2.8132  1.0943
 2959SOL    HW220340   1.198   3.529   6.233  0.4709 -0.2807 -0.8527
 2960SOL     OW20341   3.032   4.553   9.196  0.1512 -0.2453 -0.6063
 2960SOL    HW120342   3.090   4.600   9.137  1.1382 -0.2318  0.3846
 2960SOL    HW220343   3.085   4.549   9.275  0.8160  0.7470 -1.0032
 2961SOL     OW20344   1.095   4.019   4.182  0.1123  0.6872 -0.3380
 2961SOL    HW120345   1.065   3.973   4.260 -0.7944 -1.3430 -1.8824
 2961SOL    HW220346   1.021   3.996   4.126  0.0792 -0.6595  0.2575
 2962SOL     OW20347   2.629   2.691   2.678  1.0190 -0.0319  0.4885
 2962SOL    HW120348   2.650   2.623   2.742  2.6558 -0.9475 -1.0014
 2962SOL    HW220349   2.694   2.662   2.613  0.3811  0.6852 -0.4675
 2963SOL     OW20350   2.554   4.154  10.615  0.2441 -0.6762  0.0049
 2963SOL    HW120351   2.623   4.157  10.682 -1.4732  1.5284  1.6471
 2963SOL    HW220352   2.503   4.078  10.643 -0.4246 -0.8385 -1.6125
 2964SOL     OW20353   1.189   4.449  11.257  0.5220 -0.2578 -0.0255
 2964SOL    HW120354   1.251   4.521  11.241  0.1115  0.0234 -0.3674
 2964SOL    HW220355   1.170   4.472  11.348 -1.0060 -1.0208 -0.1527
 2965SOL     OW20356   2.135   2.430   7.822  0.3252  0.3411 -0.1671
 2965SOL    HW120357   2.163   2.520   7.808 -0.3161  0.6868  0.7555
 2965SOL    HW220358   2.185   2.420   7.903  0.9065  0.7696 -0.4748
 2966SOL     OW20359   1.234   4.543   4.275 -0.0679  0.0400 -0.0225
 2966SOL    HW120360   1.306   4.571   4.330 -0.1287 -1.3012  0.7302
 2966SOL    HW220361   1.185   4.503   4.347 -0.9491  1.4268  0.1522
 2967SOL     OW20362   3.983   0.779   4.001  0.0734 -0.1538  0.0991
 2967SOL    HW120363   3.907   0.776   3.943 -1.3764 -1.7134  2.0894
 2967SOL    HW220364   4.048   0.728   3.953 -0.6437 -2.1186  1.2348
 2968SOL     OW20365   3.437   3.958   8.341  0.4230 -0.4963 -0.1264
 2968SOL    HW120366   3.411   3.866   8.337  0.9690 -0.6899  0.9420
 2968SOL    HW220367   3.353   4.001   8.325  1.3039  1.0209 -0.6420
 2969SOL     OW20368   3.679   0.299  11.850  0.4820 -0.0629  0.0460
 2969SOL    HW120369   3.606   0.308  11.788 -0.0535  1.9240  0.9794
 2969SOL    HW220370   3.640   0.341  11.927  0.4244 -0.7730  0.4071
 2970SOL     OW20371   3.562   0.801   6.755 -0.1754  0.1945 -0.0275
 2970SOL    HW120372   3.587   0.837   6.671 -0.8693 -0.0384 -0.3344
 2970SOL    HW220373   3.531   0.878   6.802 -1.1373  0.0205 -0.3696
 2971SOL     OW20374   0.888   3.000   8.148  0.0615  1.1055 -0.4687
 2971SOL    HW120375   0.967   2.996   8.094 -0.2654 -1.2129 -0.7727
 2971SOL    HW220376   0.839   2.918   8.145 -0.7160  1.6130 -1.8941
 2972SOL     OW20377   3.530   1.999   6.179  0.2803  0.1267 -0.4171
 2972SOL    HW120378   3.520   2.082   6.133 -0.9816 -0.4059 -1.0959
 2972SOL    HW220379   3.609   2.032   6.222  0.6455 -0.5146 -0.5935
 2973SOL     OW20380   0.122   3.111  12.548 -0.2701 -0.1842  0.1041
 2973SOL    HW120381   0.165   3.175  12.491 -0.1227 -0.3024  0.0826
 2973SOL    HW220382   0.047   3.166  12.571  1.0356  0.9471  1.6660
 2974SOL     OW20383   1.998   1.600   6.363  0.2508  0.0051  0.2763
 2974SOL    HW120384   1.975   1.688   6.394  4.2521  1.0796  0.1049
 2974SOL    HW220385   2.060   1.618   6.292  0.9722  0.2842  0.9826
 2975SOL     OW20386   3.267   2.996   4.830  0.0611  0.8741  0.8245
 2975SOL    HW120387   3.326   2.963   4.897 -2.1232 -1.1601  1.7630
 2975SOL    HW220388   3.261   2.911   4.786  0.4439  0.6351  1.2462
 2976SOL     OW20389   2.165   0.690  11.821 -0.2805 -0.3806  0.1222
 2976SOL    HW120390   2.108   0.659  11.751 -1.6290  0.4094  0.8640
 2976SOL    HW220391   2.177   0.608  11.869  2.0555 -0.0107  0.1727
 2977SOL     OW20392   3.140   2.349   3.069  0.0003 -0.3768  0.2762
 2977SOL    HW120393   3.068   2.341   3.132 -0.6076 -1.8731 -0.6082
 2977SOL    HW220394   3.104   2.301   2.994  2.2283  0.9920 -1.6920
 2978SOL     OW20395   0.250   4.573  12.990  0.3589 -0.0622 -0.6611
 2978SOL    HW120396   0.212   4.523  13.062 -2.4016  1.7356 -0.8365
 2978SOL    HW220397   0.170   4.612  12.954 -0.1582 -1.2077 -0.7360
 2979SOL     OW20398   2.622   4.692  17.518 -0.0041 -0.3995 -0.1259
 2979SOL    HW120399   2.622   4.664  17.426  2.5681  0.6424 -0.4444
 2979SOL    HW220400   2.531   4.675  17.542 -0.8009  1.0310 -2.0939
 2980SOL     OW20401   4.139   4.064   3.083 -0.1617 -0.5089  0.4390
 2980SOL    HW120402   4.129   3.985   3.030 -1.0846  0.0390 -0.2122
 2980SOL    HW220403   4.067   4.061   3.146 -1.6928 -1.3109 -1.3432
 2981SOL     OW20404   2.345   4.694  17.110 -0.0622 -0.2383  0.8762
 2981SOL    HW120405   2.286   4.638  17.059 -0.2538 -0.3869  1.2686
 2981SOL    HW220406   2.355   4.651  17.194  0.9747 -0.3782  0.6851
 2982SOL     OW20407   3.670   3.085   7.012  0.1117 -0.9836  0.1983
 2982SOL    HW120408   3.667   3.044   7.098  1.0250  0.1432  0.7791
 2982SOL    HW220409   3.680   3.179   7.032 -0.7360 -0.6796 -0.8105
 2983SOL     OW20410   2.823   4.397   2.629 -0.6237 -0.1085  0.2229
 2983SOL    HW120411   2.805   4.487   2.602 -1.6552 -0.7192 -1.0856
 2983SOL    HW220412   2.781   4.344   2.562  1.0669 -0.7272 -0.3461
 2984SOL     OW20413   3.256   0.969  13.184 -0.2173 -0.4220  0.1291
 2984SOL    HW120414   3.303   1.047  13.213 -1.0591  0.9863 -2.3301
 2984SOL    HW220415   3.178   0.952  13.236 -0.9128 -2.5476 -1.6282
 2985SOL     OW20416   3.772   3.356   3.817 -0.1133 -0.2309  0.2001
 2985SOL    HW120417   3.719   3.380   3.893 -1.2318 -2.9965  0.2942
 2985SOL    HW220418   3.758   3.262   3.824 -1.2612 -0.0135  0.8504
 2986SOL     OW20419   3.499   4.526   9.178  0.2958  0.0978 -0.2291
 2986SOL    HW120420   3.482   4.489   9.092 -2.5452 -0.4013  0.5396
 2986SOL    HW220421   3.546   4.608   9.159  1.0046 -0.4022 -0.6264
 2987SOL     OW20422   3.572   4.203   9.643  0.6078  0.1084 -0.2400
 2987SOL    HW120423   3.641   4.224   9.706 -0.9802  3.4656  0.3502
 2987SOL    HW220424   3.560   4.278   9.586 -2.5757  0.7686  1.3222
 2988SOL     OW20425   3.102   2.169  15.726 -0.3828  0.1243  0.4772
 2988SOL    HW120426   3.071   2.201  15.641  0.7741 -1.0208 -0.3639
 2988SOL    HW220427   3.197   2.174  15.719 -0.1489 -0.5871  2.9612
 2989SOL     OW20428   2.317   0.907   5.963  0.0277 -0.7267  0.5414
 2989SOL    HW120429   2.386   0.954   5.916 -1.5837  1.0215 -0.0707
 2989SOL    HW220430   2.351   0.908   6.053  0.0984 -1.6255  0.5231
 2990SOL     OW20431   3.562   4.668   6.245  0.3821  0.6514  0.0965
 2990SOL    HW120432   3.544   0.039   6.245  3.0440  1.1674 -1.3733
 2990SOL    HW220433   3.592   4.647   6.157 -2.2073  3.8561 -1.5298
 2991SOL     OW20434   0.710   3.965  16.289 -0.3708 -0.0678 -0.1913
 2991SOL    HW120435   0.720   4.057  16.313  1.0642  0.0530 -1.2606
 2991SOL    HW220436   0.694   3.919  16.372  1.7990  0.3981  0.4847
 2992SOL     OW20437   1.151   1.856   1.895 -0.8321 -0.2329 -0.4730
 2992SOL    HW120438   1.070   1.850   1.946  0.3278 -0.9774  1.2746
 2992SOL    HW220439   1.135   1.782   1.836 -0.3194 -1.7602  1.3272
 2993SOL     OW20440   1.150   2.556  17.067  0.0702 -0.1830 -0.5945
 2993SOL    HW120441   1.233   2.581  17.028 -0.7331  0.8698 -1.6147
 2993SOL    HW220442   1.175   2.591  17.153 -3.7822 -1.1073  0.9526
 2994SOL     OW20443   4.553   3.256   1.859  0.0504  0.6002 -0.2581
 2994SOL    HW120444   4.627   3.195   1.856 -2.0344 -1.9064 -0.1430
 2994SOL    HW220445   4.603   3.335   1.879  0.5140  0.3937 -0.6114
 2995SOL     OW20446   3.894   3.278   5.587 -0.4008 -0.1558 -0.2499
 2995SOL    HW120447   3.989   3.271   5.598 -0.7331 -1.3956  1.8140
 2995SOL    HW220448   3.856   3.191   5.604 -0.8411 -0.0162 -0.5286
 2996SOL     OW20449   1.687   3.925   8.749  0.2650 -0.0642  0.2319
 2996SOL    HW120450   1.750   3.997   8.738  0.7110 -0.5784 -0.5636
 2996SOL    HW220451   1.605   3.966   8.720 -0.8363 -2.8664 -0.5677
 2997SOL     OW20452   0.532   0.833  15.120 -0.1584 -0.0672  0.5309
 2997SOL    HW120453   0.622   0.803  15.126 -0.3529 -0.1257  3.2707
 2997SOL    HW220454   0.510   0.792  15.204 -0.0461  2.6163  1.8871
 2998SOL     OW20455   3.168   3.209   7.181  0.1907  0.4274 -0.1751
 2998SOL    HW120456   3.100   3.209   7.113  1.2455  1.6512 -1.2388
 2998SOL    HW220457   3.141   3.283   7.235  0.7645  0.3069  0.2673
 2999SOL     OW20458   0.512   3.629  13.678 -0.2477 -0.3666  0.0629
 2999SOL    HW120459   0.506   3.680  13.597  1.8033  1.5855  1.1692
 2999SOL    HW220460   0.437   3.570  13.666 -1.0070  1.1693 -2.9008
 3000SOL     OW20461   3.674   0.778   4.067 -0.2372 -0.4163  0.2085
 3000SOL    HW120462   3.583   0.793   4.043 -0.0249  1.9160  0.8115
 3000SOL    HW220463   3.702   0.870   4.062 -0.6718 -0.3845 -1.5708
 3001SOL     OW20464   1.889   4.397   6.642  0.3713 -0.0352  0.0971
 3001SOL    HW120465   1.856   4.425   6.727 -0.1503 -1.6087  0.4197
 3001SOL    HW220466   1.964   4.456   6.629 -1.6274  2.3072 -0.7048
 3002SOL     OW20467   0.970   3.208   5.837 -0.1680  0.5007 -0.1953
 3002SOL    HW120468   0.983   3.268   5.763 -0.6012 -0.4687 -1.0608
 3002SOL    HW220469   0.969   3.265   5.914 -2.2655  0.5587 -0.2487
 3003SOL     OW20470   2.852   4.698   4.608 -0.4055 -0.0101 -0.0172
 3003SOL    HW120471   2.884   4.690   4.518  1.1366 -1.8399  0.6822
 3003SOL    HW220472   2.851   4.605   4.631  2.7288 -0.3488 -1.2354
 3004SOL     OW20473   2.788   1.074  16.363  0.1203 -0.0949 -0.1669
 3004SOL    HW120474   2.803   0.988  16.403  1.9968  0.5785  0.5586
 3004SOL    HW220475   2.800   1.045  16.272 -0.9064 -3.9735  0.9529
 3005SOL     OW20476   2.965   4.223   5.993  0.3264  0.4003 -0.4659
 3005SOL    HW120477   2.939   4.276   5.918 -0.1996 -1.4256 -1.5539
 3005SOL    HW220478   3.009   4.155   5.944  0.9577  1.0055 -0.7395
 3006SOL     OW20479   2.839   3.946   7.582  0.3830 -0.4582  0.1807
 3006SOL    HW120480   2.907   3.890   7.618  1.6726 -0.6814 -2.6170
 3006SOL    HW220481   2.752   3.912   7.604  0.3727 -0.2495  0.4727
 3007SOL     OW20482   3.027   3.329   3.943 -0.3110 -0.3436 -0.1809
 3007SOL    HW120483   3.001   3.339   3.851 -0.9450  0.7185  0.1147
 3007SOL    HW220484   3.101   3.269   3.932  0.2532  0.6058 -1.5770
 3008SOL     OW20485   4.088   1.592   6.646  0.2065  0.5353 -0.4000
 3008SOL    HW120486   4.067   1.670   6.698 -1.3702 -0.0756 -0.1075
 3008SOL    HW220487   4.122   1.539   6.718  2.0045  1.4620 -0.5658
 3009SOL     OW20488   0.462   1.077  10.400  0.0196 -0.2317 -0.1733
 3009SOL    HW120489   0.386   1.048  10.451 -1.3389  1.9683 -0.9185
 3009SOL    HW220490   0.532   1.019  10.427  0.2769 -0.1327 -0.6297
 3010SOL     OW20491   1.379   0.315   4.454 -0.6822 -0.4865 -0.2858
 3010SOL    HW120492   1.313   0.246   4.465 -2.3886  1.2698  0.5162
 3010SOL    HW220493   1.392   0.315   4.359 -1.2545  0.5670 -0.3639
 3011SOL     OW20494   2.668   1.843   0.185  0.2674  0.0667  0.2779
 3011SOL    HW120495   2.645   1.767   0.238 -2.3976 -0.0788 -1.1234
 3011SOL    HW220496   2.582   1.883   0.172 -0.3963 -1.1894  0.8149
 3012SOL     OW20497   1.220   0.081   7.835 -0.0647 -0.2881 -0.1539
 3012SOL    HW120498   1.252   0.114   7.751  0.6648  2.3768  1.1696
 3012SOL    HW220499   1.277   0.004   7.837  2.0316  1.2893  1.3444
 3013SOL     OW20500   2.034   3.700  11.491 -0.2053  0.9478  0.1955
 3013SOL    HW120501   2.022   3.777  11.434  0.7041  0.7586 -0.2641
 3013SOL    HW220502   1.944   3.671  11.503 -0.1467 -0.3640 -2.5331
 3014SOL     OW20503   3.843   4.131   4.059 -0.1769 -0.4292 -0.1628
 3014SOL    HW120504   3.770   4.192   4.053  0.2744 -0.0404 -1.6936
 3014SOL    HW220505   3.866   4.156   4.149  0.0954  2.0221 -0.9329
 3015SOL     OW20506   2.548   0.764   6.083 -0.0915  0.3259  0.2147
 3015SOL    HW120507   2.536   0.836   6.145  1.9587  1.1141 -0.2869
 3015SOL    HW220508   2.633   0.728   6.109 -1.7028 -3.1520  0.5873
 3016SOL     OW20509   0.904   3.044   3.750 -0.0966 -0.0289 -0.0946
 3016SOL    HW120510   0.999   3.037   3.759  0.0844  0.8171 -1.2742
 3016SOL    HW220511   0.891   3.013   3.839 -0.7703  0.8162  0.1024
 3017SOL     OW20512   4.689   4.348   7.457 -0.4146  0.3101  0.6740
 3017SOL    HW120513   4.670   4.342   7.551 -0.4352  4.6003  0.9638
 3017SOL    HW220514   4.627   4.411   7.420  0.2484  0.5755  0.0027
 3018SOL     OW20515   1.073   3.228   3.049 -0.0064 -0.1640  0.4358
 3018SOL    HW120516   1.032   3.298   2.998 -0.5661 -2.4380 -2.2192
 3018SOL    HW220517   1.002   3.164   3.041 -0.1038  0.0111 -0.1066
 3019SOL     OW20518   3.770   2.047   6.714 -0.6177  0.9357  0.1417
 3019SOL    HW120519   3.830   2.071   6.786  0.0558  1.1171 -0.4831
 3019SOL    HW220520   3.684   2.076   6.744 -0.8165 -0.2528  0.7190
 3020SOL     OW20521   1.223   2.240   9.688 -0.4707  0.1268  0.9475
 3020SOL    HW120522   1.306   2.252   9.736  1.0986 -1.4929 -1.3963
 3020SOL    HW220523   1.165   2.293   9.743  0.4226 -1.6803  3.6806
 3021SOL     OW20524   2.242   3.479   5.873  0.4668 -0.1671  0.3343
 3021SOL    HW120525   2.162   3.527   5.849  1.6327  0.3802 -2.4707
 3021SOL    HW220526   2.302   3.551   5.851 -0.1918  1.1040  2.6819
 3022SOL     OW20527   0.197   4.267  15.340 -0.4690 -0.0991 -0.2378
 3022SOL    HW120528   0.276   4.296  15.384  0.4102 -0.6326 -1.4794
 3022SOL    HW220529   0.209   4.172  15.347  0.1734 -0.1309 -1.7867
 3023SOL     OW20530   1.420   3.162  13.076  0.0898  0.2319  0.8247
 3023SOL    HW120531   1.426   3.234  13.140  2.6313 -0.3840  1.2716
 3023SOL    HW220532   1.413   3.085  13.133 -0.5002 -0.4162 -0.1372
 3024SOL     OW20533   1.536   0.304   4.001 -0.1160 -0.7540 -0.1573
 3024SOL    HW120534   1.470   0.351   4.051  1.8693  1.9299 -0.0127
 3024SOL    HW220535   1.495   0.246   3.937 -0.9253  0.3038 -0.6114
 3025SOL     OW20536   4.091   2.097   4.132  0.6567 -0.3977 -0.0138
 3025SOL    HW120537   4.101   2.014   4.178  0.8610 -0.9426 -1.0368
 3025SOL    HW220538   3.998   2.091   4.109  0.4926 -1.8904  1.0298
 3026SOL     OW20539   0.018   0.209   6.884 -0.4433  0.1478  0.3466
 3026SOL    HW120540   4.719   0.132   6.936  0.7902  0.7706  1.7863
 3026SOL    HW220541   4.654   0.246   6.869  0.9122  3.0590 -0.3220
 3027SOL     OW20542   0.475   4.148   6.451 -0.1332 -0.4249  0.3532
 3027SOL    HW120543   0.458   4.127   6.359 -1.0783  0.7123  0.2662
 3027SOL    HW220544   0.391   4.152   6.495  1.2163 -0.7024  2.9505
 3028SOL     OW20545   1.109   2.065   8.356 -0.4498  0.3248  0.6677
 3028SOL    HW120546   1.172   2.068   8.284 -1.6271 -1.2773 -0.4118
 3028SOL    HW220547   1.039   2.120   8.322 -2.1233 -0.7183  2.4426
 3029SOL     OW20548   1.724   4.257   7.948 -0.2156 -0.3646 -0.3149
 3029SOL    HW120549   1.805   4.247   7.899 -0.2717 -1.0694 -0.2566
 3029SOL    HW220550   1.723   4.348   7.980 -3.3563  0.0225 -1.4806
 3030SOL     OW20551   0.497   2.280   4.388  0.7532 -0.4175 -0.3475
 3030SOL    HW120552   0.532   2.252   4.304 -1.6537  0.2291 -1.5760
 3030SOL    HW220553   0.562   2.340   4.426  0.6613  0.8685 -2.1932
 3031SOL     OW20554   2.536   0.734   4.621 -0.0114  0.9344 -0.5322
 3031SOL    HW120555   2.609   0.754   4.679 -0.2026 -0.2394  0.1021
 3031SOL    HW220556   2.541   0.639   4.610 -1.3148  0.9871 -1.6575
 3032SOL     OW20557   0.200   1.688  17.087 -0.1724  0.5317 -0.2663
 3032SOL    HW120558   0.255   1.716  17.160  1.6140  0.0269 -1.4235
 3032SOL    HW220559   0.124   1.747  17.094 -2.6466 -2.5203 -1.3681
 3033SOL     OW20560   4.393   2.080   5.835 -0.1160  0.3186 -0.9659
 3033SOL    HW120561   4.381   2.017   5.764 -0.6519 -0.7149  0.0312
 3033SOL    HW220562   4.486   2.068   5.851 -0.6945 -0.7022  1.6827
 3034SOL     OW20563   1.029   3.564   1.934  0.5261  0.1599  0.1464
 3034SOL    HW120564   1.090   3.638   1.925  0.8931 -0.2773 -0.9413
 3034SOL    HW220565   0.948   3.607   1.907  1.7086  3.3556  1.6191
 3035SOL     OW20566   3.104   2.328   1.114 -0.3491  0.5786  0.0200
 3035SOL    HW120567   3.097   2.346   1.021 -3.4499 -0.0245  0.1377
 3035SOL    HW220568   3.041   2.257   1.125 -1.8193  1.8328 -0.2786
 3036SOL     OW20569   1.624   1.662  14.307 -0.3384  0.2578  0.7867
 3036SOL    HW120570   1.683   1.737  14.299  1.1752 -0.9855  0.2296
 3036SOL    HW220571   1.681   1.603  14.356  0.5232  0.2928 -0.1667
 3037SOL     OW20572   0.644   0.508   7.420  0.4069 -0.2893  0.3519
 3037SOL    HW120573   0.674   0.474   7.336  2.3144  0.7289  0.6231
 3037SOL    HW220574   0.717   0.558   7.457  0.9526  0.4664 -1.7975
 3038SOL     OW20575   1.359   2.847   5.716  0.6672  0.1422  0.0032
 3038SOL    HW120576   1.384   2.755   5.726 -0.4644 -0.0751  0.9240
 3038SOL    HW220577   1.351   2.882   5.805  3.7135 -1.8280  1.0411
 3039SOL     OW20578   3.418   4.083  11.654 -0.0812  0.1398 -0.6410
 3039SOL    HW120579   3.484   4.150  11.638 -0.9154  0.5688 -2.2770
 3039SOL    HW220580   3.344   4.144  11.663  0.9091  1.3231 -0.5441
 3040SOL     OW20581   3.204   2.616   6.942 -0.5982  0.3210 -0.1081
 3040SOL    HW120582   3.124   2.644   6.898  0.1816 -0.9889 -2.3839
 3040SOL    HW220583   3.216   2.685   7.007 -0.2167  0.6950 -0.5657
 3041SOL     OW20584   4.196   1.920  15.290  0.3167  0.0773 -0.2665
 3041SOL    HW120585   4.174   1.913  15.383  0.2944 -0.7877 -0.3352
 3041SOL    HW220586   4.284   1.882  15.291  0.2843  0.0091  0.0093
 3042SOL     OW20587   1.689   3.442   6.653 -0.3495  0.0303  0.0894
 3042SOL    HW120588   1.720   3.367   6.602  3.4533 -0.0630  2.5665
 3042SOL    HW220589   1.653   3.408   6.735  0.6340 -2.1579 -0.3779
 3043SOL     OW20590   3.695   0.428   4.663  0.1930 -0.3647 -0.2115
 3043SOL    HW120591   3.713   0.451   4.572  1.3898 -1.5190 -0.2590
 3043SOL    HW220592   3.599   0.430   4.660  0.2420 -0.2616 -2.0478
 3044SOL     OW20593   3.967   1.542   5.129  0.0634 -0.1547  0.1322
 3044SOL    HW120594   3.876   1.569   5.142  0.4386  1.3193 -0.2534
 3044SOL    HW220595   3.981   1.481   5.201  0.1923  1.3213  1.3615
 3045SOL     OW20596   0.529   4.675   5.400  0.0594 -0.3459 -0.5723
 3045SOL    HW120597   0.591   4.605   5.420 -0.5090  0.0657  2.6919
 3045SOL    HW220598   0.519   4.664   5.305  0.9511  1.8522 -0.9304
 3046SOL     OW20599   0.372   2.734   5.176 -0.3235 -0.4760  0.7412
 3046SOL    HW120600   0.351   2.643   5.156  1.4809 -0.6597 -0.3546
 3046SOL    HW220601   0.439   2.718   5.243  0.5991 -0.3086 -0.1364
 3047SOL     OW20602   2.583   4.663   7.689 -0.4812  0.2297  0.0160
 3047SOL    HW120603   2.586   4.574   7.653 -0.4332 -0.2976  1.3314
 3047SOL    HW220604   2.503   4.701   7.653 -1.9606 -2.2553  0.6344
 3048SOL     OW20605   4.618   0.111   1.506 -0.7167  0.7616  0.2691
 3048SOL    HW120606   4.673   0.105   1.428 -0.1493  3.3340  0.4808
 3048SOL    HW220607   4.547   0.159   1.463 -0.7913 -0.0108 -0.4847
 3049SOL     OW20608   1.177   2.898   6.461 -0.6077 -0.3360  0.1383
 3049SOL    HW120609   1.254   2.954   6.446 -0.9138 -0.0151 -0.2476
 3049SOL    HW220610   1.125   2.946   6.526  0.7962  0.6735  0.5290
 3050SOL     OW20611   2.851   2.329   7.870 -0.3117  0.0410 -0.4974
 3050SOL    HW120612   2.874   2.421   7.864  0.2934 -0.1926 -1.8124
 3050SOL    HW220613   2.939   2.304   7.901  0.8193  2.9314 -1.3496
 3051SOL     OW20614   3.190   3.724   3.070 -0.3608 -0.4113 -0.3142
 3051SOL    HW120615   3.282   3.703   3.080  0.4363  3.9945  1.4765
 3051SOL    HW220616   3.153   3.643   3.105  0.3482 -0.5421  0.1147
 3052SOL     OW20617   3.072   0.129   0.673 -0.3334  0.3289 -0.1836
 3052SOL    HW120618   3.017   0.056   0.643  3.8393 -2.2094 -1.6235
 3052SOL    HW220619   3.039   0.204   0.622  3.1034  1.5446 -0.6270
 3053SOL     OW20620   1.240   3.876   5.480  0.2446  0.1180 -0.2046
 3053SOL    HW120621   1.279   3.872   5.567  0.5032 -0.0259 -0.3257
 3053SOL    HW220622   1.286   3.801   5.441  0.2087 -0.8338  1.5819
 3054SOL     OW20623   3.708   3.466   3.392  0.3923 -0.2926  0.4833
 3054SOL    HW120624   3.613   3.473   3.386  0.6052  1.3784 -1.1386
 3054SOL    HW220625   3.738   3.517   3.316  0.3995 -1.1212 -0.0609
 3055SOL     OW20626   0.336   0.069   0.947 -0.5963  0.4184 -0.3656
 3055SOL    HW120627   0.256   0.075   0.895 -0.6607  2.6838 -0.0052
 3055SOL    HW220628   0.396   0.051   0.874  0.8143  0.1166  0.8781
 3056SOL     OW20629   0.457   0.937   7.304 -0.3213 -0.8733 -0.3881
 3056SOL    HW120630   0.468   0.842   7.300  3.3876 -0.3904 -2.1736
 3056SOL    HW220631   0.495   0.963   7.219 -1.2060 -0.7441 -0.7390
 3057SOL     OW20632   0.099   0.840  12.534 -0.0669  0.7103 -0.2382
 3057SOL    HW120633   0.056   0.879  12.610 -2.3882 -3.7390  0.7503
 3057SOL    HW220634   0.059   0.894  12.465 -0.6919 -0.5322 -0.8626
 3058SOL     OW20635   2.975   2.007   3.597  0.7331  0.1767  0.3078
 3058SOL    HW120636   3.036   1.934   3.609  1.2838  0.4957 -0.4864
 3058SOL    HW220637   3.019   2.051   3.524 -0.7438  0.5160 -0.3717
 3059SOL     OW20638   4.255   1.313  15.420  0.6168  0.1069 -0.2086
 3059SOL    HW120639   4.213   1.395  15.391 -1.4518 -0.6111  0.7327
 3059SOL    HW220640   4.190   1.243  15.427  0.6823  0.0141 -0.5415
 3060SOL     OW20641   2.569   2.997   0.152  0.3630  0.2600 -0.2190
 3060SOL    HW120642   2.573   3.088   0.181  0.3283 -0.8491  3.3549
 3060SOL    HW220643   2.476   2.976   0.147  0.1555  0.8134  1.2906
 3061SOL     OW20644   0.590   3.567   6.242 -0.2250  0.2659 -0.7698
 3061SOL    HW120645   0.574   3.628   6.170  2.2689 -0.4277 -1.8962
 3061SOL    HW220646   0.640   3.615   6.307 -0.3388 -0.4499 -0.1416
 3062SOL     OW20647   3.816   1.442  16.469 -0.5699  0.2773 -1.0396
 3062SOL    HW120648   3.811   1.367  16.527 -0.1196  0.2981 -0.9798
 3062SOL    HW220649   3.868   1.500  16.524 -1.2025  0.8056 -0.9882
 3063SOL     OW20650   0.414   0.097  11.040 -0.8490  0.0407 -0.0565
 3063SOL    HW120651   0.323   0.068  11.044 -0.4813 -1.1851 -0.6959
 3063SOL    HW220652   0.454   0.043  11.109 -2.2218 -1.5352 -0.4850
 3064SOL     OW20653   0.273   1.906   9.534 -0.3255 -0.0241 -0.2098
 3064SOL    HW120654   0.341   1.878   9.472 -2.8835 -2.4842 -1.9191
 3064SOL    HW220655   0.319   1.898   9.618  1.1346  3.1244 -0.7057
 3065SOL     OW20656   3.558   4.379  13.414 -0.2354 -0.4538 -0.8376
 3065SOL    HW120657   3.502   4.384  13.337  0.7842  5.4157 -1.2281
 3065SOL    HW220658   3.485   4.395  13.475  1.3720 -0.0942  1.0073
 3066SOL     OW20659   1.367   0.420   2.149 -0.1698  0.2345  0.1499
 3066SOL    HW120660   1.391   0.358   2.080 -1.0562 -0.2812  0.3068
 3066SOL    HW220661   1.430   0.397   2.217 -1.1130  0.7443  1.1886
 3067SOL     OW20662   4.405   2.323  17.015  0.2106  0.0870  0.1624
 3067SOL    HW120663   4.336   2.268  16.978 -2.2430  3.0817  0.2745
 3067SOL    HW220664   4.361   2.376  17.081  0.7252  0.3112  0.3306
 3068SOL     OW20665   0.200   3.282   7.389 -0.0902  0.4401  0.2083
 3068SOL    HW120666   0.120   3.275   7.337  0.4743 -0.8126 -0.5068
 3068SOL    HW220667   0.259   3.242   7.325 -0.0887 -1.1225  1.1658
 3069SOL     OW20668   2.689   1.517   2.412  0.8263 -0.1219 -0.5149
 3069SOL    HW120669   2.760   1.547   2.355  0.5022 -2.7697 -2.3001
 3069SOL    HW220670   2.635   1.596   2.412  1.4417  0.2978  0.4364
 3070SOL     OW20671   3.631   2.613   3.864 -0.0388  0.2157 -0.2058
 3070SOL    HW120672   3.671   2.584   3.946  0.2698  0.9861 -0.0906
 3070SOL    HW220673   3.562   2.549   3.845  0.6773 -0.6818  0.1963
 3071SOL     OW20674   4.147   3.202   7.713  0.0420 -0.1035  0.3412
 3071SOL    HW120675   4.123   3.292   7.735  3.0100  1.0460 -1.0987
 3071SOL    HW220676   4.181   3.180   7.800  3.0700  0.2888 -0.7388
 3072SOL     OW20677   4.474   4.363   1.782 -0.0418 -0.0554  1.2006
 3072SOL    HW120678   4.494   4.454   1.803 -0.0760  0.1267  0.4518
 3072SOL    HW220679   4.386   4.381   1.747  0.0144  0.6670  1.4222
 3073SOL     OW20680   0.157   3.218   5.928 -0.4078 -0.6623  0.2286
 3073SOL    HW120681   0.110   3.279   5.985  1.6435 -0.4159  1.6538
 3073SOL    HW220682   0.097   3.151   5.896 -1.0883 -0.9896  2.1903
 3074SOL     OW20683   1.936   1.100  16.619  0.3361  0.3725 -0.1813
 3074SOL    HW120684   1.866   1.156  16.650 -0.4938 -0.8605  0.1675
 3074SOL    HW220685   1.886   1.019  16.632  0.1019  0.1806 -2.3589
 3075SOL     OW20686   1.988   4.292   5.314 -0.2083  0.0301  0.7313
 3075SOL    HW120687   1.911   4.339   5.346  0.4503  1.2699  0.4896
 3075SOL    HW220688   2.035   4.370   5.284  0.8129 -0.3355  1.3881
 3076SOL     OW20689   0.855   3.071  11.540  0.1083 -0.1306 -0.1716
 3076SOL    HW120690   0.791   3.135  11.569  1.9663  0.9352  1.6090
 3076SOL    HW220691   0.816   3.028  11.464 -0.9038  0.2429  0.1364
 3077SOL     OW20692   2.514   2.386   3.172 -0.3486  0.0017 -0.2516
 3077SOL    HW120693   2.441   2.328   3.150  0.0509 -0.9186  0.8440
 3077SOL    HW220694   2.559   2.330   3.235  0.1960  0.3406 -0.3429
 3078SOL     OW20695   1.480   4.504   6.906 -0.1222 -0.0682  0.3819
 3078SOL    HW120696   1.415   4.556   6.858  0.4054  1.0024  0.8401
 3078SOL    HW220697   1.431   4.432   6.944  0.1938 -0.9227 -0.8172
 3079SOL     OW20698   0.304   1.499  10.399  0.5159 -0.3567  0.2931
 3079SOL    HW120699   0.257   1.514  10.317  1.4260  0.7334 -0.0296
 3079SOL    HW220700   0.368   1.570  10.401  0.8594 -0.6436 -0.2976
 3080SOL     OW20701   4.227   3.428   2.033  0.1785 -0.4890 -0.1383
 3080SOL    HW120702   4.204   3.507   1.984  1.6833  0.5881  0.8922
 3080SOL    HW220703   4.243   3.454   2.124 -3.3741  1.0273  0.0604
 3081SOL     OW20704   0.291   4.197  11.481 -0.2465  0.3692 -0.1777
 3081SOL    HW120705   0.361   4.132  11.492 -1.6390 -1.5610 -2.8033
 3081SOL    HW220706   0.327   4.246  11.407  2.4767 -1.0924  0.1472
 3082SOL     OW20707   2.692   2.323   2.690  0.0284 -0.2172 -0.2174
 3082SOL    HW120708   2.611   2.364   2.661  1.6063  2.3798 -0.9578
 3082SOL    HW220709   2.692   2.242   2.638  2.1378  1.0434 -2.1471
 3083SOL     OW20710   1.735   1.219   5.383  0.2740 -0.4855 -0.1563
 3083SOL    HW120711   1.704   1.136   5.419  0.9730  0.2634  2.1702
 3083SOL    HW220712   1.830   1.209   5.376  0.0848 -0.5382 -2.5369
 3084SOL     OW20713   1.639   4.140   2.974  0.4116  0.0066 -0.3775
 3084SOL    HW120714   1.706   4.137   2.905  0.3550  0.7674 -0.4679
 3084SOL    HW220715   1.596   4.059   2.944 -0.5511  0.6686 -0.7881
 3085SOL     OW20716   4.000   1.833  12.741  0.6907 -0.2165  0.6939
 3085SOL    HW120717   3.906   1.811  12.742  0.2854  1.2367 -2.3606
 3085SOL    HW220718   4.034   1.744  12.743  0.1761 -0.3907  1.7932
 3086SOL     OW20719   0.127   2.318  12.517  0.2930 -0.1833  0.1155
 3086SOL    HW120720   0.102   2.236  12.474 -1.0272  0.1746  0.2072
 3086SOL    HW220721   0.221   2.306  12.502  0.1273 -0.6903 -0.5128
 3087SOL     OW20722   3.901   1.883   5.413  0.2105 -0.6402  0.3289
 3087SOL    HW120723   3.951   1.937   5.473 -3.4939  2.4387  0.6309
 3087SOL    HW220724   3.946   1.905   5.331  0.9385  0.1193  0.9350
 3088SOL     OW20725   3.680   1.216  13.989 -0.1150  0.2336 -0.2120
 3088SOL    HW120726   3.744   1.145  13.985  0.9160  1.1465 -0.0905
 3088SOL    HW220727   3.693   1.243  13.898 -0.9275  0.9579 -0.1056
 3089SOL     OW20728   0.797   1.142  11.596 -0.1450 -0.2536 -0.2438
 3089SOL    HW120729   0.829   1.096  11.518  1.8060 -2.8470  2.0878
 3089SOL    HW220730   0.755   1.068  11.639 -0.3997 -0.3223 -0.6166
 3090SOL     OW20731   1.288   1.091   8.800 -0.1324 -0.3544  0.2324
 3090SOL    HW120732   1.301   1.053   8.886  1.0119  2.1312  1.1545
 3090SOL    HW220733   1.341   1.170   8.805  0.6232 -0.8522  0.0140
 3091SOL     OW20734   0.069   0.448   1.050  0.3038  0.1617  0.0114
 3091SOL    HW120735   0.017   0.497   1.113  0.8553  1.4176 -0.5159
 3091SOL    HW220736   4.722   0.414   0.995 -0.4799  1.9435 -0.0720
 3092SOL     OW20737   3.061   3.323  10.388  0.4670 -0.4796  0.2426
 3092SOL    HW120738   3.051   3.338  10.482 -1.8439 -2.9391  0.3522
 3092SOL    HW220739   3.155   3.339  10.373  0.3984 -1.8754 -1.6175
 3093SOL     OW20740   0.279   1.826   2.730 -0.2602  0.0340 -0.4995
 3093SOL    HW120741   0.328   1.787   2.658  0.3026 -1.4320  0.6683
 3093SOL    HW220742   0.309   1.766   2.799  1.8219 -0.7510 -2.0933
 3094SOL     OW20743   0.658   3.562   9.202 -0.0718  0.2878  0.1644
 3094SOL    HW120744   0.644   3.655   9.180 -0.8846  0.1171 -0.0499
 3094SOL    HW220745   0.707   3.538   9.123  0.8119 -0.1854  0.8664
 3095SOL     OW20746   0.307   0.894   5.712 -0.0436 -0.2849 -0.6793
 3095SOL    HW120747   0.400   0.874   5.725 -0.3609 -0.9786  0.5685
 3095SOL    HW220748   0.313   0.974   5.661  0.9239  0.0993  0.0339
 3096SOL     OW20749   3.193   1.602   1.502  0.0667  0.4326 -0.6177
 3096SOL    HW120750   3.144   1.601   1.584 -0.0043  1.3362 -0.6442
 3096SOL    HW220751   3.127   1.628   1.438 -0.1235  2.9385  0.5782
 3097SOL     OW20752   0.820   1.706   4.624 -0.2778  0.4500 -0.1521
 3097SOL    HW120753   0.818   1.724   4.718 -1.2312  1.4191 -0.3561
 3097SOL    HW220754   0.913   1.691   4.613 -0.4338 -1.3541  1.0668
 3098SOL     OW20755   0.478   3.458   8.117 -0.3325 -0.1183 -0.1738
 3098SOL    HW120756   0.433   3.412   8.046 -1.9788  2.1825 -0.6118
 3098SOL    HW220757   0.489   3.382   8.174  1.9067 -0.3545 -0.8977
 3099SOL     OW20758   1.270   2.078   6.970 -0.5366 -0.0290  0.1991
 3099SOL    HW120759   1.217   2.016   6.920 -0.4651 -0.5050  0.7135
 3099SOL    HW220760   1.255   2.150   6.909  0.3450 -0.6251 -0.7236
 3100SOL     OW20761   3.797   3.270   5.004  0.3616 -0.0903  0.3295
 3100SOL    HW120762   3.820   3.181   4.978  1.0844 -0.0324  0.7561
 3100SOL    HW220763   3.874   3.319   4.975  0.7506  0.1586  1.7651
 3101SOL     OW20764   1.959   2.267   7.391  0.9394 -0.1033 -0.1661
 3101SOL    HW120765   1.873   2.239   7.423  0.5753  3.1851  1.6916
 3101SOL    HW220766   1.938   2.333   7.326  0.1737 -0.0620  0.1284
 3102SOL     OW20767   0.346   3.343  10.047 -0.0746  0.1765 -0.2621
 3102SOL    HW120768   0.371   3.399  10.121  0.8493  0.3884 -0.7459
 3102SOL    HW220769   0.423   3.356   9.992 -2.2667 -0.3171 -3.4260
 3103SOL     OW20770   4.545   0.078   6.288  0.3834 -0.2089  0.1096
 3103SOL    HW120771   4.632   0.039   6.297 -0.2450 -1.4762  0.8104
 3103SOL    HW220772   4.512   0.021   6.218 -2.1719 -1.0644  2.0032
 3104SOL     OW20773   1.066   1.929  17.631 -0.2121 -0.0763 -0.5037
 3104SOL    HW120774   0.983   1.966  17.663  0.1886  0.8275 -0.5383
 3104SOL    HW220775   1.048   1.839  17.661 -3.2096  0.9808  0.8983
 3105SOL     OW20776   4.635   3.819   7.274 -0.6569  0.2788  0.2942
 3105SOL    HW120777   4.558   3.782   7.231  0.1047 -0.1978 -0.6400
 3105SOL    HW220778   4.599   3.906   7.291 -0.1175  0.5435  0.0721
 3106SOL     OW20779   3.012   3.231   2.890 -0.2029 -0.5469 -0.9423
 3106SOL    HW120780   3.039   3.139   2.885  0.9751 -0.1791 -1.2943
 3106SOL    HW220781   2.932   3.232   2.838 -1.4719  1.4294  1.0486
 3107SOL     OW20782   3.781   2.056   2.678 -0.4387 -0.0497  0.1677
 3107SOL    HW120783   3.824   1.977   2.711 -0.8635 -0.4775 -0.3071
 3107SOL    HW220784   3.746   2.016   2.598 -2.0388  0.2048  0.7564
 3108SOL     OW20785   3.424   3.616  17.300  0.0816 -0.3722  0.1010
 3108SOL    HW120786   3.384   3.624  17.386 -1.4581 -0.6926 -0.5727
 3108SOL    HW220787   3.496   3.554  17.309  1.1234  0.1040 -4.4950
 3109SOL     OW20788   0.154   1.231   6.072 -0.6897 -0.2207  0.5361
 3109SOL    HW120789   0.213   1.179   6.127  0.5069  1.1448  0.5351
 3109SOL    HW220790   0.176   1.199   5.985  2.1548  0.9914  0.8323
 3110SOL     OW20791   1.598   0.605  15.295 -1.3423  0.0040 -0.1347
 3110SOL    HW120792   1.655   0.554  15.353  0.1182  1.9177  0.1108
 3110SOL    HW220793   1.529   0.629  15.357 -0.5513 -5.3663  2.8214
 3111SOL     OW20794   3.290   4.009  15.972  0.3629  0.5056 -0.4159
 3111SOL    HW120795   3.239   4.063  16.032  0.9900 -2.0502  2.4059
 3111SOL    HW220796   3.322   4.070  15.906  1.3276  1.5168  0.9787
 3112SOL     OW20797   0.185   2.322  13.000 -0.4519  0.6099  0.4079
 3112SOL    HW120798   0.261   2.368  12.965  0.7063 -0.4839  1.4660
 3112SOL    HW220799   0.217   2.312  13.090 -1.1519  0.0652  0.5942
 3113SOL     OW20800   1.843   0.749   0.183  0.4427  0.4856  0.0826
 3113SOL    HW120801   1.857   0.704   0.267 -0.5769  0.2353  0.1188
 3113SOL    HW220802   1.879   0.832   0.215  0.2801  1.7157 -2.8892
 3114SOL     OW20803   4.100   3.183  13.123  0.1969  0.0576  0.3883
 3114SOL    HW120804   4.061   3.210  13.040 -0.0940 -0.8102  0.2491
 3114SOL    HW220805   4.126   3.092  13.113 -1.4391 -0.5492  1.7479
 3115SOL     OW20806   1.565   3.821   1.498 -0.0759  0.3624  0.3777
 3115SOL    HW120807   1.510   3.779   1.431  1.5925 -0.8282 -0.2421
 3115SOL    HW220808   1.543   3.913   1.488  2.7147  0.6306 -3.1987
 3116SOL     OW20809   0.342   2.952  17.676  0.5137  0.0681  0.8882
 3116SOL    HW120810   0.323   3.045  17.687 -1.4785 -0.5373  2.4764
 3116SOL    HW220811   0.431   2.959   0.017  0.7765 -0.6133  0.3527
 3117SOL     OW20812   2.331   2.811  16.759  0.0425 -0.5719  0.9075
 3117SOL    HW120813   2.284   2.893  16.744 -0.8406 -1.5076 -1.4986
 3117SOL    HW220814   2.396   2.833  16.825  0.9425  0.4404 -0.3348
 3118SOL     OW20815   2.161   4.006   8.141 -0.0324 -0.3488 -0.4562
 3118SOL    HW120816   2.089   4.069   8.143 -0.6763 -1.1046  0.2025
 3118SOL    HW220817   2.204   4.024   8.058 -1.4448  0.1891 -1.0525
 3119SOL     OW20818   0.936   0.726   7.412  0.7695 -0.0900 -0.2484
 3119SOL    HW120819   0.958   0.776   7.491 -1.1749 -2.0492  1.5328
 3119SOL    HW220820   1.008   0.754   7.356  1.7823  0.5992  1.3875
 3120SOL     OW20821   3.064   4.173   1.372 -0.2737  0.0516  0.1928
 3120SOL    HW120822   3.004   4.182   1.446  0.9629 -0.4707  1.2547
 3120SOL    HW220823   3.027   4.227   1.301  0.3084 -0.8558 -0.8061
 3121SOL     OW20824   2.954   1.716  12.497 -0.0799  0.3745  0.0049
 3121SOL    HW120825   2.952   1.767  12.578  0.9441  1.3407 -0.5749
 3121SOL    HW220826   3.020   1.766  12.449  0.1503  0.5092  0.4593
 3122SOL     OW20827   0.506   4.714  11.502 -0.1659 -0.0756  0.1271
 3122SOL    HW120828   0.454   4.648  11.547  1.1004 -1.0389  0.1830
 3122SOL    HW220829   0.590   4.714  11.548  0.8857 -3.0671 -1.7862
 3123SOL     OW20830   0.156   3.795   3.250 -0.4882  0.1170 -0.0346
 3123SOL    HW120831   0.243   3.831   3.236  0.1825 -0.9680  1.4135
 3123SOL    HW220832   0.147   3.746   3.169  2.0594  0.9771 -0.8396
 3124SOL     OW20833   4.393   0.761   6.957 -0.2959  0.2804 -0.1720
 3124SOL    HW120834   4.324   0.824   6.979  1.1530  2.4695 -1.7880
 3124SOL    HW220835   4.392   0.762   6.861  0.8211 -2.2979 -0.1938
 3125SOL     OW20836   1.412   0.754   6.094  0.0418  0.3147  0.0344
 3125SOL    HW120837   1.427   0.832   6.040  0.1696 -0.4706 -1.0637
 3125SOL    HW220838   1.339   0.712   6.050 -0.5572 -0.9899  2.2391
 3126SOL     OW20839   2.900   1.670  15.717 -0.2210 -0.0132  0.0029
 3126SOL    HW120840   2.991   1.682  15.691 -0.2898 -1.4954 -0.9262
 3126SOL    HW220841   2.864   1.629  15.638  1.1820  0.0817 -0.6739
 3127SOL     OW20842   1.089   0.248   8.572  0.0097 -0.5138 -0.2621
 3127SOL    HW120843   1.092   0.342   8.590 -0.5148 -0.9446  2.0080
 3127SOL    HW220844   1.133   0.215   8.650 -0.8166 -0.7775  0.0893
 3128SOL     OW20845   3.186   0.554  17.098  0.7251  0.0712 -0.4816
 3128SOL    HW120846   3.246   0.610  17.147  0.2830  0.0642  0.0607
 3128SOL    HW220847   3.250   0.494  17.059  1.0326 -0.5552  1.0013
 3129SOL     OW20848   3.566   2.707   1.900  0.2176 -0.1985  0.8461
 3129SOL    HW120849   3.479   2.745   1.911 -1.1157 -2.6801 -1.2830
 3129SOL    HW220850   3.552   2.636   1.838 -0.2756 -0.1199  0.8661
 3130SOL     OW20851   3.681   1.513   6.432  0.1523  0.5185  0.1667
 3130SOL    HW120852   3.765   1.559   6.434  1.3567 -1.7035  1.0298
 3130SOL    HW220853   3.690   1.467   6.516  1.5877 -1.1948 -0.9469
 3131SOL     OW20854   0.784   1.221  15.112  0.8084 -0.2437  0.6612
 3131SOL    HW120855   0.775   1.277  15.034 -2.8159 -0.9598  0.5476
 3131SOL    HW220856   0.853   1.264  15.163  0.6811  0.0701  0.5653
 3132SOL     OW20857   0.647   4.541  13.718  0.3800 -0.0261  0.2687
 3132SOL    HW120858   0.678   4.631  13.728 -0.2100  0.1136  0.7793
 3132SOL    HW220859   0.660   4.515  13.626  1.9702 -0.5486  0.6385
 3133SOL     OW20860   1.886   0.446   9.099 -0.4503 -0.4181 -0.7112
 3133SOL    HW120861   1.812   0.407   9.053 -1.9398 -0.2485  1.5228
 3133SOL    HW220862   1.899   0.533   9.062  1.4259 -0.2525  0.3391
 3134SOL     OW20863   3.260   4.571   2.340  0.2759  0.0764 -0.7236
 3134SOL    HW120864   3.323   4.638   2.369 -0.9859  0.2098  1.7673
 3134SOL    HW220865   3.173   4.610   2.334  0.6971  0.6533 -2.8705
 3135SOL     OW20866   2.380   0.252  11.133  0.3575  0.4362  0.1880
 3135SOL    HW120867   2.339   0.328  11.091 -0.4834 -0.3758 -0.4610
 3135SOL    HW220868   2.464   0.295  11.152  0.9391  0.4996 -2.5546
 3136SOL     OW20869   4.587   3.027   7.834 -0.5422  0.1849 -0.2002
 3136SOL    HW120870   4.559   2.948   7.881 -1.9847  0.6228 -0.3036
 3136SOL    HW220871   4.570   3.091   7.903 -2.1018 -0.7194  0.2664
 3137SOL     OW20872   3.239   2.169  11.401  0.5824 -0.2424  0.1086
 3137SOL    HW120873   3.314   2.201  11.350  2.0085 -0.9047  1.8088
 3137SOL    HW220874   3.261   2.208  11.486 -0.4773 -2.7997  1.5561
 3138SOL     OW20875   0.675   3.188   7.320 -0.3871  0.5352  0.2380
 3138SOL    HW120876   0.698   3.279   7.303  1.2619 -0.5605 -3.3849
 3138SOL    HW220877   0.712   3.185   7.409 -1.2044 -2.4178  0.4708
 3139SOL     OW20878   0.209   0.452  10.599 -0.1773 -0.3881  0.3731
 3139SOL    HW120879   0.276   0.497  10.651  1.2343 -0.4669 -1.3966
 3139SOL    HW220880   0.265   0.421  10.528  0.0118 -1.7241  1.1194
 3140SOL     OW20881   1.895   4.554  11.656 -0.0013 -0.0776  0.0778
 3140SOL    HW120882   1.841   4.591  11.585 -3.9896 -3.7877  1.1917
 3140SOL    HW220883   1.871   4.608  11.731  1.9127 -0.4219  0.9371
 3141SOL     OW20884   1.283   1.593   2.095  0.0398  0.0459  0.7164
 3141SOL    HW120885   1.223   1.531   2.134 -0.4302 -0.2141 -0.4119
 3141SOL    HW220886   1.249   1.585   2.006  2.6012  3.1872 -0.5731
 3142SOL     OW20887   0.192   3.620  16.431 -0.4181 -0.1153 -0.8126
 3142SOL    HW120888   0.100   3.646  16.431 -1.0110 -2.1460 -1.8808
 3142SOL    HW220889   0.247   3.697  16.443 -0.0197 -0.4267 -0.6152
 3143SOL     OW20890   3.486   3.288   2.064 -0.1875 -0.1298 -0.0170
 3143SOL    HW120891   3.434   3.296   2.144  1.1291 -1.9454  1.0013
 3143SOL    HW220892   3.466   3.200   2.033 -0.8180  0.3243 -0.9141
 3144SOL     OW20893   3.679   3.246   8.907  0.7256 -0.6876 -0.5462
 3144SOL    HW120894   3.714   3.333   8.923 -1.7175  0.2744 -0.4164
 3144SOL    HW220895   3.751   3.204   8.955  1.2708 -0.3826 -1.1019
 3145SOL     OW20896   0.966   1.478  10.250 -0.0753  0.0263 -0.2372
 3145SOL    HW120897   0.889   1.519  10.288 -0.6648 -2.1009  0.8292
 3145SOL    HW220898   0.947   1.464  10.157  2.4855 -1.0093 -0.6178
 3146SOL     OW20899   2.911   4.673  12.287  0.7395  0.5688 -0.3736
 3146SOL    HW120900   2.879   4.584  12.296  1.8434  0.2860  0.8331
 3146SOL    HW220901   2.845   0.002  12.332  1.8869  0.4765  1.4251
 3147SOL     OW20902   3.849   0.306   6.133  0.1827  0.2365  0.2580
 3147SOL    HW120903   3.870   0.275   6.221  0.4616 -0.0123  0.1021
 3147SOL    HW220904   3.794   0.379   6.163 -0.4935  0.8134 -2.4089
 3148SOL     OW20905   4.120   4.089   1.708  0.1135 -0.6047 -0.0851
 3148SOL    HW120906   4.114   4.179   1.678 -0.4428 -0.3537  0.7999
 3148SOL    HW220907   4.045   4.055   1.659 -0.2320 -1.2753  0.9011
 3149SOL     OW20908   0.376   0.338  10.417 -0.4315  0.5234 -0.2764
 3149SOL    HW120909   0.323   0.360  10.340 -0.0413  2.1111 -0.0903
 3149SOL    HW220910   0.437   0.278  10.374 -1.2591 -0.1927 -0.4520
 3150SOL     OW20911   1.389   1.616   6.816  0.2824  0.2836  0.3068
 3150SOL    HW120912   1.402   1.593   6.724  2.2076 -0.4757  0.7697
 3150SOL    HW220913   1.472   1.656   6.843 -0.2065  0.9903  0.7732
 3151SOL     OW20914   0.083   0.034   6.361  0.1162 -0.1972  0.2108
 3151SOL    HW120915   0.152   0.058   6.300  0.8481  0.8537  1.4488
 3151SOL    HW220916   0.081   0.110   6.419  1.4099  0.4215 -0.5676
 3152SOL     OW20917   3.750   4.507   3.943  0.2155  0.4132  0.3050
 3152SOL    HW120918   3.694   4.523   3.867 -0.1110  1.2907  0.7286
 3152SOL    HW220919   3.725   4.417   3.966  1.0539 -0.0044 -0.4122
 3153SOL     OW20920   3.832   4.291  10.821  0.3025 -0.2216  0.3308
 3153SOL    HW120921   3.861   4.203  10.797  1.4460 -0.1885  1.5897
 3153SOL    HW220922   3.881   4.341  10.755  0.2129 -0.3314  0.1812
 3154SOL     OW20923   2.842   3.421   6.039  0.6657  0.2678  0.0125
 3154SOL    HW120924   2.821   3.511   6.060  2.4826  0.4326  1.1136
 3154SOL    HW220925   2.931   3.442   6.008  0.3553 -1.3751 -2.0683
 3155SOL     OW20926   4.365   4.038   1.867  0.4985 -0.5115  0.1663
 3155SOL    HW120927   4.376   3.943   1.872 -0.4408 -0.6723 -0.8692
 3155SOL    HW220928   4.291   4.051   1.809  0.3916 -1.6083  0.0424
 3156SOL     OW20929   1.084   2.473   7.238  0.0374 -0.3527 -0.0712
 3156SOL    HW120930   1.092   2.464   7.333  0.7500  1.0942  0.0053
 3156SOL    HW220931   1.071   2.567   7.229 -0.1869 -0.1611  2.2131
 3157SOL     OW20932   3.679   3.047  13.574  0.3084  0.4225 -0.3413
 3157SOL    HW120933   3.608   2.993  13.610  2.6688 -2.6018 -0.1766
 3157SOL    HW220934   3.741   3.062  13.646  0.1391 -0.7101  0.0422
 3158SOL     OW20935   0.918   3.042   1.483 -0.0609  0.0621  0.5795
 3158SOL    HW120936   0.864   2.968   1.456  1.6551 -0.5348 -1.2589
 3158SOL    HW220937   0.844   3.090   1.522 -2.3124 -1.4521 -1.8470
 3159SOL     OW20938   1.466   0.325   5.860 -0.7369  0.2313  0.2730
 3159SOL    HW120939   1.391   0.321   5.920 -0.9909  0.2136 -0.0480
 3159SOL    HW220940   1.533   0.360   5.919 -1.2448 -0.3108  1.1788
 3160SOL     OW20941   2.739   2.529   8.769  0.7429 -0.2886 -0.3434
 3160SOL    HW120942   2.750   2.543   8.675 -1.4994  0.5863 -0.4788
 3160SOL    HW220943   2.821   2.484   8.789  0.0438 -1.6941 -0.7009
 3161SOL     OW20944   4.537   1.294   3.923  0.1962  0.0720 -0.3711
 3161SOL    HW120945   4.627   1.327   3.927 -0.1356  0.8963  0.4095
 3161SOL    HW220946   4.516   1.301   3.829 -0.1847 -0.3111 -0.3135
 3162SOL     OW20947   4.661   0.668   2.026  0.0036 -0.0131  0.6610
 3162SOL    HW120948   4.718   0.746   2.023  1.6475 -1.2183  0.5105
 3162SOL    HW220949   4.697   0.607   1.962 -0.7251  1.5984 -1.2858
 3163SOL     OW20950   0.952   2.457   2.505 -0.2956  0.0190  0.1903
 3163SOL    HW120951   0.930   2.528   2.566  1.9458 -0.5125  1.6194
 3163SOL    HW220952   1.033   2.499   2.475 -0.0644 -1.2911 -1.0109
 3164SOL     OW20953   2.803   3.681   4.407 -0.4494  0.1121  0.1427
 3164SOL    HW120954   2.882   3.645   4.447 -2.0703 -0.9051  2.4392
 3164SOL    HW220955   2.848   3.726   4.336 -0.9773  0.3373 -0.0497
 3165SOL     OW20956   0.183   0.868   4.584 -0.0612 -0.4005  0.2497
 3165SOL    HW120957   0.200   0.832   4.497 -0.8521 -0.3797  0.0867
 3165SOL    HW220958   0.090   0.889   4.581 -0.4460 -2.0121  1.0434
 3166SOL     OW20959   2.963   3.344   3.691 -0.2380 -0.1294  0.0936
 3166SOL    HW120960   2.873   3.356   3.661  0.3166 -2.7030 -2.5389
 3166SOL    HW220961   3.005   3.345   3.606 -0.6201  1.5143 -0.0735
 3167SOL     OW20962   4.175   1.089  14.109  0.7112 -0.2013 -0.1707
 3167SOL    HW120963   4.129   1.120  14.030 -0.3820  0.8019  0.8477
 3167SOL    HW220964   4.263   1.114  14.083  0.0077  3.4983  0.9288
 3168SOL     OW20965   1.639   1.398  14.084  0.5921 -0.3657  0.4663
 3168SOL    HW120966   1.718   1.452  14.085  0.5550 -0.2397 -2.7334
 3168SOL    HW220967   1.625   1.383  14.177 -0.8139  0.6167  0.4135
 3169SOL     OW20968   1.294   2.065   4.762 -0.1776  0.6551 -0.2713
 3169SOL    HW120969   1.206   2.027   4.769  0.9688 -1.8470  0.1606
 3169SOL    HW220970   1.282   2.111   4.678  0.6675  2.5911  0.6636
 3170SOL     OW20971   1.441   4.273   8.687 -0.2977 -0.0122  0.4563
 3170SOL    HW120972   1.435   4.188   8.731  1.5220  0.3368  1.3660
 3170SOL    HW220973   1.411   4.244   8.601  3.3215  3.6743 -2.0473
 3171SOL     OW20974   3.528   0.394   9.219  0.4754 -0.0720  0.1163
 3171SOL    HW120975   3.572   0.386   9.304 -2.5872  0.7065  1.7918
 3171SOL    HW220976   3.505   0.487   9.208  0.8653 -0.0086 -0.1516
 3172SOL     OW20977   0.277   1.743  11.956 -0.2113  0.1018 -0.2259
 3172SOL    HW120978   0.321   1.813  11.908  2.7620 -0.0311  2.2495
 3172SOL    HW220979   0.306   1.752  12.047 -0.1542 -2.5339  0.0295
 3173SOL     OW20980   3.995   4.547   4.633  0.2793  0.1336 -0.4114
 3173SOL    HW120981   4.085   4.563   4.662 -0.1088  0.0114  0.8637
 3173SOL    HW220982   3.957   4.614   4.690 -1.1550  0.7475 -2.0942
 3174SOL     OW20983   4.480   3.604   6.844  0.2943 -0.6417  0.0535
 3174SOL    HW120984   4.521   3.663   6.780  2.2146 -1.2134  0.7583
 3174SOL    HW220985   4.430   3.554   6.779 -1.4109  1.5627 -0.3480
 3175SOL     OW20986   3.972   1.214   0.410  0.2316 -0.0528  0.1372
 3175SOL    HW120987   3.915   1.137   0.409  0.5080 -0.2559  0.0352
 3175SOL    HW220988   3.968   1.239   0.318 -1.1027  0.3765  0.3119
 3176SOL     OW20989   4.559   4.122  17.310 -0.5907 -0.1299 -0.5898
 3176SOL    HW120990   4.486   4.059  17.309  0.0388 -0.8785  0.9101
 3176SOL    HW220991   4.574   4.123  17.405 -1.2047  0.1335 -0.4981
 3177SOL     OW20992   4.678   3.219   7.648 -0.1128  0.5451 -0.3084
 3177SOL    HW120993   4.644   3.146   7.699  0.5427 -0.6164 -1.5522
 3177SOL    HW220994   4.614   3.290   7.654  1.0387  1.4257  1.4753
 3178SOL     OW20995   2.997   3.855   7.343 -0.3297  0.4570 -0.6226
 3178SOL    HW120996   2.947   3.899   7.412  0.9415 -1.2591  1.4177
 3178SOL    HW220997   2.932   3.854   7.273 -0.0856 -1.4214 -0.8148
 3179SOL     OW20998   4.171   3.410   2.548 -0.3608  0.3290  0.3114
 3179SOL    HW120999   4.110   3.482   2.566  1.1777  1.6751  0.0439
 3179SOL    HW221000   4.250   3.462   2.533  0.3122 -0.2612  1.8886
 3180SOL     OW21001   4.668   0.840  16.569  0.2669  0.4720  0.0238
 3180SOL    HW121002   4.575   0.860  16.580  0.8107  1.5243  2.7169
 3180SOL    HW221003   4.712   0.921  16.595  1.8606 -0.1094 -0.9058
 3181SOL     OW21004   3.573   0.980   6.251 -0.0195 -0.1804  0.0417
 3181SOL    HW121005   3.614   1.056   6.293 -1.5179  0.5726  0.1601
 3181SOL    HW221006   3.538   1.028   6.176  1.3489 -1.8521 -1.6579
 3182SOL     OW21007   3.769   3.707   3.912  0.2109  0.0265  0.3669
 3182SOL    HW121008   3.818   3.681   3.834 -1.0241  0.6040 -0.5943
 3182SOL    HW221009   3.733   3.794   3.898 -1.7306 -0.9333 -0.5968
 3183SOL     OW21010   2.756   3.406  15.387 -0.2137 -0.4180 -0.1874
 3183SOL    HW121011   2.798   3.430  15.304 -0.0015 -1.0741 -0.2727
 3183SOL    HW221012   2.664   3.383  15.375 -0.2342 -0.1646 -0.5128
 3184SOL     OW21013   3.085   3.411   0.776 -0.1364 -0.6035  0.1138
 3184SOL    HW121014   3.138   3.448   0.706 -0.3172 -1.8456 -0.6907
 3184SOL    HW221015   3.084   3.481   0.841  0.0321  0.2450 -0.7941
 3185SOL     OW21016   0.809   0.815  12.604 -0.0414 -0.1243  0.0011
 3185SOL    HW121017   0.799   0.893  12.659  3.1238  1.4618 -1.6834
 3185SOL    HW221018   0.728   0.820  12.553  0.0581  0.6624 -0.0910
 3186SOL     OW21019   3.406   0.485   7.842  0.2201  0.6395  0.9652
 3186SOL    HW121020   3.348   0.561   7.841  0.1546  0.6085  1.7551
 3186SOL    HW221021   3.461   0.527   7.908  0.8205  0.5513  0.5203
 3187SOL     OW21022   1.079   4.535   8.950  0.3552 -0.4007  0.1694
 3187SOL    HW121023   1.016   4.587   8.900  1.1463 -0.5717 -0.9985
 3187SOL    HW221024   1.142   4.601   8.979  2.9036 -2.2895 -1.0740
 3188SOL     OW21025   4.188   0.775   9.403  0.4141 -0.4219  1.0050
 3188SOL    HW121026   4.249   0.817   9.343 -0.3857 -0.3410  0.2550
 3188SOL    HW221027   4.214   0.684   9.389  1.7597  0.4329 -1.9319
 3189SOL     OW21028   3.259   3.422  12.218 -0.4364 -0.0296 -0.6473
 3189SOL    HW121029   3.185   3.397  12.163 -1.4666  1.0115  0.2675
 3189SOL    HW221030   3.318   3.348  12.203 -0.9118 -0.9942  2.2573
 3190SOL     OW21031   2.788   1.264  16.107 -0.1976  0.7328  0.0944
 3190SOL    HW121032   2.693   1.263  16.090  0.3163 -1.1420 -2.6674
 3190SOL    HW221033   2.800   1.170  16.123 -0.6527  0.5299 -0.7713
 3191SOL     OW21034   2.140   0.336   9.185  0.2903 -0.1937 -0.7041
 3191SOL    HW121035   2.049   0.362   9.169  0.4811  0.8584 -0.0912
 3191SOL    HW221036   2.186   0.380   9.114  0.1383  0.3318 -0.4816
 3192SOL     OW21037   0.435   3.679   9.392 -0.2478  0.2130 -0.1650
 3192SOL    HW121038   0.508   3.619   9.408 -0.0556  0.2433 -0.9689
 3192SOL    HW221039   0.481   3.762   9.400 -1.6255  0.9798 -0.2215
 3193SOL     OW21040   2.391   1.770   6.086  0.5125  0.6607 -0.1491
 3193SOL    HW121041   2.405   1.845   6.029 -0.8242 -0.9724 -2.6315
 3193SOL    HW221042   2.476   1.741   6.118  0.6961 -0.0072 -1.2344
 3194SOL     OW21043   1.208   1.722  11.465 -0.5270 -0.3579  0.3599
 3194SOL    HW121044   1.157   1.670  11.402 -0.3848  0.6027 -0.5418
 3194SOL    HW221045   1.210   1.656  11.535 -0.3910  0.9406  1.5630
 3195SOL     OW21046   2.102   1.075   7.696  0.0198 -0.3310 -0.5349
 3195SOL    HW121047   2.177   1.046   7.644 -0.3957 -2.2504 -0.0629
 3195SOL    HW221048   2.029   1.043   7.642 -0.4119 -1.5956  0.8059
 3196SOL     OW21049   2.320   0.001  14.576  0.5744 -0.4734  0.3629
 3196SOL    HW121050   2.284   0.017  14.489 -0.2960  2.1031  1.1943
 3196SOL    HW221051   2.412   4.712  14.552  0.9884  1.0590  1.1947
 3197SOL     OW21052   2.132   3.187   4.153  0.2910  0.1915  0.0254
 3197SOL    HW121053   2.177   3.152   4.076 -1.0447  1.0805 -1.1490
 3197SOL    HW221054   2.152   3.119   4.218  0.5665 -1.0531 -1.3616
 3198SOL     OW21055   3.765   3.382   4.676  0.3624  0.2821 -0.2062
 3198SOL    HW121056   3.694   3.323   4.702 -0.4565  1.2316 -0.3092
 3198SOL    HW221057   3.780   3.351   4.587  1.4723  1.1341 -0.3176
 3199SOL     OW21058   2.298   0.292   8.934 -0.4675 -0.0197  0.0441
 3199SOL    HW121059   2.231   0.225   8.928 -0.3267  0.0998 -3.1470
 3199SOL    HW221060   2.347   0.261   9.011  0.1704  0.8594 -0.0035
 3200SOL     OW21061   0.656   1.337   7.271  0.3815  0.0804 -0.0300
 3200SOL    HW121062   0.619   1.268   7.326 -0.5281 -0.9537 -1.9825
 3200SOL    HW221063   0.749   1.315   7.271  0.6110  1.0662 -1.0673
 3201SOL     OW21064   1.549   3.366   6.888  0.2014  0.5627  0.2605
 3201SOL    HW121065   1.571   3.273   6.880  1.8905  0.9638  0.2041
 3201SOL    HW221066   1.567   3.373   6.982 -0.8175 -0.5084  0.5295
 3202SOL     OW21067   1.988   1.112  11.039  0.5042 -0.4553 -0.1615
 3202SOL    HW121068   1.959   1.081  11.124  0.1739  0.4740  0.0712
 3202SOL    HW221069   1.989   1.206  11.058 -1.8504 -0.6298  0.8764
 3203SOL     OW21070   2.503   1.732   7.057 -0.1623 -0.1599 -0.3048
 3203SOL    HW121071   2.501   1.818   7.098  1.0260 -0.1019 -0.3592
 3203SOL    HW221072   2.468   1.756   6.972 -0.2737 -0.3452 -0.3119
 3204SOL     OW21073   1.015   1.783   2.168 -0.3986 -0.0256 -0.2661
 3204SOL    HW121074   0.938   1.833   2.141 -1.2592 -0.4933  1.3272
 3204SOL    HW221075   0.976   1.696   2.176 -2.2844  0.8320 -0.0169
 3205SOL     OW21076   3.236   1.586   7.248 -0.4004  0.3203  0.0054
 3205SOL    HW121077   3.243   1.652   7.317 -0.2719 -0.1837  0.4763
 3205SOL    HW221078   3.270   1.645   7.181  0.7716 -1.1670 -0.7036
 3206SOL     OW21079   4.675   1.080  10.304 -0.2946 -0.3716  0.3659
 3206SOL    HW121080   0.015   1.144  10.339 -0.0856 -1.0235  1.1784
 3206SOL    HW221081   0.004   1.008  10.270 -0.2386  0.3692 -1.0856
 3207SOL     OW21082   1.992   1.184  14.808  0.1544  0.1718  0.3633
 3207SOL    HW121083   1.905   1.144  14.816 -0.0245  0.8766  1.8914
 3207SOL    HW221084   1.966   1.275  14.818 -0.6116 -0.0997  0.7992
 3208SOL     OW21085   3.113   1.612   6.918  0.5376  0.2909 -0.2459
 3208SOL    HW121086   3.069   1.565   6.847 -0.1716 -0.7877  0.9078
 3208SOL    HW221087   3.069   1.562   6.987  0.3621  1.5636  0.5765
 3209SOL     OW21088   1.282   1.682  17.616 -0.4140 -0.0511 -0.0883
 3209SOL    HW121089   1.236   1.684   0.006 -0.3626  1.7941 -0.1006
 3209SOL    HW221090   1.210   1.646  17.564 -1.4081 -0.5183  1.6039
 3210SOL     OW21091   2.488   4.589  12.695  0.0608 -0.0539 -0.4729
 3210SOL    HW121092   2.565   4.587  12.752 -1.8213 -2.8238  2.0182
 3210SOL    HW221093   2.428   4.527  12.737 -0.8189  0.4369 -1.0024
 3211SOL     OW21094   3.439   3.931   2.971  0.5560  0.6829 -0.1040
 3211SOL    HW121095   3.369   3.996   2.979  0.6974  0.7307  0.7283
 3211SOL    HW221096   3.424   3.896   2.883  1.0280 -0.1668  0.1533
 3212SOL     OW21097   4.035   4.350   9.010  0.3735  0.1183  0.1902
 3212SOL    HW121098   4.059   4.431   9.054  2.4269 -0.2918 -0.1795
 3212SOL    HW221099   4.112   4.327   8.957 -0.0754 -1.5009  0.2300
 3213SOL     OW21100   0.674   2.444   5.413 -0.2677 -0.2126  0.5214
 3213SOL    HW121101   0.623   2.524   5.424 -1.9943 -0.9809 -2.0440
 3213SOL    HW221102   0.624   2.384   5.357 -0.3235  0.7143 -0.4043
 3214SOL     OW21103   4.151   1.536   1.269 -0.2243 -0.3993  0.0752
 3214SOL    HW121104   4.124   1.479   1.198 -0.4581 -0.4233  0.1834
 3214SOL    HW221105   4.236   1.567   1.237 -1.3489  2.0871 -0.4663
 3215SOL     OW21106   4.349   1.287  11.182  0.3607  0.2246  0.2508
 3215SOL    HW121107   4.444   1.281  11.190  0.4624  1.3202 -0.2223
 3215SOL    HW221108   4.346   1.278  11.087  0.2790  0.0882  0.2651
 3216SOL     OW21109   2.610   2.403   6.723 -0.5988 -0.8560 -0.3189
 3216SOL    HW121110   2.600   2.348   6.646  1.9606  0.9058 -1.9055
 3216SOL    HW221111   2.524   2.441   6.745  0.6751  1.5414  0.5990
 3217SOL     OW21112   2.717   1.740   2.651  0.2922 -0.5810 -0.0812
 3217SOL    HW121113   2.689   1.831   2.644  1.3902 -0.1738  0.8632
 3217SOL    HW221114   2.776   1.741   2.575  1.1029  1.1562  0.5714
 3218SOL     OW21115   0.953   2.237   8.168  0.0886 -0.0229 -0.4217
 3218SOL    HW121116   1.032   2.224   8.116 -0.0076 -0.9234 -0.3365
 3218SOL    HW221117   0.882   2.225   8.105  1.2615  2.3467 -2.1809
 3219SOL     OW21118   3.464   3.812   9.818  0.4621 -0.3356 -0.3636
 3219SOL    HW121119   3.488   3.724   9.847 -0.3671 -0.8599 -1.2572
 3219SOL    HW221120   3.548   3.841   9.782  0.2597 -0.9956 -1.3601
 3220SOL     OW21121   0.355   0.164   7.353 -0.4923 -0.2555  0.0236
 3220SOL    HW121122   0.371   0.175   7.447 -2.7136  0.2160  0.3504
 3220SOL    HW221123   0.282   0.102   7.353 -0.4808 -0.2628 -0.4736
 3221SOL     OW21124   2.901   0.909  17.664  0.1592  0.4225 -0.0986
 3221SOL    HW121125   2.921   0.852  17.590  2.3193  1.1583 -0.0995
 3221SOL    HW221126   2.946   0.988  17.632  1.9363 -0.4317  0.2939
 3222SOL     OW21127   2.340   4.590  12.331  0.5211 -0.4974  1.2715
 3222SOL    HW121128   2.257   4.565  12.371 -0.9344  1.7662 -0.3098
 3222SOL    HW221129   2.396   4.518  12.360 -0.2835 -1.7780 -0.3655
 3223SOL     OW21130   4.659   1.267   5.721 -0.2802  0.3651 -0.2484
 3223SOL    HW121131   4.665   1.353   5.679  0.2028 -0.6250 -2.1901
 3223SOL    HW221132   0.019   1.266   5.769 -0.8766  0.3976  0.8058
 3224SOL     OW21133   4.227   0.031  10.706  0.0713  0.1021 -0.2962
 3224SOL    HW121134   4.224   4.692  10.779  0.2762 -0.1830 -0.5313
 3224SOL    HW221135   4.159   4.717  10.650  0.7683 -2.4133  0.5038
 3225SOL     OW21136   1.698   1.169   1.299  0.0304  0.2217  0.4387
 3225SOL    HW121137   1.639   1.208   1.234  1.2602 -0.5349 -1.1135
 3225SOL    HW221138   1.739   1.102   1.245  1.0027  2.5109 -1.6424
 3226SOL     OW21139   2.979   0.108   4.138 -0.5497  0.0661  0.1669
 3226SOL    HW121140   2.963   0.085   4.046  0.5975 -5.3051  1.2688
 3226SOL    HW221141   2.997   0.201   4.127  2.9844 -0.4626  1.3570
 3227SOL     OW21142   0.938   3.185   2.659  0.1873 -0.1349  0.2436
 3227SOL    HW121143   0.970   3.245   2.591  0.6650 -1.1556 -0.4226
 3227SOL    HW221144   0.966   3.240   2.732 -0.1715 -1.4530  1.3750
 3228SOL     OW21145   0.563   4.061   9.901  0.6214 -0.2607 -0.1458
 3228SOL    HW121146   0.471   4.082   9.892  0.3513 -1.5991 -0.6041
 3228SOL    HW221147   0.610   4.141   9.925 -0.1690  0.6690 -1.6616
 3229SOL     OW21148   3.828   1.022   7.092  0.1226 -0.3429  0.3554
 3229SOL    HW121149   3.875   0.951   7.136 -1.9082 -1.1284  1.2599
 3229SOL    HW221150   3.814   1.082   7.165 -1.1032 -2.6028  2.0096
 3230SOL     OW21151   2.882   1.751   2.450 -0.5143 -0.6063 -0.1459
 3230SOL    HW121152   2.858   1.719   2.364  2.9720 -4.8335  0.4837
 3230SOL    HW221153   2.975   1.731   2.448 -0.5160 -0.4973 -1.1863
 3231SOL     OW21154   4.151   4.685   8.105 -0.1542  0.0284 -0.4382
 3231SOL    HW121155   4.165   4.630   8.183  1.8547  0.8496 -0.1999
 3231SOL    HW221156   4.174   4.627   8.033 -1.2102  1.4500 -1.8917
 3232SOL     OW21157   3.763   4.075  15.941  0.2215  0.1151  0.0041
 3232SOL    HW121158   3.811   4.059  16.022  1.7868 -2.1025 -1.3575
 3232SOL    HW221159   3.723   4.162  15.947  0.2704  0.1270  0.1621
 3233SOL     OW21160   0.986   3.360   6.315  0.5568  0.1184 -0.1442
 3233SOL    HW121161   0.938   3.404   6.386 -1.2921 -0.0434 -1.2714
 3233SOL    HW221162   0.952   3.272   6.333 -1.1715  0.7738 -0.1822
 3234SOL     OW21163   1.777   3.952   8.117 -0.2326  0.0985 -0.1344
 3234SOL    HW121164   1.859   3.906   8.099 -0.6520 -1.2719  1.4197
 3234SOL    HW221165   1.792   4.044   8.095 -1.2233  0.9672  2.8016
 3235SOL     OW21166   0.490   1.010   4.656 -0.1869  0.5668 -0.2241
 3235SOL    HW121167   0.513   0.996   4.564 -1.4946 -1.4024 -0.2415
 3235SOL    HW221168   0.536   0.945   4.709  0.9080  0.9477 -0.7034
 3236SOL     OW21169   4.227   3.624  13.003 -0.3252  0.2089  0.0066
 3236SOL    HW121170   4.270   3.540  12.988 -0.0152  0.0567  1.7722
 3236SOL    HW221171   4.165   3.626  12.930 -2.1572 -0.3081  1.5771
 3237SOL     OW21172   1.610   2.183   1.805 -0.2889  0.3407  0.1085
 3237SOL    HW121173   1.652   2.268   1.815 -1.8827  1.1297 -0.0289
 3237SOL    HW221174   1.579   2.179   1.895  1.3374  1.4599  0.7229
 3238SOL     OW21175   4.388   2.254   0.701 -0.2165 -0.0455 -0.1302
 3238SOL    HW121176   4.417   2.299   0.621  1.3264 -0.3173  0.2744
 3238SOL    HW221177   4.471   2.241   0.746  0.6039 -1.4490 -2.0299
 3239SOL     OW21178   4.007   2.138   6.279 -0.0940 -0.3731 -0.0450
 3239SOL    HW121179   4.022   2.114   6.370 -0.9746 -0.2380  0.1346
 3239SOL    HW221180   3.991   2.063   6.222  1.4565  1.2618 -2.6544
 3240SOL     OW21181   2.281   1.372   4.511 -0.0197 -0.3498  0.1068
 3240SOL    HW121182   2.304   1.337   4.424 -1.8597  0.3062 -0.6329
 3240SOL    HW221183   2.240   1.301   4.560  3.0524 -1.5463  0.9943
 3241SOL     OW21184   3.816   0.503   5.651  0.1409  0.1749 -0.2142
 3241SOL    HW121185   3.828   0.548   5.567 -0.1129  1.0646  0.2249
 3241SOL    HW221186   3.907   0.502   5.680 -0.0863  1.5658  0.5376
 3242SOL     OW21187   0.451   3.709   1.198  0.4021  0.1196 -0.2498
 3242SOL    HW121188   0.526   3.648   1.200 -0.2576 -0.7497 -2.7496
 3242SOL    HW221189   0.482   3.756   1.276 -0.7597 -1.0196  0.9207
 3243SOL     OW21190   2.609   4.627   6.304  0.1512 -0.6163  0.2405
 3243SOL    HW121191   2.648   4.573   6.235 -0.7557 -0.8251 -0.1156
 3243SOL    HW221192   2.587   4.708   6.258  1.7518 -0.5372 -0.3751
 3244SOL     OW21193   0.727   0.084  13.619 -0.1511 -0.3696 -0.1519
 3244SOL    HW121194   0.819   0.107  13.630  0.1100 -1.8449  0.7890
 3244SOL    HW221195   0.735   0.048  13.531 -0.9977  1.1639 -0.8461
 3245SOL     OW21196   1.763   3.628  11.540  0.5489 -0.6417  0.3742
 3245SOL    HW121197   1.696   3.600  11.478  2.7673 -1.1893 -1.7861
 3245SOL    HW221198   1.727   3.712  11.568  0.1825 -0.9068  0.6997
 3246SOL     OW21199   2.078   3.679   1.715 -0.3111  0.0253  0.4206
 3246SOL    HW121200   2.075   3.605   1.655  0.7275  0.9773 -0.7945
 3246SOL    HW221201   2.057   3.749   1.653 -0.6312  0.2204  0.7491
 3247SOL     OW21202   0.056   2.886   2.694 -0.2419  0.3763  0.1193
 3247SOL    HW121203   4.696   2.879   2.646 -1.9453 -0.4027  3.1459
 3247SOL    HW221204   0.061   2.808   2.749 -0.8838  2.3765  3.0105
 3248SOL     OW21205   0.812   2.817   5.150 -0.2483 -0.1475 -0.3485
 3248SOL    HW121206   0.731   2.838   5.104 -0.5445 -1.4287 -0.4012
 3248SOL    HW221207   0.862   2.784   5.075 -0.8879  1.8381 -1.6540
 3249SOL     OW21208   1.265   3.014   2.289 -0.5459  0.1724  0.1613
 3249SOL    HW121209   1.338   3.072   2.310  0.5182 -0.9063 -0.5798
 3249SOL    HW221210   1.203   3.069   2.241 -0.0708  0.1044 -0.5330
 3250SOL     OW21211   4.205   0.182   6.093 -0.4146 -0.2158 -0.5556
 3250SOL    HW121212   4.160   0.131   6.160  2.2726 -1.4406  0.3293
 3250SOL    HW221213   4.235   0.258   6.142 -3.0512  0.4228  0.0675
 3251SOL     OW21214   3.423   1.434   4.249 -0.4338  0.1919  0.0209
 3251SOL    HW121215   3.343   1.386   4.272 -0.7442  1.2192  1.0586
 3251SOL    HW221216   3.419   1.498   4.320  2.9991 -0.7452  1.0084
 3252SOL     OW21217   0.059   3.564  11.897 -0.5575  0.3812 -0.2388
 3252SOL    HW121218   0.142   3.535  11.861 -0.9555 -1.3873  0.2900
 3252SOL    HW221219   4.714   3.508  11.859 -0.2654 -0.2498  0.1832
 3253SOL     OW21220   3.519   1.262   3.940  0.5623 -0.4187 -0.6558
 3253SOL    HW121221   3.593   1.322   3.940  0.2963 -0.0757  1.6779
 3253SOL    HW221222   3.454   1.317   3.985  0.7731 -1.6510  1.1356
 3254SOL     OW21223   2.079   3.556   4.039  0.2746  0.3651  0.2695
 3254SOL    HW121224   2.005   3.592   3.990 -0.5846 -1.8471 -0.0508
 3254SOL    HW221225   2.048   3.553   4.129  1.4145  0.9960  0.6896
 3255SOL     OW21226   3.388   0.805   5.763 -0.0346 -0.2317 -0.0219
 3255SOL    HW121227   3.334   0.791   5.685 -1.5867 -1.7829  1.3533
 3255SOL    HW221228   3.359   0.895   5.782 -1.5863 -0.8447  0.5345
 3256SOL     OW21229   3.339   2.392  14.331  0.0827  0.0863 -0.2853
 3256SOL    HW121230   3.346   2.327  14.401  0.7302 -0.4040 -0.8050
 3256SOL    HW221231   3.421   2.381  14.283  0.2741  0.4614 -0.0393
 3257SOL     OW21232   3.000   1.047   2.153 -0.3509 -0.9142  0.3598
 3257SOL    HW121233   2.947   0.989   2.206  0.4321 -0.9673  1.0776
 3257SOL    HW221234   2.987   1.004   2.069 -0.2754  0.6513 -0.4646
 3258SOL     OW21235   0.112   3.802  12.968  0.0751  0.1210  0.6552
 3258SOL    HW121236   0.074   3.715  12.958  0.8965 -0.0385 -1.2703
 3258SOL    HW221237   0.186   3.799  12.906 -0.1430 -0.3664  0.4228
 3259SOL     OW21238   0.347   2.093  12.060  0.0009 -0.4348 -0.0330
 3259SOL    HW121239   0.366   2.044  12.140 -0.0332 -3.7876 -2.0673
 3259SOL    HW221240   0.429   2.140  12.048  0.0182 -0.1704  1.1677
 3260SOL     OW21241   3.579   1.192  15.184  0.1178  0.4403  0.1329
 3260SOL    HW121242   3.604   1.278  15.217  2.4277 -0.1286 -0.1704
 3260SOL    HW221243   3.654   1.190  15.124  1.8896 -2.6033  2.4786
 3261SOL     OW21244   3.867   1.985   3.433  0.2351 -0.1572  0.3722
 3261SOL    HW121245   3.877   2.080   3.430 -2.1037  0.0432 -1.1593
 3261SOL    HW221246   3.792   1.978   3.492  0.5909 -0.6478  0.7632
 3262SOL     OW21247   4.082   1.578   5.464 -0.6412 -0.9336 -0.3731
 3262SOL    HW121248   4.150   1.578   5.531 -1.7468  1.7881  0.7169
 3262SOL    HW221249   4.006   1.610   5.513  0.7250  1.6062  0.0178
 3263SOL     OW21250   4.378   1.328   1.213  0.2945 -0.5725  0.1469
 3263SOL    HW121251   4.399   1.410   1.258 -1.1194  0.5238 -1.1998
 3263SOL    HW221252   4.386   1.353   1.120  0.3720 -0.1937  0.2518
 3264SOL     OW21253   3.126   1.556   5.644 -0.2301  0.2742  0.7090
 3264SOL    HW121254   3.130   1.485   5.580 -2.7486  1.0529 -0.2921
 3264SOL    HW221255   3.148   1.633   5.591  0.6744 -1.5924 -1.6314
 3265SOL     OW21256   0.213   2.234   1.376  0.1776  0.3475 -0.1883
 3265SOL    HW121257   0.248   2.238   1.465  0.9017 -3.2942 -0.3167
 3265SOL    HW221258   0.123   2.261   1.394  0.8098 -0.0548  3.6593
 3266SOL     OW21259   1.832   1.085   5.975 -0.4841  0.3890 -0.0365
 3266SOL    HW121260   1.890   1.014   6.005 -3.4485 -1.7028  0.6739
 3266SOL    HW221261   1.805   1.120   6.060  2.5275  0.9227  0.7145
 3267SOL     OW21262   0.939   1.880  11.135 -0.5256  0.0714  0.0307
 3267SOL    HW121263   0.959   1.790  11.109 -1.0859 -0.0086 -0.1097
 3267SOL    HW221264   0.845   1.875  11.153 -0.3477  1.6597  1.4231
 3268SOL     OW21265   1.656   3.091   1.865  0.3368  0.3264  0.2738
 3268SOL    HW121266   1.736   3.053   1.902  0.1360 -0.7593 -0.4082
 3268SOL    HW221267   1.600   3.085   1.942 -0.7459  0.3594 -0.5091
 3269SOL     OW21268   4.380   1.575  17.282  0.3522  0.2444 -0.9104
 3269SOL    HW121269   4.414   1.615  17.202 -0.1910  0.8146 -0.8592
 3269SOL    HW221270   4.401   1.646  17.343  2.3692 -0.1096 -1.1890
 3270SOL     OW21271   0.388   3.276  14.361  0.1134 -0.4901 -0.2570
 3270SOL    HW121272   0.370   3.208  14.297  0.6121 -0.3907 -0.4967
 3270SOL    HW221273   0.332   3.252  14.435  0.7832 -0.5235  0.2352
 3271SOL     OW21274   4.690   2.153   5.549 -0.1293 -0.1363  0.2003
 3271SOL    HW121275   0.008   2.175   5.633  1.0960 -0.8242 -0.2140
 3271SOL    HW221276   4.631   2.227   5.536 -0.6340 -0.7124 -0.7743
 3272SOL     OW21277   2.102   1.995   6.869  0.1664  0.0021  0.1255
 3272SOL    HW121278   2.042   2.031   6.804  1.6168  0.6104 -0.8537
 3272SOL    HW221279   2.043   1.937   6.918 -1.1827  0.8892 -0.4560
 3273SOL     OW21280   0.766   3.964   2.324 -0.4868 -0.1121  0.1031
 3273SOL    HW121281   0.762   3.933   2.233  0.4340 -0.9080  0.3337
 3273SOL    HW221282   0.842   3.924   2.365 -1.3939 -2.7509 -0.7560
 3274SOL     OW21283   4.013   1.157  14.330  0.1969  0.1216 -0.7016
 3274SOL    HW121284   4.079   1.126  14.267  0.8872  0.7867 -0.3097
 3274SOL    HW221285   3.962   1.210  14.268  0.2107  1.8104  0.7413
 3275SOL     OW21286   0.185   0.564   5.564  0.4099 -0.2771 -0.0785
 3275SOL    HW121287   0.229   0.496   5.614  2.0598  1.5237  0.9270
 3275SOL    HW221288   0.126   0.612   5.623  0.4629 -1.4986  0.9698
 3276SOL     OW21289   3.800   4.296   7.586  0.0429  0.2145  0.1644
 3276SOL    HW121290   3.721   4.316   7.535  1.3719  1.0868 -1.5419
 3276SOL    HW221291   3.777   4.211   7.623  3.5975 -0.9621 -0.3765
 3277SOL     OW21292   3.369   0.571  11.299 -0.3033 -0.0444 -0.5143
 3277SOL    HW121293   3.416   0.567  11.216  0.3075 -1.6670 -0.0842
 3277SOL    HW221294   3.422   0.636  11.344  0.2505 -1.4229  0.8332
 3278SOL     OW21295   1.357   1.567   5.411 -0.0288  0.2436 -0.2139
 3278SOL    HW121296   1.291   1.514   5.457  0.0045  0.2094 -0.2054
 3278SOL    HW221297   1.442   1.532   5.439 -0.0487 -0.4250 -0.9787
 3279SOL     OW21298   2.231   0.516   8.731  0.2186  0.3573 -0.3254
 3279SOL    HW121299   2.225   0.441   8.790 -2.3357  0.6479 -0.2424
 3279SOL    HW221300   2.153   0.567   8.754  0.2729  0.3087 -0.0358
 3280SOL     OW21301   2.982   0.584   2.329 -0.9657 -0.3399  0.7903
 3280SOL    HW121302   2.996   0.509   2.387 -0.8708  0.2369  1.5177
 3280SOL    HW221303   2.956   0.548   2.244 -2.2453  1.6893  0.3199
 3281SOL     OW21304   0.222   2.960   1.948  0.3892 -0.7949  0.3684
 3281SOL    HW121305   0.241   3.031   2.010  0.3497 -1.6067  1.3081
 3281SOL    HW221306   0.237   2.876   1.991  0.6352 -1.7037 -1.5185
 3282SOL     OW21307   1.922   4.182   4.727  0.2659 -0.0673 -0.4281
 3282SOL    HW121308   1.851   4.198   4.790  0.4850  0.8553 -0.4033
 3282SOL    HW221309   1.926   4.087   4.724  1.1109 -0.0527  0.1740
 3283SOL     OW21310   2.438   4.132   1.654 -0.6596 -0.0250 -0.7051
 3283SOL    HW121311   2.446   4.050   1.605  0.4660 -1.1019  1.2885
 3283SOL    HW221312   2.517   4.125   1.707 -1.6486  0.8168  0.8704
 3284SOL     OW21313   0.900   4.015   9.197 -0.1073 -0.2412 -0.4344
 3284SOL    HW121314   0.928   3.924   9.195  1.6410  0.3014 -1.1808
 3284SOL    HW221315   0.857   4.023   9.111 -2.0890 -0.6495  0.5314
 3285SOL     OW21316   0.761   2.290   6.700  0.5492  0.0775 -0.1602
 3285SOL    HW121317   0.826   2.314   6.767 -0.3226  0.7987  0.4243
 3285SOL    HW221318   0.782   2.358   6.635 -1.3175 -0.1237 -0.9584
 3286SOL     OW21319   2.885   0.348   1.558 -0.5259  0.8513  0.2809
 3286SOL    HW121320   2.948   0.355   1.486 -2.5575 -1.3017 -1.7067
 3286SOL    HW221321   2.806   0.379   1.514 -0.5567 -0.3345 -0.5028
 3287SOL     OW21322   0.563   0.526   4.815  0.3269 -0.2621  0.0823
 3287SOL    HW121323   0.637   0.564   4.766  0.6237  0.0577  0.7813
 3287SOL    HW221324   0.484   0.559   4.773  0.0010  2.3570  2.7635
 3288SOL     OW21325   3.924   3.638   6.968  0.1780 -0.4755  0.0634
 3288SOL    HW121326   3.873   3.699   6.914  0.0852  0.4577  1.1927
 3288SOL    HW221327   3.985   3.607   6.902  1.4338  1.5507  0.2829
 3289SOL     OW21328   0.071   2.064   8.480 -0.3020 -0.3476 -0.5350
 3289SOL    HW121329   0.028   2.047   8.396  1.2581 -0.3385 -1.3295
 3289SOL    HW221330   0.153   2.105   8.454  0.6492 -1.2648  1.0315
 3290SOL     OW21331   3.456   4.294   6.292 -0.4072 -0.2656  0.2208
 3290SOL    HW121332   3.387   4.235   6.321  0.2672  0.6056  3.5134
 3290SOL    HW221333   3.439   4.370   6.348  0.3268  0.1056 -0.0543
 3291SOL     OW21334   2.092   2.443   4.747  0.0565  0.1347 -0.8544
 3291SOL    HW121335   2.104   2.535   4.770 -0.4926  0.1418 -0.5880
 3291SOL    HW221336   2.117   2.395   4.826  1.5687  1.0922 -0.7595
 3292SOL     OW21337   3.877   2.742   4.008 -0.1665  0.1316  0.5526
 3292SOL    HW121338   3.900   2.696   4.089  0.8813 -1.0807 -0.4182
 3292SOL    HW221339   3.924   2.699   3.936  0.8319  2.9478 -0.4969
 3293SOL     OW21340   3.181   0.547   8.186 -0.5840 -0.4356 -0.5352
 3293SOL    HW121341   3.101   0.498   8.204 -1.3238  0.5237 -1.1936
 3293SOL    HW221342   3.245   0.477   8.169 -0.0831 -0.5048  1.6822
 3294SOL     OW21343   2.362   4.017   8.308  0.3330 -0.4417  0.2166
 3294SOL    HW121344   2.285   4.048   8.261  0.3132  0.5666  0.9034
 3294SOL    HW221345   2.431   4.079   8.286 -0.7239  0.5106 -0.4585
 3295SOL     OW21346   2.665   3.938   9.373  0.1955  0.2122 -0.2229
 3295SOL    HW121347   2.759   3.921   9.368  0.5484  1.8170  0.7045
 3295SOL    HW221348   2.651   3.958   9.281 -0.7800  1.4004  0.1817
 3296SOL     OW21349   0.037   3.404   6.130 -0.4135 -0.1325  0.1985
 3296SOL    HW121350   0.030   3.462   6.206  1.1510  0.3480 -0.0341
 3296SOL    HW221351   0.132   3.411   6.120 -0.0353 -2.1641  2.4586
 3297SOL     OW21352   3.802   4.421   5.079 -0.4114 -0.2493  0.5807
 3297SOL    HW121353   3.716   4.446   5.047  0.2878  0.6248 -0.6555
 3297SOL    HW221354   3.816   4.505   5.122 -1.0378  1.2088 -2.0859
 3298SOL     OW21355   4.244   1.259   3.568 -0.0486 -0.2093 -0.2715
 3298SOL    HW121356   4.291   1.176   3.568  0.9214  0.3408 -0.6866
 3298SOL    HW221357   4.162   1.232   3.527 -0.9756  1.2487  0.6278
 3299SOL     OW21358   2.182   4.073   7.462  0.6235 -0.3086 -0.6314
 3299SOL    HW121359   2.166   4.088   7.369 -0.3424  0.5842 -0.3114
 3299SOL    HW221360   2.102   4.027   7.485  1.5164 -2.3822 -1.6630
 3300SOL     OW21361   3.283   3.785   6.835 -0.2335  0.3597  0.7956
 3300SOL    HW121362   3.304   3.828   6.752  0.6969 -0.4682  0.5916
 3300SOL    HW221363   3.332   3.836   6.899  0.3191  0.0577  0.6256
 3301SOL     OW21364   2.293   4.575   6.314  0.7496 -0.2790 -0.5051
 3301SOL    HW121365   2.332   4.582   6.401 -0.2627 -2.8917  0.1460
 3301SOL    HW221366   2.202   4.565   6.341  0.4684  0.8863 -0.9972
 3302SOL     OW21367   0.302   1.937   6.248  0.1194  0.9362 -0.1158
 3302SOL    HW121368   0.391   1.920   6.215  0.0704 -0.4873  0.4668
 3302SOL    HW221369   0.298   1.865   6.311 -2.5611  1.4908  0.3349
 3303SOL     OW21370   4.164   3.921   8.290  0.0516  0.3162 -0.6378
 3303SOL    HW121371   4.150   3.876   8.374 -0.3626  1.5908 -0.0261
 3303SOL    HW221372   4.254   3.950   8.280  0.5849 -1.2517 -0.3797
 3304SOL     OW21373   2.196   1.353   0.281 -0.2462 -0.0094 -0.3088
 3304SOL    HW121374   2.234   1.426   0.330 -0.7664  0.7403 -1.0356
 3304SOL    HW221375   2.164   1.393   0.200 -0.4152  1.9113  0.7222
 3305SOL     OW21376   1.930   4.399  16.340  0.4419  0.4382 -0.5728
 3305SOL    HW121377   1.891   4.479  16.375  0.2375  0.4187 -0.7535
 3305SOL    HW221378   1.906   4.331  16.403 -1.6700 -0.5652 -2.4619
 3306SOL     OW21379   2.210   1.978  10.462  0.1831  0.2415 -0.0721
 3306SOL    HW121380   2.224   1.898  10.413 -1.8614  0.5708 -1.1999
 3306SOL    HW221381   2.181   1.945  10.547  1.1256  0.2464  0.2487
 3307SOL     OW21382   0.616   1.740  14.731 -0.5675 -0.3067  0.0965
 3307SOL    HW121383   0.698   1.789  14.728 -1.4719  1.2301  1.1353
 3307SOL    HW221384   0.563   1.797  14.785  2.8747  3.0845 -0.1188
 3308SOL     OW21385   2.100   4.449   4.142 -0.0599  0.2443  0.2122
 3308SOL    HW121386   2.102   4.457   4.237 -1.5568  1.9867  0.1049
 3308SOL    HW221387   2.184   4.404   4.133 -0.7296 -1.0798  0.5185
 3309SOL     OW21388   2.031   0.256   4.415 -0.3925  0.1618  0.0509
 3309SOL    HW121389   2.116   0.300   4.417  0.2093 -1.0599  1.2243
 3309SOL    HW221390   2.049   0.169   4.450 -2.5150 -1.8301 -3.8055
 3310SOL     OW21391   3.421   2.934   0.717  0.6372  0.6176 -0.8328
 3310SOL    HW121392   3.436   3.023   0.748  0.1448  0.8494 -1.2691
 3310SOL    HW221393   3.328   2.930   0.738  0.5817 -0.4620 -1.2961
 3311SOL     OW21394   4.667   2.797   6.142 -0.1557  0.3540  0.4830
 3311SOL    HW121395   0.018   2.802   6.203 -0.1924 -0.0637  0.5668
 3311SOL    HW221396   4.689   2.714   6.098 -1.9834  0.7198 -1.0884
 3312SOL     OW21397   0.860   1.841  14.803  0.0860  0.8164 -0.0888
 3312SOL    HW121398   0.949   1.836  14.767  0.5937  1.5304  1.0521
 3312SOL    HW221399   0.869   1.904  14.874 -0.7722  0.9291 -0.0840
 3313SOL     OW21400   3.291   0.517   6.702 -0.1808  0.2427 -0.2099
 3313SOL    HW121401   3.348   0.445   6.675 -2.2711 -1.7108  0.5738
 3313SOL    HW221402   3.359   0.569   6.745 -0.2834 -1.7079  2.3308
 3314SOL     OW21403   3.162   2.821  12.176 -0.2667 -0.0398 -0.2023
 3314SOL    HW121404   3.104   2.747  12.160  0.4308 -0.5402 -0.4405
 3314SOL    HW221405   3.110   2.891  12.215  0.1384 -1.3437  2.6598
 3315SOL     OW21406   2.171   4.221   4.842  0.1058 -0.1144 -0.1164
 3315SOL    HW121407   2.229   4.146   4.831  1.3295  0.9206 -0.7999
 3315SOL    HW221408   2.091   4.169   4.850 -0.6087  0.7182 -1.9544
 3316SOL     OW21409   0.203   0.470   1.741 -0.1563  0.1297 -0.1221
 3316SOL    HW121410   0.270   0.531   1.710 -2.8420  3.2805  0.3696
 3316SOL    HW221411   0.130   0.512   1.697 -0.6505 -0.2467  0.3477
 3317SOL     OW21412   4.293   4.721   0.226  0.5325 -0.0075  0.0156
 3317SOL    HW121413   4.207   4.715   0.268  0.6232  1.9951  0.4890
 3317SOL    HW221414   4.279   4.651   0.162  0.8549  0.5384 -0.6522
 3318SOL     OW21415   1.340   2.958   1.029  0.8315  0.8905 -0.1383
 3318SOL    HW121416   1.404   2.892   1.057 -1.3967 -1.6507 -1.1520
 3318SOL    HW221417   1.341   3.015   1.107  2.6241  0.8083 -0.0902
 3319SOL     OW21418   1.800   0.285   2.602 -0.0220  0.5041 -0.4294
 3319SOL    HW121419   1.770   0.375   2.587  2.7935  1.2877 -1.3010
 3319SOL    HW221420   1.736   0.260   2.669  0.9602  3.7468  1.7014
 3320SOL     OW21421   2.193   4.707   7.936 -0.1575  0.6740  0.2732
 3320SOL    HW121422   2.106   4.682   7.905  0.6930 -0.6905 -1.0146
 3320SOL    HW221423   2.248   4.643   7.891 -0.7044  0.9130 -0.7364
 3321SOL     OW21424   3.260   1.555   1.102 -0.1056  0.7626 -0.4897
 3321SOL    HW121425   3.200   1.503   1.049  2.7221 -0.4853 -2.4230
 3321SOL    HW221426   3.213   1.631   1.135  0.5607  0.8297  0.3013
 3322SOL     OW21427   3.933   1.842   2.733 -0.1565  0.3982  0.4800
 3322SOL    HW121428   3.998   1.912   2.738 -0.1055  0.3634  0.2635
 3322SOL    HW221429   3.998   1.775   2.713 -0.5402  0.3965 -0.7448
 3323SOL     OW21430   1.026   2.938   7.894 -0.2464 -0.1776 -0.4506
 3323SOL    HW121431   1.080   3.004   7.851 -1.0730 -1.0729 -2.8892
 3323SOL    HW221432   1.100   2.877   7.899  1.0937  1.4414 -0.8190
 3324SOL     OW21433   1.358   2.732  13.239 -0.1544  0.0320  0.6649
 3324SOL    HW121434   1.382   2.669  13.307  1.6233 -1.0986 -0.9834
 3324SOL    HW221435   1.445   2.772  13.234  0.5186 -1.4564  0.3608
 3325SOL     OW21436   0.415   0.716   8.062 -0.1114  0.6211  0.3768
 3325SOL    HW121437   0.352   0.644   8.074  1.5005 -1.1232 -1.7441
 3325SOL    HW221438   0.351   0.780   8.029  0.2172 -0.1507 -1.7617
 3326SOL     OW21439   1.525   3.114   5.546 -0.2881  0.1809  0.2985
 3326SOL    HW121440   1.448   3.116   5.602 -1.3365  1.2128 -1.1848
 3326SOL    HW221441   1.512   3.199   5.504  2.3390 -1.2648 -3.4167
 3327SOL     OW21442   3.338   3.009  13.489  0.4234  0.9575 -0.1655
 3327SOL    HW121443   3.362   3.080  13.548  0.1259 -1.2870  2.6676
 3327SOL    HW221444   3.386   2.935  13.527  0.7536  0.2828 -1.8932
 3328SOL     OW21445   4.478   2.026   1.508 -0.4123  0.3648 -0.1069
 3328SOL    HW121446   4.464   2.047   1.601  1.7301 -3.5275  1.0977
 3328SOL    HW221447   4.390   2.017   1.472 -0.8488  2.8946  0.3487
 3329SOL     OW21448   1.137   1.776   4.907 -0.4749 -0.5838 -0.0349
 3329SOL    HW121449   1.192   1.798   4.983  1.7695  1.4298 -2.2210
 3329SOL    HW221450   1.088   1.700   4.937 -0.9981 -0.5344 -0.7637
 3330SOL     OW21451   3.703   3.988  13.359 -0.6331 -0.8524 -0.2174
 3330SOL    HW121452   3.724   4.075  13.325  0.7387 -1.7173 -1.5954
 3330SOL    HW221453   3.609   3.982  13.339 -0.4442  3.1346 -2.2324
 3331SOL     OW21454   0.249   3.463   1.429 -0.0788 -0.2172 -0.3783
 3331SOL    HW121455   0.316   3.440   1.364 -0.7042 -1.8490 -0.4411
 3331SOL    HW221456   0.210   3.381   1.459  1.9976 -0.0762  2.6945
 3332SOL     OW21457   0.339   4.533  12.651  0.2683  0.0574  0.0305
 3332SOL    HW121458   0.253   4.563  12.622 -1.7444 -2.8944  2.9639
 3332SOL    HW221459   0.354   4.607  12.711  0.2873  2.2848 -2.7385
 3333SOL     OW21460   4.712   0.904  17.497  0.0092 -0.0924  0.2055
 3333SOL    HW121461   4.687   0.967  17.565 -0.6261 -0.3167  0.1779
 3333SOL    HW221462   0.043   0.842  17.545  0.7648 -0.0281 -0.5598
 3334SOL     OW21463   1.634   4.046   9.874  0.2861  0.2293  0.2966
 3334SOL    HW121464   1.579   4.104   9.821 -0.9934 -1.7553 -0.5658
 3334SOL    HW221465   1.721   4.070   9.842  1.0741 -1.4561  1.1680
 3335SOL     OW21466   2.292   0.429   6.917  0.2876  0.0261  0.0433
 3335SOL    HW121467   2.222   0.436   6.981 -0.6740  0.4941 -1.0491
 3335SOL    HW221468   2.301   0.518   6.882  1.6991 -0.9596 -2.1180
 3336SOL     OW21469   3.233   0.156   5.316  0.3094  0.5424 -0.2808
 3336SOL    HW121470   3.180   0.193   5.386  0.0202  0.7029 -0.5830
 3336SOL    HW221471   3.295   0.227   5.297  1.2332 -0.4886 -1.1324
 3337SOL     OW21472   3.480   0.881   4.529  0.0442 -0.0432  0.0975
 3337SOL    HW121473   3.544   0.867   4.599 -0.0097  1.6998  0.4940
 3337SOL    HW221474   3.550   0.873   4.464 -0.6073  0.4123 -0.6602
 3338SOL     OW21475   1.557   0.912  16.439  0.3336  0.2011  0.5856
 3338SOL    HW121476   1.471   0.926  16.398  0.0491 -1.2163  0.6964
 3338SOL    HW221477   1.610   0.946  16.367 -2.2305 -0.2656 -1.5312
 3339SOL     OW21478   1.951   1.388   5.959 -0.0075  1.0730 -0.1602
 3339SOL    HW121479   1.956   1.373   5.865  1.4962 -1.2065  0.2829
 3339SOL    HW221480   1.857   1.370   5.969  0.7648 -1.8573  1.8992
 3340SOL     OW21481   1.876   1.919   6.346  0.5254  0.3002 -0.0397
 3340SOL    HW121482   1.812   1.907   6.276  1.2974 -2.5469 -0.2856
 3340SOL    HW221483   1.905   2.010   6.342 -0.0668  0.4913 -0.0344
 3341SOL     OW21484   2.466   4.306   4.813  0.1063 -0.1657 -0.0317
 3341SOL    HW121485   2.419   4.270   4.737  0.7585 -1.3210  0.1195
 3341SOL    HW221486   2.531   4.236   4.822 -0.8333 -0.8413  1.3465
 3342SOL     OW21487   0.214   3.523   1.908 -0.6119  0.1130 -0.9745
 3342SOL    HW121488   0.287   3.582   1.888  0.5323 -1.4595 -1.4583
 3342SOL    HW221489   0.257   3.438   1.899 -0.8937  0.1855 -3.1294
 3343SOL     OW21490   3.727   0.622   9.348 -0.3010  0.3225  0.1435
 3343SOL    HW121491   3.800   0.678   9.376 -0.1765  0.5561 -0.6474
 3343SOL    HW221492   3.675   0.611   9.428  2.4830 -1.3055  1.7194
 3344SOL     OW21493   2.636   0.827   4.389 -0.4584 -0.0339 -0.4237
 3344SOL    HW121494   2.595   0.779   4.461 -0.3318  0.7431  0.1544
 3344SOL    HW221495   2.708   0.774   4.352 -0.9201 -1.3893  0.6128
 3345SOL     OW21496   1.244   4.631   4.018  0.3867 -0.1205  0.3481
 3345SOL    HW121497   1.326   4.596   3.982  0.7644  3.8227 -2.5431
 3345SOL    HW221498   1.241   4.572   4.094 -2.3774 -0.1976  0.1789
 3346SOL     OW21499   0.713   1.401  15.476 -0.1190  0.1142  0.2286
 3346SOL    HW121500   0.742   1.478  15.425 -1.9720  0.3918 -0.3927
 3346SOL    HW221501   0.624   1.420  15.504  0.1999  0.5828  0.9486
 3347SOL     OW21502   3.758   3.084   2.509  0.5825 -0.0808 -0.2486
 3347SOL    HW121503   3.673   3.107   2.469  0.1498  3.2118  2.6328
 3347SOL    HW221504   3.737   3.110   2.599 -0.3093  1.3833 -0.8802
 3348SOL     OW21505   2.561   4.515   8.136  0.2819 -0.7430  0.1984
 3348SOL    HW121506   2.561   4.463   8.056 -1.0271 -0.1490 -0.1756
 3348SOL    HW221507   2.564   4.603   8.099  0.6446 -0.1892  1.5376
 3349SOL     OW21508   0.836   1.783   4.905  0.5031 -0.3022 -1.1402
 3349SOL    HW121509   0.884   1.826   4.975 -0.5687  0.2584 -0.7452
 3349SOL    HW221510   0.800   1.703   4.942 -0.6169  1.1560  0.8941
 3350SOL     OW21511   0.780   2.987   2.127 -0.5015  0.6481  0.3155
 3350SOL    HW121512   0.684   2.989   2.132 -0.6020 -0.4464 -1.0593
 3350SOL    HW221513   0.803   2.914   2.184 -2.3159 -1.7295 -1.9842
 3351SOL     OW21514   0.183   4.547   8.809  0.1030  0.5303 -0.1103
 3351SOL    HW121515   0.135   4.539   8.891 -0.1379 -1.3477 -0.4243
 3351SOL    HW221516   0.112   4.558   8.747 -0.3191  0.1474  0.3051
 3352SOL     OW21517   1.180   1.727  11.811  0.1832  0.3237  0.4056
 3352SOL    HW121518   1.181   1.770  11.896  2.6041 -0.2170  0.6438
 3352SOL    HW221519   1.237   1.788  11.764 -0.2154  1.2369  1.0979
 3353SOL     OW21520   0.211   0.432  11.625 -0.3478  0.2154  0.4194
 3353SOL    HW121521   0.151   0.468  11.691  1.8530 -1.4517  3.3472
 3353SOL    HW221522   0.169   0.453  11.542  0.6012 -0.9920 -0.3554
 3354SOL     OW21523   2.584   4.522   2.085 -0.1673 -0.2156  0.2871
 3354SOL    HW121524   2.495   4.550   2.109  0.1060 -1.8379  3.1886
 3354SOL    HW221525   2.577   4.492   1.994  0.5446  0.9098 -0.1335
 3355SOL     OW21526   0.085   2.674   3.392 -0.5687  0.4372 -0.2338
 3355SOL    HW121527   0.087   2.655   3.486 -2.9233  1.9771  0.1385
 3355SOL    HW221528   0.118   2.594   3.353  0.9085 -0.0165  1.9381
 3356SOL     OW21529   1.699   2.493   7.476  0.2406  0.0303  0.3983
 3356SOL    HW121530   1.740   2.423   7.426 -1.3792 -2.1419  2.1047
 3356SOL    HW221531   1.606   2.474   7.460  0.4760 -0.6085 -0.2220
 3357SOL     OW21532   2.820   3.562   8.644 -0.2531  0.6006 -0.4058
 3357SOL    HW121533   2.776   3.558   8.730  1.9472  0.2908  0.6930
 3357SOL    HW221534   2.901   3.604   8.672  0.4244 -1.1520  0.2649
 3358SOL     OW21535   1.771   2.530   3.576 -0.3443  0.1500 -0.4570
 3358SOL    HW121536   1.745   2.441   3.598 -2.5515  0.8706 -0.2132
 3358SOL    HW221537   1.686   2.573   3.589 -1.7949 -2.7089 -0.5444
 3359SOL     OW21538   4.434   0.254   6.741 -0.5372  0.8968 -0.2691
 3359SOL    HW121539   4.432   0.253   6.837  2.7251 -1.4005 -0.2608
 3359SOL    HW221540   4.340   0.262   6.724 -0.6193  0.2498 -0.1167
 3360SOL     OW21541   1.286   2.676   8.526 -0.2043  0.3741  0.0342
 3360SOL    HW121542   1.275   2.768   8.547  1.7915  0.7347 -0.5299
 3360SOL    HW221543   1.193   2.655   8.526  0.4148 -2.3952 -0.4838
 3361SOL     OW21544   3.438   4.717   6.575  0.3765  0.0426 -0.0906
 3361SOL    HW121545   3.360   0.035   6.539  2.0371  0.7325 -2.8452
 3361SOL    HW221546   3.507   0.050   6.540  0.6093 -2.2937 -3.2688
 3362SOL     OW21547   1.403   0.184   7.633 -0.2320  0.7159 -0.2972
 3362SOL    HW121548   1.472   0.155   7.693 -0.4375  1.7126  0.4153
 3362SOL    HW221549   1.436   0.269   7.605  0.5438  0.7484  0.7227
 3363SOL     OW21550   0.228   0.534   8.110 -0.1201 -0.1472 -0.7143
 3363SOL    HW121551   0.212   0.453   8.060  0.3079 -1.1265  0.7383
 3363SOL    HW221552   0.172   0.521   8.186 -0.1157  1.8087 -0.3921
 3364SOL     OW21553   3.711   0.660   1.442 -0.0424 -0.4791 -0.5213
 3364SOL    HW121554   3.675   0.658   1.531 -1.1739 -2.0754 -1.0112
 3364SOL    HW221555   3.668   0.589   1.394 -1.3170 -1.3220  1.8432
 3365SOL     OW21556   4.394   2.446   4.727 -0.2103  0.0731 -0.3383
 3365SOL    HW121557   4.420   2.354   4.718 -1.3267 -0.2802  0.0622
 3365SOL    HW221558   4.456   2.478   4.793 -0.5350 -0.1613  0.0772
 3366SOL     OW21559   4.084   0.815   1.907  0.4486  0.4627 -0.5246
 3366SOL    HW121560   4.066   0.881   1.974 -0.8466 -0.4706  0.0449
 3366SOL    HW221561   4.179   0.802   1.908  0.5050  0.7391 -2.0673
 3367SOL     OW21562   2.011   0.665   2.317  0.0729 -0.3731  0.1146
 3367SOL    HW121563   2.031   0.698   2.230  0.1334 -0.3470  0.1382
 3367SOL    HW221564   1.939   0.607   2.292  0.3604 -0.9728  0.6475
 3368SOL     OW21565   3.635   3.661  13.430  0.3283  0.2135 -0.8588
 3368SOL    HW121566   3.701   3.656  13.361 -0.2419  0.3148 -1.4165
 3368SOL    HW221567   3.586   3.741  13.413  3.6158  2.3860 -0.1160
 3369SOL     OW21568   0.170   3.763   4.087  0.2119 -0.5723  0.5700
 3369SOL    HW121569   0.223   3.700   4.136  0.8981 -0.7757 -0.4465
 3369SOL    HW221570   0.230   3.787   4.016  0.1333  0.6375  0.9121
 3370SOL     OW21571   4.037   4.417   7.693 -0.0718  0.3386 -0.0902
 3370SOL    HW121572   4.028   4.494   7.636 -0.1073 -1.3267 -2.3635
 3370SOL    HW221573   3.946   4.396   7.713  0.1909 -0.1211  0.6458
 3371SOL     OW21574   2.483   0.585   8.702 -1.5189  0.8231 -0.0629
 3371SOL    HW121575   2.489   0.644   8.777 -3.0005  1.1773 -0.2387
 3371SOL    HW221576   2.396   0.547   8.712 -0.8423 -0.6004  0.4792
 3372SOL     OW21577   1.015   0.841   3.996 -0.8930  0.5340  0.2943
 3372SOL    HW121578   1.071   0.769   3.968 -0.1014  0.3258  2.4279
 3372SOL    HW221579   0.976   0.860   3.910  1.8650 -0.6013 -1.1943
 3373SOL     OW21580   0.772   3.965   2.831  0.0915 -0.0248 -0.1256
 3373SOL    HW121581   0.823   4.013   2.766  2.4592 -1.2925  0.7900
 3373SOL    HW221582   0.731   3.894   2.782  0.1193  1.1255 -1.8086
 3374SOL     OW21583   0.598   4.240   3.612  0.1847 -0.5672  0.2741
 3374SOL    HW121584   0.671   4.221   3.553  1.1402 -1.1173  1.6272
 3374SOL    HW221585   0.523   4.216   3.558 -1.0264  0.3768  1.5365
 3375SOL     OW21586   3.295   3.051   5.610 -0.5334  0.1253 -0.4672
 3375SOL    HW121587   3.353   3.124   5.632 -0.2937  0.1889 -1.3280
 3375SOL    HW221588   3.281   3.067   5.517 -1.4864 -1.6810 -0.6306
 3376SOL     OW21589   0.198   4.007   4.330  0.2609 -0.6448 -0.4755
 3376SOL    HW121590   0.131   4.047   4.274 -1.2133 -1.7592  0.5094
 3376SOL    HW221591   0.161   3.919   4.328  2.0652 -1.4400  1.3927
 3377SOL     OW21592   3.841   3.482  17.233  0.4184  0.3732 -0.4563
 3377SOL    HW121593   3.885   3.565  17.250 -1.9808  1.0924  2.2513
 3377SOL    HW221594   3.770   3.518  17.180  1.5909  1.3748 -1.3479
 3378SOL     OW21595   0.602   2.696   9.428 -0.1317  0.3561 -0.3542
 3378SOL    HW121596   0.597   2.620   9.370 -1.2435  0.4091 -0.3191
 3378SOL    HW221597   0.655   2.662   9.500 -1.5862  0.4034  0.7249
 3379SOL     OW21598   1.488   4.185   0.060 -0.1316  0.4366 -0.1894
 3379SOL    HW121599   1.518   4.107   0.107 -0.8822  0.6579  0.6365
 3379SOL    HW221600   1.420   4.138   0.011  0.8727 -1.1153 -0.1051
 3380SOL     OW21601   0.994   4.462   2.482 -0.2962  0.3521  0.0116
 3380SOL    HW121602   0.901   4.457   2.502 -0.4798  1.9710 -0.4298
 3380SOL    HW221603   0.998   4.558   2.483 -1.8306  0.3907  1.6643
 3381SOL     OW21604   3.590   0.356   2.602 -0.4177 -0.4628 -0.1620
 3381SOL    HW121605   3.530   0.418   2.560  0.2929 -0.0848 -0.6269
 3381SOL    HW221606   3.611   0.301   2.526  0.2036 -0.3918 -0.0431
 3382SOL     OW21607   1.419   4.015   4.854  0.2187  0.6443 -0.4398
 3382SOL    HW121608   1.434   4.088   4.794  1.6997 -0.2485 -1.1230
 3382SOL    HW221609   1.352   3.966   4.806  0.6232 -0.2508 -0.0849
 3383SOL     OW21610   1.008   4.138  11.465 -0.2562 -0.1772 -0.0846
 3383SOL    HW121611   0.973   4.218  11.424 -1.4148 -0.5677  0.1585
 3383SOL    HW221612   1.018   4.086  11.385 -1.4329 -1.1989  0.4438
 3384SOL     OW21613   2.363   4.163   3.032 -0.1269 -0.1797 -0.4828
 3384SOL    HW121614   2.323   4.224   2.969  1.0120 -1.1439 -2.1310
 3384SOL    HW221615   2.305   4.088   3.023 -0.2474  0.0157 -1.3519
 3385SOL     OW21616   4.146   1.022  16.218  0.2729 -0.3621  0.3428
 3385SOL    HW121617   4.081   1.011  16.148  1.1106  0.3871 -0.5565
 3385SOL    HW221618   4.101   1.086  16.272  3.7385  0.6715  1.9880
 3386SOL     OW21619   3.351   2.394  15.898  0.0464 -0.0485 -0.1424
 3386SOL    HW121620   3.258   2.403  15.919  0.3468 -1.5489  1.7825
 3386SOL    HW221621   3.367   2.478  15.854  0.4151 -0.1082 -0.1165
 3387SOL     OW21622   2.749   0.016   3.356  0.2668  0.1360 -0.1182
 3387SOL    HW121623   2.736   4.705   3.267  1.1641 -0.9390  0.1523
 3387SOL    HW221624   2.675   0.070   3.380 -1.3225 -1.6573 -0.9680
 3388SOL     OW21625   2.985   1.226   4.580 -0.4822  0.0345  0.1352
 3388SOL    HW121626   3.035   1.165   4.634 -0.7173 -1.6965 -1.5873
 3388SOL    HW221627   2.914   1.261   4.634 -1.1727  0.1714 -0.8493
 3389SOL     OW21628   0.232   2.702  16.344  0.1044 -0.1745  0.4320
 3389SOL    HW121629   0.241   2.713  16.439 -0.1870  1.0396  0.3219
 3389SOL    HW221630   0.138   2.693  16.326 -0.0928 -1.7803  2.3081
 3390SOL     OW21631   0.462   2.849   5.800 -0.3433  0.1717  0.2853
 3390SOL    HW121632   0.456   2.862   5.705 -1.3596  0.8960  0.4494
 3390SOL    HW221633   0.454   2.939   5.833 -0.0457 -0.2317  1.4590
 3391SOL     OW21634   3.516   1.851   5.930 -0.3270  0.3763  0.3142
 3391SOL    HW121635   3.517   1.905   6.009  0.7331 -0.1195  0.6440
 3391SOL    HW221636   3.482   1.765   5.955  1.1978  0.0973  1.4622
 3392SOL     OW21637   4.049   0.716   0.042 -0.3014 -0.0447  0.4463
 3392SOL    HW121638   4.017   0.699  17.647  1.3984 -1.2986  0.0609
 3392SOL    HW221639   3.977   0.681   0.094  1.4734 -0.0305  2.9142
 3393SOL     OW21640   0.860   4.683   8.818  0.3258  0.2545 -0.2214
 3393SOL    HW121641   0.802   4.621   8.774  0.3911  0.0344  0.0034
 3393SOL    HW221642   0.869   0.037   8.762  1.9140  0.8385  0.8118
 3394SOL     OW21643   3.260   1.056   4.443  0.4399 -0.5699  0.1832
 3394SOL    HW121644   3.208   0.978   4.465 -1.1816  0.0016 -1.5758
 3394SOL    HW221645   3.343   1.015   4.466  1.1616 -0.1456 -1.6275
 3395SOL     OW21646   0.754   0.508  13.019 -0.2386 -0.3019 -0.1820
 3395SOL    HW121647   0.721   0.525  12.931  0.9779 -2.0375 -0.9692
 3395SOL    HW221648   0.675   0.511  13.074  0.3729 -0.6137  0.7241
 3396SOL     OW21649   1.996   2.795   4.830 -0.1691 -0.5226  0.0044
 3396SOL    HW121650   2.027   2.802   4.920 -0.3440 -1.3149  0.1314
 3396SOL    HW221651   2.043   2.864   4.785 -0.7416  0.1808  0.4838
 3397SOL     OW21652   0.177   2.286  14.288 -0.1312  0.4778 -0.0419
 3397SOL    HW121653   0.133   2.357  14.334 -1.7301  0.9396 -2.3102
 3397SOL    HW221654   0.255   2.279  14.344 -2.8773 -0.3519  3.6680
 3398SOL     OW21655   0.890   2.527  12.109  0.6971 -0.2492 -0.8905
 3398SOL    HW121656   0.829   2.579  12.160  0.6404 -0.8601 -0.3363
 3398SOL    HW221657   0.950   2.595  12.078  2.0211 -1.4234 -0.9355
 3399SOL     OW21658   2.328   0.419   6.166  0.2967 -0.5980 -0.3353
 3399SOL    HW121659   2.373   0.459   6.240 -2.5768 -0.5189  1.3808
 3399SOL    HW221660   2.329   0.325   6.184 -1.3723 -0.4355  0.5980
 3400SOL     OW21661   2.431   0.192  13.960  0.1083  0.2938  0.0898
 3400SOL    HW121662   2.497   0.125  13.942  1.1754  0.9378  1.5364
 3400SOL    HW221663   2.447   0.253  13.889  0.8038 -0.2378 -0.2119
 3401SOL     OW21664   3.135   2.758   3.073  0.1367 -0.5894 -0.2540
 3401SOL    HW121665   3.184   2.678   3.057 -0.7469 -1.3924  0.9881
 3401SOL    HW221666   3.067   2.730   3.134  0.5369 -1.5543 -0.2570
 3402SOL     OW21667   1.130   0.014   3.789 -0.3540  0.1347  0.0578
 3402SOL    HW121668   1.069   4.686   3.736  1.5454 -0.7280 -1.2988
 3402SOL    HW221669   1.155   4.675   3.857  0.0020  1.3394  1.0118
 3403SOL     OW21670   0.966   0.376   5.653  0.1906 -0.6567 -0.0937
 3403SOL    HW121671   0.954   0.395   5.560 -0.1645 -0.1758  0.0483
 3403SOL    HW221672   1.019   0.443   5.696 -0.0215 -1.2158  1.0448
 3404SOL     OW21673   1.196   0.191  13.406  0.4783 -0.6336  0.3818
 3404SOL    HW121674   1.273   0.191  13.349  0.8233 -0.5187  0.8533
 3404SOL    HW221675   1.181   0.285  13.411 -0.9016 -0.7738 -1.1100
 3405SOL     OW21676   4.464   1.460   5.266 -0.8055 -0.4988  0.4359
 3405SOL    HW121677   4.422   1.441   5.349 -0.3838  1.5554  1.1117
 3405SOL    HW221678   4.423   1.394   5.210  1.2064  0.5374 -2.2634
 3406SOL     OW21679   1.600   2.203   3.194  0.2297  0.3152  0.7632
 3406SOL    HW121680   1.588   2.294   3.222  1.6171  0.9119 -0.5513
 3406SOL    HW221681   1.558   2.196   3.108  2.3417 -1.0735 -0.1633
 3407SOL     OW21682   0.512   4.164   1.814  0.1765 -0.5174  0.0446
 3407SOL    HW121683   0.457   4.213   1.753  2.4581 -0.2217 -1.7769
 3407SOL    HW221684   0.600   4.200   1.806 -0.3626  1.1050  1.4130
 3408SOL     OW21685   0.067   2.778   7.748  0.5304  0.8143 -0.0998
 3408SOL    HW121686   0.044   2.709   7.686 -0.6216 -0.3757  1.6391
 3408SOL    HW221687   0.070   2.852   7.688  3.3059  1.1243  0.4057
 3409SOL     OW21688   4.634   3.740   4.057  0.3719  0.0123 -0.9288
 3409SOL    HW121689   4.584   3.799   4.112  0.6799  0.8160 -1.5070
 3409SOL    HW221690   4.723   3.747   4.093 -0.5510  1.1200  1.1091
 3410SOL     OW21691   0.515   4.116  15.268  0.2947 -0.0398  0.7240
 3410SOL    HW121692   0.457   4.078  15.333 -1.1339  1.9190  0.5737
 3410SOL    HW221693   0.593   4.134  15.320  0.8440 -1.0076  0.2451
 3411SOL     OW21694   3.612   0.899   0.491 -0.1928  0.0531  0.4100
 3411SOL    HW121695   3.646   0.919   0.404 -1.5812 -0.9429 -0.3612
 3411SOL    HW221696   3.648   0.814   0.514  1.6530  0.5698 -0.6041
 3412SOL     OW21697   2.137   3.716   2.953  0.2997 -0.3431  0.1605
 3412SOL    HW121698   2.099   3.653   2.891 -0.4477  1.6944 -1.4576
 3412SOL    HW221699   2.085   3.789   2.920  0.8355 -0.2469 -0.4917
 3413SOL     OW21700   2.136   2.049   1.933 -0.3787 -0.1582  0.5502
 3413SOL    HW121701   2.151   2.132   1.888  1.8591 -1.0450 -0.3185
 3413SOL    HW221702   2.126   1.991   1.857  1.1566 -1.2990  1.2212
 3414SOL     OW21703   1.067   1.218   5.119  0.5407 -0.9625  0.0190
 3414SOL    HW121704   1.087   1.311   5.130  2.2483 -1.2408 -0.6485
 3414SOL    HW221705   1.053   1.188   5.209 -1.9468  2.0317  0.6003
 3415SOL     OW21706   4.014   3.042   4.644 -0.7874  0.0195 -0.1317
 3415SOL    HW121707   4.025   2.956   4.605 -0.2370  0.0430 -0.0319
 3415SOL    HW221708   4.106   3.059   4.667 -0.0404 -2.3134 -1.4391
 3416SOL     OW21709   3.800   3.472   1.466 -0.4669  0.2924  0.3496
 3416SOL    HW121710   3.869   3.452   1.529  0.7352 -0.4012 -1.1832
 3416SOL    HW221711   3.760   3.549   1.508  0.8193  0.2239  1.6893
 3417SOL     OW21712   2.713   1.886  13.909 -0.3765 -0.0825 -0.0170
 3417SOL    HW121713   2.785   1.944  13.888  0.8440 -1.9240 -0.8946
 3417SOL    HW221714   2.754   1.799  13.902 -1.5247 -0.3595 -3.4273
 3418SOL     OW21715   0.406   4.377   6.099 -0.5248  0.5130  0.1499
 3418SOL    HW121716   0.342   4.379   6.171  0.8313  3.2878  1.2963
 3418SOL    HW221717   0.470   4.442   6.126  0.8096 -0.5499 -0.4696
 3419SOL     OW21718   3.637   2.642   5.501 -0.8387 -0.1426 -0.2761
 3419SOL    HW121719   3.715   2.678   5.543 -0.0883 -0.7374 -1.1586
 3419SOL    HW221720   3.659   2.653   5.408  0.2876 -2.0319 -0.2301
 3420SOL     OW21721   2.978   2.034   5.976  0.0987 -0.3402  0.1064
 3420SOL    HW121722   2.928   2.050   6.056  0.5832 -0.5964  0.4570
 3420SOL    HW221723   3.018   1.949   5.996 -0.7254 -0.1634  2.5302
 3421SOL     OW21724   1.405   4.015   8.763  0.7907 -0.3489 -0.4256
 3421SOL    HW121725   1.318   3.987   8.732  0.4464  0.4295 -0.1529
 3421SOL    HW221726   1.411   3.967   8.845 -0.0250 -1.0871 -0.7902
 3422SOL     OW21727   2.133   3.950   8.530  0.3101  0.1534  0.0915
 3422SOL    HW121728   2.052   3.989   8.496 -0.7714 -0.3150  2.1245
 3422SOL    HW221729   2.197   3.994   8.473  0.4421 -1.1579 -0.7660
 3423SOL     OW21730   4.610   0.321   3.613  0.0141 -0.6481 -0.2526
 3423SOL    HW121731   4.527   0.358   3.643  0.2307 -0.9944  0.7923
 3423SOL    HW221732   4.594   0.228   3.630 -0.4551 -0.2317  1.6068
 3424SOL     OW21733   4.390   1.940   3.172  0.6024 -0.2865  0.1048
 3424SOL    HW121734   4.307   1.962   3.129 -0.4524  0.7312  2.6639
 3424SOL    HW221735   4.427   1.897   3.095  1.6829  0.4781  0.2045
 3425SOL     OW21736   3.813   2.687   7.767 -0.3701  0.1686  0.6794
 3425SOL    HW121737   3.745   2.716   7.706  1.1287  0.3476 -0.9249
 3425SOL    HW221738   3.803   2.750   7.839  1.9468 -1.7050  2.6109
 3426SOL     OW21739   0.979   0.423   5.107  0.6875  0.0655 -0.1457
 3426SOL    HW121740   1.053   0.435   5.049  1.7256  4.4325  2.0867
 3426SOL    HW221741   0.918   0.381   5.046 -1.5480  1.7890  0.9121
 3427SOL     OW21742   3.617   1.701   0.870  0.4140 -0.2588  0.3130
 3427SOL    HW121743   3.552   1.766   0.844 -0.0521 -0.4135  1.0869
 3427SOL    HW221744   3.642   1.726   0.959 -3.0008  1.1750  0.8528
 3428SOL     OW21745   2.636   0.237   3.067  0.3124  0.1235  0.5595
 3428SOL    HW121746   2.631   0.143   3.084 -2.9274  0.1295 -0.4247
 3428SOL    HW221747   2.716   0.236   3.014  1.5286  1.0929  2.3725
 3429SOL     OW21748   1.784   3.200   7.107 -0.3549  0.0031 -0.7612
 3429SOL    HW121749   1.714   3.262   7.129 -1.0469 -0.7625 -0.8035
 3429SOL    HW221750   1.812   3.172   7.194 -1.2367  1.1953 -0.0829
 3430SOL     OW21751   3.905   3.878   7.917  0.6292 -0.0719  0.4924
 3430SOL    HW121752   3.939   3.826   7.990  2.4551  0.6328  0.1494
 3430SOL    HW221753   3.908   3.964   7.960  2.1779 -0.0079  0.2789
 3431SOL     OW21754   1.144   0.704   6.555 -0.4232  0.8290 -0.1383
 3431SOL    HW121755   1.214   0.733   6.614 -2.0840  1.5134  1.5039
 3431SOL    HW221756   1.111   0.781   6.507  0.2187  0.6946 -0.7892
 3432SOL     OW21757   4.319   1.907   4.794 -0.7269 -1.0367 -0.0744
 3432SOL    HW121758   4.389   1.972   4.791  0.5067 -2.5059 -3.3168
 3432SOL    HW221759   4.298   1.922   4.886  1.0319  2.8735 -0.3164
 3433SOL     OW21760   2.612   0.025   8.859  0.4894  0.1838 -0.0550
 3433SOL    HW121761   2.652   4.661   8.853  2.9572  1.2239  1.4341
 3433SOL    HW221762   2.689   0.076   8.885  0.2088  0.5211  0.1042
 3434SOL     OW21763   0.909   1.282  10.017 -0.1495 -0.5659  0.3913
 3434SOL    HW121764   0.825   1.236  10.008 -0.1942 -0.0394 -1.8295
 3434SOL    HW221765   0.935   1.288   9.925 -1.4044  1.7848  0.1832
 3435SOL     OW21766   1.124   3.934   1.746 -0.0965  0.0869  0.2344
 3435SOL    HW121767   1.200   3.886   1.780  0.9725  2.4020  1.1710
 3435SOL    HW221768   1.102   3.887   1.666 -1.7042 -1.1048  1.3709
 3436SOL     OW21769   2.288   4.517   8.684 -0.0272  0.4693 -0.0258
 3436SOL    HW121770   2.232   4.585   8.649  0.0101  0.2141 -0.5871
 3436SOL    HW221771   2.225   4.448   8.704  1.6056 -1.2273 -0.6705
 3437SOL     OW21772   0.709   1.563  14.297 -0.4381  0.1052 -0.0476
 3437SOL    HW121773   0.647   1.530  14.363 -0.1210  1.9973  1.2100
 3437SOL    HW221774   0.678   1.508  14.225 -0.4394 -0.7345  0.5846
 3438SOL     OW21775   0.784   4.607   9.117 -0.2734 -1.0218 -0.4823
 3438SOL    HW121776   0.695   4.573   9.120 -0.8563  0.5921  0.6598
 3438SOL    HW221777   0.754   4.697   9.126 -1.3401 -1.4483  0.2239
 3439SOL     OW21778   3.452   1.986   9.724 -0.3877  0.5357  0.2378
 3439SOL    HW121779   3.402   1.916   9.765  0.8200 -1.3611 -1.5463
 3439SOL    HW221780   3.493   1.937   9.653 -0.2612  1.4020 -0.2891
 3440SOL     OW21781   0.498   2.751   7.264  0.7509 -0.8121 -0.3529
 3440SOL    HW121782   0.444   2.691   7.316 -0.9369 -0.0802 -1.2515
 3440SOL    HW221783   0.480   2.829   7.318  1.2110 -0.9542  0.0132
 3441SOL     OW21784   2.345   1.902   4.612 -0.7629 -0.9425 -0.5103
 3441SOL    HW121785   2.359   1.810   4.591  0.1969 -0.4272 -2.0843
 3441SOL    HW221786   2.390   1.939   4.537  0.1238 -0.0274  0.4700
 3442SOL     OW21787   4.642   3.892   7.768  0.2260 -0.2357 -0.4094
 3442SOL    HW121788   4.664   3.945   7.691  1.8485 -0.9483 -0.4252
 3442SOL    HW221789   4.558   3.927   7.799  0.5522  1.2324 -1.1864
 3443SOL     OW21790   2.599   2.608   7.916 -0.2453  0.0389 -0.0181
 3443SOL    HW121791   2.694   2.597   7.907 -0.4809 -0.9029 -1.3876
 3443SOL    HW221792   2.586   2.701   7.900  0.6023 -0.1023 -1.4973
 3444SOL     OW21793   2.592   0.125   4.560  0.7024 -0.7474 -0.3087
 3444SOL    HW121794   2.684   0.100   4.571  0.9325 -0.5809 -1.8632
 3444SOL    HW221795   2.601   0.209   4.516 -1.7249 -0.9711 -1.2512
 3445SOL     OW21796   3.125   1.469  10.321 -0.0576 -0.2454  0.2475
 3445SOL    HW121797   3.119   1.507  10.233 -0.8065  1.3352  0.9832
 3445SOL    HW221798   3.218   1.447  10.326 -0.1723 -1.2867 -2.3044
 3446SOL     OW21799   0.073   2.582   1.569 -0.0826 -0.2681 -0.2127
 3446SOL    HW121800   0.148   2.524   1.577  1.4029  1.6271 -0.3927
 3446SOL    HW221801   0.081   2.602   1.475 -1.1647 -0.6023 -0.3734
 3447SOL     OW21802   2.662   2.892   8.338 -0.0579  0.1744  0.4452
 3447SOL    HW121803   2.589   2.919   8.281  1.0554  2.5132  0.1407
 3447SOL    HW221804   2.617   2.859   8.415  0.6894  2.2340  1.7795
 3448SOL     OW21805   0.921   2.021   0.409 -0.6518  0.5875 -0.4438
 3448SOL    HW121806   0.980   2.096   0.399  0.1245 -0.1731 -1.5537
 3448SOL    HW221807   0.850   2.064   0.458 -3.1765 -3.4776 -0.5889
 3449SOL     OW21808   0.720   4.570  14.282 -0.2739  0.2229 -0.3582
 3449SOL    HW121809   0.665   4.530  14.215 -0.6396 -0.8083  0.5484
 3449SOL    HW221810   0.809   4.542  14.264  0.0761  0.2205  1.3906
 3450SOL     OW21811   2.499   1.537   7.839  0.3606 -0.9787 -0.7527
 3450SOL    HW121812   2.455   1.547   7.924  3.0009  0.2451  0.4557
 3450SOL    HW221813   2.426   1.553   7.780 -0.7408 -1.1818  0.5495
 3451SOL     OW21814   2.195   3.909   0.471 -0.0639 -0.0039 -0.2111
 3451SOL    HW121815   2.196   3.976   0.403 -1.7250 -0.3089 -0.5401
 3451SOL    HW221816   2.178   3.959   0.551 -1.3602  1.3068 -1.3163
 3452SOL     OW21817   1.899   1.428   7.001 -0.6666  0.1451 -0.7378
 3452SOL    HW121818   1.922   1.415   6.909  2.6579  0.2712  0.0866
 3452SOL    HW221819   1.984   1.410   7.042 -0.2227  1.1545 -1.2342
 3453SOL     OW21820   2.809   4.156   5.114  0.3302  0.1588 -0.4954
 3453SOL    HW121821   2.748   4.086   5.088  2.6780 -1.5388 -1.4647
 3453SOL    HW221822   2.883   4.096   5.123  0.2189 -0.2632 -2.3327
 3454SOL     OW21823   4.220   2.402  12.985 -0.4193 -0.0860  0.1563
 3454SOL    HW121824   4.215   2.317  12.941  2.7937  0.0515 -0.5020
 3454SOL    HW221825   4.222   2.368  13.075  2.3617 -0.9159 -0.2119
 3455SOL     OW21826   0.278   2.746   2.076  0.8779  0.4060  0.2114
 3455SOL    HW121827   0.233   2.668   2.042 -0.3547  0.6576  1.2325
 3455SOL    HW221828   0.323   2.713   2.154 -1.3415  0.7543  1.6397
 3456SOL     OW21829   4.250   1.781   5.394  0.2968 -0.5009 -0.0707
 3456SOL    HW121830   4.203   1.698   5.389 -1.4139  0.6155 -2.2811
 3456SOL    HW221831   4.204   1.842   5.337 -0.6973 -0.3620  0.8821
 3457SOL     OW21832   3.727   3.839  17.129 -0.2914 -0.2663 -0.3242
 3457SOL    HW121833   3.726   3.932  17.152  0.2025 -0.6895  1.4158
 3457SOL    HW221834   3.633   3.824  17.120  0.0167 -0.5262 -2.9807
 3458SOL     OW21835   2.130   1.166   3.386 -0.6218 -0.1812  0.0594
 3458SOL    HW121836   2.171   1.137   3.467  1.4404  1.6453 -0.3394
 3458SOL    HW221837   2.064   1.098   3.375  0.1285 -0.9714  0.4163
 3459SOL     OW21838   0.047   0.934   6.416  0.0397  0.3339 -0.0493
 3459SOL    HW121839   0.030   0.966   6.327 -1.9210  0.2628  0.3076
 3459SOL    HW221840   0.021   1.008   6.470  1.2482  1.5122 -1.0629
 3460SOL     OW21841   3.936   3.337  13.508 -0.0104  0.3053 -0.0478
 3460SOL    HW121842   3.846   3.325  13.477  0.2776  0.0214 -0.7668
 3460SOL    HW221843   3.948   3.431  13.502  0.1545  0.4182  1.9399
 3461SOL     OW21844   1.527   2.009   4.650 -0.3225  0.3256  0.3705
 3461SOL    HW121845   1.482   1.942   4.598 -1.2697  1.4372 -0.2444
 3461SOL    HW221846   1.453   2.039   4.703 -0.5072  1.4337 -0.5192
 3462SOL     OW21847   4.077   0.817   5.592 -0.5914  0.3752  0.0501
 3462SOL    HW121848   4.047   0.898   5.632 -0.5463  0.2666  0.3057
 3462SOL    HW221849   4.171   0.827   5.599 -0.6164 -1.4157  2.9775
 3463SOL     OW21850   1.150   4.003   6.387  0.3347  0.2892  0.1442
 3463SOL    HW121851   1.162   4.089   6.346 -2.6920  0.0505 -1.2867
 3463SOL    HW221852   1.223   4.007   6.449 -1.1359 -2.5240  2.0543
 3464SOL     OW21853   1.066   2.578   5.515 -1.1576  0.3243 -0.5890
 3464SOL    HW121854   1.125   2.654   5.510 -1.4103  0.7591  3.2326
 3464SOL    HW221855   1.012   2.591   5.437  0.9943 -0.6103 -2.2249
 3465SOL     OW21856   4.166   0.867   6.015 -0.0693 -0.2857 -0.0371
 3465SOL    HW121857   4.179   0.778   6.047  1.5030 -0.5426 -1.4095
 3465SOL    HW221858   4.087   0.896   6.061 -0.3131  1.6906 -1.6727
 3466SOL     OW21859   0.123   4.053   9.419  0.0856 -0.6464 -0.0083
 3466SOL    HW121860   0.111   3.979   9.359 -0.8359 -0.8372  0.4204
 3466SOL    HW221861   0.211   4.052   9.456  0.0284  2.6984  0.1926
 3467SOL     OW21862   0.670   4.354  11.585  1.0841  0.1806  0.2566
 3467SOL    HW121863   0.651   4.277  11.638  0.2104  0.2539  0.0437
 3467SOL    HW221864   0.611   4.419  11.622  1.7977  0.7379  0.4253
 3468SOL     OW21865   2.806   4.214   0.457  0.2139  0.2539 -0.5638
 3468SOL    HW121866   2.751   4.258   0.521 -0.3289 -0.5377 -0.4792
 3468SOL    HW221867   2.811   4.122   0.482 -1.2902  0.1404 -0.6869
 3469SOL     OW21868   2.996   3.034  13.125 -0.6091  0.2448 -0.3539
 3469SOL    HW121869   2.918   2.987  13.155 -0.4725  0.7887  0.8618
 3469SOL    HW221870   3.056   3.015  13.198 -0.4466 -1.4613 -0.9421
 3470SOL     OW21871   0.614   0.392   3.064 -0.4356  0.0112  0.0519
 3470SOL    HW121872   0.696   0.352   3.091 -0.3998  2.3818  3.5441
 3470SOL    HW221873   0.560   0.314   3.051  0.5042 -0.0095 -3.5218
 3471SOL     OW21874   0.912   4.488  11.650 -0.4938 -0.4311  0.1740
 3471SOL    HW121875   0.842   4.544  11.685  0.7515  1.5186 -0.4806
 3471SOL    HW221876   0.866   4.419  11.603  0.5015 -0.6483 -0.4662
 3472SOL     OW21877   3.278   4.195   4.301  0.0927 -0.6161  0.4640
 3472SOL    HW121878   3.232   4.117   4.333 -2.5615 -0.3457 -2.6652
 3472SOL    HW221879   3.362   4.163   4.268 -0.2700 -0.6286 -0.4599
 3473SOL     OW21880   3.451   2.850   6.435 -0.0830 -0.3996 -0.0930
 3473SOL    HW121881   3.356   2.841   6.426 -0.3236  3.0729 -1.1493
 3473SOL    HW221882   3.473   2.860   6.342  1.2241 -0.9369  0.1694
 3474SOL     OW21883   4.467   3.297   8.047 -0.0874 -0.0699  0.2096
 3474SOL    HW121884   4.505   3.353   7.979 -0.4206 -1.7818 -1.4023
 3474SOL    HW221885   4.535   3.306   8.114  2.1034  0.3210 -2.0481
 3475SOL     OW21886   3.402   0.096  16.869 -0.1505 -0.0327 -0.2329
 3475SOL    HW121887   3.470   0.033  16.847  1.5255  1.9749 -0.8939
 3475SOL    HW221888   3.386   0.141  16.786 -1.5144  0.5151  0.3310
 3476SOL     OW21889   2.485   0.228   8.715  0.0477 -0.3583  0.3677
 3476SOL    HW121890   2.548   0.165   8.750  0.0809 -3.3141 -5.0924
 3476SOL    HW221891   2.435   0.251   8.793  0.1215  0.5009  0.1656
 3477SOL     OW21892   3.586   2.467   6.379 -0.1685 -0.0864  0.0761
 3477SOL    HW121893   3.515   2.485   6.440 -0.2595 -0.7163  0.1629
 3477SOL    HW221894   3.625   2.401   6.437 -1.0833  1.7768  2.7862
 3478SOL     OW21895   3.641   3.213   7.458  0.3361  0.2173 -0.0821
 3478SOL    HW121896   3.568   3.207   7.397  0.7998 -0.9625 -0.5344
 3478SOL    HW221897   3.721   3.228   7.407 -0.1416  0.8473 -0.6341
 3479SOL     OW21898   0.811   3.370   3.283 -0.5048  0.1671 -0.0734
 3479SOL    HW121899   0.789   3.390   3.192  1.2173  0.7466 -0.3733
 3479SOL    HW221900   0.810   3.274   3.286 -3.5591  0.1847 -1.0483
 3480SOL     OW21901   0.594   1.153   5.085  0.3447  0.5733 -0.2097
 3480SOL    HW121902   0.686   1.178   5.083 -0.3297  2.9103 -2.5681
 3480SOL    HW221903   0.549   1.199   5.014 -0.6972 -1.4163 -0.8258
 3481SOL     OW21904   1.281   3.300   0.811  0.4471 -0.5503  0.3332
 3481SOL    HW121905   1.298   3.282   0.904 -1.8382  1.8894  1.2000
 3481SOL    HW221906   1.234   3.219   0.791 -1.5887  0.3449  1.5781
 3482SOL     OW21907   0.385   3.074  12.708 -0.1190  0.2863  0.4172
 3482SOL    HW121908   0.300   3.067  12.665 -0.1718  1.2938  0.3640
 3482SOL    HW221909   0.404   3.167  12.696  1.1920 -0.2038 -1.4300
 3483SOL     OW21910   2.106   0.451   7.111 -0.1104  0.5029 -0.1202
 3483SOL    HW121911   2.013   0.454   7.090 -0.1040 -1.1700 -0.4085
 3483SOL    HW221912   2.108   0.404   7.194 -0.9277 -1.4288 -1.1928
 3484SOL     OW21913   1.484   4.528  17.171 -0.3316  0.1730  0.3774
 3484SOL    HW121914   1.435   4.456  17.209  0.6034 -1.1185 -0.8859
 3484SOL    HW221915   1.416   4.596  17.171 -1.4980 -1.0037  2.7749
 3485SOL     OW21916   3.912   0.544   0.716 -0.5723 -0.5958  0.3064
 3485SOL    HW121917   3.915   0.465   0.662  1.0089 -0.1950 -0.1957
 3485SOL    HW221918   3.982   0.534   0.781  0.8560  1.2011 -0.9493
 3486SOL     OW21919   4.146   1.604   3.927 -0.2393 -0.5781  0.4936
 3486SOL    HW121920   4.148   1.531   3.989 -0.9497 -1.0745 -0.0656
 3486SOL    HW221921   4.230   1.647   3.941 -1.1801  0.7999  1.8130
 3487SOL     OW21922   2.550   2.182   4.065  0.5479 -0.6650  0.2226
 3487SOL    HW121923   2.497   2.256   4.036 -0.7518 -1.5414  0.3548
 3487SOL    HW221924   2.498   2.105   4.042  0.9801 -0.3353 -1.8555
 3488SOL     OW21925   4.175   4.355   3.052 -0.7460 -0.6474  0.0198
 3488SOL    HW121926   4.161   4.262   3.070 -0.7705 -0.3047  1.7758
 3488SOL    HW221927   4.160   4.357   2.957 -3.0692 -0.4547  0.3885
 3489SOL     OW21928   3.179   1.345  14.352  0.1834 -0.2498  0.4655
 3489SOL    HW121929   3.185   1.391  14.436 -0.0843 -0.6275  0.6880
 3489SOL    HW221930   3.151   1.410  14.288  0.5504  0.6982  1.2569
 3490SOL     OW21931   1.451   2.863   3.690 -0.1040  0.9027  0.3321
 3490SOL    HW121932   1.442   2.904   3.776  0.3325 -0.3628  0.9743
 3490SOL    HW221933   1.545   2.871   3.678  0.1405 -1.4749  0.6760
 3491SOL     OW21934   2.085   1.640   4.950  0.1543 -0.1921  0.4360
 3491SOL    HW121935   2.084   1.700   4.875  0.5424 -1.4907 -0.6218
 3491SOL    HW221936   2.101   1.556   4.907  1.3011  0.3193 -0.1324
 3492SOL     OW21937   2.994   4.444  11.286  0.1015 -0.7575  0.0558
 3492SOL    HW121938   2.990   4.526  11.237 -0.1578 -0.5653  0.3952
 3492SOL    HW221939   3.066   4.456  11.348 -1.9448  1.0620  2.0999
 3493SOL     OW21940   0.289   4.543   4.337 -0.1686 -0.2936  0.0678
 3493SOL    HW121941   0.317   4.579   4.252  0.6866  0.2358  0.5706
 3493SOL    HW221942   0.222   4.480   4.310  1.4907 -1.3210 -1.6372
 3494SOL     OW21943   1.666   4.632   9.802  0.0320  0.1181  0.4520
 3494SOL    HW121944   1.720   4.583   9.739 -0.7696 -1.4102  0.9503
 3494SOL    HW221945   1.678   4.587   9.885 -1.6408  0.6881  1.0041
 3495SOL     OW21946   4.120   4.118   2.677 -0.6203 -0.4086 -0.1037
 3495SOL    HW121947   4.170   4.086   2.752 -0.2550  1.2648  0.3634
 3495SOL    HW221948   4.064   4.043   2.656 -0.8077  0.3677 -2.4613
 3496SOL     OW21949   2.255   3.141  10.636 -0.1603 -0.3730  0.4370
 3496SOL    HW121950   2.264   3.219  10.691 -2.0562  0.3715 -0.3101
 3496SOL    HW221951   2.304   3.170  10.560 -0.0483 -0.8140  0.3384
 3497SOL     OW21952   0.737   1.973   3.199  0.0721  0.1068  0.2445
 3497SOL    HW121953   0.757   2.066   3.188  1.1963 -0.2132 -0.4334
 3497SOL    HW221954   0.737   1.960   3.294 -2.0583 -1.2685  0.0496
 3498SOL     OW21955   2.584   3.675   5.592 -0.9421  0.0279 -0.7601
 3498SOL    HW121956   2.583   3.580   5.593  2.0002 -0.0023 -0.6967
 3498SOL    HW221957   2.614   3.693   5.503 -0.9994  0.5323 -0.6776
 3499SOL     OW21958   1.302   3.896   3.596  0.2186 -0.8026 -0.3942
 3499SOL    HW121959   1.260   3.940   3.523  1.6401 -2.5906 -2.3244
 3499SOL    HW221960   1.361   3.965   3.624  0.7450 -1.9037  1.2138
 3500SOL     OW21961   1.705   0.956   8.056 -0.2553 -0.7670  0.2426
 3500SOL    HW121962   1.698   1.043   8.095  1.7081 -0.7763  0.5796
 3500SOL    HW221963   1.799   0.944   8.043 -0.2554 -0.4413 -0.0606
 3501SOL     OW21964   0.160   0.022   8.393  0.0266  0.1917 -0.3779
 3501SOL    HW121965   0.116   4.663   8.416 -1.6917  1.3735  0.5801
 3501SOL    HW221966   0.228   4.712   8.335  0.7481 -1.5807  1.4563
 3502SOL     OW21967   3.208   4.610   3.126  0.4894 -0.1279  1.1827
 3502SOL    HW121968   3.184   4.520   3.104  1.6261  0.4517 -2.4623
 3502SOL    HW221969   3.131   4.663   3.107  1.4637  0.9177  0.1480
 3503SOL     OW21970   3.339   1.258   0.566  0.1414 -0.2276 -0.0728
 3503SOL    HW121971   3.394   1.334   0.547 -1.0507  0.7426  0.3237
 3503SOL    HW221972   3.328   1.244   0.660  2.2863 -1.1792  0.0434
 3504SOL     OW21973   1.537   3.391  12.414  0.4881 -0.3861  0.5671
 3504SOL    HW121974   1.561   3.333  12.342 -1.2733 -1.1202  0.5636
 3504SOL    HW221975   1.555   3.334  12.489  1.8703 -3.0262 -1.7644
 3505SOL     OW21976   1.388   2.796  15.406  0.0382 -0.2711 -0.3872
 3505SOL    HW121977   1.306   2.751  15.426  0.6909 -1.0808  0.4522
 3505SOL    HW221978   1.407   2.770  15.315 -1.4928  0.7470 -1.0001
 3506SOL     OW21979   3.151   2.234   6.426 -0.6222  0.2519  0.0315
 3506SOL    HW121980   3.229   2.265   6.381 -1.2396 -0.9026 -1.8618
 3506SOL    HW221981   3.148   2.139   6.411 -2.3338  0.3533 -0.2466
 3507SOL     OW21982   0.625   0.530   8.077 -0.5626 -0.3650  0.3246
 3507SOL    HW121983   0.616   0.538   8.172  1.2610  3.6152  0.1651
 3507SOL    HW221984   0.544   0.574   8.052  0.0682  1.0042  0.6939
 3508SOL     OW21985   4.516   1.871   8.343 -0.6572 -0.0168  0.0133
 3508SOL    HW121986   4.439   1.814   8.345 -0.2038 -0.6576 -1.1071
 3508SOL    HW221987   4.562   1.814   8.405  0.3431  1.1455  0.3352
 3509SOL     OW21988   0.128   2.959   7.557  0.3698 -0.2710 -0.5005
 3509SOL    HW121989   0.142   2.927   7.468  0.2684  0.8754 -0.9234
 3509SOL    HW221990   0.094   3.047   7.541 -1.2628 -0.3804  2.3288
 3510SOL     OW21991   1.265   1.067   0.626  0.5330  0.1681 -0.0254
 3510SOL    HW121992   1.217   1.000   0.578 -0.3545  1.2090 -0.5849
 3510SOL    HW221993   1.191   1.109   0.672  0.0329 -0.5632 -0.1729
 3511SOL     OW21994   2.084   3.818   7.346 -0.1542  0.5018  0.4854
 3511SOL    HW121995   2.097   3.737   7.394 -0.2136 -0.1226 -0.5373
 3511SOL    HW221996   2.174   3.833   7.317 -0.6267  2.1262 -0.1835
 3512SOL     OW21997   3.938   3.562   3.667  0.0315  0.5392 -0.0754
 3512SOL    HW121998   3.978   3.546   3.752 -0.0623 -0.8201 -0.2967
 3512SOL    HW221999   4.016   3.568   3.611 -0.0538  0.7031 -0.1786
 3513SOL     OW22000   2.552   0.437   7.282 -0.1713 -0.1771  0.0217
 3513SOL    HW122001   2.538   0.347   7.313 -1.7954  0.7791  2.0773
 3513SOL    HW222002   2.571   0.420   7.190 -2.3140  0.4065 -0.5293
 3514SOL     OW22003   0.321   4.297   2.501  0.5144  0.1761 -0.4099
 3514SOL    HW122004   0.252   4.259   2.446 -1.2919  2.5080  0.2755
 3514SOL    HW222005   0.360   4.359   2.439 -0.6508  2.2176  0.9049
 3515SOL     OW22006   4.158   3.180   1.595 -0.0795  0.3588 -0.3369
 3515SOL    HW122007   4.095   3.231   1.545 -1.2608 -0.7399  0.0154
 3515SOL    HW222008   4.158   3.238   1.671  0.7154 -0.8432  0.6018
 3516SOL     OW22009   0.209   2.587   5.448 -0.0447 -0.7435 -0.0222
 3516SOL    HW122010   0.156   2.652   5.494 -0.3430 -0.6679 -0.4783
 3516SOL    HW222011   0.157   2.580   5.368 -1.7313  2.6735  0.7817
 3517SOL     OW22012   3.308   1.809   6.156  0.2665 -0.1115 -0.1442
 3517SOL    HW122013   3.376   1.868   6.189  0.1541 -1.4554  2.4659
 3517SOL    HW222014   3.342   1.720   6.165 -0.6546 -0.3542  0.8991
 3518SOL     OW22015   4.473   3.921   8.228  0.6750 -0.1518  0.3146
 3518SOL    HW122016   4.502   3.832   8.208 -1.0619 -0.3356 -1.3939
 3518SOL    HW222017   4.519   3.988   8.177  2.8441 -1.4025  0.6573
 3519SOL     OW22018   3.053   3.817   7.978 -0.5953  0.1906 -0.5484
 3519SOL    HW122019   3.129   3.828   8.036 -0.5857  0.6375 -0.6479
 3519SOL    HW222020   2.989   3.839   8.046 -0.9781  0.8034 -1.1161
 3520SOL     OW22021   0.136   1.055   1.706  0.1887  0.3142  0.0722
 3520SOL    HW122022   0.109   1.036   1.796 -2.9755  0.3214 -0.8925
 3520SOL    HW222023   0.202   1.124   1.712 -0.1519  0.7449 -1.1314
 3521SOL     OW22024   3.132   2.224  12.961  1.0676  0.2921 -0.0949
 3521SOL    HW122025   3.205   2.162  12.966 -0.5729 -1.7287 -0.9318
 3521SOL    HW222026   3.173   2.301  12.923  0.3931  0.2787 -0.8498
 3522SOL     OW22027   2.611   3.181   3.763  0.0616 -0.3001  0.4168
 3522SOL    HW122028   2.521   3.153   3.746  0.6732 -0.9024 -1.8845
 3522SOL    HW222029   2.593   3.268   3.798 -0.3490  0.2075 -1.0458
 3523SOL     OW22030   1.493   4.437   4.864 -0.0156 -0.2169  0.2188
 3523SOL    HW122031   1.549   4.503   4.906 -1.9316 -0.6616  3.4616
 3523SOL    HW222032   1.428   4.485   4.814  0.8269  0.0842 -0.5892
 3524SOL     OW22033   2.150   1.167   4.726 -0.4322 -0.4812  0.3318
 3524SOL    HW122034   2.100   1.114   4.664 -0.0744  0.1481 -0.4947
 3524SOL    HW222035   2.161   1.108   4.801 -0.7311 -2.5462 -1.2301
 3525SOL     OW22036   2.900   0.768  16.854  0.3115  0.0775 -0.2925
 3525SOL    HW122037   2.833   0.701  16.862 -0.2402  0.4041 -2.1133
 3525SOL    HW222038   2.898   0.814  16.938 -1.3127  0.2548 -0.4313
 3526SOL     OW22039   2.172   0.456   8.007  0.2028  0.3598  1.1454
 3526SOL    HW122040   2.243   0.406   8.047  0.4742  0.9147  1.3566
 3526SOL    HW222041   2.201   0.540   8.045  4.4530 -0.0651 -1.1567
 3527SOL     OW22042   0.528   0.959   8.177  0.7804  0.0115 -0.0884
 3527SOL    HW122043   0.543   0.866   8.161  0.4894  0.5116 -3.2482
 3527SOL    HW222044   0.450   0.959   8.233  0.4990  1.1827 -0.4813
 3528SOL     OW22045   2.097   2.593  16.004 -0.5052  0.1285  0.4301
 3528SOL    HW122046   2.066   2.680  15.978 -2.0221 -0.5411  0.0357
 3528SOL    HW222047   2.094   2.594  16.100 -1.4448 -1.7885  0.4255
 3529SOL     OW22048   3.543   4.511  14.739  0.4130 -0.2912 -0.3652
 3529SOL    HW122049   3.530   4.422  14.707 -4.3130  0.3434 -0.1928
 3529SOL    HW222050   3.455   4.547  14.748 -0.2694 -2.0887  0.1792
 3530SOL     OW22051   4.693   0.098   2.747  0.1390 -0.0404  0.3096
 3530SOL    HW122052   0.019   0.090   2.666  0.7428 -0.8221  0.7546
 3530SOL    HW222053   4.697   0.188   2.780  0.8030  0.1682 -0.3613
 3531SOL     OW22054   0.282   1.169   3.497  0.2373 -0.2933 -0.3082
 3531SOL    HW122055   0.358   1.187   3.441  0.9935  0.2068  0.8664
 3531SOL    HW222056   0.218   1.212   3.441 -0.9500 -0.6323  0.7920
 3532SOL     OW22057   1.139   0.794   2.869 -0.3021 -0.2906 -0.7171
 3532SOL    HW122058   1.050   0.789   2.904 -0.2278  2.0084 -0.1536
 3532SOL    HW222059   1.129   0.781   2.775 -0.2717  0.0882 -0.7726
 3533SOL     OW22060   2.669   1.853   0.967 -0.1931  0.3042  0.3430
 3533SOL    HW122061   2.616   1.784   1.007  0.1981 -0.5186 -0.5771
 3533SOL    HW222062   2.602   1.920   0.952 -1.5972 -1.0409  0.5709
 3534SOL     OW22063   0.759   4.460   4.602  0.8014  0.1368  0.4194
 3534SOL    HW122064   0.667   4.442   4.621  0.7047  2.0264  1.7515
 3534SOL    HW222065   0.760   4.470   4.507 -0.5012  1.8972  0.5759
 3535SOL     OW22066   4.647   1.572  17.055 -1.0830 -0.1387 -0.2112
 3535SOL    HW122067   4.627   1.524  16.975 -3.5025  2.2085 -0.9980
 3535SOL    HW222068   4.583   1.638  17.028 -0.7345  0.3319  0.1118
 3536SOL     OW22069   3.378   1.580   8.852 -1.1354 -0.0810 -0.2464
 3536SOL    HW122070   3.330   1.588   8.770 -2.2526 -0.0310  0.4035
 3536SOL    HW222071   3.425   1.497   8.839 -0.6834  0.1520 -0.0973
 3537SOL     OW22072   0.190   4.522  11.806 -0.0421 -0.5527  0.0468
 3537SOL    HW122073   0.171   4.608  11.768 -0.6963 -0.8051 -0.2036
 3537SOL    HW222074   0.141   4.455  11.758 -0.8594  0.2996 -0.3042
 3538SOL     OW22075   0.745   2.241   7.953 -0.1300 -0.3172 -0.2438
 3538SOL    HW122076   0.675   2.186   7.918  0.1600 -0.9952  0.2399
 3538SOL    HW222077   0.735   2.321   7.902 -1.7236 -2.1689 -2.8231
 3539SOL     OW22078   4.372   4.346   5.970  0.1778 -0.2225  0.0922
 3539SOL    HW122079   4.300   4.300   5.927 -0.5765  1.5702 -0.5694
 3539SOL    HW222080   4.327   4.396   6.038 -2.7670 -0.7007 -1.5238
 3540SOL     OW22081   3.584   0.425   5.789 -0.4366 -0.2227  0.4049
 3540SOL    HW122082   3.582   0.470   5.873 -1.4753  2.8094 -1.2626
 3540SOL    HW222083   3.649   0.471   5.737 -1.6226 -0.1110 -0.9802
 3541SOL     OW22084   0.095   3.254   1.598 -0.3875  0.3184 -0.0085
 3541SOL    HW122085   0.067   3.195   1.669 -1.7446  1.1054  0.1037
 3541SOL    HW222086   0.019   3.279   1.546  0.8220 -1.6667 -2.7074
 3542SOL     OW22087   1.996   1.378   2.210 -0.3675  0.1810 -0.2361
 3542SOL    HW122088   1.958   1.456   2.169 -0.1534 -0.7289 -2.1879
 3542SOL    HW222089   1.922   1.317   2.215 -1.0526  1.1387  1.5338
 3543SOL     OW22090   4.428   2.330   6.324 -0.0336  0.0137 -0.0762
 3543SOL    HW122091   4.408   2.243   6.358  0.3305  0.4221  1.1988
 3543SOL    HW222092   4.362   2.329   6.254  0.4027  0.0142 -0.4877
 3544SOL     OW22093   0.862   1.844  15.287  0.2467 -0.1358  0.1591
 3544SOL    HW122094   0.949   1.805  15.287  0.8218  1.1266  0.1526
 3544SOL    HW222095   0.887   1.910  15.223  1.0435  0.1937  0.8037
 3545SOL     OW22096   2.809   4.535   0.764  0.1824  0.2943 -0.4421
 3545SOL    HW122097   2.777   4.451   0.729  0.3798  1.3397 -3.1511
 3545SOL    HW222098   2.875   4.560   0.699 -0.7619  1.4477 -0.9633
 3546SOL     OW22099   1.339   4.704  11.560  0.2581 -0.1623 -0.1769
 3546SOL    HW122100   1.403   4.701  11.631 -2.0589  1.1975  1.9718
 3546SOL    HW222101   1.383   0.019  11.484  0.2765 -0.7672 -0.4659
 3547SOL     OW22102   3.652   4.487  16.103  0.1345 -0.9279  0.6150
 3547SOL    HW122103   3.609   4.423  16.160 -3.1434 -0.1144 -0.9959
 3547SOL    HW222104   3.733   4.439  16.085  0.7514  0.9524 -1.6167
 3548SOL     OW22105   4.234   1.335   8.987 -0.0515 -0.1493 -0.2028
 3548SOL    HW122106   4.264   1.410   9.040 -0.1680 -0.1254 -0.1719
 3548SOL    HW222107   4.152   1.318   9.033  0.6849  0.5213  1.3621
 3549SOL     OW22108   3.620   2.358   8.012  0.2298  0.2399  0.0838
 3549SOL    HW122109   3.654   2.325   7.929  1.8003  0.1309  0.7755
 3549SOL    HW222110   3.625   2.278   8.065  0.5541 -0.3040 -0.7678
 3550SOL     OW22111   3.153   4.190   0.277 -0.3745 -0.5294  0.5790
 3550SOL    HW122112   3.071   4.143   0.261  0.1916 -1.3025 -0.0248
 3550SOL    HW222113   3.149   4.249   0.201  1.1555 -1.0394  0.1157
 3551SOL     OW22114   4.154   3.546  16.345  0.0019 -0.1891 -0.4483
 3551SOL    HW122115   4.240   3.580  16.320  0.5815 -0.2685  1.3953
 3551SOL    HW222116   4.156   3.455  16.315  1.3851 -0.9516  1.9787
 3552SOL     OW22117   3.854   2.306  12.667  0.6293 -0.2925  0.6546
 3552SOL    HW122118   3.842   2.303  12.762 -1.7668  0.0427  0.3516
 3552SOL    HW222119   3.915   2.233  12.654 -1.1497 -1.6569  0.0064
 3553SOL     OW22120   3.445   0.335  11.685 -0.2060  0.0446 -0.2969
 3553SOL    HW122121   3.405   0.274  11.623 -0.6860 -0.3772  0.4252
 3553SOL    HW222122   3.369   0.392  11.690 -0.1508  0.1664 -0.8692
 3554SOL     OW22123   1.674   4.114  16.274  0.3284 -0.4948 -0.1741
 3554SOL    HW122124   1.696   4.034  16.321 -3.1988 -2.3429 -1.6691
 3554SOL    HW222125   1.639   4.174  16.341 -0.6167  0.2368 -1.3292
 3555SOL     OW22126   4.342   1.889  12.081  0.4322 -0.2510 -0.1214
 3555SOL    HW122127   4.300   1.885  11.995  0.0792  1.2058 -0.0240
 3555SOL    HW222128   4.263   1.893  12.136 -0.0472 -2.5044 -0.6578
 3556SOL     OW22129   4.538   3.525   9.850 -0.4333 -0.0201 -0.0219
 3556SOL    HW122130   4.620   3.481   9.873  0.4281  2.6420  2.0195
 3556SOL    HW222131   4.530   3.511   9.755 -1.3494 -0.1692  0.0816
 3557SOL     OW22132   0.203   3.728   1.392  0.7715 -0.1878  0.2966
 3557SOL    HW122133   0.271   3.727   1.324 -1.2060 -0.9556 -1.6597
 3557SOL    HW222134   0.216   3.639   1.424  2.0674  1.1751  3.5327
 3558SOL     OW22135   3.272   3.276   8.504 -0.4526 -0.5712 -0.2065
 3558SOL    HW122136   3.303   3.334   8.434 -1.7829  0.1527 -0.1984
 3558SOL    HW222137   3.192   3.319   8.534 -0.0426  1.3813 -1.8759
 3559SOL     OW22138   4.269   2.908   7.218  0.6415  0.4490  0.1094
 3559SOL    HW122139   4.350   2.881   7.176  0.4628  1.3441 -0.8061
 3559SOL    HW222140   4.284   3.000   7.240  0.4798  1.2312 -3.0206
 3560SOL     OW22141   2.706   0.592   5.595  0.2509  0.3263  0.5559
 3560SOL    HW122142   2.655   0.526   5.642  0.6618 -0.7730 -0.5631
 3560SOL    HW222143   2.707   0.658   5.664  1.1089 -0.9278  1.7431
 3561SOL     OW22144   0.003   3.946   2.687  0.8329  0.1942  0.7484
 3561SOL    HW122145   4.667   4.015   2.658  0.5662 -0.7058 -0.8553
 3561SOL    HW222146   4.702   3.933   2.779 -3.5658 -1.3318 -0.6123
 3562SOL     OW22147   4.692   2.497  12.191 -0.3518 -0.1366 -0.2136
 3562SOL    HW122148   4.623   2.504  12.125  0.9595 -2.2012 -1.8012
 3562SOL    HW222149   4.721   2.406  12.190  4.5175  1.4588 -4.5634
 3563SOL     OW22150   2.201   4.259   6.434 -0.5098 -0.2031 -0.1455
 3563SOL    HW122151   2.142   4.192   6.469 -2.5780  1.8861  0.3502
 3563SOL    HW222152   2.154   4.272   6.351 -0.2372 -1.6296 -0.5238
 3564SOL     OW22153   3.238   0.902   7.292  0.3932  0.4522 -0.0263
 3564SOL    HW122154   3.203   0.843   7.224  0.9730  0.2361 -0.1348
 3564SOL    HW222155   3.161   0.902   7.348  1.4523 -1.0033  1.4097
 3565SOL     OW22156   1.817   3.127  17.477 -0.4864  0.2394  0.3666
 3565SOL    HW122157   1.724   3.145  17.463  0.1956  3.2561 -0.4272
 3565SOL    HW222158   1.857   3.213  17.462 -1.0233  0.2402 -1.0887
 3566SOL     OW22159   0.474   2.367   5.987 -0.0540  0.0575  0.2506
 3566SOL    HW122160   0.434   2.330   5.908  3.8651 -1.6157 -0.9584
 3566SOL    HW222161   0.515   2.446   5.952  0.1893 -0.7415 -1.2937
 3567SOL     OW22162   0.590   3.023   4.795  0.1905 -0.5471 -0.4174
 3567SOL    HW122163   0.683   3.038   4.778 -0.0128  0.1218 -0.9200
 3567SOL    HW222164   0.545   3.079   4.732 -1.9625  0.0061  1.6120
 3568SOL     OW22165   4.381   1.659   0.321  0.2942  0.4957 -0.3568
 3568SOL    HW122166   4.345   1.570   0.323  2.7476 -0.5209 -1.0032
 3568SOL    HW222167   4.332   1.697   0.393  1.1811  1.8686 -0.4776
 3569SOL     OW22168   0.618   4.640   2.915  0.2807  0.3759  0.3335
 3569SOL    HW122169   0.698   4.600   2.881 -1.5641 -3.0421  0.0784
 3569SOL    HW222170   0.549   4.592   2.869 -1.1741  0.2443  2.6833
 3570SOL     OW22171   3.494   1.515   8.162 -0.1488 -0.4498  0.1164
 3570SOL    HW122172   3.549   1.576   8.112  0.0444  1.1085  2.2123
 3570SOL    HW222173   3.407   1.541   8.130  0.6888  2.3330  0.0860
 3571SOL     OW22174   1.305   4.702   8.302 -1.0486  0.3539  0.7146
 3571SOL    HW122175   1.259   0.056   8.334  0.4439  1.3680  0.4691
 3571SOL    HW222176   1.394   0.009   8.323 -0.7506 -0.6648  0.8693
 3572SOL     OW22177   4.553   0.751   1.673 -0.0619  0.3021  0.3249
 3572SOL    HW122178   4.607   0.786   1.744 -0.6906  0.4761  0.7178
 3572SOL    HW222179   4.532   0.829   1.622 -1.7322  0.5167  1.3561
 3573SOL     OW22180   2.916   1.165  12.513  0.9678  0.5087  0.4070
 3573SOL    HW122181   2.853   1.210  12.569 -0.5448  0.2032 -1.0759
 3573SOL    HW222182   2.890   1.200  12.428 -3.0419 -1.6831  0.7544
 3574SOL     OW22183   2.870   1.753   3.735  0.0428 -0.3792 -0.2223
 3574SOL    HW122184   2.910   1.692   3.798 -1.5001 -2.7166 -1.4891
 3574SOL    HW222185   2.883   1.841   3.769  1.0764 -0.9228  0.8357
 3575SOL     OW22186   3.830   3.777   1.908 -0.0369 -0.0915 -0.2484
 3575SOL    HW122187   3.802   3.827   1.831 -0.3481 -0.3884 -0.3273
 3575SOL    HW222188   3.789   3.813   1.986 -1.1469 -0.3806 -0.7046
 3576SOL     OW22189   0.945   2.632   9.458  0.5868 -0.4714  0.4200
 3576SOL    HW122190   1.012   2.673   9.513  0.1161 -0.0376  0.6715
 3576SOL    HW222191   0.883   2.610   9.528  2.1697 -2.2863  1.2292
 3577SOL     OW22192   3.913   4.196  10.231 -0.1684 -0.2478 -0.4075
 3577SOL    HW122193   3.951   4.116  10.194 -1.2591  0.4526 -3.0715
 3577SOL    HW222194   3.832   4.204  10.180 -1.7318 -0.7197  2.0022
 3578SOL     OW22195   2.718   3.096   4.639  0.4898 -0.1423  0.6164
 3578SOL    HW122196   2.633   3.124   4.604  1.2401  2.2718  0.7338
 3578SOL    HW222197   2.706   3.116   4.732  0.6900  1.6005  0.2684
 3579SOL     OW22198   3.765   4.121   2.337  0.0771  0.4620  0.0902
 3579SOL    HW122199   3.823   4.174   2.284 -0.0310  1.2198  0.7217
 3579SOL    HW222200   3.792   4.153   2.423 -1.5698 -1.6746  1.4125
 3580SOL     OW22201   0.311   2.588   9.259  0.3816  0.3182 -0.0558
 3580SOL    HW122202   0.258   2.594   9.180 -0.6852  0.0967  0.6414
 3580SOL    HW222203   0.387   2.639   9.230  2.0386 -1.9568  0.3271
 3581SOL     OW22204   3.944   1.720  17.431 -0.0132 -0.3918 -0.4300
 3581SOL    HW122205   4.037   1.730  17.413 -0.1485  1.8795  0.1861
 3581SOL    HW222206   3.932   1.773  17.510  3.3904  0.5028 -0.5005
 3582SOL     OW22207   0.017   4.454  11.432 -0.1899  0.5080  0.0863
 3582SOL    HW122208   4.677   4.387  11.458  0.6194 -1.4166 -2.9385
 3582SOL    HW222209   4.689   4.535  11.434  0.8674  1.2369 -1.9079
 3583SOL     OW22210   0.830   2.094  14.575 -0.2650  0.3775  0.1456
 3583SOL    HW122211   0.859   2.130  14.491 -2.1304  2.5774  0.4504
 3583SOL    HW222212   0.853   2.001  14.576  1.3605  0.8108  2.3542
 3584SOL     OW22213   2.443   4.343  16.407 -0.2442  0.6263  0.0495
 3584SOL    HW122214   2.507   4.287  16.364 -0.9490  0.8960 -1.3261
 3584SOL    HW222215   2.357   4.311  16.381  0.3366 -2.3417  1.8314
 3585SOL     OW22216   4.256   3.631   5.402  0.1696  0.4266 -0.1281
 3585SOL    HW122217   4.279   3.605   5.491  2.3078  0.8605 -0.5748
 3585SOL    HW222218   4.319   3.585   5.347 -1.0569 -1.3977 -0.0220
 3586SOL     OW22219   1.984   1.144   9.042 -0.1739 -0.0889  0.2150
 3586SOL    HW122220   2.067   1.103   9.015 -0.8521 -1.0995 -0.3521
 3586SOL    HW222221   1.942   1.069   9.084  1.4973  0.1533  2.2838
 3587SOL     OW22222   4.615   2.704   9.169 -0.4116 -0.5299  0.0527
 3587SOL    HW122223   4.628   2.792   9.202 -1.6238 -1.2499  2.4572
 3587SOL    HW222224   4.532   2.728   9.128 -0.6758  0.0429  0.9388
 3588SOL     OW22225   0.770   1.145  14.032  0.0820  0.2362  0.2044
 3588SOL    HW122226   0.847   1.088  14.033  0.8852  1.3406  0.8500
 3588SOL    HW222227   0.794   1.221  13.979  0.6053 -0.1696 -0.1364
 3589SOL     OW22228   2.900   0.065   7.684  0.8174  0.4756 -0.3364
 3589SOL    HW122229   2.838   4.715   7.679  1.8330 -0.5069  1.2725
 3589SOL    HW222230   2.970   0.029   7.738 -2.0745 -2.2990  1.4984
 3590SOL     OW22231   2.174   2.971  17.024 -0.1169 -0.4108 -0.4294
 3590SOL    HW122232   2.257   2.962  17.070 -1.1549 -0.5077  1.4386
 3590SOL    HW222233   2.208   2.970  16.935 -0.2573 -1.5145 -0.4773
 3591SOL     OW22234   4.023   0.925   4.762  0.5625 -0.0013 -0.1432
 3591SOL    HW122235   4.027   1.017   4.789  0.1306 -0.5794  1.9099
 3591SOL    HW222236   4.052   0.877   4.840  1.5014  1.2295  0.2792
 3592SOL     OW22237   0.329   1.450   5.690  0.1262 -0.9509 -0.1270
 3592SOL    HW122238   0.310   1.464   5.597 -1.2347  0.2141  0.3346
 3592SOL    HW222239   0.412   1.403   5.677 -0.1328 -1.1721 -1.0040
 3593SOL     OW22240   3.106   2.099  10.220 -0.0572  0.4795 -0.0147
 3593SOL    HW122241   3.119   2.122  10.128 -0.2858 -0.5822 -0.3174
 3593SOL    HW222242   3.195   2.119  10.251  1.3715 -2.3874 -2.2026
 3594SOL     OW22243   3.868   4.439   0.496 -0.9342 -0.4419  0.1461
 3594SOL    HW122244   3.915   4.395   0.566 -0.7581 -1.4010 -0.5820
 3594SOL    HW222245   3.900   4.393   0.419 -0.5439 -1.5857  0.9867
 3595SOL     OW22246   0.567   1.044   9.287  0.4813 -0.2771  0.1778
 3595SOL    HW122247   0.641   1.103   9.298  0.2340 -0.2691  1.8354
 3595SOL    HW222248   0.586   0.997   9.206  0.6506  0.6983 -0.3406
 3596SOL     OW22249   4.370   4.112   4.976  0.1690 -0.1519  0.1937
 3596SOL    HW122250   4.338   4.173   5.042  0.2375 -1.5021  1.4699
 3596SOL    HW222251   4.286   4.088   4.938  0.0967 -1.9222  1.4783
 3597SOL     OW22252   0.678   1.568   8.545  0.1632  0.3245 -0.0409
 3597SOL    HW122253   0.632   1.618   8.477  0.3328  1.0788  0.4026
 3597SOL    HW222254   0.677   1.625   8.622 -1.2807  0.9257 -0.5050
 3598SOL     OW22255   1.616   4.336   0.595 -0.8013 -0.0183 -0.6144
 3598SOL    HW122256   1.604   4.251   0.636  2.7796 -1.4169 -2.4395
 3598SOL    HW222257   1.571   4.321   0.512 -0.4743 -1.8679 -0.4400
 3599SOL     OW22258   0.391   1.807   8.500  0.3026 -0.0679 -0.2042
 3599SOL    HW122259   0.371   1.848   8.416 -1.7754 -0.0736  0.3002
 3599SOL    HW222260   0.473   1.851   8.525 -0.6999  1.2846  0.7052
 3600SOL     OW22261   1.669   4.180   3.988 -0.5178 -0.0213  0.4916
 3600SOL    HW122262   1.612   4.115   4.029  2.7158 -1.8438  2.1303
 3600SOL    HW222263   1.651   4.261   4.036  1.9339 -1.7356  4.3047
 3601SOL     OW22264   0.086   1.919   8.702 -0.0824 -0.9059  0.6313
 3601SOL    HW122265   0.078   1.970   8.622 -1.9290  1.1483  2.1602
 3601SOL    HW222266   4.720   1.896   8.728 -0.8511 -1.6995 -2.7091
 3602SOL     OW22267   2.026   4.541   7.620  0.3723  0.1984  0.8489
 3602SOL    HW122268   1.964   4.584   7.561  0.0465 -1.2815  0.1008
 3602SOL    HW222269   2.101   4.515   7.567  0.7126 -0.3834  1.6123
 3603SOL     OW22270   4.368   2.010  17.305  0.0054  0.1995  0.2639
 3603SOL    HW122271   4.297   2.073  17.296  1.4965  2.1759  2.3536
 3603SOL    HW222272   4.437   2.051  17.253  0.5116  0.5282  1.1994
 3604SOL     OW22273   2.870   0.171   5.344 -0.3869 -0.3351 -0.0019
 3604SOL    HW122274   2.862   0.262   5.316 -1.0040 -1.1692 -2.5474
 3604SOL    HW222275   2.780   0.167   5.378  0.8922 -4.0883  2.9353
 3605SOL     OW22276   4.575   2.170   1.876  0.4989  0.2310 -0.3493
 3605SOL    HW122277   4.532   2.200   1.796 -1.7019 -0.1827  0.6783
 3605SOL    HW222278   4.532   2.227   1.940 -1.1383 -1.2578 -0.1320
 3606SOL     OW22279   3.008   1.868   3.139  0.0817  0.5610 -0.3415
 3606SOL    HW122280   3.101   1.876   3.117  0.5901  1.3958  2.0683
 3606SOL    HW222281   2.972   1.803   3.079  0.6951 -1.2778  1.2795
 3607SOL     OW22282   3.372   3.624  15.281 -0.0970 -0.2860 -0.4191
 3607SOL    HW122283   3.312   3.564  15.327  1.3479 -1.2987  0.1572
 3607SOL    HW222284   3.442   3.561  15.266 -1.0331 -1.0061 -1.7415
 3608SOL     OW22285   0.538   4.482   2.004 -0.2745  0.7817 -0.1370
 3608SOL    HW122286   0.465   4.491   1.942 -2.1783  0.3162  2.0334
 3608SOL    HW222287   0.591   4.419   1.955 -1.0653  0.8007 -1.0089
 3609SOL     OW22288   0.403   3.099  15.130  0.3500  0.1358  0.4578
 3609SOL    HW122289   0.310   3.119  15.123 -0.0551 -1.3776  1.4344
 3609SOL    HW222290   0.447   3.184  15.139  0.7374 -0.0147 -0.0444
 3610SOL     OW22291   3.678   4.492   6.693 -0.4809 -0.2153  0.0678
 3610SOL    HW122292   3.751   4.466   6.750  1.6879  0.4850 -2.4033
 3610SOL    HW222293   3.709   4.572   6.649  0.4917 -1.0695 -0.7961
 3611SOL     OW22294   1.214   1.080   7.396  0.3299  0.0679 -0.0225
 3611SOL    HW122295   1.197   1.073   7.302 -1.9449  1.6904  0.2756
 3611SOL    HW222296   1.310   1.078   7.388  0.3371  1.7801 -0.5359
 3612SOL     OW22297   2.837   3.526   0.805  0.5684 -0.4676  0.1087
 3612SOL    HW122298   2.925   3.497   0.781  1.1892  0.1796  1.5651
 3612SOL    HW222299   2.830   3.495   0.895  0.4933 -2.1938 -0.4946
 3613SOL     OW22300   1.676   3.373   0.129  0.1603  0.3876  0.3450
 3613SOL    HW122301   1.741   3.377   0.199 -0.3860  0.5921  0.8459
 3613SOL    HW222302   1.646   3.282   0.128  2.2200 -0.2812 -0.2056
 3614SOL     OW22303   3.926   1.628  14.235 -0.9679 -0.2780 -0.5148
 3614SOL    HW122304   3.892   1.540  14.217 -0.9504 -0.3537 -0.1907
 3614SOL    HW222305   3.844   1.677  14.222  0.7978  2.8341  0.1702
 3615SOL     OW22306   2.877   3.044   8.409 -0.0922  0.0285  0.6854
 3615SOL    HW122307   2.864   3.080   8.497 -0.3512  0.0952  0.6200
 3615SOL    HW222308   2.797   3.000   8.384  1.1124 -1.1770 -1.0025
 3616SOL     OW22309   3.389   0.742  16.022 -0.3862  0.4836 -0.2314
 3616SOL    HW122310   3.438   0.766  16.100  0.0279 -1.2521  0.0353
 3616SOL    HW222311   3.376   0.648  16.034 -0.4044 -0.0648 -4.5535
 3617SOL     OW22312   0.084   3.054   0.022 -0.1745 -0.1291  0.1628
 3617SOL    HW122313   0.140   3.131   0.022  2.0813 -1.7587 -0.8695
 3617SOL    HW222314   0.141   2.981  17.693 -1.1525 -0.2334 -1.9884
 3618SOL     OW22315   2.917   1.902  10.778 -0.2683 -0.1854  0.0303
 3618SOL    HW122316   2.840   1.956  10.795 -0.1769 -0.6659  1.9454
 3618SOL    HW222317   2.916   1.906  10.682 -0.6571  0.2170  0.0535
 3619SOL     OW22318   2.672   1.083   5.984  0.2967 -0.5876  0.4088
 3619SOL    HW122319   2.744   1.053   5.930 -1.0073  1.0759 -2.2187
 3619SOL    HW222320   2.605   1.097   5.918  0.9621  0.9587  0.0682
 3620SOL     OW22321   1.722   4.603   0.291 -0.3084 -0.3127  0.4671
 3620SOL    HW122322   1.698   4.629   0.380  0.6024  0.5498  0.4674
 3620SOL    HW222323   1.800   4.654   0.269 -0.9928 -0.3838 -2.1292
 3621SOL     OW22324   0.986   1.246   2.889  0.7396  0.0636 -0.4467
 3621SOL    HW122325   0.908   1.190   2.885 -0.1007  1.3381 -2.3942
 3621SOL    HW222326   1.001   1.262   2.796  0.7418 -0.6457 -0.5706
 3622SOL     OW22327   1.796   0.352   4.040  0.2598 -0.1475  0.4273
 3622SOL    HW122328   1.702   0.347   4.023  0.1354  2.3656  0.3968
 3622SOL    HW222329   1.799   0.393   4.127 -0.4289  1.4399 -0.2993
 3623SOL     OW22330   3.540   4.106   4.308  0.2233  0.4737  0.0092
 3623SOL    HW122331   3.614   4.166   4.319  2.2533 -2.2835  1.2566
 3623SOL    HW222332   3.581   4.025   4.338  0.7806  0.1695 -1.5529
 3624SOL     OW22333   4.653   2.775   8.645  0.1770  0.1088  0.2859
 3624SOL    HW122334   4.644   2.685   8.616 -1.0566  0.2543  0.2432
 3624SOL    HW222335   0.021   2.787   8.675  0.1499  1.9333 -0.3366
 3625SOL     OW22336   2.429   2.401   2.571 -0.5140  0.2026 -0.0204
 3625SOL    HW122337   2.402   2.489   2.545  1.0262  0.8601  0.6033
 3625SOL    HW222338   2.388   2.404   2.658  0.9540  0.6525  0.6564
 3626SOL     OW22339   2.795   3.200   1.963 -0.6102 -0.1955 -0.1806
 3626SOL    HW122340   2.774   3.265   1.896 -0.4709  0.5202  0.4604
 3626SOL    HW222341   2.804   3.258   2.039 -1.3093  0.3769 -0.5418
 3627SOL     OW22342   1.164   3.211   3.363  0.2108  0.2906 -0.3514
 3627SOL    HW122343   1.095   3.206   3.429  0.5669 -0.6990 -0.0427
 3627SOL    HW222344   1.131   3.143   3.303 -0.5241  1.9341 -1.8107
 3628SOL     OW22345   3.200   0.790   4.910  0.1077 -0.3065  0.2856
 3628SOL    HW122346   3.291   0.801   4.938  0.8622  1.8841 -3.0571
 3628SOL    HW222347   3.175   0.853   4.977 -0.7142  0.6841 -0.9575
 3629SOL     OW22348   4.490   2.887   4.260 -1.0049  0.0738 -0.1917
 3629SOL    HW122349   4.415   2.828   4.267 -1.9575  1.1068 -1.7680
 3629SOL    HW222350   4.450   2.973   4.248  0.7685  0.8561 -0.4022
 3630SOL     OW22351   0.025   1.104  16.643  0.0199  0.1644 -0.1715
 3630SOL    HW122352   0.109   1.139  16.611  0.5707 -1.1430 -0.1779
 3630SOL    HW222353   4.688   1.172  16.612 -0.8396 -0.1885  0.7236
 3631SOL     OW22354   2.558   3.139   7.494 -0.3489 -0.0254 -0.0080
 3631SOL    HW122355   2.600   3.056   7.470 -0.3989 -0.4634  1.4528
 3631SOL    HW222356   2.631   3.201   7.500  0.9292 -1.3856 -1.4571
 3632SOL     OW22357   1.561   4.524   7.216 -0.1184 -1.3385  0.0682
 3632SOL    HW122358   1.475   4.565   7.214  0.7236  0.3763 -1.4268
 3632SOL    HW222359   1.587   4.565   7.133 -2.3295 -0.4114 -0.1775
 3633SOL     OW22360   3.199   1.196   3.652 -0.1500  0.1105 -0.3215
 3633SOL    HW122361   3.109   1.213   3.625 -0.8325 -2.9530 -0.0208
 3633SOL    HW222362   3.240   1.193   3.566 -1.0452 -2.4036 -0.6386
 3634SOL     OW22363   1.034   1.582  11.278 -0.4860 -0.2405  0.1687
 3634SOL    HW122364   0.960   1.581  11.217 -0.1005  0.0174 -0.3001
 3634SOL    HW222365   1.094   1.616  11.212 -0.2127 -0.0613  0.5113
 3635SOL     OW22366   1.602   0.980  11.683  0.4804 -0.1485 -0.1236
 3635SOL    HW122367   1.687   0.991  11.726 -0.8128  0.7835  2.2577
 3635SOL    HW222368   1.543   1.022  11.746 -0.6772 -0.0984 -1.2358
 3636SOL     OW22369   1.133   0.194   4.437  0.2625 -0.5803  0.1944
 3636SOL    HW122370   1.144   0.150   4.353 -0.5140 -0.6910  0.1485
 3636SOL    HW222371   1.171   0.136   4.504  3.2513 -0.2327 -1.2075
 3637SOL     OW22372   0.479   4.429   4.484  0.3436 -0.4025 -0.4749
 3637SOL    HW122373   0.438   4.342   4.488  1.1857 -0.7679  0.1219
 3637SOL    HW222374   0.407   4.472   4.438  0.6534  1.2843  0.6414
 3638SOL     OW22375   3.177   4.632   4.780 -0.0405  0.1239  0.9657
 3638SOL    HW122376   3.160   0.000   4.756 -0.2955  0.7030  3.3567
 3638SOL    HW222377   3.254   4.625   4.723  1.1211  1.5844  2.3386
 3639SOL     OW22378   0.994   3.110   6.844 -0.2553 -0.5597  0.0504
 3639SOL    HW122379   1.000   3.151   6.930  0.6415  0.3301 -0.4274
 3639SOL    HW222380   1.025   3.181   6.787 -1.3821 -1.3161 -1.4926
 3640SOL     OW22381   0.218   1.382   8.012 -0.2781  0.0160 -0.2351
 3640SOL    HW122382   0.310   1.408   8.021 -0.7092  1.6004 -0.3745
 3640SOL    HW222383   0.185   1.408   8.098 -0.2207 -0.0253 -0.2002
 3641SOL     OW22384   3.762   1.061   8.810  0.1795  0.1053  0.6700
 3641SOL    HW122385   3.673   1.049   8.843 -0.2393 -0.8158 -0.7632
 3641SOL    HW222386   3.751   1.110   8.728 -0.6323 -0.5386  0.3890
 3642SOL     OW22387   4.528   2.493   8.271  0.0883 -0.0819  0.0059
 3642SOL    HW122388   4.499   2.424   8.212 -0.0285 -0.4887  0.5318
 3642SOL    HW222389   4.614   2.515   8.236  0.1331  1.4237  1.0186
 3643SOL     OW22390   3.627   0.809   3.750  0.0401  0.4130 -0.4340
 3643SOL    HW122391   3.628   0.903   3.768  1.3880 -0.0651  2.0578
 3643SOL    HW222392   3.541   0.801   3.708 -0.3471 -0.3095  0.4885
 3644SOL     OW22393   2.663   3.747   6.818  0.2126 -0.2534 -0.4076
 3644SOL    HW122394   2.622   3.689   6.883  1.4365  1.3573  1.8282
 3644SOL    HW222395   2.649   3.699   6.737  2.3215  2.2647 -2.2436
 3645SOL     OW22396   0.340   4.676   8.969 -0.5992 -0.5460 -0.0793
 3645SOL    HW122397   0.274   0.004   9.016 -0.9600  0.0893 -1.2825
 3645SOL    HW222398   0.290   4.616   8.914 -0.0338 -0.1819 -0.9844
 3646SOL     OW22399   4.284   3.572   3.714  0.1709  0.1021  0.1431
 3646SOL    HW122400   4.373   3.597   3.691 -0.3281  1.9025  0.2090
 3646SOL    HW222401   4.242   3.641   3.663 -0.9749 -0.4989  0.2596
 3647SOL     OW22402   1.566   2.153   8.060  0.6203 -0.4950 -0.0623
 3647SOL    HW122403   1.628   2.086   8.091  0.7233 -1.3074 -1.9815
 3647SOL    HW222404   1.572   2.218   8.129  1.0332 -1.2936  0.6488
 3648SOL     OW22405   3.284   1.442   6.260  0.0479 -0.1270 -0.0551
 3648SOL    HW122406   3.230   1.477   6.331  1.2002  0.6019  0.4729
 3648SOL    HW222407   3.343   1.388   6.314  0.7475  0.4455 -0.2459
 3649SOL     OW22408   1.081   2.434   5.745 -0.1544  0.0893  0.4039
 3649SOL    HW122409   1.064   2.472   5.659 -2.1366  0.7665  1.0993
 3649SOL    HW222410   1.001   2.440   5.797  0.7088  1.0350  1.6314
 3650SOL     OW22411   0.692   4.686   7.206  0.3746 -0.8295 -0.1930
 3650SOL    HW122412   0.685   0.052   7.241 -0.2335  0.0820 -2.6916
 3650SOL    HW222413   0.645   4.636   7.273 -0.5722  1.4355  0.8534
 3651SOL     OW22414   3.676   1.151   8.591  0.2782 -0.6685 -0.1894
 3651SOL    HW122415   3.602   1.124   8.537  1.8685 -0.5991 -2.4332
 3651SOL    HW222416   3.734   1.196   8.529 -0.0999 -0.8113 -0.6434
 3652SOL     OW22417   1.031   4.606   9.271 -0.0933  0.1356 -0.0598
 3652SOL    HW122418   1.065   4.573   9.354 -0.5821 -0.5915 -0.1455
 3652SOL    HW222419   1.065   4.695   9.262 -1.7465  0.8288  0.4068
 3653SOL     OW22420   1.926   2.002  16.270 -0.6391  0.4129  0.7153
 3653SOL    HW122421   2.017   2.028  16.284 -0.7400  1.2395 -0.1976
 3653SOL    HW222422   1.933   1.948  16.192 -0.2016  1.2044  0.2121
 3654SOL     OW22423   0.773   4.022   6.149  0.2646 -0.8347 -0.0706
 3654SOL    HW122424   0.858   4.028   6.106 -0.1628  0.6022 -0.7082
 3654SOL    HW222425   0.726   4.099   6.117  0.3538 -1.5905 -2.0315
 3655SOL     OW22426   0.695   1.795   5.770 -0.5158 -0.0332 -0.6055
 3655SOL    HW122427   0.743   1.829   5.695  0.3206  0.5885  0.2103
 3655SOL    HW222428   0.636   1.865   5.798  0.5115  1.2465 -1.6391
 3656SOL     OW22429   2.495   0.970   3.310  0.5890 -0.4923 -0.1217
 3656SOL    HW122430   2.476   1.051   3.263  0.6420 -0.5572 -0.2565
 3656SOL    HW222431   2.408   0.948   3.342  0.2403 -0.8957 -1.3302
 3657SOL     OW22432   2.038   1.284   3.724 -0.1689  0.3275  0.6868
 3657SOL    HW122433   1.998   1.216   3.670  0.7873  0.9019 -0.7462
 3657SOL    HW222434   2.127   1.248   3.729  0.3377  1.3776 -0.9464
 3658SOL     OW22435   1.631   1.058   7.602  0.3823  0.5786 -0.5861
 3658SOL    HW122436   1.611   1.149   7.624  1.4837  1.0501 -1.5675
 3658SOL    HW222437   1.718   1.073   7.564  0.4264  1.6861 -0.0565
 3659SOL     OW22438   1.755   3.096  15.730  0.3451  0.4091 -0.4851
 3659SOL    HW122439   1.779   3.007  15.704 -0.5821  0.2474 -0.8220
 3659SOL    HW222440   1.824   3.157  15.702  0.6233  0.9553  1.4425
 3660SOL     OW22441   1.922   4.508   9.367 -0.2522  0.6586  0.6070
 3660SOL    HW122442   1.964   4.536   9.286  0.1486 -1.6244  0.0089
 3660SOL    HW222443   1.928   4.413   9.351 -1.1100  0.7067  0.0268
 3661SOL     OW22444   1.586   1.451   6.380 -0.3670 -0.5256 -0.2038
 3661SOL    HW122445   1.555   1.508   6.450  1.0846 -0.0800  0.0815
 3661SOL    HW222446   1.657   1.402   6.422 -1.0706 -2.3847 -1.1810
 3662SOL     OW22447   2.465   1.877   4.349 -0.7862 -0.0117 -0.5373
 3662SOL    HW122448   2.453   1.868   4.255  0.6395 -0.8397 -0.6271
 3662SOL    HW222449   2.440   1.788   4.372  0.4664 -0.0921  0.4854
 3663SOL     OW22450   3.786   1.242   7.288  0.2669  0.4175 -0.6541
 3663SOL    HW122451   3.711   1.217   7.341 -0.4244  0.4440 -1.6301
 3663SOL    HW222452   3.855   1.228   7.353 -1.0069  1.3322  0.8721
 3664SOL     OW22453   3.270   2.462   5.181  0.1659  0.1927 -0.0940
 3664SOL    HW122454   3.289   2.490   5.271 -0.2916 -0.7476  0.3052
 3664SOL    HW222455   3.229   2.377   5.195 -0.4381  0.0189 -2.9892
 3665SOL     OW22456   0.245   0.944  11.438 -0.0761  0.1397  0.6775
 3665SOL    HW122457   0.280   0.901  11.360 -1.9348  1.1997 -0.7586
 3665SOL    HW222458   0.258   1.038  11.425 -1.7158  0.2640 -0.0366
 3666SOL     OW22459   3.621   2.215   2.332 -0.1090 -0.4341 -0.6111
 3666SOL    HW122460   3.714   2.194   2.327  0.0274  0.0704 -0.1403
 3666SOL    HW222461   3.597   2.253   2.247  1.4244 -0.2699 -0.9654
 3667SOL     OW22462   1.662   1.600   8.507 -0.3071  0.5247 -0.2677
 3667SOL    HW122463   1.589   1.657   8.534 -1.4180 -0.5123 -1.0959
 3667SOL    HW222464   1.614   1.539   8.453  2.1217  0.0098 -1.8261
 3668SOL     OW22465   3.915   3.166   8.034 -0.5808 -0.6429 -0.7622
 3668SOL    HW122466   3.974   3.137   8.103 -1.1941 -0.4919 -0.1775
 3668SOL    HW222467   3.926   3.107   7.959 -0.4198 -2.6063  0.8125
 3669SOL     OW22468   1.405   1.624   5.781  0.3249  0.7638  0.2126
 3669SOL    HW122469   1.429   1.538   5.814 -4.2428 -0.5614  0.1030
 3669SOL    HW222470   1.489   1.669   5.792 -0.1730  1.8090 -0.2586
 3670SOL     OW22471   1.461   4.617   4.455  0.0806 -0.3876 -0.2142
 3670SOL    HW122472   1.537   4.672   4.440  0.2032  0.5359  3.9103
 3670SOL    HW222473   1.505   4.533   4.467  2.5135  0.9581  0.2254
 3671SOL     OW22474   4.139   1.292   0.151  0.3325 -0.0907  0.0664
 3671SOL    HW122475   4.090   1.211   0.163  2.5990 -1.3990  0.7124
 3671SOL    HW222476   4.215   1.257   0.103  1.9769  2.2229  0.9724
 3672SOL     OW22477   4.694   3.357   5.348  0.8120  0.0134  0.4201
 3672SOL    HW122478   4.713   3.273   5.389  0.9248  0.5151  1.3871
 3672SOL    HW222479   0.054   3.401   5.359  1.6106 -1.2274 -0.6007
 3673SOL     OW22480   1.568   0.755   5.528  0.4411  0.0253 -0.4411
 3673SOL    HW122481   1.502   0.717   5.469  0.4537  0.4994 -0.7666
 3673SOL    HW222482   1.625   0.680   5.546  1.0508  0.9108  1.3301
 3674SOL     OW22483   1.811   4.190  10.103 -0.0861 -0.2260  0.3019
 3674SOL    HW122484   1.735   4.170  10.157 -0.2238  0.3591  0.3258
 3674SOL    HW222485   1.762   4.214  10.024 -2.8572 -0.3503  1.9951
 3675SOL     OW22486   1.321   4.699   6.091  0.2131  0.8001 -1.2106
 3675SOL    HW122487   1.366   4.692   6.007 -0.6557 -1.3149 -1.5011
 3675SOL    HW222488   1.233   4.666   6.075  0.4413  0.0648 -0.9540
 3676SOL     OW22489   1.489   4.136  14.689  0.1263 -0.1201 -0.1536
 3676SOL    HW122490   1.514   4.081  14.763 -2.2087 -0.9825 -0.0204
 3676SOL    HW222491   1.459   4.070  14.627  0.2387  0.1827 -0.5367
 3677SOL     OW22492   1.318   4.353  14.627 -0.1582  0.1818 -0.3979
 3677SOL    HW122493   1.358   4.268  14.609 -0.6217 -0.1932  0.3390
 3677SOL    HW222494   1.393   4.412  14.613  2.7544 -3.9117 -2.1100
 3678SOL     OW22495   2.244   0.376   2.472 -0.2517 -0.2916  0.5155
 3678SOL    HW122496   2.161   0.333   2.494 -0.2247 -0.4858  0.2233
 3678SOL    HW222497   2.216   0.465   2.452 -1.8379 -1.0504 -0.6086
 3679SOL     OW22498   2.220   1.343  16.264 -0.5064 -0.1576  0.0856
 3679SOL    HW122499   2.307   1.369  16.296  0.6701 -1.0639 -2.3705
 3679SOL    HW222500   2.179   1.299  16.339  1.4488  0.1561  1.3522
 3680SOL     OW22501   4.111   0.886   2.962 -0.0778 -0.4570  0.2072
 3680SOL    HW122502   4.105   0.954   3.029  1.0567  1.1486 -1.3114
 3680SOL    HW222503   4.037   0.839   3.000 -1.4530 -0.2168 -2.1878
 3681SOL     OW22504   2.859   0.300   8.050 -0.5451 -0.0467 -0.0053
 3681SOL    HW122505   2.915   0.243   7.998  2.5703  2.4389  0.6228
 3681SOL    HW222506   2.774   0.258   8.035 -0.3316  0.1632 -1.6992
 3682SOL     OW22507   4.234   4.029   5.583 -0.1957 -0.0204 -0.4731
 3682SOL    HW122508   4.327   4.013   5.602 -0.6745  1.0253  2.8182
 3682SOL    HW222509   4.183   3.950   5.596 -1.6140  1.0917  0.6745
 3683SOL     OW22510   0.127   3.565   8.829  0.4662  0.0634  0.4339
 3683SOL    HW122511   0.093   3.517   8.905 -0.6644  2.5340  1.4639
 3683SOL    HW222512   0.203   3.607   8.869  0.3818  0.5240  0.0982
 3684SOL     OW22513   2.639   3.302   5.925 -0.9124  0.0517 -0.2469
 3684SOL    HW122514   2.685   3.333   5.847  1.9513 -1.1994  0.9361
 3684SOL    HW222515   2.714   3.316   5.984 -0.5707  0.5011 -0.7932
 3685SOL     OW22516   0.710   2.699   1.593  0.4916  0.4098 -0.6953
 3685SOL    HW122517   0.622   2.684   1.629  0.5320 -0.7485 -1.0582
 3685SOL    HW222518   0.688   2.757   1.520 -1.4496  0.0070 -0.4538
 3686SOL     OW22519   3.982   1.870  11.179  0.2108  0.1047 -0.2293
 3686SOL    HW122520   3.976   1.922  11.259  0.9433 -0.4359  0.1797
 3686SOL    HW222521   3.903   1.818  11.194  1.6692 -1.7225  1.1325
 3687SOL     OW22522   2.377   0.143   6.254 -0.4731 -0.1523 -0.1949
 3687SOL    HW122523   2.310   0.105   6.198 -1.0505 -0.1712  0.5081
 3687SOL    HW222524   2.335   0.136   6.340  2.7360  1.0535  1.4915
 3688SOL     OW22525   3.398   0.836   3.652 -0.2189  0.9103 -0.3182
 3688SOL    HW122526   3.332   0.857   3.586 -0.5125  1.0859  0.0296
 3688SOL    HW222527   3.366   0.904   3.712 -0.1295 -0.1575  0.9413
 3689SOL     OW22528   3.155   1.032  12.579 -0.3198 -0.2542 -0.0862
 3689SOL    HW122529   3.092   1.085  12.530  0.9968  0.6938 -0.7580
 3689SOL    HW222530   3.237   1.057  12.536  0.7085  0.2665  2.1844
 3690SOL     OW22531   2.561   0.615   9.912 -0.3703 -0.2560 -0.0493
 3690SOL    HW122532   2.486   0.559   9.892  0.0924  0.0470 -2.6200
 3690SOL    HW222533   2.560   0.622  10.008  2.2088  0.2067 -0.0469
 3691SOL     OW22534   0.805   2.187   0.655 -0.2047 -0.2375 -0.3932
 3691SOL    HW122535   0.891   2.231   0.651 -0.2177 -0.2568 -0.9538
 3691SOL    HW222536   0.768   2.243   0.723  0.9825  0.6141 -0.4372
 3692SOL     OW22537   3.264   2.143  12.123  0.0968 -0.0630  0.2195
 3692SOL    HW122538   3.339   2.087  12.143 -0.5268 -0.1857  2.1518
 3692SOL    HW222539   3.202   2.097  12.180  2.4580 -3.1832  0.2998
 3693SOL     OW22540   4.257   4.103   5.327 -0.5932 -0.2086  0.6278
 3693SOL    HW122541   4.305   4.025   5.300  0.3149  0.4906  0.2006
 3693SOL    HW222542   4.236   4.078   5.417  1.5481 -1.7322  0.6984
 3694SOL     OW22543   0.633   0.313   1.549  0.3049  0.3118  0.2884
 3694SOL    HW122544   0.541   0.291   1.532  0.3181  0.1978  0.3664
 3694SOL    HW222545   0.642   0.368   1.471 -0.9428 -0.2654 -0.2616
 3695SOL     OW22546   4.395   4.210   8.658  0.0856 -0.1716  0.3412
 3695SOL    HW122547   4.318   4.153   8.657 -0.5101  0.7012 -3.3866
 3695SOL    HW222548   4.419   4.223   8.566 -2.0460  0.9706 -0.0624
 3696SOL     OW22549   1.648   1.635   3.357 -0.2482 -0.7249  0.0485
 3696SOL    HW122550   1.694   1.712   3.324 -2.6549 -0.1047 -1.8264
 3696SOL    HW222551   1.569   1.674   3.394 -0.4025  0.2628 -1.3398
 3697SOL     OW22552   1.893   2.301   5.028  0.6064  0.0284 -0.0144
 3697SOL    HW122553   1.975   2.341   5.056  0.8528 -0.5210  0.0563
 3697SOL    HW222554   1.849   2.296   5.112  0.3509 -0.5747 -0.1849
 3698SOL     OW22555   1.796   2.126  16.498 -0.1666 -0.0462  0.8286
 3698SOL    HW122556   1.834   2.086  16.420  0.3657 -0.0850  1.1103
 3698SOL    HW222557   1.701   2.125  16.487 -0.2186  0.2823  1.2247
 3699SOL     OW22558   2.889   1.221   0.679  0.1827 -0.1625 -0.3236
 3699SOL    HW122559   2.954   1.192   0.615 -0.1095  1.2374 -1.2607
 3699SOL    HW222560   2.939   1.231   0.760 -0.4826 -0.9932  0.1846
 3700SOL     OW22561   3.949   3.568   5.070  0.6036 -0.3898 -0.1411
 3700SOL    HW122562   3.924   3.524   4.989  0.8376 -0.9302  0.0809
 3700SOL    HW222563   4.020   3.627   5.044 -0.1275 -0.5928 -2.5674
 3701SOL     OW22564   4.433   1.389   8.590 -0.3819  0.2391  0.0463
 3701SOL    HW122565   4.490   1.360   8.518 -1.7691 -1.3438 -0.4300
 3701SOL    HW222566   4.460   1.479   8.605  1.1193  0.3218 -3.1692
 3702SOL     OW22567   1.796   1.390  16.586 -0.3831 -0.0593  0.7869
 3702SOL    HW122568   1.836   1.367  16.670 -0.5696  2.2530  1.5143
 3702SOL    HW222569   1.874   1.424  16.541 -0.5211 -1.1635 -0.2745
 3703SOL     OW22570   2.749   2.428   4.770 -0.0029 -0.3903 -0.6534
 3703SOL    HW122571   2.810   2.358   4.792 -1.1828 -1.4068 -0.6344
 3703SOL    HW222572   2.664   2.389   4.789 -0.6854  0.5225 -1.8725
 3704SOL     OW22573   1.331   4.012  17.627 -0.0246 -0.1045  0.4764
 3704SOL    HW122574   1.292   4.038  17.543 -0.1006  0.0052  0.5466
 3704SOL    HW222575   1.283   3.930  17.641 -1.5854  0.8649  0.8898
 3705SOL     OW22576   1.462   1.328   2.288  0.3508  0.1413  0.2434
 3705SOL    HW122577   1.440   1.251   2.235  1.1315  0.4231 -0.5054
 3705SOL    HW222578   1.535   1.362   2.236  0.3835 -1.4799 -0.7985
 3706SOL     OW22579   1.443   2.881  15.800 -0.4591 -0.2381  0.0189
 3706SOL    HW122580   1.534   2.895  15.776 -0.4207 -0.7185 -0.1206
 3706SOL    HW222581   1.404   2.938  15.734  0.4506  1.9124  1.3431
 3707SOL     OW22582   3.551   1.030   2.138 -0.4787  0.3751  0.0609
 3707SOL    HW122583   3.538   1.098   2.072 -1.4605  0.1641  0.0482
 3707SOL    HW222584   3.485   0.962   2.127  0.6139 -0.7965  0.6942
 3708SOL     OW22585   2.722   1.799   1.291 -0.0476 -0.5251 -0.2584
 3708SOL    HW122586   2.705   1.711   1.257  0.6547 -1.1439  1.0036
 3708SOL    HW222587   2.632   1.832   1.296 -0.2131 -0.6318 -2.6486
 3709SOL     OW22588   3.577   3.461   6.109  0.0848 -0.3181 -0.1285
 3709SOL    HW122589   3.606   3.545   6.073 -1.3506 -0.5243 -1.7446
 3709SOL    HW222590   3.602   3.404   6.037 -2.0990 -0.1341 -1.0290
 3710SOL     OW22591   2.995   0.465   2.840  0.1056 -0.0378  0.2398
 3710SOL    HW122592   3.085   0.473   2.872  0.5975 -0.8991 -0.9489
 3710SOL    HW222593   2.986   0.537   2.778 -4.0020 -1.2629 -0.5568
 3711SOL     OW22594   3.649   1.461   6.180  0.2883  0.2415 -0.4480
 3711SOL    HW122595   3.742   1.474   6.161  0.8070 -1.4845  0.8301
 3711SOL    HW222596   3.657   1.479   6.274 -2.1106  0.7295 -0.3302
 3712SOL     OW22597   0.502   1.414   5.969 -0.4113 -0.2305  0.5595
 3712SOL    HW122598   0.593   1.387   5.957 -0.1185  1.3759 -0.8211
 3712SOL    HW222599   0.451   1.333   5.966  2.3940 -2.0457  2.5922
 3713SOL     OW22600   4.399   3.775   4.651  0.5033 -0.0154  0.3162
 3713SOL    HW122601   4.339   3.837   4.608  1.0064 -0.6713 -1.3491
 3713SOL    HW222602   4.360   3.691   4.625  1.3627 -0.1979 -0.3800
 3714SOL     OW22603   1.229   4.200   6.708 -0.0626  0.2030 -0.6123
 3714SOL    HW122604   1.257   4.278   6.757 -1.5363  0.2584  0.1583
 3714SOL    HW222605   1.233   4.228   6.617  0.2192  1.0828 -0.3376
 3715SOL     OW22606   2.042   3.369  15.622 -0.2761  0.0123 -0.7507
 3715SOL    HW122607   2.098   3.421  15.679 -0.0771 -0.4521 -0.5237
 3715SOL    HW222608   1.973   3.425  15.586 -0.2905  0.2109 -0.4161
 3716SOL     OW22609   1.469   4.076   6.898 -0.0673  0.4195  0.3298
 3716SOL    HW122610   1.482   4.070   6.803 -0.7311  0.2776  0.2430
 3716SOL    HW222611   1.387   4.125   6.892  1.4531  2.8577 -0.4512
 3717SOL     OW22612   2.005   3.256   6.819  0.0409  0.2854 -0.3043
 3717SOL    HW122613   2.021   3.260   6.724  2.1669 -1.7928 -0.0379
 3717SOL    HW222614   1.985   3.347   6.840 -0.5273 -0.0911  0.7616
 3718SOL     OW22615   2.285   3.423  14.196 -0.5125  0.2202  0.6562
 3718SOL    HW122616   2.207   3.432  14.251 -0.0700  0.0387  1.3116
 3718SOL    HW222617   2.346   3.493  14.220  1.2151 -0.6090 -1.3274
 3719SOL     OW22618   2.387   3.395   5.246  0.1696 -0.5515 -0.1558
 3719SOL    HW122619   2.376   3.486   5.274 -2.3535 -0.6493 -0.8243
 3719SOL    HW222620   2.441   3.370   5.321  0.1405 -0.4040 -0.0851
 3720SOL     OW22621   0.900   1.309   7.776  0.1274 -0.2483  0.8400
 3720SOL    HW122622   0.892   1.321   7.681  1.8938 -0.6294  0.6450
 3720SOL    HW222623   0.824   1.251   7.782 -0.0610  0.0475  1.2509
 3721SOL     OW22624   1.078   2.947   1.689 -0.4585 -0.1349 -0.0928
 3721SOL    HW122625   1.029   2.986   1.762 -0.1616  0.7547 -0.3673
 3721SOL    HW222626   1.032   2.984   1.614 -1.3336 -1.9242 -0.4390
 3722SOL     OW22627   3.547   1.600   3.346 -0.1803  0.2239  0.4066
 3722SOL    HW122628   3.619   1.663   3.348 -1.5225  1.7953 -0.9699
 3722SOL    HW222629   3.593   1.518   3.367  0.2147  0.1250 -0.8416
 3723SOL     OW22630   1.719   0.351  11.569  0.3159 -0.1059 -0.0634
 3723SOL    HW122631   1.769   0.346  11.651 -0.2898 -0.1504  0.3022
 3723SOL    HW222632   1.790   0.334  11.508 -0.0685 -3.6697  0.4465
 3724SOL     OW22633   0.049   3.803   8.099 -0.0091  0.1456 -0.1510
 3724SOL    HW122634   0.140   3.821   8.124 -0.6357  4.1925 -0.8921
 3724SOL    HW222635   0.049   3.732   8.034  1.0405 -0.3842  0.4203
 3725SOL     OW22636   3.221   4.524   3.415  0.1650 -0.0409 -0.7841
 3725SOL    HW122637   3.181   4.609   3.396  0.7971  0.0909 -1.4827
 3725SOL    HW222638   3.254   4.495   3.330 -1.6954  1.1101 -1.8959
 3726SOL     OW22639   1.156   1.545   1.841  0.3796  0.4199  0.0465
 3726SOL    HW122640   1.194   1.467   1.800 -1.0971 -1.1532  1.6652
 3726SOL    HW222641   1.088   1.572   1.780 -0.9138 -1.3079  0.7002
 3727SOL     OW22642   2.725   4.498   9.172 -0.6489 -0.5350  0.2366
 3727SOL    HW122643   2.761   4.417   9.209  1.6045 -0.2217 -1.2746
 3727SOL    HW222644   2.806   4.545   9.154 -1.9508  1.2529 -0.8681
 3728SOL     OW22645   4.375   3.275   4.795 -0.0294 -0.0173  0.2272
 3728SOL    HW122646   4.370   3.264   4.890  0.9645 -0.9556  0.1757
 3728SOL    HW222647   4.345   3.364   4.777  0.3112  0.2489  0.9963
 3729SOL     OW22648   4.358   1.111   0.180  0.4800  0.1705 -0.2499
 3729SOL    HW122649   4.358   1.143   0.270 -2.5131 -2.6863  0.7771
 3729SOL    HW222650   4.302   1.034   0.191  0.3022 -0.0435 -2.6319
 3730SOL     OW22651   0.708   3.245   1.483 -0.2939  0.0471 -0.2659
 3730SOL    HW122652   0.647   3.188   1.530  0.1178 -0.8702 -0.8499
 3730SOL    HW222653   0.682   3.240   1.391 -1.8954 -0.6655  0.2143
 3731SOL     OW22654   0.917   2.537   7.699  0.6879 -0.0602 -0.0009
 3731SOL    HW122655   0.985   2.600   7.678 -1.2513  2.9539  2.7573
 3731SOL    HW222656   0.944   2.514   7.788  1.5569 -1.4889 -0.6200
 3732SOL     OW22657   1.496   3.260  13.815 -0.6534  0.3736  0.1012
 3732SOL    HW122658   1.499   3.327  13.882  0.2622  1.3890 -0.9604
 3732SOL    HW222659   1.418   3.282  13.766 -0.2639  1.1262 -0.1721
 3733SOL     OW22660   0.385   2.766   4.505 -0.0921  0.4751  0.4176
 3733SOL    HW122661   0.313   2.820   4.472  1.1054  2.7135  1.4547
 3733SOL    HW222662   0.371   2.768   4.600  1.0813  0.9023  0.5901
 3734SOL     OW22663   2.216   0.578   5.531  0.1757  0.3747  0.4164
 3734SOL    HW122664   2.181   0.541   5.613 -2.5549 -1.2803 -1.5008
 3734SOL    HW222665   2.222   0.665   5.570 -0.5870  1.2075 -1.3775
 3735SOL     OW22666   4.036   2.964   3.720 -0.1666 -0.1425  0.1302
 3735SOL    HW122667   4.048   2.873   3.691 -0.7545 -0.4885  0.9823
 3735SOL    HW222668   4.105   3.016   3.679  0.9058 -0.0998  2.0205
 3736SOL     OW22669   3.600   1.839   3.624  0.2946 -0.0804 -0.0343
 3736SOL    HW122670   3.582   1.911   3.685  2.0913 -0.2650  0.7164
 3736SOL    HW222671   3.559   1.864   3.541 -1.4342  0.6269  1.0416
 3737SOL     OW22672   3.776   3.707   7.738 -0.6093  0.6914 -0.3340
 3737SOL    HW122673   3.809   3.697   7.649  1.4111  2.1646  0.2515
 3737SOL    HW222674   3.847   3.753   7.783  1.2330 -1.4602 -1.0163
 3738SOL     OW22675   0.111   4.503   6.468  0.5935  0.0870 -0.0349
 3738SOL    HW122676   0.164   4.526   6.544 -1.0034 -0.2187  1.1644
 3738SOL    HW222677   0.075   4.586   6.436 -1.3090 -1.1708 -1.1952
 3739SOL     OW22678   2.319   2.579   7.238  0.2043 -0.6028 -0.2512
 3739SOL    HW122679   2.287   2.497   7.277 -0.6233 -0.3130 -0.3275
 3739SOL    HW222680   2.410   2.559   7.215  1.4142  2.1399  2.1059
 3740SOL     OW22681   4.369   2.135   8.763 -0.3847 -0.1024  0.0590
 3740SOL    HW122682   4.322   2.197   8.708 -1.2683 -2.5012 -1.9116
 3740SOL    HW222683   4.373   2.181   8.847  0.9260 -0.2278  0.0560
 3741SOL     OW22684   2.507   0.795   5.514 -0.4521 -0.0106 -0.0004
 3741SOL    HW122685   2.490   0.720   5.456  0.8736 -0.8827  0.7312
 3741SOL    HW222686   2.454   0.775   5.591 -0.4010 -1.1447 -0.2577
 3742SOL     OW22687   1.336   2.663   7.122 -0.0898  0.2013  0.2266
 3742SOL    HW122688   1.300   2.690   7.206  2.8854  1.5597  1.0746
 3742SOL    HW222689   1.286   2.730   7.074 -0.0754  1.2877  1.7250
 3743SOL     OW22690   4.681   0.721  15.658 -0.3240  0.0760 -0.6191
 3743SOL    HW122691   4.701   0.716  15.752  1.0763  0.7326 -0.8936
 3743SOL    HW222692   4.587   0.700  15.659 -0.2799 -0.0125  2.1957
 3744SOL     OW22693   2.774   3.801  16.251  0.0356 -0.2567  0.0774
 3744SOL    HW122694   2.821   3.854  16.315 -3.1189 -0.1998  2.3663
 3744SOL    HW222695   2.745   3.859  16.180  0.4985 -0.2645 -0.1204
 3745SOL     OW22696   3.458   3.649   2.403 -0.3788 -0.2432 -0.2335
 3745SOL    HW122697   3.405   3.719   2.441  1.1583  2.1213 -2.4146
 3745SOL    HW222698   3.410   3.637   2.321 -0.0522  1.8873 -0.7504
 3746SOL     OW22699   0.627   3.870   9.341 -0.0778  0.0980  0.5621
 3746SOL    HW122700   0.705   3.894   9.389  1.8611 -0.4961 -2.2911
 3746SOL    HW222701   0.629   3.936   9.272 -1.9146  1.4003  1.7503
 3747SOL     OW22702   1.970   3.388   4.376 -0.3492 -0.0844  0.1623
 3747SOL    HW122703   1.956   3.482   4.360  0.8887 -0.0387 -0.6986
 3747SOL    HW222704   2.042   3.380   4.313  1.2189 -1.5471  2.1461
 3748SOL     OW22705   1.987   4.202   8.132 -0.0801 -0.5831  0.9730
 3748SOL    HW122706   1.981   4.272   8.196 -2.4085 -0.3740  0.5492
 3748SOL    HW222707   1.955   4.248   8.054  0.7984 -1.7074 -0.0583
 3749SOL     OW22708   3.693   0.182  15.311 -0.0425  0.0867 -0.0880
 3749SOL    HW122709   3.668   0.268  15.277  2.3959  0.8681  0.0642
 3749SOL    HW222710   3.693   0.118  15.240  3.6587  0.3047 -0.2889
 3750SOL     OW22711   0.449   4.513  11.713  0.2345 -0.9062 -0.3474
 3750SOL    HW122712   0.463   4.564  11.792 -0.7025 -0.7264 -0.3025
 3750SOL    HW222713   0.354   4.500  11.716  0.6517 -3.5544  1.6327
 3751SOL     OW22714   3.305   3.107   4.505 -0.1680  0.4720  0.0091
 3751SOL    HW122715   3.284   3.037   4.567  1.2759 -0.9466 -1.0880
 3751SOL    HW222716   3.311   3.062   4.421 -2.7802  2.4704 -1.2319
 3752SOL     OW22717   2.867   0.110   2.089  0.0523  0.1524  0.3799
 3752SOL    HW122718   2.803   0.056   2.136 -2.2885  0.9647 -1.8377
 3752SOL    HW222719   2.878   0.181   2.153 -0.3072 -1.0019  1.7249
 3753SOL     OW22720   1.880   1.211   5.002 -0.3517 -0.0020 -0.4451
 3753SOL    HW122721   1.876   1.244   4.912 -2.2749 -1.7554 -0.9978
 3753SOL    HW222722   1.930   1.283   5.040  0.2915 -0.0072 -1.2656
 3754SOL     OW22723   1.734   4.217   8.377  0.3681 -0.2581  0.1493
 3754SOL    HW122724   1.649   4.231   8.334 -0.4730 -1.5762  1.3955
 3754SOL    HW222725   1.804   4.256   8.325 -0.7810  1.3213 -0.2354
 3755SOL     OW22726   1.235   2.487   2.474 -0.1539 -0.0935 -0.7081
 3755SOL    HW122727   1.248   2.561   2.533 -1.2881 -0.3789 -0.0919
 3755SOL    HW222728   1.286   2.520   2.399  0.1193  0.0557 -0.4560
 3756SOL     OW22729   4.204   3.197   7.206 -0.3514  0.0432  0.1119
 3756SOL    HW122730   4.300   3.200   7.212 -0.3803  2.7744 -0.9299
 3756SOL    HW222731   4.170   3.156   7.285 -1.2601 -0.6258 -0.6305
 3757SOL     OW22732   0.928   2.164   9.540 -0.7353  0.2296 -0.2969
 3757SOL    HW122733   0.919   2.182   9.633 -2.3622 -1.6182 -0.0876
 3757SOL    HW222734   1.013   2.204   9.522 -1.2879  2.3291  1.7485
 3758SOL     OW22735   3.336   0.087   9.436 -0.0639 -0.1784 -0.8583
 3758SOL    HW122736   3.241   0.082   9.426  0.1682  0.3367 -3.2820
 3758SOL    HW222737   3.366   0.112   9.349  0.9384  1.0953 -0.1368
 3759SOL     OW22738   3.566   0.757  15.741 -0.4888 -0.4151 -0.2115
 3759SOL    HW122739   3.523   0.672  15.745 -0.8031 -0.3069 -1.1073
 3759SOL    HW222740   3.592   0.756  15.833 -0.9228  0.2585 -0.0778
 3760SOL     OW22741   3.597   3.591  16.149  0.5407 -0.2534  0.3966
 3760SOL    HW122742   3.666   3.590  16.083  1.3659 -0.1533  1.2586
 3760SOL    HW222743   3.533   3.650  16.110  0.1044 -1.5948 -0.9246
 3761SOL     OW22744   1.167   2.736   8.159  0.7292  0.5408 -0.4866
 3761SOL    HW122745   1.203   2.820   8.186  0.3210  0.6149 -0.1691
 3761SOL    HW222746   1.117   2.717   8.239  0.5810  0.5484 -0.5776
 3762SOL     OW22747   0.782   1.334   8.431  0.2588  0.1354 -0.8192
 3762SOL    HW122748   0.731   1.414   8.446 -0.5233 -0.7342  1.1402
 3762SOL    HW222749   0.804   1.318   8.523 -1.5000 -1.3867 -0.6724
 3763SOL     OW22750   2.387   2.950   4.370 -0.2821  0.3671  0.4289
 3763SOL    HW122751   2.459   3.001   4.334  0.1607 -0.0621  0.6997
 3763SOL    HW222752   2.421   2.861   4.373  0.7558  0.6864 -1.8910
 3764SOL     OW22753   0.279   1.268   2.441 -0.0452  0.0329  0.1614
 3764SOL    HW122754   0.250   1.238   2.528  0.8295  0.4167  0.5797
 3764SOL    HW222755   0.310   1.188   2.398 -0.6263 -0.4938  0.7073
 3765SOL     OW22756   2.529   2.106  16.502 -0.2630  0.1538  0.7469
 3765SOL    HW122757   2.562   2.132  16.588  1.4660 -1.6647  0.6473
 3765SOL    HW222758   2.465   2.175  16.485  2.2562  1.7945 -1.9813
 3766SOL     OW22759   3.282   3.430   6.688  0.0044  0.2477 -0.5448
 3766SOL    HW122760   3.369   3.434   6.649  0.2356 -2.7416 -0.2915
 3766SOL    HW222761   3.299   3.496   6.756  0.3470  0.2172 -0.5967
 3767SOL     OW22762   3.498   4.417   8.568 -0.0122  0.4980 -0.2252
 3767SOL    HW122763   3.525   4.332   8.604 -0.6263  0.0771 -0.7544
 3767SOL    HW222764   3.418   4.381   8.529  0.0159  0.4969 -0.2821
 3768SOL     OW22765   3.713   0.903   5.094  0.0637  0.4895  0.7867
 3768SOL    HW122766   3.776   0.904   5.166 -0.6033 -2.1355  1.4115
 3768SOL    HW222767   3.733   0.972   5.030 -0.7956 -0.2635 -0.2887
 3769SOL     OW22768   3.193   2.523   4.919  0.1464 -0.6653  0.4033
 3769SOL    HW122769   3.111   2.547   4.963  1.2016  2.1158  0.8448
 3769SOL    HW222770   3.243   2.491   4.994 -0.0789 -2.9804 -0.4492
 3770SOL     OW22771   3.823   3.176  10.769 -0.5392 -0.0813  0.4040
 3770SOL    HW122772   3.777   3.092  10.768 -0.7714  0.0659 -1.8431
 3770SOL    HW222773   3.779   3.213  10.846  0.2576 -2.7565  2.1523
 3771SOL     OW22774   0.935   3.293   1.862  0.2573 -0.1994  0.3890
 3771SOL    HW122775   0.971   3.372   1.902  1.0120 -0.5842  0.4684
 3771SOL    HW222776   0.910   3.325   1.775  0.4014  2.4013  1.2975
 3772SOL     OW22777   3.373   1.118   0.138 -0.2658  0.6327  0.1479
 3772SOL    HW122778   3.299   1.104   0.197 -0.8110  1.3115 -0.3800
 3772SOL    HW222779   3.439   1.054   0.165  0.1651  1.5574  1.2739
 3773SOL     OW22780   1.716   2.446  14.644 -0.4976 -0.1983  0.5349
 3773SOL    HW122781   1.729   2.489  14.728  3.2031  0.6572 -0.4856
 3773SOL    HW222782   1.629   2.411  14.663  0.3258 -0.2558  4.0719
 3774SOL     OW22783   0.115   1.766   5.006  0.8484 -0.2252  0.2711
 3774SOL    HW122784   0.170   1.820   4.949  0.2187  0.4552  0.3150
 3774SOL    HW222785   0.095   1.684   4.960  1.2872  0.4682 -1.1627
 3775SOL     OW22786   0.360   0.973  16.206  0.5432  0.3792 -0.4176
 3775SOL    HW122787   0.352   0.961  16.111  1.1576 -0.6553 -0.3469
 3775SOL    HW222788   0.453   0.950  16.215 -0.1725 -1.7247  1.6495
 3776SOL     OW22789   2.330   4.476   4.555  0.3158 -0.1455 -0.6071
 3776SOL    HW122790   2.353   4.534   4.482  1.6302 -1.6338 -1.3839
 3776SOL    HW222791   2.416   4.462   4.595 -0.8740  0.6720  2.1884
 3777SOL     OW22792   3.060   4.064   5.817  0.3173 -0.0300 -0.5764
 3777SOL    HW122793   2.993   4.082   5.751  0.2125 -2.7068 -1.1708
 3777SOL    HW222794   3.143   4.077   5.771  0.3814 -0.1396 -0.4938
 3778SOL     OW22795   2.891   3.927   8.171  0.0194  0.0129 -0.5069
 3778SOL    HW122796   2.849   4.009   8.146 -0.3921 -0.2740 -0.7388
 3778SOL    HW222797   2.880   3.919   8.266  0.6912  1.2381 -0.3143
 3779SOL     OW22798   1.817   1.096   2.641  0.1146  0.2266 -0.5336
 3779SOL    HW122799   1.869   1.171   2.615 -0.3163  0.4731 -0.6942
 3779SOL    HW222800   1.725   1.118   2.624  0.4328  1.9282 -0.0999
 3780SOL     OW22801   4.578   2.242   8.531  0.0485  0.0741 -0.2725
 3780SOL    HW122802   4.597   2.149   8.548 -0.4938 -0.5256 -2.8539
 3780SOL    HW222803   4.494   2.243   8.486 -0.6380 -0.5279  1.0010
 3781SOL     OW22804   4.719   4.457   3.099  0.3442 -0.1762  0.2725
 3781SOL    HW122805   4.630   4.472   3.131 -0.6099 -1.4668 -1.7765
 3781SOL    HW222806   4.715   4.474   3.005 -0.9492 -0.3592  0.2975
 3782SOL     OW22807   3.412   1.943  11.063 -0.0514 -0.3842 -0.3272
 3782SOL    HW122808   3.349   1.930  11.134  1.0531 -0.2684  0.6649
 3782SOL    HW222809   3.353   1.971  10.993  1.0943 -1.3206 -1.6599
 3783SOL     OW22810   3.092   3.373  14.904  0.1243 -0.2437  0.0636
 3783SOL    HW122811   3.027   3.370  14.834 -0.5526 -3.7406  0.8660
 3783SOL    HW222812   3.130   3.461  14.896 -0.1800 -0.3066 -1.9889
 3784SOL     OW22813   4.137   1.382   1.733  0.3444 -0.6300 -0.0091
 3784SOL    HW122814   4.072   1.314   1.714  0.8618 -0.8901 -0.8513
 3784SOL    HW222815   4.121   1.432   1.653  2.5627 -1.2152 -0.8353
 3785SOL     OW22816   1.079   3.450  16.158 -0.2813 -0.2249  0.4006
 3785SOL    HW122817   1.029   3.422  16.081 -1.1562  0.6353  0.6586
 3785SOL    HW222818   1.164   3.406  16.155  0.2723  0.9057 -0.2222
 3786SOL     OW22819   2.305   3.386  17.574  0.2230 -0.7026  0.0380
 3786SOL    HW122820   2.358   3.463  17.592 -2.5995  0.4897  3.3099
 3786SOL    HW222821   2.213   3.411  17.573  0.2312 -0.6171  2.1966
 3787SOL     OW22822   0.143   0.866   2.110  0.2082  0.2997 -0.2185
 3787SOL    HW122823   0.231   0.892   2.081  0.1848 -0.8140 -1.2290
 3787SOL    HW222824   0.170   0.795   2.169  1.1156  0.9395  0.1367
 3788SOL     OW22825   1.355   4.702   9.282  0.1038 -0.1575  0.6014
 3788SOL    HW122826   1.447   4.684   9.303 -0.5664 -1.8031  2.0708
 3788SOL    HW222827   1.348   0.055   9.340  1.2684  1.2773 -1.1287
 3789SOL     OW22828   2.012   1.657   7.582  0.2759  0.6004 -0.6232
 3789SOL    HW122829   1.921   1.641   7.607  0.1852  1.3961 -0.4381
 3789SOL    HW222830   2.017   1.593   7.511  0.1275 -0.9286  0.7325
 3790SOL     OW22831   4.443   0.892  12.507 -0.2272 -0.0399  0.4484
 3790SOL    HW122832   4.362   0.929  12.473  0.8458  2.1734  0.3338
 3790SOL    HW222833   4.511   0.956  12.486  1.2986 -1.3514  1.3712
 3791SOL     OW22834   3.524   2.957  10.573 -0.0423  0.3874 -0.2396
 3791SOL    HW122835   3.433   2.945  10.601  0.2822  0.1862  0.7453
 3791SOL    HW222836   3.537   3.048  10.598 -2.8882  0.2542  1.7774
 3792SOL     OW22837   1.302   2.692   7.633  0.1570  0.3091 -0.2084
 3792SOL    HW122838   1.295   2.597   7.630 -2.7736  0.4603  2.2595
 3792SOL    HW222839   1.267   2.708   7.721 -2.1345 -0.1494 -1.0279
 3793SOL     OW22840   1.425   2.882  10.247  0.3628  0.4706 -0.0539
 3793SOL    HW122841   1.444   2.834  10.166 -1.0218  0.7668 -0.5478
 3793SOL    HW222842   1.439   2.803  10.300 -1.0121  1.5077  1.8308
 3794SOL     OW22843   1.266   0.120   3.422 -0.3969 -0.2298 -0.1104
 3794SOL    HW122844   1.300   0.193   3.371  1.0883 -0.1406  0.9888
 3794SOL    HW222845   1.225   0.168   3.494 -0.8407 -0.7038 -0.0479
 3795SOL     OW22846   0.984   3.743   9.263 -0.9162 -0.4068  0.1652
 3795SOL    HW122847   0.938   3.693   9.196 -2.7592  2.6808 -0.8977
 3795SOL    HW222848   1.070   3.701   9.261 -0.1375  1.2048 -0.1986
 3796SOL     OW22849   3.491   4.646   6.847  0.3476  0.2635  0.1636
 3796SOL    HW122850   3.560   4.591   6.811 -0.5052 -2.1067  2.2000
 3796SOL    HW222851   3.453   4.681   6.766  0.1914 -0.7965 -0.2155
 3797SOL     OW22852   0.687   1.828  14.318  0.1901  0.5678 -0.8069
 3797SOL    HW122853   0.620   1.845  14.385 -0.1210 -1.0299 -0.7072
 3797SOL    HW222854   0.682   1.732  14.321 -2.0090  0.7781  2.2094
 3798SOL     OW22855   0.163   1.318   2.084 -0.6582  0.6488 -0.3014
 3798SOL    HW122856   0.198   1.243   2.035 -1.8983 -1.5412  2.1558
 3798SOL    HW222857   0.109   1.275   2.151 -0.5998  1.2285  0.1199
 3799SOL     OW22858   2.532   0.183  10.033  0.0809 -0.0211  0.5451
 3799SOL    HW122859   2.446   0.142  10.046  0.4306 -0.4721  1.4558
 3799SOL    HW222860   2.525   0.259  10.089 -1.0580  2.4247 -2.9409
 3800SOL     OW22861   2.183   0.284   9.647  0.0243  0.0100  0.0354
 3800SOL    HW122862   2.174   0.259   9.555 -1.0916  0.3040  0.0741
 3800SOL    HW222863   2.265   0.236   9.657 -1.4481 -2.3189  0.8763
 3801SOL     OW22864   1.578   2.801   2.156 -0.0607  0.2027 -0.2402
 3801SOL    HW122865   1.670   2.790   2.182  0.1867  1.9466 -0.3801
 3801SOL    HW222866   1.580   2.765   2.068  2.0869 -0.1917 -0.0379
 3802SOL     OW22867   0.452   3.388   3.732 -0.2845 -0.4999 -0.3422
 3802SOL    HW122868   0.365   3.414   3.702 -0.3407  2.1022  2.0015
 3802SOL    HW222869   0.490   3.342   3.657 -3.2632 -0.8843 -1.6258
 3803SOL     OW22870   1.135   4.523   1.043  0.3100  0.1129 -0.3011
 3803SOL    HW122871   1.226   4.526   1.014  0.5279  1.2375  0.5027
 3803SOL    HW222872   1.138   4.582   1.119  0.7098  0.7795 -0.8320
 3804SOL     OW22873   4.206   0.957   6.985 -0.3461  0.7061 -0.5805
 3804SOL    HW122874   4.164   0.926   7.065 -1.3781  1.6183 -0.7674
 3804SOL    HW222875   4.228   1.041   7.025 -0.3530  0.6693 -0.4990
 3805SOL     OW22876   1.496   2.749   2.578 -0.3201  0.0687  0.1801
 3805SOL    HW122877   1.494   2.670   2.631 -4.6897  0.8142  1.1341
 3805SOL    HW222878   1.486   2.719   2.487 -0.3974 -0.9677  0.5365
 3806SOL     OW22879   1.967   0.894   8.007  0.1078 -0.5121 -0.2158
 3806SOL    HW122880   2.055   0.879   7.972  0.2217 -1.0690  0.3271
 3806SOL    HW222881   1.928   0.809   7.989 -2.0428  0.4151  0.0222
 3807SOL     OW22882   2.831   2.561   3.939  0.0921 -0.1038  0.0106
 3807SOL    HW122883   2.820   2.468   3.959  0.0960 -0.3692 -1.1763
 3807SOL    HW222884   2.770   2.595   4.004 -0.4998  0.2127 -0.7020
 3808SOL     OW22885   2.422   2.950   4.914 -0.2246  0.0923 -0.3224
 3808SOL    HW122886   2.368   2.947   4.993 -1.0148 -1.0369 -0.9127
 3808SOL    HW222887   2.504   2.912   4.944 -0.5557  0.3428  0.9154
 3809SOL     OW22888   0.301   3.278   1.767 -0.2024 -0.3713 -0.0006
 3809SOL    HW122889   0.263   3.211   1.823 -2.0444 -1.0981 -2.1156
 3809SOL    HW222890   0.233   3.280   1.699  0.7754 -0.7355 -0.9955
 3810SOL     OW22891   0.641   3.001   6.434 -0.0645 -0.2787 -0.1909
 3810SOL    HW122892   0.576   3.043   6.490 -0.1505 -1.0283  0.2695
 3810SOL    HW222893   0.650   2.913   6.468 -2.0757 -0.1076  0.8164
 3811SOL     OW22894   2.934   2.679   3.709  0.6621 -0.2347  0.3875
 3811SOL    HW122895   2.913   2.672   3.802  2.6966  1.0770  0.9447
 3811SOL    HW222896   2.946   2.586   3.692  1.3576  0.0374 -0.6015
 3812SOL     OW22897   0.210   1.449   6.272 -0.1072 -0.4713  0.5881
 3812SOL    HW122898   0.226   1.384   6.204 -1.3020  1.9328 -2.0105
 3812SOL    HW222899   0.143   1.507   6.235  0.3032  0.8332  1.8757
 3813SOL     OW22900   3.235   4.520   7.310  0.5861  0.0313 -0.2398
 3813SOL    HW122901   3.283   4.603   7.317  0.9854 -0.2897  0.7983
 3813SOL    HW222902   3.238   4.491   7.401  1.0263 -0.0972 -0.2965
 3814SOL     OW22903   0.524   0.180   2.905 -0.0190  0.3759 -0.6471
 3814SOL    HW122904   0.481   0.231   2.837  0.8466 -0.3854 -1.7753
 3814SOL    HW222905   0.538   0.094   2.865 -1.7675  0.0925 -0.6537
 3815SOL     OW22906   0.997   2.605  14.949 -0.1292 -0.0701  0.8735
 3815SOL    HW122907   1.088   2.622  14.974 -0.0559 -1.1061  1.3338
 3815SOL    HW222908   0.960   2.568  15.029  2.0141  1.0441  2.3610
 3816SOL     OW22909   4.382   0.740   2.021  0.7269 -0.1271  0.1501
 3816SOL    HW122910   4.466   0.699   2.000 -1.1544 -3.7228 -0.4095
 3816SOL    HW222911   4.425   0.825   2.031 -1.0174  0.7984 -0.2041
 3817SOL     OW22912   2.866   3.243   4.456 -0.1907  0.0805  0.1177
 3817SOL    HW122913   2.912   3.162   4.436  0.2131 -0.5191  3.3700
 3817SOL    HW222914   2.823   3.206   4.533  0.5655 -0.6392  0.1971
 3818SOL     OW22915   1.529   0.180   8.567 -0.6566  0.2596 -0.3889
 3818SOL    HW122916   1.624   0.184   8.566 -0.5622 -1.5470  0.8846
 3818SOL    HW222917   1.512   0.251   8.628  0.6541  0.7590 -0.6086
 3819SOL     OW22918   3.701   0.597  15.398  0.0864  0.6406 -0.2944
 3819SOL    HW122919   3.692   0.688  15.428  2.5415  0.5303  0.7776
 3819SOL    HW222920   3.638   0.552  15.453 -0.3402  1.8611  0.2118
 3820SOL     OW22921   2.616   3.073   4.285 -0.7741 -0.5207  0.1993
 3820SOL    HW122922   2.706   3.105   4.285 -1.2622  0.8595 -1.8429
 3820SOL    HW222923   2.627   3.000   4.224  1.4671 -0.9316  1.1050
 3821SOL     OW22924   3.149   2.911   5.779 -0.1392  0.4639 -0.8711
 3821SOL    HW122925   3.083   2.981   5.781 -1.9963 -1.3202 -0.2045
 3821SOL    HW222926   3.228   2.953   5.745  0.2307 -0.2387 -0.8737
 3822SOL     OW22927   0.476   3.847   6.861 -0.2011 -0.1698 -0.1730
 3822SOL    HW122928   0.532   3.875   6.933 -0.8961 -0.4849  0.4946
 3822SOL    HW222929   0.415   3.781   6.894 -1.1513  0.3214 -0.9756
 3823SOL     OW22930   2.645   3.043   0.903  0.4277  0.8444  0.1776
 3823SOL    HW122931   2.574   3.088   0.857 -0.3752 -0.9034 -0.3034
 3823SOL    HW222932   2.621   3.067   0.992  0.5295 -1.0878  0.7178
 3824SOL     OW22933   0.001   4.292   5.125 -0.1771 -0.0547  0.2101
 3824SOL    HW122934   4.703   4.331   5.041  3.0758  0.3958 -0.3710
 3824SOL    HW222935   4.639   4.261   5.157 -0.4532 -2.4798 -2.8124
 3825SOL     OW22936   2.236   2.352   7.365  0.5104  0.2608  0.6112
 3825SOL    HW122937   2.143   2.334   7.353  0.7884 -0.1813 -0.8775
 3825SOL    HW222938   2.276   2.265   7.361 -0.6581 -0.3515  2.1614
 3826SOL     OW22939   4.093   1.459   6.896  0.3828 -0.1413  0.0095
 3826SOL    HW122940   4.021   1.397   6.881  0.7159 -0.5751  0.2311
 3826SOL    HW222941   4.041   1.528   6.938 -0.4567  0.6982 -2.3951
 3827SOL     OW22942   2.350   1.261   6.071  0.2179 -0.2187  0.0126
 3827SOL    HW122943   2.277   1.201   6.062  1.5349 -1.4746 -2.4303
 3827SOL    HW222944   2.352   1.295   5.981 -3.0695 -1.5942 -0.5615
 3828SOL     OW22945   1.891   1.460  12.349  0.4267 -0.0774 -0.6858
 3828SOL    HW122946   1.796   1.452  12.342  0.5090 -0.0420 -1.9425
 3828SOL    HW222947   1.910   1.548  12.319 -0.2505 -0.0833 -1.1184
 3829SOL     OW22948   3.874   3.196   7.306  0.0072 -0.0684 -0.3670
 3829SOL    HW122949   3.957   3.185   7.351 -0.6939  1.4126  1.2735
 3829SOL    HW222950   3.874   3.282   7.264  0.1559  0.0672 -0.0928
 3830SOL     OW22951   3.918   1.634   8.314  0.2729 -0.1962 -0.5938
 3830SOL    HW122952   3.837   1.604   8.356  3.0997 -0.1523  4.8834
 3830SOL    HW222953   3.877   1.709   8.270  0.5826 -0.4452 -1.3132
 3831SOL     OW22954   0.339   1.122   5.583 -0.8566 -0.0642 -0.0947
 3831SOL    HW122955   0.425   1.162   5.574 -1.1394  0.0603 -2.3597
 3831SOL    HW222956   0.284   1.183   5.533  1.0079  0.0125 -2.0748
 3832SOL     OW22957   1.868   2.235   5.821  0.2010  0.1026  0.4977
 3832SOL    HW122958   1.923   2.250   5.744 -0.6347 -3.7106 -0.8780
 3832SOL    HW222959   1.785   2.235   5.774  0.3634  0.9919  0.2128
 3833SOL     OW22960   0.491   2.534  15.098  0.6772  0.5300  0.3189
 3833SOL    HW122961   0.439   2.453  15.100  1.2814  0.1437  0.1149
 3833SOL    HW222962   0.467   2.568  15.012 -0.3262  1.9109  1.1592
 3834SOL     OW22963   1.620   2.753  17.089  0.2852 -0.0933 -0.2153
 3834SOL    HW122964   1.558   2.751  17.161 -0.8965  1.9672 -1.1912
 3834SOL    HW222965   1.664   2.837  17.102 -0.1977 -0.0761  1.2582
 3835SOL     OW22966   3.504   3.688   8.323 -0.4530 -0.1937  0.0216
 3835SOL    HW122967   3.551   3.718   8.246 -1.9140 -1.3669 -1.3264
 3835SOL    HW222968   3.565   3.698   8.396 -1.1927  1.0145  0.4645
 3836SOL     OW22969   4.158   1.317   0.913 -0.9730 -0.3645 -0.2314
 3836SOL    HW122970   4.153   1.393   0.970  1.3674  0.7574 -1.5298
 3836SOL    HW222971   4.073   1.277   0.932 -0.8487  0.1237  1.3037
 3837SOL     OW22972   1.953   3.733   6.669  0.1712  0.1611  0.8500
 3837SOL    HW122973   1.929   3.816   6.712 -1.0956  0.5237 -0.5843
 3837SOL    HW222974   1.891   3.732   6.597 -0.4602 -0.4545  1.4016
 3838SOL     OW22975   0.537   4.439  14.093  0.0881 -0.2300  0.0960
 3838SOL    HW122976   0.578   4.407  14.012 -2.8924 -1.0213 -1.1010
 3838SOL    HW222977   0.446   4.444  14.062 -0.1064  3.1291  1.2473
 3839SOL     OW22978   0.409   4.336   5.234 -0.3360 -0.3365  0.2217
 3839SOL    HW122979   0.394   4.419   5.188  1.6518  0.8673  1.7613
 3839SOL    HW222980   0.467   4.288   5.175 -1.1264 -1.2189  0.1508
 3840SOL     OW22981   0.924   1.524   6.714  0.3283 -0.2684  0.0926
 3840SOL    HW122982   0.883   1.495   6.633 -1.7821  0.4150  0.9049
 3840SOL    HW222983   0.862   1.589   6.748 -0.6287 -1.2028  0.1352
 3841SOL     OW22984   1.944   3.274   7.483  0.1063  0.3589  0.2694
 3841SOL    HW122985   1.987   3.206   7.535 -0.5511 -1.3143 -1.4021
 3841SOL    HW222986   1.905   3.225   7.412 -1.1847 -0.7816  1.7645
 3842SOL     OW22987   1.802   0.698  11.836  0.0379 -0.9430 -0.0787
 3842SOL    HW122988   1.759   0.623  11.876 -1.6528 -0.3916 -0.8529
 3842SOL    HW222989   1.793   0.767  11.902  2.3183  0.5651 -1.3182
 3843SOL     OW22990   0.522   0.571   2.860  0.0520 -0.0911  0.8290
 3843SOL    HW122991   0.495   0.495   2.810 -1.1637  0.3606  0.7976
 3843SOL    HW222992   0.522   0.532   2.947  2.3455 -0.9587  0.4361
 3844SOL     OW22993   2.524   0.968   5.252  0.1071 -0.0434 -0.3431
 3844SOL    HW122994   2.547   1.057   5.223 -0.3738  0.1114 -0.2453
 3844SOL    HW222995   2.455   0.978   5.317  1.1579  3.2733  0.3077
 3845SOL     OW22996   3.158   3.631  14.854  0.3515 -0.2246 -0.1527
 3845SOL    HW122997   3.128   3.716  14.889 -2.3046 -1.4900  0.6573
 3845SOL    HW222998   3.252   3.640  14.867  0.4826 -1.8748  0.0060
 3846SOL     OW22999   3.405   0.697  17.079  0.1101 -0.7882  0.4335
 3846SOL    HW123000   3.365   0.754  17.013  3.3277  0.9421 -0.0286
 3846SOL    HW223001   3.410   0.756  17.154 -1.3825 -1.0859  0.7651
 3847SOL     OW23002   0.582   0.419  11.977  0.0717 -0.1262  0.0216
 3847SOL    HW123003   0.556   0.469  11.899 -1.5995  0.8895  1.2388
 3847SOL    HW223004   0.605   0.489  12.038 -1.9280  1.3816 -0.9678
 3848SOL     OW23005   1.982   3.171   8.828  0.1056  0.1487 -0.3798
 3848SOL    HW123006   2.020   3.159   8.742 -3.7335  0.1590 -2.0858
 3848SOL    HW223007   1.887   3.185   8.822 -0.2122 -1.9479 -0.1690
 3849SOL     OW23008   4.485   0.284  17.001 -0.5301 -0.2443 -1.1194
 3849SOL    HW123009   4.489   0.200  16.955 -0.0592  0.1523 -1.8085
 3849SOL    HW223010   4.391   0.300  17.004 -0.1227  2.1133 -0.9360
 3850SOL     OW23011   0.300   2.201   4.568  0.1981  0.8428 -0.2171
 3850SOL    HW123012   0.369   2.221   4.505 -0.4604 -1.8970 -1.8177
 3850SOL    HW223013   0.235   2.271   4.558  0.0786  0.8194  0.3706
 3851SOL     OW23014   2.576   0.156  13.194 -0.0400 -0.5622 -0.0364
 3851SOL    HW123015   2.496   0.169  13.142 -0.9997  0.4691  1.6745
 3851SOL    HW223016   2.620   0.080  13.157 -1.0710 -0.2501 -1.9056
 3852SOL     OW23017   3.310   1.266  17.601  0.0620  0.8001  0.2615
 3852SOL    HW123018   3.336   1.219  17.680  0.6496 -0.7996 -0.8783
 3852SOL    HW223019   3.369   1.340  17.619  0.2178  0.5602  0.7386
 3853SOL     OW23020   0.588   0.284  16.829 -0.2691 -0.4400  0.6350
 3853SOL    HW123021   0.558   0.282  16.920 -0.4229 -4.5623  0.5158
 3853SOL    HW223022   0.624   0.195  16.822 -0.2396 -0.3665 -0.1165
 3854SOL     OW23023   3.382   0.105  17.133 -0.2015  0.2904 -0.6932
 3854SOL    HW123024   3.352   0.188  17.170  1.4231  0.9612 -0.8744
 3854SOL    HW223025   3.405   0.126  17.042  0.5948  2.5013  0.0255
 3855SOL     OW23026   0.923   4.364  11.242 -0.1882 -0.0293  0.6471
 3855SOL    HW123027   1.000   4.419  11.255 -0.7773  0.5678  1.5884
 3855SOL    HW223028   0.899   4.390  11.154 -2.1049  2.5104  1.9199
 3856SOL     OW23029   0.716   3.830   3.170 -0.0025 -0.1907 -0.7781
 3856SOL    HW123030   0.722   3.763   3.102  0.8633 -2.8493  1.9516
 3856SOL    HW223031   0.802   3.872   3.163  0.7962 -0.9994  3.8957
 3857SOL     OW23032   2.344   2.517  10.204  0.6536 -0.7710 -0.0577
 3857SOL    HW123033   2.358   2.444  10.144  1.7458 -2.1751  1.8984
 3857SOL    HW223034   2.249   2.508  10.213  0.6551  0.1550  0.8875
 3858SOL     OW23035   2.114   1.802   2.678  0.1395 -0.1191  0.3392
 3858SOL    HW123036   2.082   1.712   2.674 -2.3543  0.8176 -0.8153
 3858SOL    HW223037   2.057   1.830   2.750 -0.3137 -1.2330  0.4177
 3859SOL     OW23038   1.025   2.445   4.782 -0.1730 -0.3284  0.0788
 3859SOL    HW123039   0.990   2.376   4.726  0.4576 -0.2985 -0.3512
 3859SOL    HW223040   0.997   2.401   4.862  0.4880  1.2155  1.1427
 3860SOL     OW23041   3.251   4.219   5.361 -0.1183 -0.0243  0.0042
 3860SOL    HW123042   3.177   4.279   5.369  2.1224  2.7848 -0.3508
 3860SOL    HW223043   3.323   4.277   5.338 -1.1678  1.2967  0.0273
 3861SOL     OW23044   0.746   4.321   1.910  0.3893  0.4670 -0.1735
 3861SOL    HW123045   0.827   4.347   1.866  0.2814  1.2188  0.0754
 3861SOL    HW223046   0.786   4.259   1.971  0.8411 -0.6243 -1.5809
 3862SOL     OW23047   2.444   3.253   6.668  0.1152  0.2186 -0.2355
 3862SOL    HW123048   2.436   3.274   6.575 -3.6736 -1.2070 -0.2309
 3862SOL    HW223049   2.507   3.183   6.652  0.1317  0.0104  0.7192
 3863SOL     OW23050   3.794   0.897   7.540 -0.3945 -0.0548 -0.0112
 3863SOL    HW123051   3.731   0.967   7.522  0.2578  0.4703 -0.2183
 3863SOL    HW223052   3.749   0.857   7.615 -0.8193  0.8874  0.2409
 3864SOL     OW23053   4.251   2.913   3.523  0.3082  0.0446  0.3024
 3864SOL    HW123054   4.267   2.994   3.572  1.6066 -0.0842  0.0826
 3864SOL    HW223055   4.330   2.862   3.541  0.3937 -0.6298 -2.0542
 3865SOL     OW23056   2.518   2.418   7.744  0.1652  0.4371  0.7257
 3865SOL    HW123057   2.547   2.491   7.799  0.8659  0.5852  0.1660
 3865SOL    HW223058   2.545   2.342   7.797  0.2858 -0.2074 -0.2641
 3866SOL     OW23059   1.708   2.882   3.662 -0.1132 -0.3280  0.2901
 3866SOL    HW123060   1.762   2.894   3.584 -0.1263  1.4180  0.5346
 3866SOL    HW223061   1.762   2.907   3.737  0.1171 -2.0210  0.6822
 3867SOL     OW23062   1.604   3.671   4.261  0.0160  0.5992  0.3394
 3867SOL    HW123063   1.611   3.762   4.230 -0.3607  1.1729  1.9628
 3867SOL    HW223064   1.588   3.610   4.189 -1.7369  0.3710  0.9348
 3868SOL     OW23065   1.159   4.276   3.665  0.1561 -0.1976 -0.8743
 3868SOL    HW123066   1.108   4.356   3.681 -0.1120 -1.2045  3.4028
 3868SOL    HW223067   1.121   4.241   3.584  0.3543 -0.1426 -0.9904
 3869SOL     OW23068   4.426   4.307  14.313  0.0042  0.4692  0.1895
 3869SOL    HW123069   4.355   4.245  14.295  0.6621 -0.2787  0.1398
 3869SOL    HW223070   4.407   4.357  14.234  1.6866 -0.9921 -1.1141
 3870SOL     OW23071   2.372   0.021   4.444 -0.1902 -0.0621 -0.5421
 3870SOL    HW123072   2.385   0.076   4.367 -3.0185  1.4709  0.0704
 3870SOL    HW223073   2.457   0.038   4.483 -0.4238  1.7680 -0.8158
 3871SOL     OW23074   2.396   1.030  15.741 -0.5638 -0.8009  0.0814
 3871SOL    HW123075   2.382   0.983  15.659 -0.2588 -2.8941  1.2358
 3871SOL    HW223076   2.422   0.958  15.797 -0.8969 -0.0576  1.1789
 3872SOL     OW23077   4.542   3.677   2.131 -0.3144 -0.0682  0.5058
 3872SOL    HW123078   4.539   3.652   2.038  1.3034 -0.9462  0.6891
 3872SOL    HW223079   4.616   3.620   2.152 -0.0072 -0.5549 -1.8532
 3873SOL     OW23080   0.800   0.305   1.266  0.0362  0.2383 -0.1756
 3873SOL    HW123081   0.773   0.318   1.175  1.5675  0.4725 -0.5923
 3873SOL    HW223082   0.780   0.386   1.313  0.8138  0.2407  0.1379
 3874SOL     OW23083   0.866   1.888   7.776 -0.2573  0.1753  0.6391
 3874SOL    HW123084   0.889   1.810   7.725  3.6282  0.4438  1.9504
 3874SOL    HW223085   0.825   1.946   7.712 -0.7612  0.7829  1.5170
 3875SOL     OW23086   2.847   1.997   5.746 -0.2002 -0.3234 -0.7268
 3875SOL    HW123087   2.844   1.901   5.748 -0.6494 -0.3327 -2.9703
 3875SOL    HW223088   2.909   2.020   5.816  1.5944 -1.0734 -2.0541
 3876SOL     OW23089   1.390   3.025   4.659 -0.3504  0.3370 -0.2232
 3876SOL    HW123090   1.334   2.966   4.609  1.8383 -0.8607 -1.2713
 3876SOL    HW223091   1.470   2.974   4.669 -1.0093 -0.7977 -0.7705
 3877SOL     OW23092   3.624   1.492  16.260 -0.2672 -0.2922  0.6194
 3877SOL    HW123093   3.703   1.479  16.207 -1.1488 -0.0099 -0.7598
 3877SOL    HW223094   3.668   1.510  16.343  0.1207 -2.1449  0.8085
 3878SOL     OW23095   1.960   3.821  17.213  0.3623  0.4586 -0.2708
 3878SOL    HW123096   1.903   3.762  17.262  1.0344 -1.2791 -1.5599
 3878SOL    HW223097   1.914   3.904  17.225  0.4987  0.6406 -0.9983
 3879SOL     OW23098   0.538   2.240   7.531 -0.2202 -0.1298 -0.4316
 3879SOL    HW123099   0.591   2.213   7.456 -0.4179  0.4682 -0.7857
 3879SOL    HW223100   0.589   2.312   7.568 -1.1720  0.4500 -0.2410
 3880SOL     OW23101   2.431   3.876   4.724  0.1076 -0.4515  0.0066
 3880SOL    HW123102   2.456   3.819   4.651  1.2228  0.4340 -0.3069
 3880SOL    HW223103   2.380   3.816   4.778  1.8775 -1.5163  0.5218
 3881SOL     OW23104   3.655   4.654  17.106  0.3762  0.2145 -0.1555
 3881SOL    HW123105   3.626   4.660  17.015 -0.9671  0.0536  0.2762
 3881SOL    HW223106   3.572   4.641  17.150  0.9066 -1.4752  0.3329
 3882SOL     OW23107   4.014   4.301   7.355 -0.5724 -0.4695  0.2766
 3882SOL    HW123108   4.065   4.381   7.367  0.2729 -0.8217 -0.9819
 3882SOL    HW223109   3.962   4.300   7.436  0.4783 -0.6354  0.9547
 3883SOL     OW23110   3.891   3.335   2.332  0.2999 -0.4499  0.1663
 3883SOL    HW123111   3.795   3.343   2.334  0.2505 -0.9504 -0.3652
 3883SOL    HW223112   3.905   3.265   2.396  0.8012 -0.3410  0.1792
 3884SOL     OW23113   3.839   0.177  12.827 -0.0408  0.2907  0.4686
 3884SOL    HW123114   3.893   0.252  12.851  1.3977 -0.0588 -1.6968
 3884SOL    HW223115   3.902   0.118  12.787 -1.1057  1.0982 -2.3838
 3885SOL     OW23116   2.434   0.574   4.932  0.1747 -0.1741  0.7805
 3885SOL    HW123117   2.417   0.483   4.957  3.0896 -0.5141  1.4667
 3885SOL    HW223118   2.371   0.626   4.981 -0.1644 -0.2371  0.4200
 3886SOL     OW23119   0.180   2.424   3.789 -0.6917 -0.4155 -0.5017
 3886SOL    HW123120   0.139   2.358   3.845  0.2312  0.1838  0.8893
 3886SOL    HW223121   0.273   2.400   3.788  0.1683  2.9163 -0.3566
 3887SOL     OW23122   1.137   4.049  16.935 -0.0962  0.2968  0.0913
 3887SOL    HW123123   1.077   4.067  16.863 -0.8967 -1.3920  0.3368
 3887SOL    HW223124   1.065   4.010  16.985 -1.0913  2.4456  0.3350
 3888SOL     OW23125   2.463   0.624   3.414 -0.2696 -0.0711 -0.8610
 3888SOL    HW123126   2.474   0.565   3.488  1.2500  1.6389  0.2885
 3888SOL    HW223127   2.399   0.574   3.364 -0.0045 -0.6487 -0.6157
 3889SOL     OW23128   2.097   3.447  11.896  0.1074  0.1405  0.2310
 3889SOL    HW123129   2.083   3.385  11.968  0.8255  2.0227  1.9889
 3889SOL    HW223130   2.061   3.402  11.819  1.5072 -0.2309 -0.2173
 3890SOL     OW23131   2.776   4.659   6.515 -0.4243 -0.3248 -0.4602
 3890SOL    HW123132   2.857   4.626   6.476 -0.6780  0.1976 -1.4253
 3890SOL    HW223133   2.711   4.631   6.451 -0.1966 -0.7789 -0.4963
 3891SOL     OW23134   1.032   1.972   4.743  0.0939  0.0589  0.0651
 3891SOL    HW123135   0.937   1.961   4.749  0.3810 -2.0355  0.6518
 3891SOL    HW223136   1.061   1.897   4.794  0.4286 -0.8355 -1.4341
 3892SOL     OW23137   0.907   3.957   7.324  0.0735 -0.5282  0.8406
 3892SOL    HW123138   0.964   4.033   7.336 -2.2412  1.3407 -0.0002
 3892SOL    HW223139   0.957   3.902   7.263  0.0254  0.6800 -0.3071
 3893SOL     OW23140   2.815   1.106   4.868 -0.0763 -0.9717  0.5882
 3893SOL    HW123141   2.900   1.105   4.911 -0.2465  0.0198  0.9446
 3893SOL    HW223142   2.827   1.053   4.789  0.7232 -0.1078  0.1298
 3894SOL     OW23143   0.472   0.917   6.059 -0.1688 -0.5236 -0.3608
 3894SOL    HW123144   0.395   0.864   6.038  0.2017 -0.6497 -1.3544
 3894SOL    HW223145   0.539   0.865   6.017 -0.3328  0.5173 -1.9157
 3895SOL     OW23146   0.453   4.248  10.925  0.0852 -0.3880 -0.2005
 3895SOL    HW123147   0.485   4.268  11.013  1.0491  0.7531 -0.8056
 3895SOL    HW223148   0.359   4.260  10.932  0.2649  0.3392  1.0674
 3896SOL     OW23149   0.047   0.662   7.793  0.3752  0.2632 -0.0265
 3896SOL    HW123150   0.041   0.698   7.704 -0.4949  1.9388  0.7200
 3896SOL    HW223151   0.114   0.595   7.781 -2.2127 -2.2790 -0.4019
 3897SOL     OW23152   1.091   2.804   1.990  0.2102 -0.4142  0.1312
 3897SOL    HW123153   1.049   2.762   1.914  0.4479 -0.6215  0.1152
 3897SOL    HW223154   1.064   2.893   1.967  1.9841 -0.2861 -1.5153
 3898SOL     OW23155   2.978   3.771   4.212 -0.2235 -0.3204 -0.3950
 3898SOL    HW123156   3.047   3.706   4.228  0.7998  0.5281 -1.3686
 3898SOL    HW223157   2.957   3.760   4.119 -0.8883 -2.0618 -0.0493
 3899SOL     OW23158   1.388   1.650   7.189 -0.5589  0.4524  0.7652
 3899SOL    HW123159   1.390   1.743   7.212 -0.2234  0.2607  1.5106
 3899SOL    HW223160   1.325   1.661   7.117  1.0096  0.4256 -0.6143
 3900SOL     OW23161   2.293   2.500  11.874  0.6450  0.4079  0.5680
 3900SOL    HW123162   2.359   2.569  11.872 -0.0245  1.0554  1.2030
 3900SOL    HW223163   2.348   2.428  11.904 -1.2107 -0.8722  0.9204
 3901SOL     OW23164   4.327   3.104   4.295  0.0351  0.3562  0.5881
 3901SOL    HW123165   4.291   3.114   4.383 -1.2467  1.8941 -0.1148
 3901SOL    HW223166   4.299   3.187   4.257 -1.5974 -0.8633 -0.8976
 3902SOL     OW23167   1.164   0.482   2.482 -0.1579  0.1972 -0.2145
 3902SOL    HW123168   1.246   0.531   2.485  0.1649 -0.1675 -3.2246
 3902SOL    HW223169   1.198   0.426   2.552 -0.6282  0.2369  0.0474
 3903SOL     OW23170   3.954   2.339   1.088  0.1370 -0.4107  0.1891
 3903SOL    HW123171   4.003   2.320   1.009  2.2899 -0.7275  1.6014
 3903SOL    HW223172   3.898   2.262   1.084 -1.0495  0.5166 -1.2908
 3904SOL     OW23173   4.543   3.679   6.559  0.0026 -0.1428 -0.0362
 3904SOL    HW123174   4.471   3.736   6.532  1.6562  2.1638  0.3994
 3904SOL    HW223175   4.582   3.652   6.475 -0.8649 -1.7584  0.0876
 3905SOL     OW23176   0.180   3.434   4.412  0.3872  0.0088  0.1495
 3905SOL    HW123177   0.259   3.454   4.462 -1.3661  3.3151  1.6176
 3905SOL    HW223178   0.202   3.347   4.379 -1.2257  0.4030 -1.9257
 3906SOL     OW23179   1.580   1.626   4.167 -0.0758 -0.5606  0.4202
 3906SOL    HW123180   1.569   1.614   4.072  2.2112  1.8176 -0.1396
 3906SOL    HW223181   1.593   1.535   4.192  2.1620 -0.5389 -0.6947
 3907SOL     OW23182   2.448   3.941   5.375  0.1183  0.0085  0.8476
 3907SOL    HW123183   2.434   3.922   5.467  1.5717 -1.1313  0.8299
 3907SOL    HW223184   2.516   4.007   5.390  2.2217 -2.1648  0.9110
 3908SOL     OW23185   0.265   1.741   7.735  0.0711 -0.2161  0.1685
 3908SOL    HW123186   0.262   1.648   7.712 -0.0980  0.0905 -1.0705
 3908SOL    HW223187   0.359   1.755   7.740 -0.0141  1.5383 -3.2070
 3909SOL     OW23188   0.028   1.969   3.122  0.0435  0.2389 -0.4070
 3909SOL    HW123189   4.715   2.033   3.184 -3.9355 -0.9720 -1.5150
 3909SOL    HW223190   0.002   1.890   3.168  0.7408  0.3535  0.1827
 3910SOL     OW23191   1.074   3.769   8.826  0.2133 -0.1518 -0.4231
 3910SOL    HW123192   1.075   3.863   8.811  0.2865  0.0957  1.1499
 3910SOL    HW223193   1.135   3.729   8.764  1.8174  2.5534 -0.5604
 3911SOL     OW23194   3.020   1.919  15.898  0.2243 -0.0983 -0.3442
 3911SOL    HW123195   3.073   1.946  15.823 -0.4056  0.6659 -0.5189
 3911SOL    HW223196   2.934   1.951  15.873 -0.3825 -2.1059 -0.7969
 3912SOL     OW23197   2.357   1.645   4.472  0.0657  0.0013 -0.0879
 3912SOL    HW123198   2.355   1.559   4.513 -0.6096 -1.3887 -3.0264
 3912SOL    HW223199   2.280   1.633   4.417 -1.2949 -0.8060  2.0452
 3913SOL     OW23200   2.729   3.308  12.900  0.2711  0.3894  0.5052
 3913SOL    HW123201   2.751   3.319  12.993  1.1007 -0.8623  0.4735
 3913SOL    HW223202   2.696   3.219  12.888 -0.0087  0.7668 -1.3950
 3914SOL     OW23203   2.823   4.513   7.862 -0.3156 -0.4529 -0.2080
 3914SOL    HW123204   2.820   4.571   7.938  1.1657  0.4277 -0.8099
 3914SOL    HW223205   2.755   4.453   7.893 -0.2923 -0.3253  0.0903
 3915SOL     OW23206   0.177   3.957   0.585 -0.3353  0.3132 -0.0749
 3915SOL    HW123207   0.250   3.901   0.561  0.0591  0.9514 -0.3538
 3915SOL    HW223208   0.151   3.914   0.667  0.3318 -0.3290 -0.2013
 3916SOL     OW23209   3.091   1.768  11.097 -0.1567  0.5762  0.2190
 3916SOL    HW123210   3.162   1.703  11.103  0.2553  1.0255  0.1885
 3916SOL    HW223211   3.131   1.853  11.080 -1.8430  0.9190 -1.9249
 3917SOL     OW23212   3.108   1.303  12.724  0.2047  0.0067  0.7354
 3917SOL    HW123213   3.048   1.248  12.673  1.6714 -0.9788  0.0469
 3917SOL    HW223214   3.164   1.248  12.779  1.8524  0.4842 -0.4532
 3918SOL     OW23215   3.052   0.447   6.523 -0.4330 -0.1767 -0.2033
 3918SOL    HW123216   3.119   0.405   6.469 -0.1025 -2.0875  1.6956
 3918SOL    HW223217   3.095   0.467   6.606 -2.3857  0.0229  0.7599
 3919SOL     OW23218   0.996   3.833  16.768 -0.4412  0.1661 -0.3416
 3919SOL    HW123219   1.051   3.784  16.829  1.3632  0.8693 -1.4048
 3919SOL    HW223220   1.047   3.819  16.688 -0.8233  3.1215 -1.0859
 3920SOL     OW23221   4.500   1.538  14.359  0.3246 -0.8260 -0.5391
 3920SOL    HW123222   4.515   1.571  14.270  1.6491 -0.5593 -0.2054
 3920SOL    HW223223   4.588   1.544  14.394  0.5880  0.4238 -1.4372
 3921SOL     OW23224   1.760   0.669   3.204 -0.7433  0.1353  1.0181
 3921SOL    HW123225   1.824   0.659   3.274 -1.1572  0.1951  1.4035
 3921SOL    HW223226   1.691   0.623   3.251 -0.3917 -1.6649 -0.2286
 3922SOL     OW23227   1.863   3.009   0.031 -0.2666  0.4531 -0.0045
 3922SOL    HW123228   1.828   2.921   0.016 -0.0156  0.3925 -0.2376
 3922SOL    HW223229   1.846   3.042  17.636  0.4246  0.6921 -0.0499
 3923SOL     OW23230   4.353   4.670   4.522  0.0593  0.6160 -0.7129
 3923SOL    HW123231   4.301   4.720   4.585 -0.7110  1.2990 -1.8945
 3923SOL    HW223232   4.381   0.014   4.460  2.7155  0.7547  0.6590
 3924SOL     OW23233   1.483   2.409   7.018 -0.1345 -0.4221  0.0088
 3924SOL    HW123234   1.489   2.403   7.114 -0.3887 -0.0684  0.0477
 3924SOL    HW223235   1.388   2.422   7.011 -0.3425 -1.6152  0.5165
 3925SOL     OW23236   1.900   1.254   8.590 -0.3066  0.2215 -0.6878
 3925SOL    HW123237   1.821   1.225   8.636 -1.7925 -0.5576 -3.7181
 3925SOL    HW223238   1.881   1.288   8.502 -0.9201 -1.5486 -1.2482
 3926SOL     OW23239   0.908   4.535   3.873 -0.6894 -0.1712 -0.2164
 3926SOL    HW123240   0.867   4.487   3.801 -0.5963 -1.3410  0.5153
 3926SOL    HW223241   0.916   4.471   3.944 -0.4385  1.2196  1.0058
 3927SOL     OW23242   3.495   4.066   3.666 -0.2307  0.1220 -0.0824
 3927SOL    HW123243   3.405   4.096   3.657 -0.6369 -1.2834 -0.7268
 3927SOL    HW223244   3.530   4.147   3.630  0.1090  0.1537  0.3192
 3928SOL     OW23245   2.172   3.600   8.056 -0.0027 -0.1885  0.6462
 3928SOL    HW123246   2.199   3.548   8.132 -0.9092  3.9924  3.7979
 3928SOL    HW223247   2.247   3.608   7.997  1.4390 -0.1635  2.4780
 3929SOL     OW23248   3.375   2.380   6.905  0.8090  0.0230 -0.5563
 3929SOL    HW123249   3.315   2.454   6.902  0.2062 -0.4385  0.1264
 3929SOL    HW223250   3.334   2.315   6.848  0.4092 -1.2830  1.1934
 3930SOL     OW23251   3.669   3.966   8.656 -0.3255  0.6857  0.2968
 3930SOL    HW123252   3.745   3.985   8.711  1.6549  1.4249 -2.6796
 3930SOL    HW223253   3.685   4.038   8.595  1.2248 -1.4283 -1.8232
 3931SOL     OW23254   4.249   0.974   5.276 -0.0702 -0.3846  0.8166
 3931SOL    HW123255   4.233   1.060   5.315  0.2100 -0.6181  1.4454
 3931SOL    HW223256   4.336   0.966   5.315 -0.4045  0.8787  1.8363
 3932SOL     OW23257   3.796   2.891   0.873 -0.3980  0.4336 -0.0938
 3932SOL    HW123258   3.854   2.935   0.811 -0.4316  1.5462  0.6759
 3932SOL    HW223259   3.715   2.889   0.821 -1.2071 -1.3356  1.2446
 3933SOL     OW23260   2.158   1.888  17.551  0.4420  0.3376 -0.3899
 3933SOL    HW123261   2.100   1.819  17.585 -0.9736  1.1262 -1.1943
 3933SOL    HW223262   2.201   1.831  17.487  2.0476  2.0444 -0.7950
 3934SOL     OW23263   3.965   3.899   2.699 -0.6810 -0.2440 -0.2933
 3934SOL    HW123264   4.003   3.877   2.614 -0.7444  0.4054 -0.4836
 3934SOL    HW223265   3.887   3.843   2.703 -1.8028  1.3085 -0.3425
 3935SOL     OW23266   0.847   1.314  11.239 -0.4553 -0.1323 -0.5803
 3935SOL    HW123267   0.941   1.316  11.256 -0.3004 -0.3853 -1.4595
 3935SOL    HW223268   0.830   1.390  11.184  0.4924 -0.8550 -1.8716
 3936SOL     OW23269   0.048   1.607   6.088 -0.0324  0.1589  0.1374
 3936SOL    HW123270   0.117   1.569   6.035 -2.3936 -0.0238 -2.8246
 3936SOL    HW223271   0.062   1.699   6.068 -2.7372  0.5956  0.2218
 3937SOL     OW23272   4.425   2.980   1.888  0.3382  0.3829 -0.1295
 3937SOL    HW123273   4.480   3.054   1.915 -0.9245  1.5331 -0.6856
 3937SOL    HW223274   4.410   3.003   1.796  0.9280  0.1713 -0.2792
 3938SOL     OW23275   4.016   0.360   6.481  0.1404 -0.1884  0.5804
 3938SOL    HW123276   4.009   0.418   6.405 -1.0429 -0.1011  0.7609
 3938SOL    HW223277   3.941   0.305   6.459 -0.1260  0.0735  0.8360
 3939SOL     OW23278   3.938   3.324   0.860 -0.0228 -0.4050  0.3104
 3939SOL    HW123279   3.984   3.366   0.788  0.3035 -1.2788  0.0137
 3939SOL    HW223280   3.996   3.252   0.884 -0.2865 -0.8160 -0.3035
 3940SOL     OW23281   1.457   2.991   3.080 -0.2381 -0.5768 -0.0197
 3940SOL    HW123282   1.389   3.025   3.022  0.6401 -0.3414 -0.9214
 3940SOL    HW223283   1.488   2.920   3.025 -2.2504  0.1137 -2.0320
 3941SOL     OW23284   2.077   1.302   9.388 -0.2225  0.5320 -0.5758
 3941SOL    HW123285   2.058   1.209   9.404  2.6421 -0.1019 -0.8780
 3941SOL    HW223286   2.023   1.341   9.457 -0.1482 -1.9544  0.9077
 3942SOL     OW23287   1.576   0.362   9.061 -0.4403 -0.4980  0.5805
 3942SOL    HW123288   1.614   0.278   9.084  0.1207 -0.7162 -1.1512
 3942SOL    HW223289   1.483   0.342   9.068 -0.6219  0.2436  0.3139
 3943SOL     OW23290   2.141   3.045   6.928  0.4073  0.0252  0.0777
 3943SOL    HW123291   2.197   3.088   6.992 -0.0275 -0.1991  0.6145
 3943SOL    HW223292   2.088   3.118   6.895  0.9027  0.0106 -0.7609
 3944SOL     OW23293   1.390   0.624   7.429  0.0006  0.2652 -0.3016
 3944SOL    HW123294   1.305   0.653   7.396 -0.3634 -0.4187  0.0142
 3944SOL    HW223295   1.424   0.711   7.447 -1.2672  1.3149 -3.0727
 3945SOL     OW23296   1.275   0.630   3.989 -0.1753 -0.0213  0.7675
 3945SOL    HW123297   1.210   0.600   4.053 -1.0297 -1.6206 -0.8432
 3945SOL    HW223298   1.351   0.643   4.045 -0.0432 -0.8061  0.7754
 3946SOL     OW23299   2.877   3.924   5.402  0.3948  0.4682 -0.3603
 3946SOL    HW123300   2.869   3.997   5.463  1.6015 -1.6581  2.3251
 3946SOL    HW223301   2.931   3.961   5.332  2.4095 -1.6035  0.0943
 3947SOL     OW23302   0.161   2.093   9.175 -0.5053  0.1506 -0.5889
 3947SOL    HW123303   0.230   2.159   9.180  0.4990 -0.9219 -0.3660
 3947SOL    HW223304   0.085   2.144   9.145 -0.2166  1.0681  0.2348
 3948SOL     OW23305   3.770   0.471   2.755  0.0931 -0.3896 -0.7481
 3948SOL    HW123306   3.703   0.438   2.695 -0.1572  0.6030 -1.0121
 3948SOL    HW223307   3.842   0.410   2.743  0.6026 -0.3004  1.7369
 3949SOL     OW23308   2.338   3.532   3.037  0.1118  0.6644  0.3665
 3949SOL    HW123309   2.411   3.580   3.076  0.2957  0.1322  0.6842
 3949SOL    HW223310   2.292   3.609   3.005  0.6309  0.4997 -0.7935
 3950SOL     OW23311   1.518   0.505  16.643  0.2367  0.2598 -0.8021
 3950SOL    HW123312   1.541   0.598  16.638  0.0155  0.3798  0.5817
 3950SOL    HW223313   1.463   0.501  16.721  2.2404 -1.0262  0.5455
 3951SOL     OW23314   1.325   3.455   5.583  0.1588 -1.1865  0.3236
 3951SOL    HW123315   1.244   3.506   5.570 -0.4627 -2.1050  0.5752
 3951SOL    HW223316   1.345   3.423   5.495 -1.0940  0.7429 -0.6771
 3952SOL     OW23317   3.859   0.380   9.605  0.3479  0.2625 -0.1983
 3952SOL    HW123318   3.913   0.368   9.683 -0.5274 -0.9332  0.2226
 3952SOL    HW223319   3.919   0.360   9.533  1.8652  2.6256  0.4043
 3953SOL     OW23320   2.400   2.061   6.793  0.6197 -0.2954 -0.2437
 3953SOL    HW123321   2.346   2.114   6.734  1.7999 -0.0936 -1.1655
 3953SOL    HW223322   2.411   1.971   6.762  0.2376  0.3470 -2.2812
 3954SOL     OW23323   0.519   1.403   4.029  0.0305 -0.1013  0.2050
 3954SOL    HW123324   0.574   1.458   3.974 -0.5107  1.5595  1.3338
 3954SOL    HW223325   0.526   1.448   4.113  0.8995  1.4470 -0.7005
 3955SOL     OW23326   0.710   4.126   6.874  0.1457  0.5534  0.1116
 3955SOL    HW123327   0.689   4.205   6.824 -0.9696 -0.4375 -0.9715
 3955SOL    HW223328   0.624   4.099   6.906  0.7943 -2.1212 -0.4077
 3956SOL     OW23329   3.252   4.313   2.253  0.2362 -0.0545  0.1749
 3956SOL    HW123330   3.342   4.289   2.233  0.3201  0.5314 -0.1403
 3956SOL    HW223331   3.266   4.404   2.279  2.9581 -0.2699 -0.5927
 3957SOL     OW23332   4.118   2.706   1.800  0.4518 -0.2411  0.0400
 3957SOL    HW123333   4.053   2.742   1.739  1.0382 -0.7143 -0.8552
 3957SOL    HW223334   4.179   2.779   1.804 -0.3934  0.4618  0.0526
 3958SOL     OW23335   0.483   3.786   4.907  1.1797  0.6110 -0.1789
 3958SOL    HW123336   0.389   3.793   4.925  0.8144 -0.5660 -1.6278
 3958SOL    HW223337   0.486   3.692   4.890  0.5542  0.3834  0.9188
 3959SOL     OW23338   2.937   4.683   6.106  0.8409 -0.0236  0.7921
 3959SOL    HW123339   2.907   4.610   6.052  0.0281  0.3353  0.7605
 3959SOL    HW223340   2.937   4.641   6.191 -0.4848 -1.2050  0.2032
 3960SOL     OW23341   3.108   4.329  12.483  0.1651  0.1704  0.4922
 3960SOL    HW123342   3.177   4.380  12.441 -0.6875  2.3170  1.6723
 3960SOL    HW223343   3.052   4.302  12.411  0.0697 -0.2824  0.7334
 3961SOL     OW23344   2.657   2.697   9.030  0.1684  0.6188  0.3387
 3961SOL    HW123345   2.689   2.640   8.960 -0.6433 -1.0680  1.3215
 3961SOL    HW223346   2.735   2.737   9.069 -1.0514  1.7145  1.6307
 3962SOL     OW23347   1.753   4.314  13.874 -0.0237 -0.4474 -0.3534
 3962SOL    HW123348   1.708   4.234  13.901 -1.5298  1.4364  2.7860
 3962SOL    HW223349   1.687   4.384  13.871  2.4027  1.8777 -0.3479
 3963SOL     OW23350   3.705   3.097   8.621  0.7489 -0.2461 -0.2540
 3963SOL    HW123351   3.744   3.173   8.665  0.7089 -0.5522  0.3099
 3963SOL    HW223352   3.613   3.114   8.640  0.3846 -1.2321 -1.1240
 3964SOL     OW23353   4.603   0.580   5.855 -0.2867  0.1268  0.9157
 3964SOL    HW123354   4.660   0.641   5.808  1.4972 -1.5020  0.9566
 3964SOL    HW223355   4.661   0.533   5.914 -0.7267 -1.3747  0.1713
 3965SOL     OW23356   0.006   3.345   3.087  0.3141  0.2929 -0.2154
 3965SOL    HW123357   4.701   3.382   3.171  0.4619 -0.2615  0.0821
 3965SOL    HW223358   0.099   3.366   3.094 -0.6388  4.4690 -0.4511
 3966SOL     OW23359   0.083   4.149   4.073 -0.2680  0.3589  0.0324
 3966SOL    HW123360   0.034   4.192   4.002 -1.9300  0.1011  1.0246
 3966SOL    HW223361   0.155   4.116   4.018 -1.1976 -1.8955  0.1323
 3967SOL     OW23362   2.090   1.936   4.412 -0.3906  0.3419 -0.2462
 3967SOL    HW123363   2.015   1.876   4.408  1.0483 -1.4182 -1.0126
 3967SOL    HW223364   2.164   1.875   4.412 -0.6399  0.0501 -2.0652
 3968SOL     OW23365   1.424   0.431   8.639  0.2953  0.5872  0.2805
 3968SOL    HW123366   1.381   0.411   8.556  0.3358 -1.9773  0.8675
 3968SOL    HW223367   1.373   0.373   8.695  0.3078  1.4899  1.2112
 3969SOL     OW23368   4.380   1.856   2.640 -0.2300 -0.0664 -0.1946
 3969SOL    HW123369   4.430   1.929   2.604  1.3179  0.3055  2.6912
 3969SOL    HW223370   4.368   1.798   2.565  3.8306  0.4429 -1.2524
 3970SOL     OW23371   0.019   4.593   5.350 -0.5523  0.3757  0.5128
 3970SOL    HW123372   4.670   4.586   5.413 -2.4476 -0.9514 -1.7630
 3970SOL    HW223373   0.062   4.507   5.347  0.0478  0.7329 -1.1819
 3971SOL     OW23374   2.413   1.012  14.397 -0.0128 -0.2436 -0.5726
 3971SOL    HW123375   2.377   1.005  14.485  0.3929 -0.8378 -0.4531
 3971SOL    HW223376   2.424   0.919  14.374  1.4937 -0.5369  1.3815
 3972SOL     OW23377   4.681   2.551  12.465 -0.0372  0.3635  0.4655
 3972SOL    HW123378   4.709   2.461  12.483 -1.0914  0.1795  1.1928
 3972SOL    HW223379   4.703   2.560  12.373  1.1176  1.6180  0.8550
 3973SOL     OW23380   0.530   3.857   8.809 -0.0870  0.6295 -0.3229
 3973SOL    HW123381   0.498   3.886   8.724  0.5077  0.7829 -0.4934
 3973SOL    HW223382   0.569   3.773   8.787 -1.5840 -0.0191 -0.4747
 3974SOL     OW23383   1.358   0.275  14.177  0.3202  0.3973  1.1017
 3974SOL    HW123384   1.388   0.303  14.263  0.1930 -0.6936  1.5001
 3974SOL    HW223385   1.290   0.210  14.194 -1.5698  1.7775 -1.1100
 3975SOL     OW23386   1.053   4.153   4.739  0.7880 -0.1092  0.2386
 3975SOL    HW123387   1.105   4.096   4.682 -0.1800  1.0469 -1.7976
 3975SOL    HW223388   1.006   4.084   4.788  2.0265 -1.7117 -0.8523
 3976SOL     OW23389   0.693   2.763   7.073 -0.4819  0.1332 -0.2398
 3976SOL    HW123390   0.635   2.779   7.148 -1.1949 -0.5358 -0.6562
 3976SOL    HW223391   0.757   2.835   7.067 -1.2038  0.7066 -0.9921
 3977SOL     OW23392   2.275   2.480   3.082  0.1885  0.3101 -0.4201
 3977SOL    HW123393   2.219   2.552   3.111 -1.8971 -1.8591  0.9780
 3977SOL    HW223394   2.360   2.498   3.121 -0.6361  1.7394  0.6975
 3978SOL     OW23395   1.367   0.978  17.415  0.2850 -0.1496 -0.4496
 3978SOL    HW123396   1.351   1.061  17.458 -0.0917  0.2025 -1.2667
 3978SOL    HW223397   1.374   0.919  17.490 -1.3633  0.4860  0.1940
 3979SOL     OW23398   2.684   1.814  15.004 -0.2381  0.3959  0.3425
 3979SOL    HW123399   2.709   1.738  14.952  0.4199  1.9277 -1.5670
 3979SOL    HW223400   2.767   1.861  15.013 -1.0022  1.8657 -0.3613
 3980SOL     OW23401   1.675   1.087   0.936  0.2934  0.1631 -0.0673
 3980SOL    HW123402   1.717   1.034   1.004  1.4270  0.9455 -0.1566
 3980SOL    HW223403   1.622   1.142   0.995  0.8536  1.2987 -0.6274
 3981SOL     OW23404   0.344   2.972   2.363 -0.0212  0.3182  0.1296
 3981SOL    HW123405   0.297   3.034   2.418  0.4777  1.9418 -1.2949
 3981SOL    HW223406   0.275   2.905   2.360  0.6553 -0.2869 -1.7263
 3982SOL     OW23407   3.373   0.337   3.969 -0.2469  0.3966  0.1038
 3982SOL    HW123408   3.339   0.257   3.930  1.2242 -0.5838  0.8324
 3982SOL    HW223409   3.376   0.398   3.895 -0.0539 -0.2709 -0.4442
 3983SOL     OW23410   3.490   1.710   6.438 -0.6990  0.0534  0.0853
 3983SOL    HW123411   3.546   1.763   6.381 -0.2198 -1.1344 -0.5527
 3983SOL    HW223412   3.546   1.633   6.450 -0.7507  0.0275  0.1586
 3984SOL     OW23413   2.363   3.987   5.076 -0.1383  0.1256 -0.1140
 3984SOL    HW123414   2.306   3.923   5.033  1.6248 -1.1178 -0.6130
 3984SOL    HW223415   2.328   3.982   5.165  0.3861 -1.4070  0.0048
 3985SOL     OW23416   2.973   4.644   2.725  0.4756  0.0123  0.0446
 3985SOL    HW123417   2.904   4.668   2.664 -0.0666 -0.8144  0.3228
 3985SOL    HW223418   2.990   4.553   2.699 -0.5390 -0.0851 -0.2861
 3986SOL     OW23419   2.501   3.911   7.071 -0.1785  0.5661 -0.0899
 3986SOL    HW123420   2.592   3.888   7.052 -0.9951  0.1109 -3.6175
 3986SOL    HW223421   2.488   3.965   6.993 -2.4588  0.9676  0.5799
 3987SOL     OW23422   0.451   0.382   4.524 -0.3416 -0.0152  0.8756
 3987SOL    HW123423   0.413   0.444   4.586 -0.6403 -2.1932  2.8686
 3987SOL    HW223424   0.448   0.423   4.438 -2.8920  1.0249  1.4479
 3988SOL     OW23425   0.667   0.483   6.023  0.2183 -0.1900 -0.1245
 3988SOL    HW123426   0.589   0.529   5.993  0.9217  1.4877  0.6022
 3988SOL    HW223427   0.736   0.518   5.967 -1.0774  3.2963  0.4655
 3989SOL     OW23428   2.523   1.320   8.061 -0.3164  0.0483 -0.0158
 3989SOL    HW123429   2.444   1.371   8.042  1.0658  2.8704  1.8057
 3989SOL    HW223430   2.488   1.275   8.138  3.3327 -2.5178  0.1178
 3990SOL     OW23431   1.176   3.832   2.922 -0.5123  0.2855 -0.0398
 3990SOL    HW123432   1.187   3.819   2.828  2.9189  1.7145  0.1668
 3990SOL    HW223433   1.182   3.741   2.952 -3.5073  0.3988  0.9280
 3991SOL     OW23434   1.369   0.629  10.414 -0.5311  1.0189  0.2244
 3991SOL    HW123435   1.332   0.707  10.374 -0.5884  2.7004  3.5695
 3991SOL    HW223436   1.423   0.597  10.341  0.8977  1.6367  1.0082
 3992SOL     OW23437   2.660   0.274  11.207  0.3877  0.5346  0.4178
 3992SOL    HW123438   2.754   0.288  11.211  0.0111  2.0403  4.1188
 3992SOL    HW223439   2.645   0.182  11.188  0.6150  0.7576 -0.8009
 3993SOL     OW23440   4.503   2.257  14.223  0.5229 -0.6607 -0.4306
 3993SOL    HW123441   4.508   2.206  14.142  0.3809 -4.1206  1.7430
 3993SOL    HW223442   4.409   2.269  14.227  0.6911  0.3602  0.4707
 3994SOL     OW23443   1.314   0.497   6.754 -0.2396  0.0468  0.0439
 3994SOL    HW123444   1.310   0.401   6.755  0.3056  0.0447  1.4902
 3994SOL    HW223445   1.229   0.525   6.788  0.5968  3.0779 -0.3427
 3995SOL     OW23446   4.301   4.702   7.722 -0.2105 -0.0302  0.1358
 3995SOL    HW123447   4.253   0.043   7.669  0.5485  0.7144  0.3454
 3995SOL    HW223448   4.385   0.017   7.698 -0.0602 -0.7274 -0.4401
 3996SOL     OW23449   2.644   2.199   7.314 -0.0124  0.2459 -0.0377
 3996SOL    HW123450   2.597   2.237   7.388  1.8215  0.1238  1.1868
 3996SOL    HW223451   2.671   2.124   7.367  0.7115  0.1003 -0.6023
 3997SOL     OW23452   0.993   3.427  10.085  0.2693  0.1386  0.1305
 3997SOL    HW123453   1.083   3.416  10.115 -0.4055 -1.6840  1.4439
 3997SOL    HW223454   0.951   3.495  10.137 -0.5183 -0.7898  0.6891
 3998SOL     OW23455   0.307   1.529   6.747 -0.0604 -0.5565 -0.2906
 3998SOL    HW123456   0.373   1.598   6.752 -1.9377  1.3295 -1.7415
 3998SOL    HW223457   0.324   1.514   6.654 -0.6254 -0.1396 -0.4644
 3999SOL     OW23458   3.583   2.101   7.491 -0.2137 -0.1112 -0.0505
 3999SOL    HW123459   3.575   2.165   7.421 -1.1481 -0.2454 -0.0665
 3999SOL    HW223460   3.496   2.106   7.531 -1.0822 -1.5530 -1.7456
 4000SOL     OW23461   2.504   0.448   4.314  0.3458 -0.2395 -0.4592
 4000SOL    HW123462   2.581   0.458   4.370  1.9286 -0.5674 -2.5887
 4000SOL    HW223463   2.537   0.465   4.226  0.4669  1.7202 -0.0308
 4001SOL     OW23464   4.521   0.839   2.630  0.2164  0.6181  0.0281
 4001SOL    HW123465   4.522   0.885   2.546 -2.7048  0.1220 -0.2724
 4001SOL    HW223466   4.440   0.789   2.622  0.4256 -0.0456  2.2110
 4002SOL     OW23467   2.425   3.958  12.251  0.5346 -0.2852 -0.3107
 4002SOL    HW123468   2.367   3.884  12.233  0.0756 -0.1978  0.8026
 4002SOL    HW223469   2.421   4.005  12.167 -2.3472  1.0488  0.5695
 4003SOL     OW23470   3.763   2.415   4.656  0.3221  0.3025  0.1164
 4003SOL    HW123471   3.688   2.410   4.597  0.7674  5.0914 -0.8075
 4003SOL    HW223472   3.764   2.508   4.677 -0.7626 -0.1473  2.2362
 4004SOL     OW23473   2.863   2.519  14.444 -0.1726  0.4563 -0.3918
 4004SOL    HW123474   2.816   2.469  14.377  0.7406 -0.4041 -0.3695
 4004SOL    HW223475   2.954   2.517  14.414 -0.4605  1.1839 -1.3449
 4005SOL     OW23476   3.524   2.121   0.121  0.3003  0.2704 -1.0119
 4005SOL    HW123477   3.501   2.110   0.029 -0.4364 -1.0785 -0.6585
 4005SOL    HW223478   3.490   2.041   0.159 -1.2710  1.6832  0.5409
 4006SOL     OW23479   3.947   4.525  17.330  0.3003  0.8822 -0.3355
 4006SOL    HW123480   3.934   4.509  17.237 -0.4873 -0.5136  0.0209
 4006SOL    HW223481   4.039   4.550  17.339 -0.1321  1.7228  1.7365
 4007SOL     OW23482   0.212   1.059  13.100  0.3689  0.2010 -0.0805
 4007SOL    HW123483   0.138   0.999  13.093  1.0676 -0.4598 -1.7136
 4007SOL    HW223484   0.182   1.127  13.040 -1.8726 -0.1750  0.5934
 4008SOL     OW23485   0.456   4.636  11.960  0.3942 -0.3925 -0.1354
 4008SOL    HW123486   0.540   4.621  12.003  1.4417  1.6997 -1.4868
 4008SOL    HW223487   0.485   4.719  11.923 -1.0563 -1.2450 -3.1688
 4009SOL     OW23488   1.838   4.342  16.751  0.0763 -0.2265 -0.5302
 4009SOL    HW123489   1.826   4.340  16.846 -3.9991 -1.5863 -1.0665
 4009SOL    HW223490   1.933   4.348  16.746  0.3161 -3.6509 -0.1260
 4010SOL     OW23491   3.718   1.123   0.203  0.8323  0.2109 -0.0356
 4010SOL    HW123492   3.726   1.031   0.225  2.6445  0.7208  1.4728
 4010SOL    HW223493   3.664   1.120   0.124  1.1046  1.4304 -0.2755
 4011SOL     OW23494   0.598   4.371  10.704  0.1042 -0.2228  0.0445
 4011SOL    HW123495   0.536   4.441  10.687  0.3632  0.1009  0.4377
 4011SOL    HW223496   0.563   4.331  10.784  0.0683 -0.7732 -0.2436
 4012SOL     OW23497   1.193   3.585   7.675 -0.0404 -0.1302  0.1751
 4012SOL    HW123498   1.113   3.592   7.623  0.6444  2.6496 -0.5248
 4012SOL    HW223499   1.256   3.557   7.608 -1.1642 -0.6983 -0.6347
 4013SOL     OW23500   0.846   3.318   0.634 -0.3383  0.3041  0.0861
 4013SOL    HW123501   0.898   3.354   0.562  0.6278  0.2476  0.7471
 4013SOL    HW223502   0.906   3.328   0.708  1.1183 -2.7035 -0.6858
 4014SOL     OW23503   3.912   3.355   7.573 -0.0005 -0.6157 -0.0470
 4014SOL    HW123504   3.993   3.305   7.557  0.1749 -0.3098 -0.1218
 4014SOL    HW223505   3.897   3.347   7.667 -0.0518  0.1691  0.0122
 4015SOL     OW23506   1.542   3.185  17.049  0.1078 -0.1155  0.7288
 4015SOL    HW123507   1.468   3.147  17.096  0.0807 -0.0030  0.7782
 4015SOL    HW223508   1.534   3.163  16.957  1.2425 -0.6955  0.7762
 4016SOL     OW23509   4.281   3.549   4.552 -0.1370  0.3335  0.0988
 4016SOL    HW123510   4.220   3.482   4.583 -0.0532 -0.2863 -1.0761
 4016SOL    HW223511   4.298   3.519   4.463  0.1285 -0.0211  0.2694
 4017SOL     OW23512   0.890   0.587   2.876  0.3111 -0.4667 -0.0340
 4017SOL    HW123513   0.877   0.673   2.916  1.5626 -2.0304  3.7536
 4017SOL    HW223514   0.932   0.617   2.796  1.1385 -0.9705  0.2099
 4018SOL     OW23515   3.342   0.849   2.170 -0.1333  0.3567  0.2703
 4018SOL    HW123516   3.275   0.824   2.234  1.7086 -1.7856  1.3613
 4018SOL    HW223517   3.354   0.771   2.116  1.4201 -1.0674  2.6316
 4019SOL     OW23518   1.522   0.338   4.946 -0.2783  0.1920 -0.2998
 4019SOL    HW123519   1.520   0.415   4.888  1.6820 -0.2319 -0.9032
 4019SOL    HW223520   1.464   0.277   4.901  0.3191 -0.3809 -0.2875
 4020SOL     OW23521   3.488   1.681  15.805 -0.1522  0.1854  0.1317
 4020SOL    HW123522   3.504   1.710  15.716  1.4001 -0.1777  0.2764
 4020SOL    HW223523   3.425   1.612  15.785  2.0172 -0.9244 -2.7733
 4021SOL     OW23524   0.648   3.892  13.390  0.1284 -0.5930 -0.3594
 4021SOL    HW123525   0.589   3.915  13.462  1.1351  0.6208  0.0791
 4021SOL    HW223526   0.649   3.979  13.349  0.3898 -0.4864 -0.1270
 4022SOL     OW23527   3.275   0.001  10.442 -0.0138 -0.4935 -0.4618
 4022SOL    HW123528   3.217   4.718  10.366 -0.9470 -0.2880  0.2341
 4022SOL    HW223529   3.298   4.631  10.450  3.2462  0.3850  0.4619
 4023SOL     OW23530   3.547   2.466   4.533 -0.6842  0.1452 -0.3653
 4023SOL    HW123531   3.486   2.452   4.460  0.2162  0.6991 -1.2244
 4023SOL    HW223532   3.504   2.540   4.575  1.5219  0.7176  0.8947
 4024SOL     OW23533   3.883   2.976   6.393 -0.5262  0.1942 -0.3305
 4024SOL    HW123534   3.886   3.071   6.382  0.4012  0.1158 -0.7102
 4024SOL    HW223535   3.853   2.974   6.484  1.5871 -0.4483  0.3300
 4025SOL     OW23536   1.294   1.509   9.792 -0.9296 -1.0517  0.1252
 4025SOL    HW123537   1.251   1.488   9.875 -0.3863 -0.4763  0.5575
 4025SOL    HW223538   1.256   1.596   9.781  1.4079  0.3537  3.0843
 4026SOL     OW23539   2.779   2.327   4.069  0.6738  0.4027 -0.0947
 4026SOL    HW123540   2.693   2.289   4.052  1.7545 -2.3870  0.7242
 4026SOL    HW223541   2.825   2.266   4.126  3.9539 -0.5924 -3.7959
 4027SOL     OW23542   0.429   2.173   9.691  0.1499  0.5804  0.4851
 4027SOL    HW123543   0.356   2.119   9.719  0.8193 -1.9291 -2.6167
 4027SOL    HW223544   0.494   2.102   9.688 -1.6266 -0.9975 -0.3332
 4028SOL     OW23545   1.823   1.363   4.556 -0.1249 -0.5153  0.0626
 4028SOL    HW123546   1.897   1.421   4.574 -2.5492  2.4862  0.3679
 4028SOL    HW223547   1.774   1.376   4.637  1.5899  0.9017  0.8556
 4029SOL     OW23548   2.598   2.212   6.925  0.8653  0.7993  0.2006
 4029SOL    HW123549   2.598   2.279   6.857 -4.5435  2.1086  1.4856
 4029SOL    HW223550   2.539   2.149   6.884  0.3994  1.4425 -0.1138
 4030SOL     OW23551   2.765   2.882   7.684  0.1923  0.5736 -0.4145
 4030SOL    HW123552   2.819   2.959   7.703  1.1147 -0.2086  0.0948
 4030SOL    HW223553   2.836   2.818   7.679 -2.8473 -2.6689 -1.4049
 4031SOL     OW23554   2.046   2.851   5.094 -0.4791 -0.5005  0.3083
 4031SOL    HW123555   2.059   2.856   5.189  0.8008  1.5082  0.0382
 4031SOL    HW223556   1.952   2.833   5.092 -0.3894 -0.8602 -0.4877
 4032SOL     OW23557   0.415   3.906   3.153 -0.4361  0.2238 -0.3327
 4032SOL    HW123558   0.498   3.862   3.137 -2.1250 -2.8913 -0.3499
 4032SOL    HW223559   0.394   3.949   3.070  1.7899 -1.1418 -1.6163
 4033SOL     OW23560   1.828   0.485  10.791 -0.4010  0.3018 -0.5032
 4033SOL    HW123561   1.840   0.504  10.884  0.8134  2.0905 -1.0253
 4033SOL    HW223562   1.794   0.396  10.794  0.5082 -0.0214  0.1418
 4034SOL     OW23563   1.332   4.065   7.165 -0.5254  0.5020 -0.3914
 4034SOL    HW123564   1.400   4.019   7.115 -0.3612 -2.1256  2.2973
 4034SOL    HW223565   1.371   4.042   7.249 -0.1723 -0.2415 -0.7563
 4035SOL     OW23566   1.511   0.958   7.016 -0.4414 -0.1538 -0.0619
 4035SOL    HW123567   1.556   0.945   6.933  1.0421  1.5302  0.4962
 4035SOL    HW223568   1.584   1.001   7.060 -1.7880  0.3360  1.6737
 4036SOL     OW23569   1.697   1.293   2.901  0.6055  0.2832 -0.0195
 4036SOL    HW123570   1.663   1.330   2.820 -1.2850  2.1200  1.6327
 4036SOL    HW223571   1.626   1.237   2.933 -0.6495  0.2851 -2.8258
 4037SOL     OW23572   3.597   1.854   9.547  0.0731  0.0187  0.1229
 4037SOL    HW123573   3.547   1.784   9.505 -1.4594 -0.1464  2.2472
 4037SOL    HW223574   3.602   1.917   9.475 -0.6578  3.0161  2.7099
 4038SOL     OW23575   1.220   1.972   8.103 -0.1935  0.1899  0.6833
 4038SOL    HW123576   1.164   1.970   8.026 -0.2385  0.2562  0.7142
 4038SOL    HW223577   1.261   2.057   8.087 -0.1384 -0.4564 -2.7565
 4039SOL     OW23578   2.532   3.685   2.595  0.3289  0.3297 -0.2790
 4039SOL    HW123579   2.605   3.746   2.596  0.7923 -0.2930  2.5667
 4039SOL    HW223580   2.480   3.739   2.654  0.7037 -0.4350  0.7488
 4040SOL     OW23581   2.579   3.568   8.277 -0.8036  0.0314 -0.3504
 4040SOL    HW123582   2.548   3.656   8.298 -1.2808 -0.8900  2.8095
 4040SOL    HW223583   2.522   3.506   8.323  0.2521 -0.7954 -0.1696
 4041SOL     OW23584   2.135   3.408   7.761  0.2120  0.3681 -0.0354
 4041SOL    HW123585   2.176   3.405   7.674  1.2546 -1.0293  0.4945
 4041SOL    HW223586   2.105   3.319   7.780 -1.1547  0.2847 -2.6722
 4042SOL     OW23587   3.715   0.426   6.611  0.0340  0.4611  0.0850
 4042SOL    HW123588   3.780   0.382   6.666  0.7438  0.0667 -1.0680
 4042SOL    HW223589   3.765   0.507   6.600 -1.2118  0.7561 -3.5644
 4043SOL     OW23590   2.680   1.287   7.842 -0.6350  0.6933 -0.5492
 4043SOL    HW123591   2.741   1.328   7.902 -0.7646  0.2285 -0.1018
 4043SOL    HW223592   2.601   1.314   7.890 -0.2845  0.4835  0.1406
 4044SOL     OW23593   0.475   3.559   5.670  0.2864  0.2977 -0.2992
 4044SOL    HW123594   0.509   3.612   5.599  0.6454  0.9969  0.3887
 4044SOL    HW223595   0.554   3.510   5.694  0.0333 -1.2980 -2.8000
 4045SOL     OW23596   2.813   1.715  12.836 -0.3628 -0.8131  0.2008
 4045SOL    HW123597   2.767   1.632  12.842 -2.4877  0.3319 -0.4116
 4045SOL    HW223598   2.893   1.694  12.885 -1.4742 -2.4568  1.3142
 4046SOL     OW23599   4.664   2.876   1.516  0.1517 -0.2609 -0.3939
 4046SOL    HW123600   0.020   2.840   1.477 -0.0017  2.6566 -3.3637
 4046SOL    HW223601   4.607   2.891   1.440  0.5348  0.4049 -0.5481
 4047SOL     OW23602   0.757   1.603  15.280 -0.0380 -0.0087  0.1314
 4047SOL    HW123603   0.796   1.574  15.198 -1.8569 -1.8576 -0.0663
 4047SOL    HW223604   0.794   1.692  15.281  0.3151 -0.1563 -0.0877
 4048SOL     OW23605   3.636   1.053   3.437  0.1512 -0.0134 -0.4124
 4048SOL    HW123606   3.653   1.035   3.529 -0.2542  0.2948 -0.2774
 4048SOL    HW223607   3.542   1.070   3.439  0.0284 -1.0615  2.2018
 4049SOL     OW23608   2.210   4.336   3.311  0.0176  0.1014 -0.2808
 4049SOL    HW123609   2.196   4.383   3.229  1.0764  1.4654  0.3116
 4049SOL    HW223610   2.122   4.309   3.339  0.4867 -1.1581 -0.0452
 4050SOL     OW23611   4.329   0.475   8.960 -0.3563 -0.7505 -0.7083
 4050SOL    HW123612   4.388   0.499   9.032 -2.3811  0.0762  0.6735
 4050SOL    HW223613   4.270   0.414   9.004 -0.2668  0.1451  0.6754
 4051SOL     OW23614   2.419   2.702   2.919 -0.5051 -0.1999 -0.5230
 4051SOL    HW123615   2.366   2.767   2.967 -1.3025 -1.1975 -0.0405
 4051SOL    HW223616   2.388   2.722   2.831 -3.4433  0.4325  0.6518
 4052SOL     OW23617   0.517   1.347  15.201 -0.7102  0.1831  0.6007
 4052SOL    HW123618   0.521   1.310  15.112  2.0161 -0.6953  1.0733
 4052SOL    HW223619   0.586   1.292  15.239 -1.8581 -2.0844 -0.6079
 4053SOL     OW23620   0.630   4.342   6.734 -0.6268 -0.0843  0.2454
 4053SOL    HW123621   0.562   4.391   6.778 -1.1217 -3.3099  3.0552
 4053SOL    HW223622   0.615   4.372   6.644 -0.3705  0.5860  0.4276
 4054SOL     OW23623   2.540   3.629   5.012 -0.0320  0.0229  0.0093
 4054SOL    HW123624   2.488   3.646   5.090 -3.7025 -1.1630 -2.1734
 4054SOL    HW223625   2.472   3.656   4.951  0.6337  1.2705 -0.1635
 4055SOL     OW23626   2.606   2.851  14.399 -0.9741 -0.3246 -0.4882
 4055SOL    HW123627   2.652   2.915  14.344  1.2399  1.1031  3.0720
 4055SOL    HW223628   2.597   2.771  14.348 -0.4744 -1.9039  1.9106
 4056SOL     OW23629   1.341   4.325   4.171 -0.6387  0.3400 -0.4021
 4056SOL    HW123630   1.351   4.362   4.083 -1.4043  2.0600  0.2442
 4056SOL    HW223631   1.256   4.364   4.190 -0.4914  0.9413 -0.9608
 4057SOL     OW23632   2.449   4.428  15.412 -0.7704  0.7966 -0.2341
 4057SOL    HW123633   2.431   4.337  15.391 -1.1774  0.9941 -0.7340
 4057SOL    HW223634   2.505   4.442  15.335  0.8730 -1.1139  0.5976
 4058SOL     OW23635   4.270   1.802   9.258  0.2329  0.4824  0.0417
 4058SOL    HW123636   4.175   1.792   9.265  0.2117  0.6822  0.0364
 4058SOL    HW223637   4.291   1.806   9.352 -0.3455 -1.0001  0.2401
 4059SOL     OW23638   3.450   3.973  12.990  0.2106  0.0326  0.7211
 4059SOL    HW123639   3.368   3.924  12.997 -0.7299  1.6868  1.2211
 4059SOL    HW223640   3.514   3.909  13.023  0.8516  1.7276  2.8098
 4060SOL     OW23641   3.481   3.466  14.859 -0.5475 -0.1149 -0.9890
 4060SOL    HW123642   3.504   3.424  14.943  2.5215  1.8766 -0.8482
 4060SOL    HW223643   3.465   3.555  14.890  1.2272 -0.0241 -0.3379
 4061SOL     OW23644   2.170   3.672  17.445 -0.2252 -0.2924  0.6397
 4061SOL    HW123645   2.108   3.712  17.507  0.3405  0.2042  0.8785
 4061SOL    HW223646   2.248   3.663  17.500  0.1095 -1.3498 -0.0144
 4062SOL     OW23647   0.056   0.310   5.787  0.9064  0.1226  0.3291
 4062SOL    HW123648   4.695   0.288   5.748 -0.1875  2.0778  1.5608
 4062SOL    HW223649   0.107   0.286   5.710 -1.9919  0.0625 -1.5329
 4063SOL     OW23650   3.132   3.954   0.536  0.6569  0.1823 -0.0108
 4063SOL    HW123651   3.066   3.927   0.471  0.5168  0.7798 -0.1205
 4063SOL    HW223652   3.127   3.883   0.599 -0.1768 -1.9614 -2.4832
 4064SOL     OW23653   1.226   4.218   9.465  0.5008 -0.2261  0.0861
 4064SOL    HW123654   1.322   4.219   9.458  0.5246 -0.0903  0.4194
 4064SOL    HW223655   1.206   4.136   9.510 -0.3653 -0.5608 -0.9292
 4065SOL     OW23656   4.219   2.743   7.516  0.4116  0.2085 -0.5172
 4065SOL    HW123657   4.275   2.754   7.592  1.4631  1.0442 -1.4130
 4065SOL    HW223658   4.256   2.803   7.451  2.1365 -0.9455 -0.5742
 4066SOL     OW23659   2.529   4.247   3.957  0.2944 -0.2689 -0.6169
 4066SOL    HW123660   2.606   4.280   4.003 -1.0160 -0.0214  1.3929
 4066SOL    HW223661   2.524   4.316   3.891  1.5942  2.0271  1.7036
 4067SOL     OW23662   2.710   4.404  11.265 -0.2577 -0.1630  0.4222
 4067SOL    HW123663   2.673   4.405  11.353  1.1191 -0.5034  0.9968
 4067SOL    HW223664   2.805   4.392  11.270 -0.1604 -0.2389 -1.4820
 4068SOL     OW23665   2.115   4.104  14.858  0.1014  0.0582  0.0157
 4068SOL    HW123666   2.051   4.129  14.924  0.9037 -1.2767  1.2739
 4068SOL    HW223667   2.063   4.126  14.780 -0.1008 -1.0944 -0.1682
 4069SOL     OW23668   2.328   4.715   5.891  0.1343  0.1760  0.2077
 4069SOL    HW123669   2.236   4.693   5.909 -0.7606  2.3257 -1.7638
 4069SOL    HW223670   2.363   4.629   5.869  0.6140 -0.2459  2.5708
 4070SOL     OW23671   2.466   3.996  17.163  0.5930  0.3545  0.0109
 4070SOL    HW123672   2.523   3.939  17.215  0.8649 -0.1362 -0.8165
 4070SOL    HW223673   2.385   3.970  17.206  0.6995 -0.3716 -0.2347
 4071SOL     OW23674   2.785   3.438   4.286 -0.0100  0.0354 -0.2866
 4071SOL    HW123675   2.815   3.521   4.323  0.3414 -0.0307 -0.4203
 4071SOL    HW223676   2.825   3.376   4.348 -0.2996 -0.6918 -0.8236
 4072SOL     OW23677   4.676   1.958  11.833 -0.2746  0.3407 -0.1903
 4072SOL    HW123678   4.591   1.960  11.787  0.9961  1.3021 -2.4912
 4072SOL    HW223679   4.716   1.882  11.792 -2.1606 -0.0617 -1.2905
 4073SOL     OW23680   2.366   0.866  15.535 -0.1939  0.2049 -0.2363
 4073SOL    HW123681   2.367   0.780  15.493 -0.6376  0.2444 -0.3312
 4073SOL    HW223682   2.310   0.912  15.473  0.3943  1.1857 -0.0302
 4074SOL     OW23683   2.664   3.040  10.057 -0.2223  0.3592 -0.0265
 4074SOL    HW123684   2.718   3.108  10.017 -0.1496 -0.3006 -1.0671
 4074SOL    HW223685   2.728   2.995  10.113 -0.1156 -0.7239 -1.0214
 4075SOL     OW23686   4.122   1.295   2.781  0.6116 -0.2379 -0.2953
 4075SOL    HW123687   4.079   1.310   2.865  3.9868 -1.1537  1.6106
 4075SOL    HW223688   4.124   1.385   2.748  0.0214 -0.2434 -0.3464
 4076SOL     OW23689   3.180   2.979   2.088  0.1034  0.3072  0.2678
 4076SOL    HW123690   3.085   2.965   2.089  0.0527  0.8466  2.3519
 4076SOL    HW223691   3.183   3.075   2.087 -0.9399  0.3316 -0.5688
 4077SOL     OW23692   0.372   3.642  11.142  0.0295 -0.6699  0.0493
 4077SOL    HW123693   0.453   3.689  11.158 -0.6299  1.0154 -1.6511
 4077SOL    HW223694   0.374   3.650  11.047  1.9622  0.4896  0.1897
 4078SOL     OW23695   4.358   1.581   5.706 -0.0140 -0.1089 -0.3573
 4078SOL    HW123696   4.328   1.672   5.702  3.9358  1.1992  0.0428
 4078SOL    HW223697   4.426   1.581   5.772 -0.4418 -2.3076  0.0789
 4079SOL     OW23698   0.189   1.809   5.726  0.2025  0.3531 -0.0384
 4079SOL    HW123699   0.230   1.772   5.804  2.6929  1.8619 -0.6202
 4079SOL    HW223700   0.099   1.794   5.753  0.4135 -0.5540  0.1828
 4080SOL     OW23701   3.277   4.117   5.615 -0.6105 -0.1300 -0.0315
 4080SOL    HW123702   3.297   4.086   5.527 -0.0425 -1.9264  0.7393
 4080SOL    HW223703   3.248   4.207   5.595 -1.6648 -0.7279 -1.2118
 4081SOL     OW23704   4.259   1.783   8.315  0.1384 -0.5260 -0.5828
 4081SOL    HW123705   4.192   1.851   8.319 -1.0335 -1.7652  0.8741
 4081SOL    HW223706   4.237   1.723   8.386 -0.7322 -1.9821 -2.0751
 4082SOL     OW23707   2.569   2.880   3.407 -0.2002  0.3073 -0.6148
 4082SOL    HW123708   2.604   2.836   3.484 -0.4714 -0.2668 -0.8192
 4082SOL    HW223709   2.585   2.972   3.425 -2.4709  1.0874 -2.6151
 4083SOL     OW23710   0.407   4.416   3.352  0.0018 -0.1782  0.1043
 4083SOL    HW123711   0.322   4.403   3.394 -0.2973  0.5947 -0.2618
 4083SOL    HW223712   0.443   4.479   3.415 -0.5750  1.5284 -1.2651
 4084SOL     OW23713   3.939   1.935  12.437  0.4895  0.3520  0.1141
 4084SOL    HW123714   3.981   2.019  12.455 -0.0555  0.5027  0.6470
 4084SOL    HW223715   3.940   1.896  12.524  0.7665  0.1657  0.0265
 4085SOL     OW23716   1.329   2.766  16.752 -0.1515  0.1306  0.2688
 4085SOL    HW123717   1.320   2.860  16.763  1.4745  0.0463  2.2916
 4085SOL    HW223718   1.363   2.757  16.663 -2.7074  2.9685 -0.9920
 4086SOL     OW23719   4.580   1.135  12.522  0.1158 -0.4036 -0.3753
 4086SOL    HW123720   4.658   1.104  12.475  0.4014 -0.9954  0.4791
 4086SOL    HW223721   4.615   1.217  12.557 -1.6319 -0.1995  0.8936
 4087SOL     OW23722   0.889   1.992  15.030  0.1965 -0.3595  0.2743
 4087SOL    HW123723   0.919   2.082  15.047 -1.4728  0.1524  0.4830
 4087SOL    HW223724   0.797   2.007  15.008  0.2426  1.6752  1.4380
 4088SOL     OW23725   0.037   1.875  17.196 -0.0702  0.3665 -0.1636
 4088SOL    HW123726   0.004   1.877  17.285  0.4878  0.5978  0.0376
 4088SOL    HW223727   4.681   1.903  17.150 -0.1072  0.5674  0.0246
 4089SOL     OW23728   4.171   0.346  10.499 -0.1427  0.1862 -0.5000
 4089SOL    HW123729   4.237   0.288  10.460  0.4652  0.2208  0.4919
 4089SOL    HW223730   4.102   0.333  10.435 -0.1557 -3.4255  0.2535
 4090SOL     OW23731   0.487   3.245   4.619  0.1792 -0.2985  0.2001
 4090SOL    HW123732   0.402   3.207   4.642 -1.5415  2.6625 -1.3422
 4090SOL    HW223733   0.462   3.337   4.612  1.9739  0.4264  3.2658
 4091SOL     OW23734   3.660   2.644   8.790 -0.1542  0.3932 -0.2001
 4091SOL    HW123735   3.674   2.739   8.788 -0.9920  0.5368  1.5820
 4091SOL    HW223736   3.601   2.632   8.715  0.9617  2.4335 -1.4076
 4092SOL     OW23737   1.003   0.193   4.821  0.2814  0.0642  0.0402
 4092SOL    HW123738   0.927   0.234   4.862  0.3689  0.5990 -0.3325
 4092SOL    HW223739   0.981   0.101   4.835  0.5555  0.5296  3.4305
 4093SOL     OW23740   2.334   1.343  10.325 -0.0743  0.0344 -0.4197
 4093SOL    HW123741   2.306   1.420  10.276  1.3485  0.7648 -0.0822
 4093SOL    HW223742   2.319   1.384  10.410 -0.0429 -2.2011  0.6836
 4094SOL     OW23743   1.585   0.650  16.315  0.1270  0.0814 -0.0648
 4094SOL    HW123744   1.603   0.713  16.386  0.3632 -1.2245  1.0373
 4094SOL    HW223745   1.609   0.563  16.347  0.6513  0.5648  0.8682
 4095SOL     OW23746   3.603   2.012   3.820 -0.1717 -0.0864  0.1235
 4095SOL    HW123747   3.540   2.049   3.882  0.5361 -0.8310  1.2734
 4095SOL    HW223748   3.644   2.091   3.784  2.0602  0.2238  3.4002
 4096SOL     OW23749   0.797   3.991   1.767  0.8580  0.3383 -0.6578
 4096SOL    HW123750   0.775   4.024   1.680 -0.4327  1.0531 -0.0716
 4096SOL    HW223751   0.892   4.000   1.776  0.6126 -0.7339  3.1984
 4097SOL     OW23752   4.108   3.711   1.647 -0.2179 -0.0663 -0.3175
 4097SOL    HW123753   4.128   3.682   1.558 -0.3331  1.5166 -0.8479
 4097SOL    HW223754   4.030   3.766   1.639 -0.4837 -0.4266 -0.1967
 4098SOL     OW23755   0.422   0.506  11.351  0.2107 -0.0968  0.0382
 4098SOL    HW123756   0.467   0.477  11.271 -0.1040 -2.5962  0.7698
 4098SOL    HW223757   0.383   0.425  11.383  1.7338 -1.7934 -2.4313
 4099SOL     OW23758   2.281   2.193   2.801  0.6015 -0.3232  1.0323
 4099SOL    HW123759   2.210   2.200   2.864  1.2782 -1.1040  1.8741
 4099SOL    HW223760   2.358   2.227   2.847  1.2586 -1.4309  0.7412
 4100SOL     OW23761   3.877   2.773   5.537  0.3463  0.7030 -0.0296
 4100SOL    HW123762   3.964   2.777   5.498  0.5863 -0.6765  0.3588
 4100SOL    HW223763   3.899   2.707   5.603  0.3726  0.8885  0.1472
 4101SOL     OW23764   1.937   1.079   6.635 -0.1210 -0.1339 -0.4182
 4101SOL    HW123765   1.941   1.129   6.553  0.6554 -2.7000 -1.9615
 4101SOL    HW223766   1.844   1.080   6.659 -0.1611 -2.0134 -0.5013
 4102SOL     OW23767   1.846   1.269  11.605 -0.3364  0.0782 -0.5271
 4102SOL    HW123768   1.891   1.193  11.641 -1.6318 -0.6236 -0.3842
 4102SOL    HW223769   1.882   1.270  11.517 -0.1676 -1.1848 -0.4627
 4103SOL     OW23770   4.646   0.594  16.444  0.1762 -0.3445 -0.2821
 4103SOL    HW123771   4.642   0.620  16.353  1.8561 -1.3919 -0.6474
 4103SOL    HW223772   4.661   0.678  16.487 -1.3949 -0.2100  0.0261
 4104SOL     OW23773   1.580   2.961   2.750 -0.5372  0.2446 -0.0739
 4104SOL    HW123774   1.545   2.894   2.808  1.2127  0.4069  1.1639
 4104SOL    HW223775   1.558   2.913   2.670 -0.2201  1.2000 -0.7375
 4105SOL     OW23776   1.746   2.473   7.756  0.6385  0.6963 -0.6325
 4105SOL    HW123777   1.743   2.477   7.661  0.2399  0.4742 -0.6276
 4105SOL    HW223778   1.693   2.399   7.786 -0.3338  1.8459  0.4977
 4106SOL     OW23779   4.412   1.729   3.959 -0.5909 -0.1523 -0.0632
 4106SOL    HW123780   4.424   1.660   4.024 -1.6863  0.1710  0.4720
 4106SOL    HW223781   4.498   1.766   3.939 -0.6399  0.3357  0.6500
 4107SOL     OW23782   4.545   1.712  12.121  0.0259 -0.3799 -0.1173
 4107SOL    HW123783   4.498   1.647  12.069  1.4772  0.4810 -2.5323
 4107SOL    HW223784   4.478   1.781  12.123  0.1743 -0.3089  1.9776
 4108SOL     OW23785   4.191   1.894  15.560  0.1027  0.2123 -0.0332
 4108SOL    HW123786   4.103   1.907  15.593 -0.7121  0.6525 -2.3535
 4108SOL    HW223787   4.236   1.914  15.642 -0.7446  0.2453  0.4234
 4109SOL     OW23788   2.939   0.137   5.800 -0.0142 -0.3702  0.2871
 4109SOL    HW123789   3.007   0.187   5.846  0.6418 -2.3530  1.4730
 4109SOL    HW223790   2.859   0.160   5.847  0.6372  2.0152  0.2285
 4110SOL     OW23791   1.559   3.453   6.296  0.2300 -0.1478  0.0408
 4110SOL    HW123792   1.553   3.532   6.243 -0.5445  0.6299  1.2927
 4110SOL    HW223793   1.468   3.428   6.281 -0.0056  1.2095 -0.7335
 4111SOL     OW23794   1.186   2.842   4.514 -0.1207 -0.3077 -0.6622
 4111SOL    HW123795   1.145   2.809   4.594  1.9296 -1.1303  0.0264
 4111SOL    HW223796   1.116   2.899   4.482  0.7584  2.3817  2.2230
 4112SOL     OW23797   2.814   1.771   7.201  0.2741 -0.0270  0.4210
 4112SOL    HW123798   2.759   1.767   7.123 -1.8474  0.1753  1.9275
 4112SOL    HW223799   2.743   1.774   7.265 -1.9313 -0.5502 -2.0026
 4113SOL     OW23800   0.865   4.666   4.842 -0.3880  0.0615  0.1260
 4113SOL    HW123801   0.803   4.664   4.769  0.2383 -3.6048 -0.3256
 4113SOL    HW223802   0.933   4.611   4.805 -0.8779  0.5128 -1.4316
 4114SOL     OW23803   0.765   1.528   8.115 -0.0087 -0.1675 -0.6123
 4114SOL    HW123804   0.800   1.442   8.140 -0.5883  0.1972  1.4158
 4114SOL    HW223805   0.834   1.559   8.057 -0.4191 -0.4781 -1.2820
 4115SOL     OW23806   3.738   0.452  10.337  0.0321  0.2230 -0.4281
 4115SOL    HW123807   3.806   0.399  10.296  0.9317  0.3862  0.8522
 4115SOL    HW223808   3.779   0.538  10.331 -1.1234  0.8596  0.8831
 4116SOL     OW23809   4.565   2.626   5.713 -0.4326  0.0772 -0.5872
 4116SOL    HW123810   4.535   2.716   5.698 -0.0588  0.4566  0.8796
 4116SOL    HW223811   4.557   2.610   5.807  2.1777  0.3010 -0.3140
 4117SOL     OW23812   4.454   1.913   7.180 -0.4946 -0.1595 -0.0880
 4117SOL    HW123813   4.373   1.963   7.185 -0.3412  0.0062  0.6810
 4117SOL    HW223814   4.523   1.976   7.161  2.1950 -3.1632 -0.4256
 4118SOL     OW23815   3.979   1.286  17.627  0.5484  0.2960  0.1326
 4118SOL    HW123816   4.018   1.277   0.020  1.2633 -1.3354 -0.3545
 4118SOL    HW223817   4.058   1.256  17.582  0.7522  0.0852  0.6285
 4119SOL     OW23818   0.534   3.959  17.354 -0.0991  0.3273  1.1512
 4119SOL    HW123819   0.465   3.924  17.299  0.6416  0.9321 -0.1537
 4119SOL    HW223820   0.604   3.903  17.319  1.5522  2.0205  1.7228
 4120SOL     OW23821   3.244   1.664   5.162  0.1675  0.2011 -0.2391
 4120SOL    HW123822   3.313   1.657   5.228  0.1240 -0.5445 -0.2730
 4120SOL    HW223823   3.229   1.758   5.167  2.7747  0.7003 -1.6297
 4121SOL     OW23824   4.234   4.503   7.901  0.1385 -0.3286 -0.0042
 4121SOL    HW123825   4.152   4.488   7.853  0.0517  0.4484 -0.0933
 4121SOL    HW223826   4.283   4.557   7.839  1.3785 -0.5715  0.7681
 4122SOL     OW23827   0.423   0.032   7.953  0.1460  0.1786 -0.4501
 4122SOL    HW123828   0.518   0.041   7.962  0.3216 -1.1983 -0.9802
 4122SOL    HW223829   0.417   4.667   7.916 -0.4632 -0.1974  0.5490
 4123SOL     OW23830   4.461   1.338  12.797 -0.3134  0.3011  0.2280
 4123SOL    HW123831   4.530   1.338  12.731 -1.1379 -0.9775 -0.6373
 4123SOL    HW223832   4.428   1.428  12.799  0.4226  0.5801 -0.1982
 4124SOL     OW23833   4.330   1.252  13.623  0.0361  0.3269  0.5777
 4124SOL    HW123834   4.320   1.321  13.557  2.7544 -0.9566 -1.1886
 4124SOL    HW223835   4.267   1.185  13.599  1.0249 -0.8126  1.1350
 4125SOL     OW23836   0.071   2.853   6.842  0.1292 -0.0800 -0.5270
 4125SOL    HW123837   0.036   2.832   6.755  0.9149  0.0259 -0.8677
 4125SOL    HW223838   4.714   2.815   6.879  1.2527 -0.0830  1.8779
 4126SOL     OW23839   2.276   3.680   6.347 -0.0063 -0.1726  0.1045
 4126SOL    HW123840   2.186   3.656   6.367  0.4539 -0.9999  1.1551
 4126SOL    HW223841   2.254   3.771   6.325  1.5841  0.2631  0.3293
 4127SOL     OW23842   3.610   3.854  12.563 -0.1422  0.0693  0.3710
 4127SOL    HW123843   3.559   3.781  12.599  0.5004 -0.5804 -0.0384
 4127SOL    HW223844   3.694   3.808  12.557 -1.1160 -1.9332  1.9039
 4128SOL     OW23845   3.008   4.353   7.005  0.1481  0.6348 -1.0210
 4128SOL    HW123846   3.044   4.416   6.943 -0.5384  2.5203  0.5031
 4128SOL    HW223847   3.089   4.308   7.027  0.7976  1.7483 -1.1427
 4129SOL     OW23848   2.173   4.655   9.064 -0.3415 -0.4076  0.0301
 4129SOL    HW123849   2.260   4.630   9.033  0.6456  1.4553  1.2807
 4129SOL    HW223850   2.147   4.715   8.995  2.3591  0.1567 -0.5086
 4130SOL     OW23851   4.714   3.030   6.445  0.5213 -0.1172  0.2801
 4130SOL    HW123852   4.702   2.947   6.490  0.9359  1.1542  2.7121
 4130SOL    HW223853   0.080   3.016   6.412  0.1730  0.9630 -1.1364
 4131SOL     OW23854   1.086   2.353  11.290  0.2743 -0.6042  0.0244
 4131SOL    HW123855   1.012   2.394  11.334 -0.3990 -1.1180 -0.6323
 4131SOL    HW223856   1.142   2.430  11.289 -2.8415  1.6523  1.0066
 4132SOL     OW23857   4.430   1.379   2.556 -0.0965  0.2343  0.0153
 4132SOL    HW123858   4.516   1.416   2.577 -0.1366 -1.7964  3.7562
 4132SOL    HW223859   4.438   1.288   2.585 -0.8463 -0.2067 -1.1589
 4133SOL     OW23860   1.199   1.715   0.215 -0.6988  0.2977 -0.3034
 4133SOL    HW123861   1.275   1.658   0.227 -1.8831 -0.6644  2.7533
 4133SOL    HW223862   1.233   1.792   0.261 -2.0580  0.7054  0.0292
 4134SOL     OW23863   1.490   0.561   4.761  0.6349 -0.3860 -0.3527
 4134SOL    HW123864   1.503   0.650   4.796 -0.4928 -0.8324  1.1929
 4134SOL    HW223865   1.399   0.565   4.734 -0.1424  0.6228  2.4349
 4135SOL     OW23866   1.228   0.394  14.989  0.5387  0.1553 -0.4692
 4135SOL    HW123867   1.138   0.427  15.000  0.5435 -0.0363  0.1464
 4135SOL    HW223868   1.246   0.430  14.902  0.7331  2.6378  0.5859
 4136SOL     OW23869   2.484   3.526   7.030 -0.9932  0.3466  0.2628
 4136SOL    HW123870   2.480   3.524   6.935 -0.3177  0.2152  0.2393
 4136SOL    HW223871   2.406   3.475   7.052 -2.0676  0.8848 -2.2900
 4137SOL     OW23872   0.698   1.590   5.022  0.3725  0.5697 -0.1202
 4137SOL    HW123873   0.620   1.645   5.013  0.7931  1.0815 -0.6095
 4137SOL    HW223874   0.702   1.582   5.118 -0.5707 -0.8581 -0.2079
 4138SOL     OW23875   1.360   3.874   9.025 -0.5097  0.0936 -0.1501
 4138SOL    HW123876   1.295   3.936   9.059 -1.7188 -1.6787  0.7168
 4138SOL    HW223877   1.307   3.795   9.023  1.0440 -0.9685  1.0740
 4139SOL     OW23878   0.730   2.496   8.923  0.2861  0.4054  0.5485
 4139SOL    HW123879   0.768   2.490   9.011 -1.4391 -1.8416  1.1375
 4139SOL    HW223880   0.799   2.536   8.870 -0.3839 -0.9909 -1.3626
 4140SOL     OW23881   2.561   4.387   1.867  0.3131  0.2083 -0.0899
 4140SOL    HW123882   2.578   4.302   1.910  0.6833  0.0179 -0.6148
 4140SOL    HW223883   2.587   4.367   1.777 -0.9843 -0.7678 -0.2488
 4141SOL     OW23884   3.467   4.362  10.960 -0.2058 -0.6123  0.4860
 4141SOL    HW123885   3.395   4.347  11.021  0.5127 -2.4182  0.8724
 4141SOL    HW223886   3.515   4.438  10.994  0.3625 -0.9717  0.4885
 4142SOL     OW23887   3.814   1.223   2.899  0.0500 -0.2481 -0.0490
 4142SOL    HW123888   3.798   1.218   2.993  0.2182 -0.4086 -0.0290
 4142SOL    HW223889   3.858   1.309   2.895  1.4594 -0.9647  0.0349
 4143SOL     OW23890   2.185   2.673  13.292 -0.0427  0.5078 -0.1285
 4143SOL    HW123891   2.215   2.602  13.349  2.0105 -0.1555 -2.0675
 4143SOL    HW223892   2.178   2.740  13.360  0.8582 -0.9933  1.4302
 4144SOL     OW23893   3.658   4.316  15.855  0.0602  0.5377  0.2569
 4144SOL    HW123894   3.732   4.358  15.899  0.9692 -2.1598  1.3059
 4144SOL    HW223895   3.645   4.366  15.774 -1.8555  0.9346  0.8176
 4145SOL     OW23896   1.577   2.327   4.794  0.0970  0.0940 -0.1072
 4145SOL    HW123897   1.654   2.340   4.738 -0.3587  0.3907 -0.6706
 4145SOL    HW223898   1.511   2.319   4.725  0.8573 -1.8162 -0.6096
 4146SOL     OW23899   3.820   0.207   2.962 -0.5347 -0.0006 -0.6904
 4146SOL    HW123900   3.800   0.116   2.983 -0.6446  0.1240 -0.2491
 4146SOL    HW223901   3.819   0.200   2.867  0.0219 -0.2750 -0.6790
 4147SOL     OW23902   4.346   3.403   6.717  0.1677 -1.2436 -0.1923
 4147SOL    HW123903   4.312   3.415   6.628 -3.3881  0.4427  1.3523
 4147SOL    HW223904   4.322   3.311   6.729  0.5186 -1.5198 -1.6709
 4148SOL     OW23905   0.727   0.027   0.062  0.6740 -0.3233 -0.1331
 4148SOL    HW123906   0.784   4.695   0.116  1.0254  0.5167  0.3421
 4148SOL    HW223907   0.768   0.113   0.064  1.2898 -0.6353  0.8715
 4149SOL     OW23908   0.752   4.434   2.210  0.4433 -0.1282  0.3736
 4149SOL    HW123909   0.671   4.431   2.159  0.5117 -0.5482  0.2886
 4149SOL    HW223910   0.776   4.347   2.179  2.4342  0.4754  0.2720
 4150SOL     OW23911   0.012   3.616   0.998  0.1228 -0.1094 -0.6622
 4150SOL    HW123912   4.660   3.584   0.947  0.6138 -1.3779 -0.5856
 4150SOL    HW223913   0.065   3.537   1.003 -1.3604 -0.9946  1.4173
 4151SOL     OW23914   0.460   3.713   5.244 -0.8574 -0.4668  0.4450
 4151SOL    HW123915   0.375   3.757   5.251 -0.4029  0.5668 -0.6477
 4151SOL    HW223916   0.519   3.786   5.230 -0.7288 -0.9463 -1.5888
 4152SOL     OW23917   1.148   0.120   5.512  0.1823  0.2907  0.3397
 4152SOL    HW123918   1.072   0.145   5.459  1.5931  1.0946 -1.3157
 4152SOL    HW223919   1.227   0.148   5.464  0.5774 -0.7680  0.3738
 4153SOL     OW23920   3.204   3.269   4.769  0.3259 -0.0507  0.1543
 4153SOL    HW123921   3.236   3.179   4.767  0.2381 -0.1071  1.2011
 4153SOL    HW223922   3.269   3.317   4.821  0.9107 -1.6743  0.9150
 4154SOL     OW23923   3.089   3.999   8.523  0.3243 -0.5485 -0.2604
 4154SOL    HW123924   3.004   3.967   8.491  0.6128 -1.6031  0.0233
 4154SOL    HW223925   3.136   3.998   8.439  2.5893 -0.0098  1.0237
 4155SOL     OW23926   1.040   0.421  16.096 -0.3489  0.2141  0.1784
 4155SOL    HW123927   0.979   0.366  16.146 -1.7478  0.2840 -1.4788
 4155SOL    HW223928   1.028   0.367  16.018  1.4465 -0.0066  0.0467
 4156SOL     OW23929   3.358   2.349   6.242  0.0172 -0.2738 -0.4395
 4156SOL    HW123930   3.385   2.289   6.173  1.0617  0.8008 -0.9796
 4156SOL    HW223931   3.444   2.374   6.277 -0.8091  1.0243  0.6608
 4157SOL     OW23932   1.771   4.502   8.046  0.4671  0.2242  0.0940
 4157SOL    HW123933   1.820   4.548   7.977 -1.9631 -0.1705 -1.9141
 4157SOL    HW223934   1.698   4.563   8.060  0.7433  0.5500  0.0931
 4158SOL     OW23935   2.379   0.898   8.338 -0.3096  0.1299  0.3763
 4158SOL    HW123936   2.466   0.861   8.322 -2.3053 -3.7372 -1.4378
 4158SOL    HW223937   2.394   0.989   8.311 -0.1068 -0.0556 -0.1420
 4159SOL     OW23938   3.649   2.491  13.869  0.1747 -0.2847 -0.0499
 4159SOL    HW123939   3.668   2.561  13.931  1.2092 -2.9003  2.6067
 4159SOL    HW223940   3.580   2.526  13.812 -1.7096 -3.3482  0.3363
 4160SOL     OW23941   3.291   4.066  12.425 -0.0380 -0.6013  0.2450
 4160SOL    HW123942   3.368   4.013  12.402  0.6070  0.7503 -0.7417
 4160SOL    HW223943   3.274   4.104  12.339  3.9612  2.7253  0.9206
 4161SOL     OW23944   3.965   4.051   9.096 -0.2249 -0.5615  0.3448
 4161SOL    HW123945   3.973   4.003   9.178 -0.8254 -0.0570  0.7001
 4161SOL    HW223946   4.009   4.133   9.116  1.7144 -1.9339  1.6138
 4162SOL     OW23947   3.291   4.415   1.127  0.1198  0.5909  0.0525
 4162SOL    HW123948   3.291   4.497   1.076 -1.1238 -0.4266 -1.6040
 4162SOL    HW223949   3.364   4.419   1.188  0.2801 -0.0353 -0.0975
 4163SOL     OW23950   0.605   3.779   3.453 -0.2781  0.4372  0.0099
 4163SOL    HW123951   0.539   3.710   3.441  0.0381 -0.2640  2.4962
 4163SOL    HW223952   0.647   3.765   3.368  1.3664 -0.1855  0.9418
 4164SOL     OW23953   1.846   3.310   5.525  0.0678  0.1883  0.5452
 4164SOL    HW123954   1.925   3.361   5.508  0.5010 -0.3029  1.0876
 4164SOL    HW223955   1.788   3.384   5.544 -2.3389 -1.5812  0.1453
 4165SOL     OW23956   2.579   0.765   0.825 -0.2335 -0.2155  0.1635
 4165SOL    HW123957   2.494   0.721   0.822 -1.1637  1.6747 -0.8432
 4165SOL    HW223958   2.592   0.753   0.920 -1.1844 -0.0411  0.3114
 4166SOL     OW23959   2.316   0.245   7.842 -0.4919  0.2208  0.1329
 4166SOL    HW123960   2.296   0.172   7.901  0.7870  1.0809  1.6042
 4166SOL    HW223961   2.234   0.294   7.835  0.8859  2.4457 -0.4816
 4167SOL     OW23962   1.330   4.174  10.935  0.0919  0.3749 -0.0704
 4167SOL    HW123963   1.347   4.150  10.844  1.0921 -1.9498  0.7227
 4167SOL    HW223964   1.394   4.119  10.981 -0.0177  0.2435 -0.0750
 4168SOL     OW23965   0.900   3.942   4.847  0.2524 -0.4342  0.5647
 4168SOL    HW123966   0.825   4.001   4.845  0.1558 -0.5057  2.0398
 4168SOL    HW223967   0.868   3.867   4.898 -0.5048 -0.1748  0.4717
 4169SOL     OW23968   3.340   4.601   2.839  0.1549 -0.1132 -0.2726
 4169SOL    HW123969   3.364   4.682   2.883  0.0117  0.7314 -1.7349
 4169SOL    HW223970   3.294   4.549   2.905  0.3388  0.5120  0.3509
 4170SOL     OW23971   1.283   0.183   7.370  0.4550 -0.0966 -0.2618
 4170SOL    HW123972   1.339   0.174   7.447 -0.9479 -1.3518  0.6014
 4170SOL    HW223973   1.194   0.194   7.403  0.1439  2.1020 -1.8009
 4171SOL     OW23974   1.455   0.013   3.556  0.5345  0.3863 -0.2182
 4171SOL    HW123975   1.432   4.643   3.547 -0.4658  0.8183 -2.2110
 4171SOL    HW223976   1.394   0.054   3.495  0.4380  0.2451 -0.2183
 4172SOL     OW23977   0.992   0.216  10.573  0.4004  0.5206  0.3900
 4172SOL    HW123978   0.930   0.163  10.624  1.9273 -1.0994  0.5366
 4172SOL    HW223979   0.939   0.296  10.576 -0.2640 -0.0305  2.9243
 4173SOL     OW23980   1.758   4.295   7.621 -0.4917 -0.5799 -0.2193
 4173SOL    HW123981   1.843   4.299   7.665 -0.3656 -1.8782 -0.3442
 4173SOL    HW223982   1.787   4.299   7.530  2.1330  1.5094  0.6933
 4174SOL     OW23983   2.492   3.962   6.217 -0.3142 -0.3191 -0.6092
 4174SOL    HW123984   2.519   3.969   6.309 -0.3006  2.1835 -0.8156
 4174SOL    HW223985   2.529   3.875   6.202  2.3395  0.9147 -1.3087
 4175SOL     OW23986   3.282   3.276  10.988 -0.0332  0.6995 -0.4090
 4175SOL    HW123987   3.244   3.332  11.055  1.3085  0.2201  0.7493
 4175SOL    HW223988   3.200   3.230  10.969 -0.0579  1.0549 -1.1600
 4176SOL     OW23989   4.467   2.466   7.593  0.6285 -0.5959 -0.1277
 4176SOL    HW123990   4.383   2.465   7.548  0.4352  2.3391  0.1249
 4176SOL    HW223991   4.443   2.441   7.683 -0.3799  1.3782  0.1656
 4177SOL     OW23992   4.373   2.936  15.037  0.0156  0.2156  0.1732
 4177SOL    HW123993   4.297   2.972  15.082  0.4767  1.8727 -0.3497
 4177SOL    HW223994   4.366   2.842  15.052 -1.9637  0.5927  1.5662
 4178SOL     OW23995   0.118   2.181   5.803  0.1979 -0.1876 -0.6597
 4178SOL    HW123996   0.118   2.253   5.866 -1.0344  0.4017 -1.3344
 4178SOL    HW223997   0.197   2.138   5.836  0.4138  0.8840  0.2333
 4179SOL     OW23998   4.481   1.844   0.617  0.2842 -0.6381  0.6623
 4179SOL    HW123999   4.556   1.903   0.614 -1.4328  1.5861  0.8063
 4179SOL    HW224000   4.406   1.903   0.610 -0.0081 -0.9952  0.8068
 4180SOL     OW24001   3.382   4.668   9.663  0.1098  0.2508  0.0029
 4180SOL    HW124002   3.354   4.716   9.586 -0.5871 -2.0374 -1.1662
 4180SOL    HW224003   3.291   4.667   9.693  0.0723  1.5966 -0.0902
 4181SOL     OW24004   4.422   0.435   5.422  0.3659 -0.3152  0.4370
 4181SOL    HW124005   4.517   0.422   5.429  0.4132  0.5258  1.4208
 4181SOL    HW224006   4.410   0.516   5.471  1.4786  1.8169 -2.8228
 4182SOL     OW24007   3.102   2.359  10.399  0.3337  0.0986  0.0115
 4182SOL    HW124008   3.180   2.327  10.354  0.4579  2.5577 -1.5351
 4182SOL    HW224009   3.122   2.446  10.435  1.3524  0.0953 -0.5499
 4183SOL     OW24010   3.480   3.494   5.703 -0.7176  0.0343  0.6820
 4183SOL    HW124011   3.393   3.520   5.735  0.0634  2.5599  0.7593
 4183SOL    HW224012   3.464   3.440   5.626 -1.1347  0.1392  0.6911
 4184SOL     OW24013   0.307   1.786   8.787 -0.8381  0.0764  0.4905
 4184SOL    HW124014   0.222   1.825   8.764 -0.7503 -0.2172 -0.3143
 4184SOL    HW224015   0.340   1.765   8.700 -0.1149 -2.3956  1.3533
 4185SOL     OW24016   3.915   1.198   8.441  0.2349  1.3596  0.1922
 4185SOL    HW124017   4.001   1.157   8.447 -0.6254 -0.5482 -0.5347
 4185SOL    HW224018   3.945   1.289   8.435  2.0377  0.8451  1.6611
 4186SOL     OW24019   3.361   2.212   7.615  0.3646  0.1255  0.1923
 4186SOL    HW124020   3.293   2.197   7.681  0.1607  0.0187 -0.0427
 4186SOL    HW224021   3.308   2.231   7.537  0.1651 -0.0254  0.2918
 4187SOL     OW24022   4.237   2.609   7.974 -0.3029 -0.1715  0.0543
 4187SOL    HW124023   4.202   2.522   7.954 -1.2097 -0.1665  1.6355
 4187SOL    HW224024   4.201   2.625   8.061 -2.1265  1.7423 -1.0526
 4188SOL     OW24025   1.400   2.026   0.983 -0.4378 -1.0255 -0.5295
 4188SOL    HW124026   1.457   1.976   1.041  0.0433  2.3994  1.9594
 4188SOL    HW224027   1.394   1.960   0.915 -0.3589 -1.3943 -0.1787
 4189SOL     OW24028   3.486   3.934   5.637 -0.4248 -0.3220  0.4769
 4189SOL    HW124029   3.537   3.991   5.580  1.7021 -1.9567  0.7814
 4189SOL    HW224030   3.418   3.991   5.673  0.4163  1.0309 -0.0878
 4190SOL     OW24031   1.490   2.766  17.506 -0.9490  0.3178 -0.3793
 4190SOL    HW124032   1.490   2.691  17.566  2.2034 -0.5471 -1.4477
 4190SOL    HW224033   1.470   2.828  17.576 -0.0137 -0.4053  0.5262
 4191SOL     OW24034   4.343   2.512   1.782 -0.4312 -0.0045 -0.1187
 4191SOL    HW124035   4.402   2.586   1.765 -0.2473  0.4113  2.2972
 4191SOL    HW224036   4.261   2.557   1.802  0.4465  1.0096  1.2461
 4192SOL     OW24037   2.028   3.256   6.547 -0.0829  0.4719 -0.1654
 4192SOL    HW124038   2.094   3.287   6.485 -0.0496  0.9540  0.1149
 4192SOL    HW224039   1.945   3.295   6.519 -0.5912 -1.7039 -1.7574
 4193SOL     OW24040   4.576   1.504  14.822 -0.5901 -0.1836 -0.0985
 4193SOL    HW124041   4.499   1.448  14.827 -1.4779  1.0775  0.1025
 4193SOL    HW224042   4.538   1.589  14.799 -2.5396 -0.9653  0.2804
 4194SOL     OW24043   0.414   1.234   4.800  0.2434 -0.8779 -0.3276
 4194SOL    HW124044   0.336   1.277   4.766  1.0522  1.2969  0.5316
 4194SOL    HW224045   0.411   1.158   4.742  4.7968 -1.5937  0.3275
 4195SOL     OW24046   3.645   2.908   3.177 -0.1254  0.5369  0.4852
 4195SOL    HW124047   3.652   2.814   3.191  0.0199  0.5932  0.7899
 4195SOL    HW224048   3.632   2.897   3.083  1.4124 -1.0429  0.4489
 4196SOL     OW24049   0.050   4.297   9.298 -0.1617 -0.0238  0.2494
 4196SOL    HW124050   0.020   4.241   9.226 -0.2675  0.5836 -0.1847
 4196SOL    HW224051   0.075   4.228   9.359  0.0013 -1.6020 -1.6013
 4197SOL     OW24052   4.638   4.610   2.452  0.0661 -0.5492  0.4879
 4197SOL    HW124053   0.001   4.649   2.473 -0.7911  2.5708 -1.7348
 4197SOL    HW224054   4.566   4.659   2.492 -0.1469 -1.3843  1.1403
 4198SOL     OW24055   1.135   2.342   2.283  0.0792  0.4839 -0.4265
 4198SOL    HW124056   1.118   2.428   2.246 -1.0222  0.8951  1.0191
 4198SOL    HW224057   1.170   2.370   2.367 -1.3779  0.4205  0.2144
 4199SOL     OW24058   0.522   2.335  10.954 -0.4936  0.0298 -0.3594
 4199SOL    HW124059   0.431   2.347  10.982 -0.0865  0.1413  0.8981
 4199SOL    HW224060   0.526   2.240  10.957  2.1202  0.1714  0.1492
 4200SOL     OW24061   4.480   4.448  17.518 -0.3855 -0.2240  0.5939
 4200SOL    HW124062   4.516   4.442  17.429 -0.4361 -1.3719  0.6558
 4200SOL    HW224063   4.524   4.528  17.548 -0.7666 -0.0080  0.5768
 4201SOL     OW24064   3.175   2.678   4.309 -0.3354  0.1163 -0.0364
 4201SOL    HW124065   3.083   2.703   4.320 -0.3685 -0.4042  0.8719
 4201SOL    HW224066   3.194   2.719   4.225 -1.5338  0.1637 -0.2836
 4202SOL     OW24067   2.971   2.884  13.688 -0.1320 -1.0921 -0.0859
 4202SOL    HW124068   3.063   2.904  13.701 -0.3263 -0.9264  1.0326
 4202SOL    HW224069   2.920   2.957  13.723 -0.2882 -1.6723  0.8997
 4203SOL     OW24070   3.573   1.407  12.578  0.1272 -0.0560 -0.3456
 4203SOL    HW124071   3.524   1.440  12.653  0.4331  1.9078 -1.0176
 4203SOL    HW224072   3.573   1.491  12.533  1.3001  0.1039 -0.0609
 4204SOL     OW24073   0.565   2.189   6.218  0.0399  0.4016  0.2511
 4204SOL    HW124074   0.605   2.272   6.194  1.1596 -0.5867 -1.3167
 4204SOL    HW224075   0.490   2.226   6.265  0.1798  1.8057 -0.6509
 4205SOL     OW24076   3.414   0.891   6.986  0.1024 -0.2519  0.2013
 4205SOL    HW124077   3.467   0.833   7.041  0.2142 -1.9298 -1.6898
 4205SOL    HW224078   3.334   0.839   6.977 -0.1835 -0.1417  2.0133
 4206SOL     OW24079   2.419   1.998   5.938  0.3787  0.8212  0.6856
 4206SOL    HW124080   2.362   2.061   5.981 -1.4319 -0.3427 -0.0091
 4206SOL    HW224081   2.508   2.032   5.943  1.4904 -2.0456  0.5784
 4207SOL     OW24082   1.353   2.932   3.462 -0.0248 -0.0254  0.7133
 4207SOL    HW124083   1.435   2.935   3.411 -0.4116 -1.8720 -0.0122
 4207SOL    HW224084   1.388   2.921   3.550  0.4822  2.2900  0.7951
 4208SOL     OW24085   2.241   1.842   3.621 -0.0814  0.1085 -0.2434
 4208SOL    HW124086   2.315   1.801   3.664  0.4950 -0.3271 -1.6615
 4208SOL    HW224087   2.286   1.885   3.548  0.2502  1.1105  0.5483
 4209SOL     OW24088   2.082   3.349   0.207 -0.5474 -0.3427  0.2371
 4209SOL    HW124089   2.122   3.436   0.207 -2.4066  0.5037 -0.8441
 4209SOL    HW224090   2.045   3.340   0.119  1.2355 -0.8845 -0.4607
 4210SOL     OW24091   2.750   4.030   6.021 -0.1902 -0.1079  0.2316
 4210SOL    HW124092   2.674   4.040   6.078 -1.3685  1.2151 -1.5491
 4210SOL    HW224093   2.784   4.119   6.018  0.3726 -0.3342 -0.1670
 4211SOL     OW24094   1.412   3.008   6.417 -0.4175  0.1972 -0.7517
 4211SOL    HW124095   1.460   3.017   6.335  1.6004 -3.3089  0.0219
 4211SOL    HW224096   1.483   3.012   6.481  0.4565  0.6581 -1.7414
 4212SOL     OW24097   4.093   3.137  10.696  0.6413 -0.2832 -0.5376
 4212SOL    HW124098   4.017   3.158  10.751  0.6428 -0.8655 -0.3137
 4212SOL    HW224099   4.058   3.097  10.616  2.2563 -0.3019 -1.2281
 4213SOL     OW24100   0.110   0.080  11.087  0.2417  0.4797 -0.2110
 4213SOL    HW124101   0.015   0.087  11.102  0.1474  1.5034 -1.3043
 4213SOL    HW224102   0.113   4.712  11.055 -3.5733  0.3721 -0.2652
 4214SOL     OW24103   3.245   0.510   5.986 -0.7810 -0.5714  0.2827
 4214SOL    HW124104   3.326   0.534   6.031  0.1617  1.8386 -2.6666
 4214SOL    HW224105   3.176   0.532   6.049 -0.0079 -0.1377  0.9775
 4215SOL     OW24106   0.835   0.183   8.676  0.0518  0.2886  0.2530
 4215SOL    HW124107   0.879   0.257   8.635 -0.5616  0.9526  0.7885
 4215SOL    HW224108   0.749   0.189   8.635 -0.6135 -0.8852  1.4821
 4216SOL     OW24109   0.297   2.066   5.272 -0.2165 -0.2711  0.0258
 4216SOL    HW124110   0.341   2.134   5.323 -3.0705  1.0970  0.6654
 4216SOL    HW224111   0.205   2.082   5.294 -0.3932  0.7536 -1.4479
 4217SOL     OW24112   2.131   3.082   3.655 -0.2568  0.1546  0.0892
 4217SOL    HW124113   2.167   3.011   3.602 -1.4666  0.4134 -1.0813
 4217SOL    HW224114   2.040   3.084   3.624 -0.5953 -0.2273  1.0433
 4218SOL     OW24115   4.188   4.252   3.659  0.0795 -0.5514  0.3699
 4218SOL    HW124116   4.147   4.198   3.592  0.6803 -0.7499  0.1597
 4218SOL    HW224117   4.143   4.212   3.733  0.7274  0.7982  1.5046
 4219SOL     OW24118   0.418   2.903   5.515  0.3610  0.1587  0.3171
 4219SOL    HW124119   0.341   2.924   5.568  0.6975 -0.8940  1.2364
 4219SOL    HW224120   0.459   2.989   5.504 -2.9053  1.3248 -2.6264
 4220SOL     OW24121   0.792   3.741   5.293 -0.1141 -0.4375  0.1551
 4220SOL    HW124122   0.871   3.796   5.294  0.4147 -1.2149  0.6445
 4220SOL    HW224123   0.755   3.766   5.208  1.4217  0.5232 -0.2337
 4221SOL     OW24124   0.770   1.854   3.490  0.3150 -0.0118  0.1701
 4221SOL    HW124125   0.770   1.950   3.491  2.6475 -0.0232  0.5949
 4221SOL    HW224126   0.832   1.841   3.562  0.1814 -0.6895  0.1642
 4222SOL     OW24127   1.302   1.150   3.836  0.0201 -0.3032  0.2969
 4222SOL    HW124128   1.233   1.142   3.901  0.6744 -1.0870  0.8986
 4222SOL    HW224129   1.356   1.073   3.855  0.4130  0.0035  0.4414
 4223SOL     OW24130   0.483   2.089  11.040 -0.2872  0.4557  0.0328
 4223SOL    HW124131   0.513   2.009  10.997 -2.2857 -1.1341  1.6397
 4223SOL    HW224132   0.490   2.067  11.132 -0.9918 -0.4360 -0.1259
 4224SOL     OW24133   0.787   2.450   0.913 -0.2209  0.2223 -0.5049
 4224SOL    HW124134   0.874   2.441   0.953 -0.1552 -0.1665 -0.7361
 4224SOL    HW224135   0.737   2.440   0.994  0.1260  1.8241 -0.0912
 4225SOL     OW24136   0.104   4.377   4.232 -0.4224 -0.1715  0.3907
 4225SOL    HW124137   0.094   4.320   4.155  0.7458  0.5457 -0.2935
 4225SOL    HW224138   0.079   4.325   4.308  0.9281 -0.0361  0.9204
 4226SOL     OW24139   0.653   3.147   8.001  0.3637  0.0075 -0.1878
 4226SOL    HW124140   0.608   3.105   7.928  0.4944  0.5686 -0.5910
 4226SOL    HW224141   0.731   3.092   8.007 -1.0321 -1.8742  0.8598
 4227SOL     OW24142   3.711   2.339  10.163 -0.1622 -0.3773 -0.1475
 4227SOL    HW124143   3.768   2.307  10.093  0.0838  0.8410 -0.5180
 4227SOL    HW224144   3.775   2.400  10.200 -0.0967 -0.6376  0.1564
 4228SOL     OW24145   1.716   0.693   7.084  0.3184 -0.1028 -0.3430
 4228SOL    HW124146   1.682   0.691   6.995  0.2682  0.0424 -0.3281
 4228SOL    HW224147   1.634   0.691   7.135 -1.3768 -1.5461 -3.1353
 4229SOL     OW24148   2.975   1.093   1.066  0.6618  0.1409  0.2872
 4229SOL    HW124149   3.026   1.130   0.994  1.0106  0.6116  0.7893
 4229SOL    HW224150   3.044   1.035   1.098  1.5713 -0.7105 -3.1646
 4230SOL     OW24151   0.775   0.586   0.444  0.1346 -0.1194 -0.0325
 4230SOL    HW124152   0.752   0.661   0.499  1.8365  0.3010  0.1006
 4230SOL    HW224153   0.713   0.607   0.374 -0.2607  1.5779  0.8133
 4231SOL     OW24154   2.567   2.204   3.400 -0.1707  0.6587  0.1868
 4231SOL    HW124155   2.479   2.177   3.426 -1.5854  1.7971 -3.3894
 4231SOL    HW224156   2.622   2.131   3.371  0.6935  1.7387 -0.9371
 4232SOL     OW24157   1.320   4.315   7.026 -0.1630 -0.0256  0.1673
 4232SOL    HW124158   1.231   4.318   7.061 -0.3188 -1.2516 -0.1303
 4232SOL    HW224159   1.361   4.245   7.076  3.7044  2.5486  0.5801
 4233SOL     OW24160   2.576   1.800   8.254  0.2805 -0.7497  0.2053
 4233SOL    HW124161   2.521   1.836   8.323  0.1689 -0.3934 -0.0705
 4233SOL    HW224162   2.510   1.789   8.185 -0.5700 -1.1583  1.0904
 4234SOL     OW24163   3.884   4.475   6.895  0.0924 -1.2067  0.2314
 4234SOL    HW124164   3.866   4.398   6.949  0.1739  1.2029  3.6908
 4234SOL    HW224165   3.878   4.532   6.972 -0.1049 -0.3845 -0.3998
 4235SOL     OW24166   0.905   4.260   9.553  0.3053  0.1317 -0.0490
 4235SOL    HW124167   0.940   4.225   9.635  2.5300 -0.0542 -1.0811
 4235SOL    HW224168   0.853   4.333   9.587 -1.3031 -1.7526  1.5090
 4236SOL     OW24169   1.383   3.760   7.432  0.2465  0.1831 -0.2118
 4236SOL    HW124170   1.405   3.697   7.501  0.0858  0.3254 -0.0313
 4236SOL    HW224171   1.421   3.712   7.358 -0.6452 -1.3656  0.3403
 4237SOL     OW24172   4.606   3.791  14.186 -0.3704 -0.1553 -0.3240
 4237SOL    HW124173   4.537   3.734  14.152  1.2417 -1.5185 -1.3258
 4237SOL    HW224174   4.567   3.873  14.156 -1.0722 -0.1934  0.4917
 4238SOL     OW24175   0.134   1.242  10.448  0.4288  0.0584 -0.2994
 4238SOL    HW124176   0.195   1.316  10.451 -0.2398  0.5483  1.3935
 4238SOL    HW224177   0.193   1.170  10.472  0.4752  0.2406  0.1437
 4239SOL     OW24178   2.667   1.917  12.979 -0.0942  0.0427 -0.0225
 4239SOL    HW124179   2.607   1.985  12.948 -0.9260 -0.8306 -0.3290
 4239SOL    HW224180   2.720   1.899  12.902  0.9667  2.3655  0.1486
 4240SOL     OW24181   4.296   2.709   6.978 -0.1513  0.0710  0.7626
 4240SOL    HW124182   4.281   2.691   6.885 -0.8375 -0.9961  1.0808
 4240SOL    HW224183   4.216   2.760   6.993 -1.1219 -1.1565 -0.1150
 4241SOL     OW24184   0.442   4.514  14.600 -0.2783 -0.2314  0.4196
 4241SOL    HW124185   0.475   4.449  14.662  0.2145 -0.3177  0.0654
 4241SOL    HW224186   0.462   4.464  14.521  1.2049 -0.2952  0.8327
 4242SOL     OW24187   1.905   0.546   8.764 -0.3977 -0.5168 -0.6581
 4242SOL    HW124188   1.922   0.569   8.855  1.0086  2.6005 -1.6842
 4242SOL    HW224189   1.809   0.556   8.767 -0.4174 -1.5980  1.7711
 4243SOL     OW24190   1.616   1.523   8.074  0.1122  0.1690  0.3497
 4243SOL    HW124191   1.587   1.433   8.088  1.1117 -0.5224 -1.9424
 4243SOL    HW224192   1.709   1.501   8.065 -0.1163 -0.1055 -1.2739
 4244SOL     OW24193   3.211   2.054  14.984  0.2799  0.2261  0.4559
 4244SOL    HW124194   3.262   2.089  15.057  1.3825  1.4621 -0.9093
 4244SOL    HW224195   3.278   1.998  14.945 -2.2678 -1.6366 -1.2265
 4245SOL     OW24196   1.863   2.593  15.760 -0.0720 -0.1834 -0.5121
 4245SOL    HW124197   1.808   2.515  15.758 -2.4333  1.3980  2.8171
 4245SOL    HW224198   1.952   2.558  15.761  0.6095  1.5892  0.1750
 4246SOL     OW24199   3.493   1.675   9.380 -0.0534 -0.4601 -0.0298
 4246SOL    HW124200   3.436   1.601   9.359  0.3247 -0.8639  0.3457
 4246SOL    HW224201   3.544   1.698   9.302 -1.4208 -0.4488 -0.9088
 4247SOL     OW24202   1.174   3.786   1.496  0.2022  0.4069 -0.3195
 4247SOL    HW124203   1.090   3.757   1.458 -0.5141  1.2392  0.6330
 4247SOL    HW224204   1.239   3.774   1.427  0.3301  0.2419 -0.1723
 4248SOL     OW24205   0.327   0.876   3.737  0.0764 -0.6471 -0.1323
 4248SOL    HW124206   0.276   0.819   3.794  0.4939  0.1217  0.9925
 4248SOL    HW224207   0.391   0.913   3.797  0.3982 -0.3561 -0.6499
 4249SOL     OW24208   0.076   4.018   7.533  0.0946  0.0357 -0.1987
 4249SOL    HW124209   0.024   4.096   7.551 -1.2531 -0.4740 -1.8360
 4249SOL    HW224210   0.123   4.041   7.453 -0.6268 -0.5832 -0.8087
 4250SOL     OW24211   4.458   0.975   8.611 -0.2669 -0.0802 -0.0228
 4250SOL    HW124212   4.411   1.044   8.658 -1.0609  0.2796 -1.3345
 4250SOL    HW224213   4.541   1.022   8.611 -0.4277  0.2012 -0.3439
 4251SOL     OW24214   1.988   4.082   3.095  0.3019 -0.2273  0.3225
 4251SOL    HW124215   1.914   4.045   3.143  1.0000 -2.2275 -0.1345
 4251SOL    HW224216   2.047   4.095   3.169  0.0744  3.3808 -0.1088
 4252SOL     OW24217   4.327   1.241   3.188 -0.5819  0.2034  0.0186
 4252SOL    HW124218   4.307   1.150   3.209  1.1443  0.2831  1.9987
 4252SOL    HW224219   4.250   1.298   3.183 -0.9088 -0.2757 -0.4245
 4253SOL     OW24220   3.090   4.087   7.784  0.0890 -0.4912 -0.1594
 4253SOL    HW124221   3.128   4.004   7.756 -3.1027 -1.8216 -0.5606
 4253SOL    HW224222   3.111   4.106   7.875 -0.8649  1.6518 -0.3825
 4254SOL     OW24223   2.860   0.312   2.281 -0.0735  0.1224 -0.7194
 4254SOL    HW124224   2.876   0.261   2.360  0.3072  2.3176  0.6313
 4254SOL    HW224225   2.778   0.356   2.301  1.9953  4.0347 -0.8053
 4255SOL     OW24226   4.399   1.156  16.751 -0.2154  0.6576 -0.0419
 4255SOL    HW124227   4.488   1.139  16.783 -0.2844  0.1071 -0.1422
 4255SOL    HW224228   4.380   1.074  16.706 -0.5329  1.4143 -1.2808
 4256SOL     OW24229   1.630   2.767   6.209 -0.4267  0.1051  0.0467
 4256SOL    HW124230   1.632   2.862   6.206  0.2560  0.1030  0.3093
 4256SOL    HW224231   1.694   2.747   6.278 -1.2075 -1.0192  0.4562
 4257SOL     OW24232   3.165   4.501   5.750  0.2858 -0.1090 -0.3003
 4257SOL    HW124233   3.174   4.510   5.655  3.4394 -0.3560 -0.0112
 4257SOL    HW224234   3.072   4.526   5.754  0.4787  0.2429  1.6648
 4258SOL     OW24235   1.411   3.551   2.595  0.2573  0.1857  0.5367
 4258SOL    HW124236   1.347   3.532   2.526 -1.2806  0.4783  1.8822
 4258SOL    HW224237   1.488   3.577   2.546 -0.8959 -0.6702 -1.7500
 4259SOL     OW24238   4.257   0.358   7.169  0.1077 -0.5310  0.2236
 4259SOL    HW124239   4.284   0.434   7.221 -0.0841  1.2039 -2.1955
 4259SOL    HW224240   4.239   0.397   7.084  0.6423 -2.4769 -0.7849
 4260SOL     OW24241   2.576   4.011   4.931 -0.1645 -0.1693  0.4574
 4260SOL    HW124242   2.531   3.976   4.854  2.5167 -2.0478 -0.2573
 4260SOL    HW224243   2.504   4.001   4.993 -1.7914  1.8265 -1.1010
 4261SOL     OW24244   3.921   3.682  16.210  0.1222 -0.2421 -0.5554
 4261SOL    HW124245   3.959   3.711  16.128  2.5475  0.8074  0.9498
 4261SOL    HW224246   3.997   3.645  16.253  0.0052  1.7727  1.4050
 4262SOL     OW24247   0.405   4.293  15.508 -0.3315  0.1619  0.4390
 4262SOL    HW124248   0.492   4.254  15.503 -0.4472  0.1100 -1.2448
 4262SOL    HW224249   0.392   4.297  15.603 -0.6279  2.2048  0.3122
 4263SOL     OW24250   3.317   0.815  16.567  0.1044  0.0256  0.2506
 4263SOL    HW124251   3.231   0.802  16.607 -0.3666  3.5818  0.4329
 4263SOL    HW224252   3.321   0.741  16.507 -0.4580 -0.0402  0.2981
 4264SOL     OW24253   3.533   3.185   4.632  0.5945  0.4050 -0.2872
 4264SOL    HW124254   3.520   3.179   4.727  1.6501  1.7946 -0.0546
 4264SOL    HW224255   3.443   3.186   4.599  0.5547  2.1268 -0.1561
 4265SOL     OW24256   2.699   1.096   4.569 -0.3441 -0.2443 -0.5513
 4265SOL    HW124257   2.636   1.087   4.640  0.0371 -1.4423 -0.3508
 4265SOL    HW224258   2.737   1.009   4.583 -1.7115 -0.4996  1.5855
 4266SOL     OW24259   4.072   0.927   6.748 -0.4683 -0.1532 -0.3889
 4266SOL    HW124260   4.106   0.942   6.837  0.8309 -2.0683 -0.5592
 4266SOL    HW224261   4.093   0.833   6.751  3.1743  0.7009  1.8265
 4267SOL     OW24262   2.109   0.061   4.792 -0.0889  0.4998  0.2578
 4267SOL    HW124263   2.200   0.090   4.795  1.3222 -3.7472 -1.4697
 4267SOL    HW224264   2.128   4.691   4.806 -0.7737  0.7277  2.6809
 4268SOL     OW24265   4.389   3.346   3.534  0.1232  0.8050 -0.0031
 4268SOL    HW124266   4.318   3.407   3.555 -1.0030 -0.4545 -0.0670
 4268SOL    HW224267   4.467   3.398   3.519 -0.1462  0.7128 -1.7052
 4269SOL     OW24268   3.539   1.709   2.188 -0.0895  0.2790 -0.2756
 4269SOL    HW124269   3.559   1.624   2.148 -0.9258  0.6660 -1.5158
 4269SOL    HW224270   3.613   1.765   2.167 -2.1158  3.6974  1.6408
 4270SOL     OW24271   3.096   0.274  14.979  0.5589  0.1610 -0.0913
 4270SOL    HW124272   3.040   0.337  15.025  0.1145 -1.6568  1.7979
 4270SOL    HW224273   3.152   0.245  15.051 -0.6784  1.8444  1.5464
 4271SOL     OW24274   3.101   2.501   1.364  0.4006  0.1170  0.1271
 4271SOL    HW124275   3.122   2.431   1.301  1.4254  0.1793  0.3965
 4271SOL    HW224276   3.169   2.563   1.337  0.7287 -0.7456 -1.0707
 4272SOL     OW24277   4.137   0.291  11.998 -0.8851  0.1365 -0.0960
 4272SOL    HW124278   4.069   0.309  11.933 -0.8390 -1.5456 -0.6151
 4272SOL    HW224279   4.157   0.376  12.037  0.4859 -1.7445  3.2689
 4273SOL     OW24280   2.935   2.079   6.272  0.5450 -0.8043  0.3069
 4273SOL    HW124281   2.908   2.069   6.363 -0.7735 -1.2773 -0.1298
 4273SOL    HW224282   2.970   1.992   6.254  0.7290 -0.1657 -2.3732
 4274SOL     OW24283   4.280   4.239  17.460  0.4081 -0.0459 -0.6470
 4274SOL    HW124284   4.259   4.315  17.405 -0.9863 -0.2271 -0.3387
 4274SOL    HW224285   4.367   4.277  17.475  0.8922 -1.5318  0.2144
 4275SOL     OW24286   2.750   2.618  17.394 -0.3085  0.4929  0.5166
 4275SOL    HW124287   2.834   2.583  17.363 -1.8712  0.0466 -3.1785
 4275SOL    HW224288   2.778   2.657  17.476  1.5311  1.0283 -0.3624
 4276SOL     OW24289   4.099   1.445   8.331 -0.0786  0.3190 -0.1539
 4276SOL    HW124290   4.026   1.507   8.331 -0.6107 -0.2988 -1.4910
 4276SOL    HW224291   4.165   1.490   8.384  1.6324 -2.3663 -0.0171
 4277SOL     OW24292   2.561   0.340   7.034 -0.1626  0.2613  0.4735
 4277SOL    HW124293   2.546   0.245   7.031  0.8795  0.0241  2.2645
 4277SOL    HW224294   2.494   0.370   6.973  0.4618 -0.9680 -0.8281
 4278SOL     OW24295   1.905   0.957   9.224 -0.0496 -0.2017  0.0740
 4278SOL    HW124296   1.959   0.980   9.299  0.7708 -0.3134 -0.4881
 4278SOL    HW224297   1.817   0.959   9.263  0.0401  0.8050  0.2333
 4279SOL     OW24298   4.657   3.324   7.312  0.4896 -0.2045 -1.1051
 4279SOL    HW124299   4.654   3.368   7.227 -0.1206  1.9587  0.0575
 4279SOL    HW224300   4.668   3.399   7.369 -0.1228  0.8762 -2.4210
 4280SOL     OW24301   0.751   2.467   6.314  0.0659  0.0045 -0.5038
 4280SOL    HW124302   0.657   2.482   6.304  0.1708  0.7954 -0.3338
 4280SOL    HW224303   0.783   2.522   6.243 -0.5363 -0.1305 -0.8741
 4281SOL     OW24304   2.369   0.041   3.675  0.7299 -0.2182 -0.0316
 4281SOL    HW124305   2.320   4.698   3.723  0.6792 -1.2212 -1.4559
 4281SOL    HW224306   2.297   0.078   3.624  1.3269 -1.1187 -1.5333
 4282SOL     OW24307   0.385   3.079   5.915 -0.4319  0.4353 -0.0422
 4282SOL    HW124308   0.408   3.085   6.008  1.0306 -2.7645 -0.1994
 4282SOL    HW224309   0.309   3.136   5.911  3.1832  5.2868 -0.3704
 4283SOL     OW24310   3.608   1.726  14.332  0.4311 -0.7084 -0.3484
 4283SOL    HW124311   3.653   1.788  14.275 -0.5697  0.7922  0.4833
 4283SOL    HW224312   3.517   1.742  14.306 -0.1090 -0.9577  1.3432
 4284SOL     OW24313   3.943   1.595   6.412  0.0124  0.2887 -0.2821
 4284SOL    HW124314   3.979   1.569   6.497 -0.6086 -1.9499 -0.7302
 4284SOL    HW224315   3.999   1.671   6.391  0.8287 -0.4733 -0.8763
 4285SOL     OW24316   0.286   0.661   0.725 -0.2203  0.3075 -0.2723
 4285SOL    HW124317   0.292   0.614   0.809 -2.2702 -0.5058 -0.5726
 4285SOL    HW224318   0.326   0.744   0.751 -0.5405  0.3291  0.1588
 4286SOL     OW24319   2.469   3.513  12.985  0.1442 -0.4532  0.2779
 4286SOL    HW124320   2.538   3.483  12.926 -2.2531 -4.4058 -0.5136
 4286SOL    HW224321   2.391   3.491  12.934  0.0356 -1.4746  0.8670
 4287SOL     OW24322   2.116   3.977  13.700 -0.4157 -0.4123  0.1759
 4287SOL    HW124323   2.117   4.008  13.790  2.7831 -1.6460  0.5617
 4287SOL    HW224324   2.035   4.018  13.670  0.1971  1.8045  1.5830
 4288SOL     OW24325   0.721   2.394   1.764 -0.2448 -0.0068  0.5772
 4288SOL    HW124326   0.765   2.474   1.795  0.1596 -0.6304  1.6070
 4288SOL    HW224327   0.648   2.395   1.827 -1.5630  1.3506 -0.9795
 4289SOL     OW24328   0.239   3.092   1.431 -0.4420 -0.2854  0.0805
 4289SOL    HW124329   0.254   3.005   1.468  0.2205  0.1705  0.8928
 4289SOL    HW224330   0.184   3.135   1.497  2.0442 -0.2811  2.1534
 4290SOL     OW24331   3.727   2.371   5.912 -0.4007  0.1004 -0.1153
 4290SOL    HW124332   3.751   2.412   5.996  1.8032  0.8413 -1.1275
 4290SOL    HW224333   3.735   2.452   5.862 -2.2479 -0.9163 -2.0290
 4291SOL     OW24334   3.686   0.643  17.527  0.2140  0.3940  0.4849
 4291SOL    HW124335   3.681   0.584  17.452  0.8832 -1.1853  1.6828
 4291SOL    HW224336   3.774   0.617  17.555  0.0894 -0.1747  0.3523
 4292SOL     OW24337   2.180   2.242   8.749 -0.1269 -0.4301  0.6502
 4292SOL    HW124338   2.107   2.302   8.760  1.1700  1.4011 -0.7957
 4292SOL    HW224339   2.180   2.186   8.827  2.7602 -1.4829 -0.1246
 4293SOL     OW24340   0.738   0.715   8.807  0.0673  0.3473  0.2098
 4293SOL    HW124341   0.757   0.625   8.833 -2.5107 -0.6572 -1.3888
 4293SOL    HW224342   0.821   0.758   8.829  0.6032  0.5448 -2.2326
 4294SOL     OW24343   4.041   1.988  10.002  0.5945 -0.7613 -0.2793
 4294SOL    HW124344   4.059   2.041   9.924 -0.3226  0.9481  0.6759
 4294SOL    HW224345   3.978   1.925   9.966 -0.9959  0.0120  1.1584
 4295SOL     OW24346   0.292   4.326   8.626 -0.4458 -0.0962 -0.2957
 4295SOL    HW124347   0.270   4.408   8.671 -0.4426  0.6080 -1.5672
 4295SOL    HW224348   0.206   4.295   8.596 -0.2397 -1.8815  0.9680
 4296SOL     OW24349   4.295   0.171  10.946 -0.2322 -0.0136  0.1083
 4296SOL    HW124350   4.244   0.149  10.868 -0.6956  0.6914  0.2170
 4296SOL    HW224351   4.317   0.083  10.978  0.7518  0.1896 -0.0176
 4297SOL     OW24352   2.799   2.868   3.214  0.3630  0.1733  0.2196
 4297SOL    HW124353   2.720   2.874   3.267 -0.3038  1.3366 -0.8943
 4297SOL    HW224354   2.802   2.772   3.215 -0.0640  0.1262 -1.8030
 4298SOL     OW24355   4.083   1.407   3.221  0.1466 -0.0694 -0.4741
 4298SOL    HW124356   4.116   1.496   3.233  1.4892 -0.5595 -0.5056
 4298SOL    HW224357   4.023   1.384   3.293 -0.8798  0.3399 -1.1956
 4299SOL     OW24358   0.133   2.828  15.940 -0.0344  0.0988 -0.2884
 4299SOL    HW124359   0.049   2.870  15.922 -0.4693 -0.9874 -0.8139
 4299SOL    HW224360   0.194   2.879  15.886  1.6003 -0.5141  0.9752
 4300SOL     OW24361   4.047   0.181   8.895  0.4936  0.1282  0.2068
 4300SOL    HW124362   4.000   0.101   8.919  0.3080 -0.5556 -2.4271
 4300SOL    HW224363   4.139   0.158   8.880  0.2676 -0.1353 -0.7690
 4301SOL     OW24364   1.000   0.493   8.652  0.0094 -0.1759  0.1341
 4301SOL    HW124365   0.992   0.559   8.721 -1.5119 -1.6587  1.3877
 4301SOL    HW224366   0.994   0.545   8.572  0.4391 -1.8701 -0.9939
 4302SOL     OW24367   0.925   4.139   5.502 -0.4821 -0.3608  0.2294
 4302SOL    HW124368   0.951   4.216   5.452  2.8102 -1.5391  0.1033
 4302SOL    HW224369   0.916   4.163   5.595  0.9099 -0.8017  0.4774
 4303SOL     OW24370   3.257   1.431   8.481  0.0552  0.5524 -0.0942
 4303SOL    HW124371   3.339   1.436   8.530 -0.4361  0.3045  0.7551
 4303SOL    HW224372   3.231   1.340   8.498  1.9819 -0.0998 -0.6483
 4304SOL     OW24373   3.575   2.445   7.459  0.0208  0.4481  0.0732
 4304SOL    HW124374   3.657   2.489   7.481  0.5844 -0.3517 -0.4425
 4304SOL    HW224375   3.546   2.490   7.379  2.2506 -1.5857 -1.8943
 4305SOL     OW24376   4.321   1.740   3.656  0.0096 -0.8011  0.5067
 4305SOL    HW124377   4.308   1.688   3.577  2.1162 -0.6984  0.1206
 4305SOL    HW224378   4.329   1.669   3.720 -1.7887 -2.0480 -0.6479
 4306SOL     OW24379   0.665   3.275   1.892 -0.0564  0.8791  0.5961
 4306SOL    HW124380   0.757   3.278   1.921 -0.7346 -2.7868  3.1505
 4306SOL    HW224381   0.656   3.340   1.823  1.6743  0.0046 -0.4618
 4307SOL     OW24382   2.843   1.623   2.217  0.3754 -0.6199  0.0494
 4307SOL    HW124383   2.777   1.614   2.148 -0.5998  0.6246  0.8126
 4307SOL    HW224384   2.918   1.585   2.172  1.3667  0.2915  0.9495
 4308SOL     OW24385   1.039   3.768   6.327 -0.3722  0.4154 -0.7122
 4308SOL    HW124386   1.097   3.843   6.335  0.4893 -0.4783  1.5051
 4308SOL    HW224387   1.098   3.703   6.288 -0.8852  0.1573 -1.0528
 4309SOL     OW24388   0.236   0.039   7.694  0.5229  0.5009 -0.0369
 4309SOL    HW124389   0.323   0.078   7.700  0.0129  1.8530 -1.5327
 4309SOL    HW224390   0.242   4.686   7.635 -0.6499  0.2080  0.2197
 4310SOL     OW24391   4.362   1.158  13.914  0.1847 -0.1093 -0.3588
 4310SOL    HW124392   4.403   1.230  13.961  0.9203 -0.6832 -0.1249
 4310SOL    HW224393   4.351   1.199  13.828 -1.9459  0.7812  0.3295
 4311SOL     OW24394   1.235   2.169  12.261 -0.4840  0.5588 -0.1258
 4311SOL    HW124395   1.153   2.121  12.257 -0.0535 -0.2280  0.4346
 4311SOL    HW224396   1.201   2.255  12.285 -0.2215  0.1545  1.6703
 4312SOL     OW24397   1.935   2.752   1.670 -0.2987  0.7780  0.1460
 4312SOL    HW124398   1.843   2.756   1.646 -0.7390 -2.0885  1.4615
 4312SOL    HW224399   1.975   2.829   1.629 -0.2358  1.2256  1.0376
 4313SOL     OW24400   1.415   2.419   7.441  0.0641  0.3357  0.6081
 4313SOL    HW124401   1.416   2.427   7.345 -1.2901  0.6506  0.6260
 4313SOL    HW224402   1.324   2.394   7.456  0.2124  0.4691  1.7139
 4314SOL     OW24403   3.245   4.416   7.569  0.2208 -0.0697 -0.2867
 4314SOL    HW124404   3.176   4.472   7.605 -0.3178  0.3409 -1.9486
 4314SOL    HW224405   3.204   4.330   7.575 -0.2053  0.2068  0.6769
 4315SOL     OW24406   4.383   0.171  12.736  0.5558  0.2660  0.3195
 4315SOL    HW124407   4.407   0.108  12.668  1.2010  0.9680 -0.0981
 4315SOL    HW224408   4.433   0.252  12.725  0.7302  0.0521 -0.4914
 4316SOL     OW24409   0.500   0.117   7.628 -0.2311  0.5394  0.6990
 4316SOL    HW124410   0.540   0.204   7.638  1.9526 -0.2301 -1.4795
 4316SOL    HW224411   0.572   0.066   7.594 -0.8637 -1.3256  2.1485
 4317SOL     OW24412   3.919   2.109   0.422  0.4277 -0.1480  0.2198
 4317SOL    HW124413   3.968   2.028   0.433 -1.1874 -0.9082  1.7784
 4317SOL    HW224414   3.885   2.118   0.511  1.3154 -0.8114  0.6310
 4318SOL     OW24415   1.073   1.581   6.133  0.0297  0.2682 -0.0184
 4318SOL    HW124416   1.073   1.677   6.126 -0.3446  0.5466  3.6197
 4318SOL    HW224417   1.161   1.572   6.170 -0.3768 -2.5593  0.2674
 4319SOL     OW24418   4.254   4.600  10.973  0.2002  0.3556 -0.0718
 4319SOL    HW124419   4.292   4.516  10.946 -0.7936  0.4274 -1.6376
 4319SOL    HW224420   4.189   4.580  11.040  0.9559 -0.0893  0.5409
 4320SOL     OW24421   0.161   4.498   2.651  0.8537  0.2236 -0.4607
 4320SOL    HW124422   0.166   4.580   2.602 -1.4838  0.8819  0.4055
 4320SOL    HW224423   0.176   4.426   2.589 -0.0311 -0.8058  0.5243
 4321SOL     OW24424   0.463   4.681   9.479  0.2578  0.3255 -0.1740
 4321SOL    HW124425   0.536   0.000   9.434 -1.3865  0.6524 -2.5165
 4321SOL    HW224426   0.473   4.591   9.449 -0.0917  0.1480  0.2423
 4322SOL     OW24427   3.850   0.761   6.294  0.1139  0.5139 -0.0218
 4322SOL    HW124428   3.865   0.822   6.222 -1.2019 -0.0987 -0.8171
 4322SOL    HW224429   3.847   0.822   6.368  2.0039  0.3084  0.2198
 4323SOL     OW24430   1.072   3.335   4.538 -0.3375  0.3125 -0.1130
 4323SOL    HW124431   1.035   3.304   4.455  0.5402  0.9466 -0.7477
 4323SOL    HW224432   1.166   3.344   4.518 -0.0454 -1.6410  0.4151
 4324SOL     OW24433   2.759   0.650   7.780 -0.7380  0.2035 -0.0287
 4324SOL    HW124434   2.738   0.742   7.764 -0.6722 -0.1454 -2.1325
 4324SOL    HW224435   2.778   0.633   7.872  0.5418  1.4239 -0.0622
 4325SOL     OW24436   0.213   1.987   4.183  0.0746  0.2999  0.2342
 4325SOL    HW124437   0.309   1.993   4.182  0.2198 -1.5711  3.0972
 4325SOL    HW224438   0.190   1.982   4.276  2.3195 -1.9065  0.6660
 4326SOL     OW24439   3.398   4.299  11.843 -0.3415 -0.6806 -0.1471
 4326SOL    HW124440   3.469   4.235  11.836 -0.6642 -1.2073  1.5512
 4326SOL    HW224441   3.409   4.323  11.935  0.0288  1.0383 -0.6427
 4327SOL     OW24442   1.016   3.638   7.122 -0.2261 -0.2115 -0.0220
 4327SOL    HW124443   1.082   3.599   7.066 -1.8122 -1.5969 -0.9246
 4327SOL    HW224444   1.007   3.727   7.088  0.4876 -0.5744 -1.1577
 4328SOL     OW24445   4.331   3.760   7.761 -0.1609  0.6473 -0.3380
 4328SOL    HW124446   4.288   3.809   7.830 -2.4097  0.6517 -1.7567
 4328SOL    HW224447   4.402   3.711   7.803  0.2550  1.7053  0.2045
 4329SOL     OW24448   3.701   4.434  14.956  0.1394 -0.1837  0.0214
 4329SOL    HW124449   3.794   4.420  14.937  0.9443  1.0748  3.0095
 4329SOL    HW224450   3.662   4.480  14.882  0.4925 -2.2566 -1.4747
 4330SOL     OW24451   0.078   2.297   2.069  0.6983  0.5887 -0.0684
 4330SOL    HW124452   0.163   2.281   2.109  0.9274  1.2443 -0.2967
 4330SOL    HW224453   0.023   2.243   2.127  3.1903 -0.7039  1.0892
 4331SOL     OW24454   4.583   1.082  17.652  0.2753 -0.1162 -0.7212
 4331SOL    HW124455   4.515   1.051   0.018  3.5657 -2.4270  1.8290
 4331SOL    HW224456   4.580   1.175  17.672  0.6583  0.1034 -1.6571
 4332SOL     OW24457   1.714   3.684  13.248 -0.5231  0.2898 -0.6389
 4332SOL    HW124458   1.758   3.613  13.202  0.0412 -0.0988  0.4896
 4332SOL    HW224459   1.712   3.655  13.340  0.8985  1.0633 -0.3703
 4333SOL     OW24460   3.966   0.229   1.307 -0.2878  0.1884  0.1791
 4333SOL    HW124461   4.058   0.235   1.335 -0.4031 -1.3276  0.8492
 4333SOL    HW224462   3.915   0.230   1.388  1.4111 -1.5663  1.2765
 4334SOL     OW24463   1.298   4.677  10.370 -0.6119 -0.0275 -0.4421
 4334SOL    HW124464   1.267   4.587  10.359 -2.9403  0.8237 -0.8410
 4334SOL    HW224465   1.366   4.658  10.435 -2.5751  0.4847  1.7888
 4335SOL     OW24466   0.594   3.836   2.630 -0.4123  0.0129 -0.2196
 4335SOL    HW124467   0.625   3.823   2.541 -0.9928  1.4927 -0.6345
 4335SOL    HW224468   0.531   3.908   2.627  0.1477  0.5641  1.0161
 4336SOL     OW24469   2.101   0.520   1.890  0.2356  0.7331 -0.4707
 4336SOL    HW124470   2.130   0.430   1.896 -0.9625  0.5165  2.1554
 4336SOL    HW224471   2.052   0.510   1.808  0.6026  0.2012 -0.6218
 4337SOL     OW24472   2.932   1.372   4.101 -0.1243  0.5587  0.1540
 4337SOL    HW124473   2.918   1.401   4.011  1.6193 -0.9485 -0.5909
 4337SOL    HW224474   2.869   1.301   4.114  0.4453 -0.0829 -0.5821
 4338SOL     OW24475   4.231   1.257   4.351  0.5686 -0.1436  0.3039
 4338SOL    HW124476   4.198   1.168   4.361 -0.7402  0.2134 -0.7710
 4338SOL    HW224477   4.314   1.245   4.397  1.4235  1.1013 -0.9082
 4339SOL     OW24478   0.323   1.460   4.586 -0.0824 -0.1814  0.3724
 4339SOL    HW124479   0.332   1.539   4.533 -1.5583 -0.9279 -1.0128
 4339SOL    HW224480   0.228   1.455   4.596 -0.2936  0.8637 -1.1149
 4340SOL     OW24481   2.060   3.467   5.556 -0.0929  0.2301  0.1884
 4340SOL    HW124482   2.064   3.548   5.607  1.5390 -0.9964  2.0286
 4340SOL    HW224483   2.131   3.417   5.597 -1.0424 -1.8524 -0.6848
 4341SOL     OW24484   3.768   3.490   1.060  0.5626 -0.3314  0.8187
 4341SOL    HW124485   3.707   3.454   1.123 -1.2545  1.6542  0.1917
 4341SOL    HW224486   3.794   3.572   1.101 -1.3607  1.8122 -2.2451
 4342SOL     OW24487   3.959   0.131   8.274  0.6264  0.1911  0.3273
 4342SOL    HW124488   4.003   0.198   8.327 -0.2290  1.9030 -1.1126
 4342SOL    HW224489   4.024   0.102   8.210  0.3720  0.9741 -0.2938
 4343SOL     OW24490   2.801   4.579   7.488  0.0284  0.3072  0.0526
 4343SOL    HW124491   2.736   4.626   7.436 -0.7237  0.1312  0.8386
 4343SOL    HW224492   2.839   4.525   7.418 -0.9987  0.1602 -0.3919
 4344SOL     OW24493   4.517   2.701   2.502  0.5650  0.2792  0.1068
 4344SOL    HW124494   4.517   2.797   2.496  1.9219  0.2972  0.2405
 4344SOL    HW224495   4.457   2.675   2.432 -0.5325 -1.1701  1.5830
 4345SOL     OW24496   1.163   0.086   3.074 -0.2449 -0.0243  0.2070
 4345SOL    HW124497   1.126   0.005   3.040  2.2024 -0.4609 -1.3914
 4345SOL    HW224498   1.087   0.142   3.090  0.2632  0.3650  1.2936
 4346SOL     OW24499   2.132   0.241   1.945  0.6681 -0.5161 -0.0367
 4346SOL    HW124500   2.226   0.246   1.957  0.9062 -0.0706 -2.1710
 4346SOL    HW224501   2.111   0.202   2.030 -0.1360 -1.5866 -0.7091
 4347SOL     OW24502   1.763   0.455   5.237 -0.3903  0.2730  0.0886
 4347SOL    HW124503   1.854   0.467   5.212 -0.2805  0.5754  0.6344
 4347SOL    HW224504   1.737   0.546   5.250  1.5554  0.8158  0.0680
 4348SOL     OW24505   1.886   1.796   1.868  0.3194 -0.2589 -0.2890
 4348SOL    HW124506   1.850   1.868   1.816 -0.1493  0.3872  0.9242
 4348SOL    HW224507   1.936   1.755   1.798  0.4462  0.5039 -0.6486
 4349SOL     OW24508   1.711   3.572  17.042  0.0593  0.3088  0.2368
 4349SOL    HW124509   1.712   3.528  17.127  2.2505  2.2426  1.2017
 4349SOL    HW224510   1.803   3.599  17.039  0.3366 -0.5223  1.0754
 4350SOL     OW24511   1.262   2.973   8.236  0.0402  0.3552  0.3456
 4350SOL    HW124512   1.200   3.045   8.226  0.8734  0.7728 -1.8784
 4350SOL    HW224513   1.345   3.021   8.235 -0.0804  0.5024 -1.7006
 4351SOL     OW24514   4.032   3.845   9.255  0.1699 -0.2025 -0.5685
 4351SOL    HW124515   4.040   3.771   9.316  0.3123  1.6461  1.6442
 4351SOL    HW224516   4.118   3.839   9.212  1.2087  1.3263  1.3077
 4352SOL     OW24517   1.335   3.024  17.131  0.4004 -0.0224  0.0186
 4352SOL    HW124518   1.260   2.995  17.079 -0.4700 -0.4026  1.5162
 4352SOL    HW224519   1.366   2.943  17.171 -0.7724 -0.2101  0.5229
 4353SOL     OW24520   3.917   0.291   0.889  0.3500 -0.5177  0.1438
 4353SOL    HW124521   4.011   0.299   0.906 -0.0130 -0.0988  1.9586
 4353SOL    HW224522   3.883   0.318   0.974  1.6422  0.5826  0.3073
 4354SOL     OW24523   1.217   0.475   2.965  0.1128 -0.1258 -0.4550
 4354SOL    HW124524   1.231   0.457   3.058  0.8579  1.4608 -0.2560
 4354SOL    HW224525   1.137   0.425   2.953 -0.3762  0.4503  0.4559
 4355SOL     OW24526   2.180   2.213   2.546 -0.6314 -0.8785  0.1726
 4355SOL    HW124527   2.222   2.223   2.631  0.1953 -0.5417 -0.2728
 4355SOL    HW224528   2.197   2.126   2.510 -1.9076 -1.2751  0.5181
 4356SOL     OW24529   3.352   1.429   2.610 -0.9203 -0.5192 -0.3503
 4356SOL    HW124530   3.343   1.513   2.656 -2.0450 -0.3170 -0.9225
 4356SOL    HW224531   3.347   1.452   2.517  0.9245 -0.4392 -0.4374
 4357SOL     OW24532   1.176   4.219  13.989  0.1009 -0.5801  0.2388
 4357SOL    HW124533   1.200   4.178  14.072 -1.4392 -0.2839  0.8248
 4357SOL    HW224534   1.179   4.144  13.929  0.6758  0.1420 -0.6422
 4358SOL     OW24535   3.750   2.445   0.594  0.1214 -0.0009 -0.2941
 4358SOL    HW124536   3.738   2.531   0.553  0.0206 -0.8874 -2.1098
 4358SOL    HW224537   3.691   2.391   0.542  0.0237  0.0021 -0.1851
 4359SOL     OW24538   0.046   0.408   8.347  0.0434  0.2110  0.3478
 4359SOL    HW124539   0.016   0.371   8.430 -0.3743 -2.5264 -1.0354
 4359SOL    HW224540   4.687   0.441   8.311  0.3799 -2.4719 -2.8849
 4360SOL     OW24541   1.142   2.738   5.206  0.3770 -0.1497 -0.2284
 4360SOL    HW124542   1.199   2.719   5.280  1.2366  1.5901 -0.4420
 4360SOL    HW224543   1.081   2.664   5.210  1.0007 -0.7162 -1.1934
 4361SOL     OW24544   2.074   1.205   6.130  0.2746  0.0189 -0.3702
 4361SOL    HW124545   2.063   1.122   6.084 -2.3339  0.3144 -0.2873
 4361SOL    HW224546   2.037   1.275   6.074 -0.0897 -0.5545 -0.8480
 4362SOL     OW24547   3.113   2.557  14.349 -0.3305  0.4966  0.3332
 4362SOL    HW124548   3.193   2.506  14.362  0.0363  0.3302 -2.6219
 4362SOL    HW224549   3.084   2.517  14.267 -0.4502  2.6968 -0.7075
 4363SOL     OW24550   1.930   0.580   8.283  0.1661 -0.0141 -0.2993
 4363SOL    HW124551   1.995   0.640   8.320  0.8161  0.1917 -1.7501
 4363SOL    HW224552   1.971   0.496   8.261  0.8898 -0.1847  1.6863
 4364SOL     OW24553   1.164   1.508   6.560 -1.0575  0.0640 -0.2619
 4364SOL    HW124554   1.100   1.540   6.623  0.4616  2.4768  0.0581
 4364SOL    HW224555   1.207   1.591   6.538 -0.0386 -0.3589  0.1414
 4365SOL     OW24556   4.180   2.510  10.359 -0.5442 -0.2315  0.5086
 4365SOL    HW124557   4.176   2.587  10.416  2.4395 -0.8649  1.6079
 4365SOL    HW224558   4.240   2.450  10.404  0.5654  0.5800  0.1115
 4366SOL     OW24559   1.216   1.408   6.867 -0.6267 -0.1385 -0.2053
 4366SOL    HW124560   1.253   1.490   6.835 -1.4221  0.1884 -0.2871
 4366SOL    HW224561   1.229   1.340   6.801 -0.3204 -1.1966  0.9400
 4367SOL     OW24562   1.490   1.061  16.903 -0.4354 -0.0939 -0.2289
 4367SOL    HW124563   1.519   1.001  16.835  0.9109  1.7841 -1.2980
 4367SOL    HW224564   1.521   1.013  16.981 -2.8036 -0.3954  0.5408
 4368SOL     OW24565   1.531   3.719   9.151 -0.2161  0.7450  0.6525
 4368SOL    HW124566   1.471   3.782   9.111 -0.8597  1.0407  2.0661
 4368SOL    HW224567   1.475   3.643   9.169  1.1135 -0.3081  0.3217
 4369SOL     OW24568   0.672   0.600   5.073  0.5231 -0.5043  0.6922
 4369SOL    HW124569   0.648   0.579   4.982 -1.5156  0.2077  1.0714
 4369SOL    HW224570   0.634   0.687   5.085  1.2542  0.3628 -3.2025
 4370SOL     OW24571   3.146   1.082   0.344 -0.6048  0.1638 -0.3236
 4370SOL    HW124572   3.204   1.038   0.406  1.3758  2.2473 -0.6488
 4370SOL    HW224573   3.064   1.034   0.350  0.4357 -1.3251  1.9027
 4371SOL     OW24574   0.521   2.724   7.709 -0.0503 -0.1396  0.0263
 4371SOL    HW124575   0.460   2.785   7.668  0.2532  1.4278  1.9056
 4371SOL    HW224576   0.460   2.685   7.771 -0.4930  2.2674  1.1221
 4372SOL     OW24577   0.860   1.111   5.375 -0.0568 -0.0528  0.3260
 4372SOL    HW124578   0.825   1.050   5.311  1.1076 -2.2192  1.7597
 4372SOL    HW224579   0.955   1.100   5.368  0.0827  1.3424 -0.0492
 4373SOL     OW24580   2.466   0.075  12.537  0.5430  0.0515  0.2396
 4373SOL    HW124581   2.372   0.074  12.519  0.4710 -0.2586  0.6345
 4373SOL    HW224582   2.474   4.719  12.590 -1.5545  0.2435  0.8622
 4374SOL     OW24583   2.526   1.219   3.824  0.1591 -0.4444  0.0386
 4374SOL    HW124584   2.497   1.297   3.873  1.3398 -1.4797  2.4025
 4374SOL    HW224585   2.539   1.262   3.740  0.0639 -1.1903 -0.3554
 4375SOL     OW24586   2.651   1.985  10.728  0.4775 -0.6147  0.7759
 4375SOL    HW124587   2.596   2.044  10.676  3.4296  0.2288 -1.3447
 4375SOL    HW224588   2.592   1.918  10.764 -0.6561  0.0403  0.1310
 4376SOL     OW24589   3.988   4.244  14.800  0.6375  0.2761 -0.2136
 4376SOL    HW124590   4.002   4.286  14.885  1.3394  0.6640 -0.5216
 4376SOL    HW224591   3.913   4.188  14.821 -1.4497  2.4745 -1.7672
 4377SOL     OW24592   1.869   3.765   8.401  0.1499 -0.5627 -0.1917
 4377SOL    HW124593   1.925   3.749   8.325  1.6655 -1.0157  1.0200
 4377SOL    HW224594   1.929   3.776   8.475  0.9206 -0.8542 -0.7784
 4378SOL     OW24595   2.921   2.497  13.857  0.2933 -0.1894 -0.2659
 4378SOL    HW124596   2.923   2.585  13.893 -0.0437 -1.1443  2.1113
 4378SOL    HW224597   2.837   2.497  13.810 -0.7172 -1.9516  1.5289
 4379SOL     OW24598   3.964   2.843   7.558  0.5447  0.2524  0.3672
 4379SOL    HW124599   3.900   2.779   7.528 -0.1670  0.6376  1.0772
 4379SOL    HW224600   4.044   2.800   7.528 -0.2787  0.6270 -2.4378
 4380SOL     OW24601   1.959   2.175   7.913 -0.1363 -0.8407  0.0563
 4380SOL    HW124602   2.027   2.240   7.932  1.4071 -2.9622  1.7663
 4380SOL    HW224603   2.013   2.098   7.897 -1.6439 -1.4979 -1.8324
 4381SOL     OW24604   0.828   3.933   7.638  0.1390  0.1812 -0.3244
 4381SOL    HW124605   0.872   4.013   7.664 -1.5756  1.3245 -0.9597
 4381SOL    HW224606   0.890   3.919   7.566  2.0750  0.8511  1.2256
 4382SOL     OW24607   2.145   3.618   0.201 -1.0361 -0.0647  0.0477
 4382SOL    HW124608   2.104   3.689   0.152 -2.0989 -0.3513  0.5210
 4382SOL    HW224609   2.237   3.642   0.212 -1.3150  1.6975 -1.4269
 4383SOL     OW24610   3.458   3.987   2.553  0.5786  0.0197 -0.0018
 4383SOL    HW124611   3.503   4.070   2.568  2.0712 -0.7978  0.0634
 4383SOL    HW224612   3.381   4.032   2.521  1.1639 -0.6015 -2.2588
 4384SOL     OW24613   2.353   2.866   3.994  0.0389  0.4057 -0.4094
 4384SOL    HW124614   2.324   2.798   4.055 -1.5738  1.8254  0.4046
 4384SOL    HW224615   2.376   2.802   3.926  0.4083 -0.3460  0.4157
 4385SOL     OW24616   2.296   2.081   7.027  0.5285 -0.0499 -0.1027
 4385SOL    HW124617   2.340   2.098   6.944  0.2434 -2.8600 -0.8516
 4385SOL    HW224618   2.215   2.043   6.991  0.4494 -1.3019  1.3838
 4386SOL     OW24619   0.787   3.425  12.837 -0.6697 -0.5137 -0.3056
 4386SOL    HW124620   0.808   3.405  12.745 -2.3807 -1.7121 -0.4287
 4386SOL    HW224621   0.875   3.447  12.868 -0.7346  0.7950 -1.0240
 4387SOL     OW24622   0.014   1.117   5.308  0.5539 -0.4189 -0.1107
 4387SOL    HW124623   0.019   1.089   5.216 -1.8068 -1.5520  0.1294
 4387SOL    HW224624   0.031   1.211   5.296 -0.5489 -0.3358 -1.0814
 4388SOL     OW24625   3.293   1.070   5.765  0.7762 -0.4796  0.3944
 4388SOL    HW124626   3.356   1.141   5.757  1.6969 -1.2313  1.0702
 4388SOL    HW224627   3.240   1.094   5.842 -0.9966  0.4624 -1.1175
 4389SOL     OW24628   1.679   1.166  12.220 -0.2742 -0.0021 -0.4441
 4389SOL    HW124629   1.660   1.174  12.126  1.4646  0.4430 -0.7531
 4389SOL    HW224630   1.621   1.234  12.255  2.0327  1.5456  0.3086
 4390SOL     OW24631   1.731   4.126   2.695 -0.0028 -0.0334  0.5002
 4390SOL    HW124632   1.724   4.215   2.661 -0.9157 -0.3307 -0.0815
 4390SOL    HW224633   1.661   4.075   2.656  1.8567 -3.5398  1.7739
 4391SOL     OW24634   1.721   3.007  10.187  0.2308  0.3741 -0.7368
 4391SOL    HW124635   1.727   2.912  10.201 -0.8851  0.6695  1.9115
 4391SOL    HW224636   1.721   3.040  10.277 -1.9740 -0.2634 -0.4893
 4392SOL     OW24637   2.997   4.590   2.278 -0.2057 -0.1248 -0.3634
 4392SOL    HW124638   2.909   4.625   2.295 -0.3958  0.0647 -1.7195
 4392SOL    HW224639   2.980   4.534   2.202  0.2098  0.9660 -1.2530
 4393SOL     OW24640   2.727   2.838  13.088  0.1403 -0.2520  0.1469
 4393SOL    HW124641   2.719   2.790  13.171 -1.0964  0.7749  0.6228
 4393SOL    HW224642   2.715   2.925  13.127 -2.0802  0.2007 -1.5448
 4394SOL     OW24643   1.677   1.305   6.797  0.3297 -0.1799  0.3249
 4394SOL    HW124644   1.611   1.367   6.826 -1.2805 -0.7950 -1.9669
 4394SOL    HW224645   1.735   1.356   6.741  1.9336 -1.6268  0.6782
 4395SOL     OW24646   4.427   1.063   1.948  0.1308 -0.2447  0.4448
 4395SOL    HW124647   4.375   1.021   1.879  0.9614 -1.2460  0.4291
 4395SOL    HW224648   4.430   1.157   1.927 -0.6184 -1.0944 -3.4955
 4396SOL     OW24649   1.519   4.704  11.767 -0.1013  0.4156 -0.0204
 4396SOL    HW124650   1.606   0.018  11.774  0.4128 -0.5878 -0.9999
 4396SOL    HW224651   1.526   4.625  11.821  0.4495  0.3596 -0.1761
 4397SOL     OW24652   1.007   0.743   8.826  0.2560  0.2261 -0.2969
 4397SOL    HW124653   1.067   0.704   8.890  0.0170  0.2447 -0.0625
 4397SOL    HW224654   1.061   0.789   8.762 -1.8282  0.8027 -1.6659
 4398SOL     OW24655   2.034   4.215  12.981 -0.5867 -0.4664 -0.2369
 4398SOL    HW124656   2.021   4.130  12.940  0.5751 -1.0705  0.6466
 4398SOL    HW224657   2.102   4.255  12.928 -2.1752  0.6539 -1.4338
 4399SOL     OW24658   2.844   3.505   4.032  0.1779 -0.0359 -0.1960
 4399SOL    HW124659   2.822   3.456   4.111  2.3621 -0.1465  0.3646
 4399SOL    HW224660   2.913   3.448   3.998  1.0298  0.0704  1.3530
 4400SOL     OW24661   0.170   2.277  14.001  0.6933  0.2323  0.3339
 4400SOL    HW124662   0.259   2.289  13.968  0.6608  1.1194  0.5763
 4400SOL    HW224663   0.172   2.293  14.095  1.8659  0.8282  0.2162
 4401SOL     OW24664   2.705   2.446  15.815 -0.5394 -0.1571 -0.0267
 4401SOL    HW124665   2.674   2.490  15.736 -4.2589 -0.6592  1.1470
 4401SOL    HW224666   2.782   2.498  15.838 -0.3112 -1.1033  1.4129
 4402SOL     OW24667   0.401   4.026   9.544 -0.2323 -0.0647  0.1629
 4402SOL    HW124668   0.495   4.007   9.551 -0.6919 -2.0742  0.8438
 4402SOL    HW224669   0.365   3.978   9.619 -3.0066 -2.0766 -2.4349
 4403SOL     OW24670   3.966   4.063  15.052  0.3694 -0.3572 -0.7649
 4403SOL    HW124671   3.881   4.091  15.021  0.3633  2.2696  1.5747
 4403SOL    HW224672   3.979   4.137  15.111  0.8233 -0.2591 -0.9859
 4404SOL     OW24673   0.154   1.158   3.098 -0.0277 -0.0526 -0.7193
 4404SOL    HW124674   0.202   1.099   3.156 -1.3745 -0.5214 -0.0840
 4404SOL    HW224675   0.083   1.104   3.064  0.7249 -0.3824 -1.7959
 4405SOL     OW24676   0.006   1.801  14.716 -0.4549 -0.0802  0.0255
 4405SOL    HW124677   4.695   1.842  14.636  1.4904 -0.4083 -0.9711
 4405SOL    HW224678   4.654   1.811  14.775 -1.7331  1.2290 -1.8076
 4406SOL     OW24679   3.636   3.637   8.810 -0.6036  0.4632 -0.3899
 4406SOL    HW124680   3.678   3.714   8.848 -1.3557  0.7080 -0.0573
 4406SOL    HW224681   3.682   3.560   8.842  0.7087  1.2856 -0.3102
 4407SOL     OW24682   4.575   1.091   4.670 -0.5842 -0.1120 -0.2303
 4407SOL    HW124683   4.537   1.107   4.584 -1.7296 -0.2708  0.2427
 4407SOL    HW224684   4.606   1.000   4.670  0.9157  0.3887 -0.3513
 4408SOL     OW24685   3.848   1.365  12.508 -0.1981  0.1204  0.4309
 4408SOL    HW124686   3.773   1.377  12.567  0.3632  0.7260  1.0157
 4408SOL    HW224687   3.917   1.365  12.574 -0.3353 -2.4979  0.5778
 4409SOL     OW24688   2.377   1.241   4.268 -0.7888 -0.2499 -0.0948
 4409SOL    HW124689   2.459   1.278   4.301 -2.1373  1.9418  0.8167
 4409SOL    HW224690   2.409   1.150   4.272  1.5290  0.6119  1.4535
 4410SOL     OW24691   2.698   4.707  11.075  0.0826  0.4688  0.4079
 4410SOL    HW124692   2.705   0.023  10.988  0.9699 -1.0579 -0.1936
 4410SOL    HW224693   2.786   4.671  11.083  0.3029  0.7968 -0.5297
 4411SOL     OW24694   1.017   0.080   6.330  0.3647 -0.1814 -0.4291
 4411SOL    HW124695   0.969   0.152   6.369 -0.0686 -1.5623  1.5523
 4411SOL    HW224696   1.029   0.103   6.237  1.5035 -0.0125 -0.2502
 4412SOL     OW24697   4.411   1.746   5.083 -0.3773 -0.0221  0.2239
 4412SOL    HW124698   4.325   1.717   5.053 -1.7656  1.7312  2.4766
 4412SOL    HW224699   4.402   1.730   5.177 -2.1992 -0.6419 -0.0558
 4413SOL     OW24700   4.174   1.773   5.766  0.0802  0.6759 -0.2181
 4413SOL    HW124701   4.099   1.832   5.760  1.3005  2.2311  0.1081
 4413SOL    HW224702   4.156   1.726   5.847  1.0645 -1.7365 -1.4038
 4414SOL     OW24703   0.702   3.961   2.031 -0.1951  0.9651 -0.5297
 4414SOL    HW124704   0.708   3.967   1.936 -0.5546 -1.1847 -0.6961
 4414SOL    HW224705   0.610   3.937   2.042 -0.1236  0.7917 -0.3059
 4415SOL     OW24706   4.253   3.003  16.299  0.4359 -0.7039  0.1162
 4415SOL    HW124707   4.250   2.938  16.369  2.7061 -1.7236 -0.7535
 4415SOL    HW224708   4.346   3.003  16.278  0.1978  0.1916 -0.9648
 4416SOL     OW24709   1.878   1.575   2.022 -0.2819  0.1975 -0.1256
 4416SOL    HW124710   1.887   1.661   1.980  0.9894  0.3129  0.3972
 4416SOL    HW224711   1.882   1.519   1.944  2.6634 -0.2295  0.3226
 4417SOL     OW24712   0.720   1.935  11.321 -0.5231 -0.6275 -0.0493
 4417SOL    HW124713   0.660   1.868  11.288 -2.1573 -0.6601  3.0153
 4417SOL    HW224714   0.780   1.888  11.379 -0.0027 -0.8087 -0.7291
 4418SOL     OW24715   2.700   0.797   2.598 -0.7315 -0.4906 -0.1683
 4418SOL    HW124716   2.674   0.713   2.561 -0.3473 -0.4503 -0.5372
 4418SOL    HW224717   2.619   0.825   2.640 -0.7246  0.0503 -0.5042
 4419SOL     OW24718   4.185   0.453   0.030  0.0370 -0.4528 -0.3275
 4419SOL    HW124719   4.261   0.486  17.675  1.5577 -2.3374  0.7205
 4419SOL    HW224720   4.153   0.524   0.085 -0.4965 -0.3325 -0.8082
 4420SOL     OW24721   3.794   2.232   3.372  0.3133  0.1833 -0.2691
 4420SOL    HW124722   3.734   2.255   3.443 -0.2024 -1.2497 -0.2261
 4420SOL    HW224723   3.726   2.181   3.327  2.2836 -2.9033  0.2248
 4421SOL     OW24724   4.642   2.200   2.320 -0.2671 -0.0749 -0.1621
 4421SOL    HW124725   4.665   2.115   2.282  3.9029  0.5732  0.9145
 4421SOL    HW224726   4.690   2.217   2.401 -1.9870  2.2213  0.3781
 4422SOL     OW24727   0.995   2.056  16.159  0.1386 -0.4743 -0.5601
 4422SOL    HW124728   1.037   2.103  16.231  0.7612 -0.9648 -0.5976
 4422SOL    HW224729   1.045   2.089  16.084 -0.0952  0.7389 -0.1777
 4423SOL     OW24730   2.308   4.274   4.124 -0.2840  0.2613 -0.1460
 4423SOL    HW124731   2.372   4.291   4.054  3.0214  1.3957  3.1321
 4423SOL    HW224732   2.357   4.212   4.178 -0.2997  0.2993 -0.0877
 4424SOL     OW24733   1.226   3.363   1.132  0.5260  0.2146 -0.2642
 4424SOL    HW124734   1.210   3.278   1.174 -1.1372  0.5935 -0.1404
 4424SOL    HW224735   1.286   3.399   1.197 -0.7891  2.0105 -0.0720
 4425SOL     OW24736   0.822   1.107   0.935  0.0742 -0.2086  0.0499
 4425SOL    HW124737   0.843   1.072   0.848 -2.2079 -0.4066 -0.4321
 4425SOL    HW224738   0.907   1.133   0.970  0.3890  1.3842 -1.9041
 4426SOL     OW24739   4.477   1.247   7.426 -0.0855 -0.2490  0.1070
 4426SOL    HW124740   4.472   1.335   7.389  0.8847  0.3642  1.4209
 4426SOL    HW224741   4.469   1.186   7.352  2.1733 -1.2901  0.7169
 4427SOL     OW24742   0.410   4.174   2.081 -0.4365  0.4805  0.5873
 4427SOL    HW124743   0.370   4.087   2.090  0.5554 -0.3154 -2.8028
 4427SOL    HW224744   0.472   4.142   2.015  0.5472 -0.8524  2.1494
 4428SOL     OW24745   3.447   4.716   0.578 -0.0699  0.0605  0.3357
 4428SOL    HW124746   3.395   4.640   0.606  1.9179 -1.4429 -0.0939
 4428SOL    HW224747   3.525   4.667   0.553  0.7831  0.1547  2.7749
 4429SOL     OW24748   2.722   4.472  12.252 -0.4871 -0.0078 -0.1991
 4429SOL    HW124749   2.668   4.517  12.188 -1.0569  0.6093  0.7102
 4429SOL    HW224750   2.664   4.431  12.317 -0.4434 -0.6359 -0.5514
 4430SOL     OW24751   2.448   0.677  13.803 -0.2641  0.1815 -0.1822
 4430SOL    HW124752   2.358   0.711  13.804 -0.1195  0.4826  1.6584
 4430SOL    HW224753   2.458   0.678  13.708 -0.0204  0.6254 -0.1481
 4431SOL     OW24754   4.119   0.198   0.640 -0.2506 -0.1596 -0.4254
 4431SOL    HW124755   4.098   0.132   0.706 -1.0481 -0.2169 -0.7456
 4431SOL    HW224756   4.133   0.263   0.709  1.1688 -2.0497  1.0742
 4432SOL     OW24757   1.821   0.958   6.362 -0.1598  0.2327 -0.3481
 4432SOL    HW124758   1.804   0.895   6.292 -1.8034  0.5175 -0.2082
 4432SOL    HW224759   1.886   0.915   6.418 -1.5739 -0.0821  1.0463
 4433SOL     OW24760   3.410   1.116   2.413 -0.3707 -0.0126 -0.4593
 4433SOL    HW124761   3.321   1.147   2.401  0.3161  2.4683  0.6360
 4433SOL    HW224762   3.422   1.045   2.351 -0.1639 -1.3519  1.1060
 4434SOL     OW24763   0.089   3.871  15.963  0.3285 -0.2527  0.3949
 4434SOL    HW124764   0.115   3.860  16.054  0.5954 -1.0978  0.2125
 4434SOL    HW224765   0.090   3.781  15.931 -2.3489  0.0921 -0.7071
 4435SOL     OW24766   0.645   2.064  14.961 -0.3075  0.2171 -0.5169
 4435SOL    HW124767   0.679   2.097  14.878  0.6534  3.0155  0.9605
 4435SOL    HW224768   0.625   2.147  15.004 -1.3954  0.3999 -1.3925
 4436SOL     OW24769   2.970   2.435   6.483 -0.7165  0.3660 -0.1132
 4436SOL    HW124770   3.014   2.469   6.560 -0.9778 -1.3384  0.8015
 4436SOL    HW224771   3.016   2.352   6.470  0.7934  0.9531  1.4812
 4437SOL     OW24772   3.851   4.456   2.403 -0.6278  0.0019 -0.3105
 4437SOL    HW124773   3.917   4.516   2.370 -0.1410 -0.6225 -0.4814
 4437SOL    HW224774   3.781   4.458   2.337  0.3995  3.3200 -1.2616
 4438SOL     OW24775   4.286   1.992   1.691  0.4430 -0.6097 -0.0608
 4438SOL    HW124776   4.268   2.083   1.669  3.0429 -0.8111 -2.9381
 4438SOL    HW224777   4.217   1.969   1.754 -1.1339  1.9456 -0.8593
 4439SOL     OW24778   2.889   4.502   6.309  0.0195 -0.3986 -0.0529
 4439SOL    HW124779   2.939   4.475   6.386 -1.3413 -0.3185  0.8609
 4439SOL    HW224780   2.853   4.418   6.283 -2.7807  1.1145 -1.1236
 4440SOL     OW24781   0.005   3.801   2.459 -0.6714 -0.0416 -0.0385
 4440SOL    HW124782   4.715   3.856   2.536 -2.3970 -1.3923  0.6395
 4440SOL    HW224783   4.675   3.842   2.390  1.6115 -0.1318 -1.8477
 4441SOL     OW24784   0.247   4.474   9.214  0.0858 -0.3316  0.2061
 4441SOL    HW124785   0.323   4.420   9.234  0.6896 -0.1978 -1.7143
 4441SOL    HW224786   0.182   4.409   9.241 -0.4339  0.1696  0.1562
 4442SOL     OW24787   3.188   4.099   8.296 -0.3396  0.2026  0.4985
 4442SOL    HW124788   3.207   4.180   8.343 -1.4693  0.3779  0.6664
 4442SOL    HW224789   3.129   4.139   8.232 -1.4092 -1.2822  0.5603
 4443SOL     OW24790   2.170   0.444   4.933 -0.3895 -0.4738 -0.3314
 4443SOL    HW124791   2.101   0.386   4.900 -0.8304  0.0026 -0.2576
 4443SOL    HW224792   2.139   0.436   5.023 -2.2703  0.3477 -0.8882
 4444SOL     OW24793   0.262   3.384   3.054  0.0735  0.7919  0.3878
 4444SOL    HW124794   0.334   3.436   3.090  0.7086  0.1245  0.0711
 4444SOL    HW224795   0.306   3.310   3.014  0.0949  0.8153  0.3678
 4445SOL     OW24796   3.322   1.799   7.873 -0.3776  0.0378 -0.3974
 4445SOL    HW124797   3.335   1.733   7.941  0.8652 -2.6349 -3.2020
 4445SOL    HW224798   3.384   1.764   7.809 -1.9273  0.6969 -2.2679
 4446SOL     OW24799   0.762   3.589   2.585  0.4046 -0.9920  0.3947
 4446SOL    HW124800   0.686   3.631   2.625  0.6842  0.6368 -0.8082
 4446SOL    HW224801   0.735   3.604   2.494 -2.1423 -3.0913  0.7760
 4447SOL     OW24802   0.643   3.807   9.904  0.1351  0.3913 -0.7425
 4447SOL    HW124803   0.606   3.734   9.854 -0.7152  0.2300  0.1201
 4447SOL    HW224804   0.592   3.885   9.883  1.0379  0.5344 -2.4602
 4448SOL     OW24805   4.173   1.967   2.782  0.2041 -0.2447  0.0957
 4448SOL    HW124806   4.245   1.918   2.741  1.6199 -0.1131  2.4277
 4448SOL    HW224807   4.191   2.052   2.742  0.7582 -1.3659 -2.0508
 4449SOL     OW24808   3.555   3.536   1.998 -0.1993 -0.3330  0.4208
 4449SOL    HW124809   3.543   3.441   2.000  0.2544 -0.3961  0.0896
 4449SOL    HW224810   3.470   3.566   2.030  0.1348  0.1039  0.8976
 4450SOL     OW24811   0.175   1.566  13.222  0.2591 -0.5459  0.1452
 4450SOL    HW124812   0.113   1.638  13.225 -0.0183 -0.8138  0.9416
 4450SOL    HW224813   0.253   1.619  13.208  0.5170 -0.4148  2.0908
 4451SOL     OW24814   1.944   2.340   5.529  0.1011  0.7958  0.1133
 4451SOL    HW124815   1.919   2.430   5.551 -0.3919  1.2826 -2.4467
 4451SOL    HW224816   2.036   2.351   5.505  0.7587  0.9333  2.7090
 4452SOL     OW24817   0.804   3.710   5.841  0.1899 -0.2963  0.0431
 4452SOL    HW124818   0.784   3.632   5.789 -0.1636 -1.0263  1.2725
 4452SOL    HW224819   0.754   3.778   5.795 -3.1802 -0.4024  3.5132
 4453SOL     OW24820   3.789   3.984  10.677 -0.4986  0.3008  0.0012
 4453SOL    HW124821   3.787   3.889  10.672  0.4278  0.3200 -0.7408
 4453SOL    HW224822   3.826   4.006  10.591  2.2804 -1.4235  0.7389
 4454SOL     OW24823   1.228   4.287   5.032  0.0369  0.7848 -0.0115
 4454SOL    HW124824   1.178   4.211   5.000  0.1910  1.3475 -1.5530
 4454SOL    HW224825   1.299   4.301   4.970  2.1879 -1.8954  1.8020
 4455SOL     OW24826   3.657   3.183   3.543  0.0713  0.6154 -0.2555
 4455SOL    HW124827   3.727   3.134   3.587 -0.3790 -1.2531 -1.6226
 4455SOL    HW224828   3.595   3.166   3.614 -0.2049  1.5719 -0.2728
 4456SOL     OW24829   1.889   3.667   3.669  0.5270  0.1677  0.0500
 4456SOL    HW124830   1.844   3.744   3.633  2.7702  1.9071  0.9582
 4456SOL    HW224831   1.945   3.713   3.732 -0.1900 -1.9125  2.1924
 4457SOL     OW24832   2.509   4.609  11.282 -0.2711  0.0890 -0.0301
 4457SOL    HW124833   2.578   4.554  11.320 -1.3292  0.9245  3.0713
 4457SOL    HW224834   2.553   4.634  11.201 -0.0209  1.0114  0.3848
 4458SOL     OW24835   1.208   1.374   0.270 -0.0035  0.3260 -0.4314
 4458SOL    HW124836   1.250   1.302   0.318 -0.2132 -1.1964 -2.5431
 4458SOL    HW224837   1.279   1.434   0.295 -0.1354  1.0800 -1.9088
 4459SOL     OW24838   2.747   1.168   4.009 -0.0777 -0.7446  0.3831
 4459SOL    HW124839   2.718   1.120   4.087  1.9060 -1.9599  0.3734
 4459SOL    HW224840   2.675   1.172   3.945  0.3402 -0.0380 -0.0431
 4460SOL     OW24841   2.327   3.162   8.743 -0.4780 -0.1544  0.6255
 4460SOL    HW124842   2.340   3.250   8.778 -1.5304 -0.5994  2.1163
 4460SOL    HW224843   2.410   3.124   8.772  0.2214  0.5905 -0.3883
 4461SOL     OW24844   3.049   3.807   7.698  0.1551  0.1187 -0.6487
 4461SOL    HW124845   3.026   3.818   7.790  4.5908 -1.4184  0.6202
 4461SOL    HW224846   3.143   3.792   7.706 -0.1181 -2.4249 -1.9623
 4462SOL     OW24847   4.344   3.211  10.645 -0.6837  0.4519 -0.0490
 4462SOL    HW124848   4.349   3.289  10.701  0.3773  1.3590 -1.4204
 4462SOL    HW224849   4.254   3.177  10.643 -0.1929 -0.6289 -3.2728
 4463SOL     OW24850   2.276   2.776  10.491  0.4208  0.1396 -0.0680
 4463SOL    HW124851   2.254   2.686  10.467  0.3243  0.4410 -1.1262
 4463SOL    HW224852   2.319   2.800  10.409 -1.4581  2.0023 -0.5209
 4464SOL     OW24853   1.557   2.475  12.723  0.4566  0.2501 -0.3222
 4464SOL    HW124854   1.501   2.552  12.714 -1.7644 -1.3837 -0.3969
 4464SOL    HW224855   1.637   2.519  12.753  0.2902 -0.2687  0.8939
 4465SOL     OW24856   2.644   4.052  13.263 -0.1366 -0.1694 -0.1325
 4465SOL    HW124857   2.612   3.987  13.327 -1.1982 -0.3430 -0.8314
 4465SOL    HW224858   2.695   3.992  13.209  3.7061  2.3582  0.7357
 4466SOL     OW24859   2.162   2.143  14.472 -0.1974 -0.0034 -0.3403
 4466SOL    HW124860   2.100   2.080  14.509 -0.8909  1.4947  1.0504
 4466SOL    HW224861   2.170   2.106  14.385 -2.2181  0.2868 -0.6570
 4467SOL     OW24862   2.076   1.026   5.179 -0.6464  0.3165  0.6454
 4467SOL    HW124863   2.118   1.059   5.099 -3.3232  1.4077 -0.3166
 4467SOL    HW224864   2.005   1.090   5.178  0.7651  1.9087 -0.2394
 4468SOL     OW24865   3.520   4.417   3.096 -0.1125 -0.1066  0.0852
 4468SOL    HW124866   3.593   4.362   3.125  1.4444  2.5811  1.3351
 4468SOL    HW224867   3.446   4.381   3.143  0.8648 -2.0865  0.1138
 4469SOL     OW24868   4.576   4.677  10.976 -0.3219 -0.1087 -0.1282
 4469SOL    HW124869   4.593   4.621  10.900 -2.3928 -0.3010 -0.4500
 4469SOL    HW224870   4.542   4.609  11.035 -2.4793  0.4370 -0.7381
 4470SOL     OW24871   0.662   2.852   1.131  0.2220  0.2568  0.3687
 4470SOL    HW124872   0.582   2.823   1.087 -0.0617  0.3094  0.8521
 4470SOL    HW224873   0.688   2.925   1.076  0.0451  0.7222  0.8995
 4471SOL     OW24874   3.470   0.519   5.049  0.2487  0.0779  0.0198
 4471SOL    HW124875   3.387   0.509   5.004  0.5267  0.5510 -0.5865
 4471SOL    HW224876   3.493   0.429   5.071 -3.3105 -0.5091  1.4018
 4472SOL     OW24877   2.421   0.970   7.180  0.2045  0.5506  0.1486
 4472SOL    HW124878   2.367   0.980   7.102 -1.7028 -0.5278  1.3546
 4472SOL    HW224879   2.450   1.060   7.168  1.0524  0.1572 -0.7709
 4473SOL     OW24880   1.911   1.541   4.186  0.1062  0.1477  0.0498
 4473SOL    HW124881   1.822   1.517   4.213 -0.7717  1.7790 -1.4535
 4473SOL    HW224882   1.934   1.475   4.121 -2.2543 -0.3809 -0.2489
 4474SOL     OW24883   0.008   3.158   9.937 -0.3775 -0.0971  0.0036
 4474SOL    HW124884   0.080   3.095   9.927  0.0137  0.3959 -0.2816
 4474SOL    HW224885   4.704   3.157  10.029  1.3276 -0.3645  0.5157
 4475SOL     OW24886   3.092   3.152   8.273  0.1616 -0.2363 -0.3821
 4475SOL    HW124887   3.022   3.197   8.226 -1.5647 -2.3365  0.1869
 4475SOL    HW224888   3.032   3.117   8.339 -1.2549  3.0686  0.0728
 4476SOL     OW24889   2.356   1.426   9.306 -0.2072  0.0424 -0.9108
 4476SOL    HW124890   2.306   1.367   9.363 -1.4746  2.6075  0.6535
 4476SOL    HW224891   2.296   1.421   9.232 -1.7890  0.5909  0.3136
 4477SOL     OW24892   1.053   4.484   9.912  0.5024 -0.0348 -0.5691
 4477SOL    HW124893   1.063   4.413   9.976 -1.8202  0.1697  0.0261
 4477SOL    HW224894   1.092   4.555   9.962  1.2563 -0.5574 -0.4045
 4478SOL     OW24895   4.365   2.375  17.422 -0.0182  0.0920  0.3654
 4478SOL    HW124896   4.358   2.297  17.367 -0.7942 -0.5802  1.4170
 4478SOL    HW224897   4.301   2.435  17.383 -0.7436  0.8642  2.7543
 4479SOL     OW24898   4.718   0.854  10.063  0.2569  0.4450  0.4374
 4479SOL    HW124899   0.047   0.873   9.985 -1.6137 -0.0396 -0.9207
 4479SOL    HW224900   0.056   0.862  10.136 -0.3486 -0.9481  1.0999
 4480SOL     OW24901   4.187   3.273   5.743  0.1485 -0.5588 -0.1381
 4480SOL    HW124902   4.146   3.221   5.813  1.0711 -1.7092 -0.4417
 4480SOL    HW224903   4.245   3.329   5.794  0.9132 -1.1538 -0.3392
 4481SOL     OW24904   3.293   2.866   2.575  0.1716 -0.0539 -0.4852
 4481SOL    HW124905   3.325   2.865   2.665 -0.5451 -1.5270 -0.2524
 4481SOL    HW224906   3.299   2.775   2.546  1.4550 -0.5370  1.3079
 4482SOL     OW24907   1.830   4.367   4.299 -0.7785 -0.3606 -0.0020
 4482SOL    HW124908   1.914   4.412   4.308 -0.7704 -0.2678 -0.5667
 4482SOL    HW224909   1.797   4.421   4.227  1.3543  0.7403 -0.1412
 4483SOL     OW24910   0.908   2.102   4.332 -0.9753  0.2098  0.5742
 4483SOL    HW124911   0.934   2.028   4.387  2.1847  0.1936 -0.9872
 4483SOL    HW224912   0.813   2.085   4.335 -1.1031  1.0759  1.4683
 4484SOL     OW24913   3.345   2.189   5.825  0.3698 -0.4146  0.3522
 4484SOL    HW124914   3.288   2.260   5.854  2.1309  1.2826 -0.3195
 4484SOL    HW224915   3.303   2.153   5.747 -0.3907  2.4995 -0.5900
 4485SOL     OW24916   0.260   3.830   2.686 -0.3193 -0.9947 -0.1484
 4485SOL    HW124917   0.297   3.850   2.600  2.7005 -1.2727  1.1191
 4485SOL    HW224918   0.174   3.872   2.675  0.4291  0.8441  1.0529
 4486SOL     OW24919   1.910   3.986   7.600 -0.5067 -0.4814 -0.4975
 4486SOL    HW124920   1.852   4.061   7.591  0.3452  0.0101 -1.9634
 4486SOL    HW224921   1.860   3.920   7.552  1.2358 -2.1721  0.0011
 4487SOL     OW24922   1.106   0.950   6.392  0.6043 -0.6761  0.2690
 4487SOL    HW124923   1.086   0.929   6.301  2.1382 -1.7059  0.1648
 4487SOL    HW224924   1.017   0.984   6.402  0.4060 -1.0083 -0.4158
 4488SOL     OW24925   3.618   3.804  15.376 -0.0511  0.3021 -0.6048
 4488SOL    HW124926   3.593   3.724  15.330  1.8385 -0.1662 -0.8132
 4488SOL    HW224927   3.565   3.801  15.455  1.3928  1.5344  0.3987
 4489SOL     OW24928   2.747   3.872  17.287 -0.2830  0.1266 -0.4286
 4489SOL    HW124929   2.764   3.835  17.200  1.9305 -0.4418  0.2539
 4489SOL    HW224930   2.769   3.965  17.289  0.2524  0.0127 -1.0342
 4490SOL     OW24931   0.214   3.330   2.236  0.1416  0.0674  0.0014
 4490SOL    HW124932   0.282   3.300   2.177  1.2491 -0.2020  1.4087
 4490SOL    HW224933   0.266   3.344   2.315  0.3348 -0.0243 -0.1092
 4491SOL     OW24934   2.323   0.537   6.538  0.2989  0.3240  0.0465
 4491SOL    HW124935   2.299   0.586   6.616 -0.1092 -1.1228  0.8187
 4491SOL    HW224936   2.378   0.464   6.567 -0.7041 -1.0651 -1.5085
 4492SOL     OW24937   3.077   2.558   4.032  0.0128  0.1255  0.0924
 4492SOL    HW124938   2.988   2.580   4.003 -0.1231 -0.4547  0.0795
 4492SOL    HW224939   3.061   2.507   4.111  3.2811  2.4898  2.2441
 4493SOL     OW24940   0.916   1.203  17.150 -0.2043 -0.0996 -0.3752
 4493SOL    HW124941   0.964   1.128  17.113  0.4414  1.3885 -2.5717
 4493SOL    HW224942   0.934   1.260  17.075 -1.3014 -1.6782 -1.8520
 4494SOL     OW24943   2.066   3.864  15.717  0.0582  0.3872  0.4058
 4494SOL    HW124944   2.158   3.867  15.745  0.2303 -0.2058 -0.1206
 4494SOL    HW224945   2.029   3.801  15.778  2.2640 -0.7272  0.5783
 4495SOL     OW24946   2.918   1.528  15.051  0.6404 -0.4386 -0.2449
 4495SOL    HW124947   2.918   1.441  15.092  3.8445  1.5771  4.0922
 4495SOL    HW224948   2.905   1.589  15.123  0.2379 -2.8736  1.7375
 4496SOL     OW24949   1.236   1.214   4.913  0.5042 -0.0462  0.0047
 4496SOL    HW124950   1.300   1.144   4.926  0.1781  0.1937  3.0259
 4496SOL    HW224951   1.167   1.193   4.976  0.5593  0.3426  0.1959
 4497SOL     OW24952   3.209   2.980  13.795 -0.4574  0.0407  0.3456
 4497SOL    HW124953   3.250   3.037  13.731  0.1895 -0.5752  0.2132
 4497SOL    HW224954   3.164   3.048  13.845 -2.1735 -0.0990 -1.0027
 4498SOL     OW24955   0.458   4.382   7.681  0.1872  0.2706  0.2598
 4498SOL    HW124956   0.526   4.446   7.704  0.9475 -0.6300  0.4984
 4498SOL    HW224957   0.396   4.405   7.750 -1.3845  1.3203 -1.4981
 4499SOL     OW24958   2.111   0.256   5.397 -1.2477 -0.2925 -0.6916
 4499SOL    HW124959   2.033   0.300   5.430 -0.6511  0.0035  0.3412
 4499SOL    HW224960   2.123   0.188   5.463 -2.3753  0.8105  0.6618
 4500SOL     OW24961   0.623   2.478   9.257 -0.1665  0.1323  0.4977
 4500SOL    HW124962   0.581   2.402   9.297 -0.6752  1.5769  2.7345
 4500SOL    HW224963   0.701   2.425   9.239 -0.4416  0.3136 -1.2208
 4501SOL     OW24964   4.086   2.128   4.699  0.1136  0.1856 -0.6777
 4501SOL    HW124965   4.095   2.168   4.613  2.2425  0.4468 -0.3286
 4501SOL    HW224966   4.108   2.037   4.679 -0.3329 -0.5474  2.0706
 4502SOL     OW24967   3.550   3.673  13.117  0.1751  0.3805  0.2972
 4502SOL    HW124968   3.556   3.594  13.063  0.1301  0.2058  0.5470
 4502SOL    HW224969   3.634   3.668  13.164  0.8395  0.2408 -0.9091
 4503SOL     OW24970   1.757   4.201   6.126  0.0987 -0.1697  0.4523
 4503SOL    HW124971   1.772   4.128   6.066 -0.4243  0.4834 -0.4615
 4503SOL    HW224972   1.758   4.154   6.210  3.1484 -1.4857 -0.3190
 4504SOL     OW24973   3.987   2.003   5.167  0.0561 -0.0589  0.3129
 4504SOL    HW124974   3.921   2.061   5.129  2.0494  1.0694 -1.4461
 4504SOL    HW224975   4.014   1.963   5.084 -1.2264  1.6132 -0.9157
 4505SOL     OW24976   1.402   0.468   7.647 -0.2873  0.6567  0.0866
 4505SOL    HW124977   1.388   0.513   7.563 -0.0106  0.5626 -0.0105
 4505SOL    HW224978   1.482   0.513   7.673  0.2738 -1.2879  1.7026
 4506SOL     OW24979   0.413   4.202   6.935 -0.1100 -0.2797 -0.2522
 4506SOL    HW124980   0.359   4.273   6.900 -0.1352  0.1351  0.6526
 4506SOL    HW224981   0.374   4.121   6.904 -1.3630  0.3646 -0.3346
 4507SOL     OW24982   1.257   4.502   3.052 -0.0032 -0.6943  0.6037
 4507SOL    HW124983   1.162   4.496   3.068 -0.5100  1.2309 -1.6482
 4507SOL    HW224984   1.272   4.419   3.006 -0.9591  0.0678 -1.1080
 4508SOL     OW24985   3.792   0.174   7.060  0.0879  0.3671 -0.0839
 4508SOL    HW124986   3.767   0.238   6.993  3.8817  1.6441 -0.2649
 4508SOL    HW224987   3.804   0.215   7.146  0.1141 -0.5571  0.3532
 4509SOL     OW24988   3.022   2.023   2.170  0.1280 -0.2145 -0.3484
 4509SOL    HW124989   3.040   2.097   2.227 -0.2334 -1.8088  1.8495
 4509SOL    HW224990   3.036   2.057   2.082  1.7060  0.3217  0.1168
 4510SOL     OW24991   1.245   2.912   6.993  0.7213  0.0681  0.6445
 4510SOL    HW124992   1.316   2.895   6.930  0.0502 -1.6640  0.3700
 4510SOL    HW224993   1.232   3.006   6.977  0.0980 -0.1705 -0.2234
 4511SOL     OW24994   0.028   1.822   3.699 -0.3473  0.0742  0.3160
 4511SOL    HW124995   0.108   1.795   3.744  1.0044 -0.9211 -2.6806
 4511SOL    HW224996   0.014   1.756   3.631  2.2350 -0.0732 -0.0607
 4512SOL     OW24997   4.374   2.549   3.003 -0.1746 -0.0739  0.3085
 4512SOL    HW124998   4.426   2.618   3.044 -0.6455  0.7468 -0.4590
 4512SOL    HW224999   4.375   2.579   2.912 -1.2050 -1.9195 -0.3190
 4513SOL     OW25000   3.386   2.356  10.313 -0.2012 -0.1443  0.1558
 4513SOL    HW125001   3.469   2.394  10.285 -0.3395 -0.9470 -1.3337
 4513SOL    HW225002   3.390   2.280  10.255  0.4954 -0.4043  0.5435
 4514SOL     OW25003   4.638   1.110   6.657 -0.2214  0.0031 -0.0266
 4514SOL    HW125004   4.672   1.078   6.740 -1.4320 -0.2816  0.3612
 4514SOL    HW225005   4.545   1.095   6.671 -0.3676 -0.1049 -1.0745
 4515SOL     OW25006   4.264   0.881  13.773  0.1227  0.7633  0.1679
 4515SOL    HW125007   4.264   0.946  13.703  0.6492  0.1832 -0.3779
 4515SOL    HW225008   4.345   0.914  13.814 -1.0424 -0.1140  3.1502
 4516SOL     OW25009   1.667   2.413   2.248 -0.2205  0.1618  0.3451
 4516SOL    HW125010   1.630   2.389   2.332  0.1567  2.2122  1.1123
 4516SOL    HW225011   1.589   2.421   2.193  0.1629 -0.2437 -0.2557
 4517SOL     OW25012   1.257   4.254   2.914 -0.2960  0.7298 -0.3134
 4517SOL    HW125013   1.232   4.203   2.991 -2.1821  0.2928 -1.2027
 4517SOL    HW225014   1.202   4.219   2.844 -0.5045 -0.9469  0.6904
 4518SOL     OW25015   1.761   4.621   1.577 -0.3523 -0.6004  0.1398
 4518SOL    HW125016   1.741   4.598   1.486 -2.6645 -0.5370  0.6112
 4518SOL    HW225017   1.749   4.716   1.578 -0.7831 -0.6592  1.2243
 4519SOL     OW25018   3.426   3.821   4.272  0.5029 -0.3522 -0.2615
 4519SOL    HW125019   3.461   3.741   4.313 -0.7332 -0.9043 -0.2914
 4519SOL    HW225020   3.376   3.854   4.347 -0.7543 -2.0869 -0.3279
 4520SOL     OW25021   0.458   4.703   8.583  0.4012 -0.3636  0.4565
 4520SOL    HW125022   0.397   0.051   8.603  1.6887 -0.2008  3.7238
 4520SOL    HW225023   0.417   4.666   8.505 -0.2474 -1.3032  1.2551
 4521SOL     OW25024   2.278   4.603   6.865  0.4316  0.1535 -0.4885
 4521SOL    HW125025   2.316   4.517   6.846  1.7482  0.9309 -1.3478
 4521SOL    HW225026   2.186   4.579   6.881  0.9486  0.2584  2.6333
 4522SOL     OW25027   1.961   2.123   4.800 -0.0674  0.1420  0.3448
 4522SOL    HW125028   1.931   2.206   4.839  1.1117  0.7911 -0.1329
 4522SOL    HW225029   1.892   2.113   4.735  0.2243  1.4410 -0.1703
 4523SOL     OW25030   2.830   1.650   1.623  0.5604  0.2960  0.3972
 4523SOL    HW125031   2.907   1.634   1.678 -0.8316  2.4270  2.9388
 4523SOL    HW225032   2.762   1.653   1.690  1.9010  1.2897  1.7298
 4524SOL     OW25033   4.191   2.204   0.334  0.2427  0.2331  0.3971
 4524SOL    HW125034   4.102   2.177   0.356 -0.3441  0.7498 -1.3638
 4524SOL    HW225035   4.181   2.292   0.297 -2.1091  0.2399  1.0522
 4525SOL     OW25036   3.832   3.164   3.297 -0.0601 -0.3091  0.2281
 4525SOL    HW125037   3.832   3.254   3.331 -2.4668 -0.6558  1.1655
 4525SOL    HW225038   3.916   3.143   3.337  0.8731  1.2397 -0.9320
 4526SOL     OW25039   1.201   3.725  16.035  0.1400  0.0048  0.2025
 4526SOL    HW125040   1.153   3.687  16.108 -0.4809  0.2413 -0.0776
 4526SOL    HW225041   1.207   3.818  16.058 -1.8686  0.9193 -2.9872
 4527SOL     OW25042   1.414   2.371   4.569  0.1655  0.1043  0.3122
 4527SOL    HW125043   1.386   2.456   4.535 -2.4864  0.2257  2.7201
 4527SOL    HW225044   1.485   2.357   4.508 -0.8238 -0.0111 -0.8134
 4528SOL     OW25045   0.286   2.769   8.868 -1.0046 -0.0507  0.2503
 4528SOL    HW125046   0.378   2.748   8.885 -1.0367  0.4022  0.9973
 4528SOL    HW225047   0.255   2.707   8.935 -0.0737  0.9820  1.6391
 4529SOL     OW25048   2.307   1.271  15.813 -0.1578 -0.0044 -0.4134
 4529SOL    HW125049   2.216   1.290  15.837  0.1026  0.5258  0.1662
 4529SOL    HW225050   2.313   1.176  15.805 -2.7521 -0.2150  0.0020
 4530SOL     OW25051   1.355   2.444   7.859 -1.2679  0.3089 -1.0500
 4530SOL    HW125052   1.410   2.497   7.916 -0.7722 -2.2904  0.8710
 4530SOL    HW225053   1.267   2.482   7.858 -1.3017  0.1800 -2.6294
 4531SOL     OW25054   1.282   0.293   1.001  0.4871 -0.0513 -0.1983
 4531SOL    HW125055   1.336   0.314   1.077  2.3829 -0.7772 -1.3168
 4531SOL    HW225056   1.203   0.302   1.053 -0.3005 -0.8901 -1.2456
 4532SOL     OW25057   3.888   0.311   7.296 -0.2861 -0.1631 -0.1251
 4532SOL    HW125058   3.935   0.391   7.274 -0.6681 -0.2418 -1.2541
 4532SOL    HW225059   3.954   0.242   7.299 -0.3231 -0.2152 -0.5038
 4533SOL     OW25060   3.752   4.301   1.684  0.3692  0.3374  0.5064
 4533SOL    HW125061   3.724   4.286   1.774  0.5590  1.0068  0.6768
 4533SOL    HW225062   3.760   4.396   1.680  1.2519  0.3025  1.4766
 4534SOL     OW25063   2.760   4.352   3.874 -0.3213 -0.3772  0.4703
 4534SOL    HW125064   2.847   4.318   3.894 -0.8514 -0.9210  1.8657
 4534SOL    HW225065   2.759   4.349   3.779 -0.4690 -0.8893  0.4873
 4535SOL     OW25066   3.275   2.115   4.790  0.7524 -0.2159  0.4786
 4535SOL    HW125067   3.232   2.185   4.740 -0.6018 -0.5866  1.1164
 4535SOL    HW225068   3.216   2.106   4.865  0.0862 -0.1199 -0.0250
 4536SOL     OW25069   0.978   3.888   7.960  0.4787  0.2395 -0.2748
 4536SOL    HW125070   0.903   3.835   7.985  0.9560  0.2776  1.2454
 4536SOL    HW225071   0.935   3.965   7.924 -0.7755 -0.3135  0.0422
 4537SOL     OW25072   1.464   1.937   1.506 -0.1241  0.0391 -0.2836
 4537SOL    HW125073   1.393   1.996   1.533 -0.7380 -0.6632 -0.3723
 4537SOL    HW225074   1.544   1.979   1.539  0.1283 -1.6052  1.2018
 4538SOL     OW25075   0.999   1.511   5.731 -0.0401 -0.3677  0.5888
 4538SOL    HW125076   1.026   1.589   5.684  1.3700 -2.3766 -1.9129
 4538SOL    HW225077   0.916   1.498   5.685  0.0175 -2.8712  1.1694
 4539SOL     OW25078   2.081   0.402   6.615 -0.7319 -0.1770 -0.4502
 4539SOL    HW125079   2.024   0.469   6.577 -1.1977 -0.8193 -0.8814
 4539SOL    HW225080   2.166   0.411   6.570 -1.7444  0.8814 -2.1568
 4540SOL     OW25081   2.575   3.469   1.124 -0.2625 -0.5624  0.1387
 4540SOL    HW125082   2.666   3.441   1.111  0.2594  1.6180 -0.8781
 4540SOL    HW225083   2.556   3.418   1.203  0.2391  0.4805  0.9288
 4541SOL     OW25084   0.974   0.250   6.689 -0.3311  0.1473 -0.0181
 4541SOL    HW125085   0.942   0.161   6.702  1.0948 -0.4418 -0.6076
 4541SOL    HW225086   0.923   0.276   6.612  1.1317  0.2866 -0.9286
 4542SOL     OW25087   4.378   3.673   8.925 -0.3375 -0.0402 -0.2595
 4542SOL    HW125088   4.394   3.583   8.896  0.5304 -0.3538  1.1685
 4542SOL    HW225089   4.428   3.719   8.858  0.6241  0.5827  0.8731
 4543SOL     OW25090   0.872   2.738   7.971 -0.4214  0.5271 -0.0140
 4543SOL    HW125091   0.914   2.814   7.929  0.0328  0.7090  0.7593
 4543SOL    HW225092   0.789   2.781   7.989  0.2182  1.9103 -0.3241
 4544SOL     OW25093   1.788   1.293  13.756 -0.3559  0.1299  0.1794
 4544SOL    HW125094   1.823   1.211  13.722 -0.8968 -0.5754  1.3589
 4544SOL    HW225095   1.787   1.265  13.847 -3.3700  2.2030  0.7641
 4545SOL     OW25096   1.652   3.164   8.767 -0.3026 -0.4779 -0.1252
 4545SOL    HW125097   1.681   3.248   8.804  0.1471 -0.9568  0.6134
 4545SOL    HW225098   1.586   3.140   8.831 -0.6201  0.0133 -0.2746
 4546SOL     OW25099   3.868   1.553   1.877 -0.1728  0.0095  0.0553
 4546SOL    HW125100   3.803   1.506   1.824  0.1759  1.7624 -1.9013
 4546SOL    HW225101   3.836   1.643   1.880 -0.7643 -0.1786 -0.7886
 4547SOL     OW25102   3.640   2.126  13.870  0.3976 -0.1181 -0.1935
 4547SOL    HW125103   3.590   2.061  13.919  1.7813 -1.0737 -0.0518
 4547SOL    HW225104   3.573   2.161  13.811  0.1079 -0.6566 -0.1834
 4548SOL     OW25105   2.505   0.576  10.192  0.3717 -0.3624  0.8749
 4548SOL    HW125106   2.563   0.580  10.269 -0.1373 -2.2908  1.3523
 4548SOL    HW225107   2.483   0.483  10.189 -0.8175 -0.0955  1.4662
 4549SOL     OW25108   2.946   1.939  12.730 -0.3082  0.6988  0.0842
 4549SOL    HW125109   2.877   1.885  12.767  1.5053 -1.2098  0.6851
 4549SOL    HW225110   2.922   2.029  12.753 -0.8939  0.4664  0.3636
 4550SOL     OW25111   1.145   0.805  11.141  0.1068  0.5558 -0.7882
 4550SOL    HW125112   1.168   0.731  11.083  0.0589  1.0060 -1.3841
 4550SOL    HW225113   1.080   0.765  11.199  2.3211 -0.4038  1.0035
 4551SOL     OW25114   1.912   1.410   9.594 -0.5805  0.7171  0.0896
 4551SOL    HW125115   1.917   1.505   9.603  0.6436  0.5812  0.8335
 4551SOL    HW225116   1.941   1.384   9.681  2.0440  0.2152 -0.9244
 4552SOL     OW25117   3.280   0.029   7.825 -0.6264  0.1869  0.4598
 4552SOL    HW125118   3.364   0.046   7.867 -0.8566  0.5110  0.7865
 4552SOL    HW225119   3.310   0.036   7.734 -0.8593  0.7170  0.4241
 4553SOL     OW25120   2.338   1.608   5.115 -0.5865 -0.3970 -0.0539
 4553SOL    HW125121   2.343   1.577   5.025  0.5130 -0.8268  0.1616
 4553SOL    HW225122   2.260   1.663   5.122 -1.5187 -1.5368 -1.6158
 4554SOL     OW25123   0.449   3.366   1.267 -0.2230 -0.6024 -0.3617
 4554SOL    HW125124   0.533   3.370   1.221 -0.5018  0.3017 -0.8054
 4554SOL    HW225125   0.398   3.330   1.195 -2.6412 -0.3990  1.2429
 4555SOL     OW25126   3.272   4.415   7.068  0.2976  0.3435  0.1696
 4555SOL    HW125127   3.329   4.349   7.108 -1.3826 -0.4929  1.1765
 4555SOL    HW225128   3.260   4.461   7.151 -0.7479 -1.2751  0.9078
 4556SOL     OW25129   2.197   2.636   4.479  0.1981 -0.0233 -0.5674
 4556SOL    HW125130   2.275   2.640   4.535 -0.4287  0.4004  0.2716
 4556SOL    HW225131   2.175   2.544   4.493 -1.8751  0.5280 -0.2119
 4557SOL     OW25132   3.478   0.698   9.256 -0.2632 -0.6101 -0.1807
 4557SOL    HW125133   3.443   0.647   9.329  2.8301 -0.5018  1.3660
 4557SOL    HW225134   3.571   0.693   9.277  0.3705  0.8362 -2.6343
 4558SOL     OW25135   1.161   4.685   1.919 -0.4953 -0.0815  0.5252
 4558SOL    HW125136   1.177   4.672   2.012  2.9343 -0.4043 -0.1025
 4558SOL    HW225137   1.066   4.687   1.909 -0.1798 -0.3894 -2.7899
 4559SOL     OW25138   2.134   4.380  10.640  0.3253 -0.1688 -0.2988
 4559SOL    HW125139   2.177   4.457  10.601  0.9112  0.0979  0.8679
 4559SOL    HW225140   2.175   4.388  10.726  0.0786 -0.6249 -0.1402
 4560SOL     OW25141   1.646   2.241   3.685 -0.2391 -0.2941  0.0568
 4560SOL    HW125142   1.554   2.241   3.659 -0.6725 -2.6540  1.6597
 4560SOL    HW225143   1.650   2.155   3.726 -0.6569 -0.7880 -0.9433
 4561SOL     OW25144   3.119   3.826   5.954  0.4734 -0.0830 -0.0257
 4561SOL    HW125145   3.118   3.911   5.910 -1.1820 -0.2827 -0.3805
 4561SOL    HW225146   3.081   3.853   6.038  1.3214  1.2855 -0.0846
 4562SOL     OW25147   0.026   1.108   7.503  0.1444  0.0821 -0.0277
 4562SOL    HW125148   4.674   1.119   7.562  1.9691  1.2537  2.0451
 4562SOL    HW225149   4.712   1.124   7.416 -0.0805 -1.1986 -0.1676
 4563SOL     OW25150   0.426   0.812   4.985  0.1849  0.3784  0.1973
 4563SOL    HW125151   0.336   0.832   4.959 -0.1474  3.2267  3.4474
 4563SOL    HW225152   0.474   0.817   4.903  1.6620  1.0142  1.0824
 4564SOL     OW25153   4.228   2.033   0.696 -0.0086 -0.0694 -0.1431
 4564SOL    HW125154   4.142   2.066   0.721  0.8424  0.8694  1.5142
 4564SOL    HW225155   4.274   2.116   0.685 -2.8072  1.6580  1.0381
 4565SOL     OW25156   0.405   3.867   2.046  0.5940  0.5865  0.3677
 4565SOL    HW125157   0.324   3.823   2.071  0.1147  1.1880 -0.1293
 4565SOL    HW225158   0.449   3.801   1.993 -2.2549  0.2889 -1.6469
 4566SOL     OW25159   3.038   4.363   3.543  0.5937  0.2825 -0.1927
 4566SOL    HW125160   3.109   4.421   3.517  0.0666  0.3701 -1.4575
 4566SOL    HW225161   3.013   4.324   3.459 -1.0632 -1.3010  1.0222
 4567SOL     OW25162   4.427   1.056  17.394 -0.5112 -0.5860 -0.2018
 4567SOL    HW125163   4.465   1.059  17.306 -2.3391  1.0530 -0.9381
 4567SOL    HW225164   4.498   1.059  17.459 -0.7041  0.5108 -0.0370
 4568SOL     OW25165   1.137   1.436   4.085 -0.3552 -0.4855 -0.1176
 4568SOL    HW125166   1.194   1.367   4.120  0.3199  1.1283  1.9847
 4568SOL    HW225167   1.054   1.387   4.079 -0.7058  0.1842 -0.6370
 4569SOL     OW25168   0.750   2.989   9.287  0.2344  0.1037  0.3424
 4569SOL    HW125169   0.777   2.898   9.276 -2.2534 -0.4934 -0.9337
 4569SOL    HW225170   0.759   3.000   9.381  0.0111  0.3550  0.3352
 4570SOL     OW25171   2.914   0.794  11.118 -0.2536  0.0448 -0.2139
 4570SOL    HW125172   2.921   0.815  11.025 -1.7372  1.7905  0.0791
 4570SOL    HW225173   2.834   0.832  11.154 -0.2696 -0.1541 -0.0372
 4571SOL     OW25174   3.151   0.760   1.726 -0.3423  0.2929 -0.3503
 4571SOL    HW125175   3.214   0.693   1.753  0.7847  1.1590 -0.7845
 4571SOL    HW225176   3.187   0.795   1.645  1.1527 -0.7551 -0.1397
 4572SOL     OW25177   1.023   0.829   5.874  0.2671 -0.0692  0.6002
 4572SOL    HW125178   1.113   0.797   5.868 -0.4196 -2.0434  0.6574
 4572SOL    HW225179   1.004   0.842   5.782  0.5212 -1.5456  0.3349
 4573SOL     OW25180   0.342   0.234   1.741 -0.2813  0.5426  0.3626
 4573SOL    HW125181   0.333   0.208   1.649  0.6068 -3.7060  1.4652
 4573SOL    HW225182   0.275   0.302   1.739 -1.0126 -0.1608  1.3955
 4574SOL     OW25183   1.697   0.032   5.524  1.0801  0.4127  0.5791
 4574SOL    HW125184   1.702   0.079   5.441 -0.1582  2.4098  1.6158
 4574SOL    HW225185   1.612   0.065   5.552  0.3420 -1.6733  0.7489
 4575SOL     OW25186   1.132   2.698   4.732 -0.3107 -0.2948 -0.2724
 4575SOL    HW125187   1.197   2.709   4.801 -0.8465  2.7349 -0.2256
 4575SOL    HW225188   1.107   2.606   4.740 -3.3147  0.5370  0.0761
 4576SOL     OW25189   3.157   0.141   2.799  0.0888 -0.1248  0.4062
 4576SOL    HW125190   3.179   0.147   2.706  1.4199 -1.3301  0.6501
 4576SOL    HW225191   3.097   0.067   2.805  2.1114 -1.5466  3.0232
 4577SOL     OW25192   3.452   2.536   3.315 -0.1388 -0.1888 -0.1356
 4577SOL    HW125193   3.387   2.560   3.381 -0.3319 -1.3420  0.0780
 4577SOL    HW225194   3.396   2.522   3.239  1.2510  1.1284 -1.4201
 4578SOL     OW25195   3.101   2.139   5.056 -0.2314  0.2546  0.0307
 4578SOL    HW125196   3.152   2.151   5.136  0.2850  2.2428 -0.5987
 4578SOL    HW225197   3.086   2.045   5.066  2.7060 -0.1013  1.0737
 4579SOL     OW25198   1.425   1.729   0.535  0.3186  0.6536 -0.5301
 4579SOL    HW125199   1.421   1.824   0.521  0.8291  0.5929 -1.1045
 4579SOL    HW225200   1.402   1.716   0.627  1.1764 -0.5769 -0.4854
 4580SOL     OW25201   1.945   2.729   9.755 -0.3495 -0.3769 -0.4352
 4580SOL    HW125202   1.917   2.657   9.697 -0.3675  0.6289 -1.6743
 4580SOL    HW225203   2.029   2.745   9.712  0.5746 -2.9429  0.4120
 4581SOL     OW25204   1.501   1.841   1.204 -0.9692  0.5379  0.7225
 4581SOL    HW125205   1.526   1.886   1.285  0.6369  0.3060  0.3576
 4581SOL    HW225206   1.538   1.753   1.200 -0.3541  0.8878 -1.1239
 4582SOL     OW25207   3.348   0.643   8.980 -0.6345 -0.1559  0.1031
 4582SOL    HW125208   3.332   0.609   9.068  1.4311  0.8997  0.8801
 4582SOL    HW225209   3.442   0.660   8.987 -0.2686 -1.8449 -0.9367
 4583SOL     OW25210   4.540   4.527  10.309  0.1565 -0.5472  0.1829
 4583SOL    HW125211   4.514   4.614  10.280 -0.2600 -0.3018  1.3088
 4583SOL    HW225212   4.630   4.525  10.275 -0.5499 -0.4730 -1.6649
 4584SOL     OW25213   0.372   3.147   9.731 -0.3875  0.5093  0.5100
 4584SOL    HW125214   0.412   3.199   9.801  2.2639 -2.1185  0.9893
 4584SOL    HW225215   0.431   3.171   9.660 -1.4479 -2.6086 -1.4076
 4585SOL     OW25216   1.943   3.623  15.514  0.6206 -0.1824 -0.3982
 4585SOL    HW125217   1.978   3.698  15.564 -0.0332 -0.9708  1.2557
 4585SOL    HW225218   1.938   3.664  15.428 -2.2759  0.0431 -0.1262
 4586SOL     OW25219   3.148   4.524   5.471  0.0923  0.0960 -0.0319
 4586SOL    HW125220   3.208   4.598   5.460  0.6257 -0.2422  0.5979
 4586SOL    HW225221   3.066   4.551   5.430 -0.5284  0.3713  1.3823
 4587SOL     OW25222   0.920   4.498   1.248 -0.7385  0.7740  0.2550
 4587SOL    HW125223   0.845   4.490   1.188 -0.0297  0.8929 -0.6461
 4587SOL    HW225224   0.990   4.510   1.184 -2.0320  0.7567 -1.1903
 4588SOL     OW25225   2.547   0.415   5.742  0.8856 -0.2072  0.4296
 4588SOL    HW125226   2.497   0.464   5.807 -0.4831 -1.3412  0.2392
 4588SOL    HW225227   2.561   0.325   5.771  1.7933  0.6708  2.6921
 4589SOL     OW25228   0.214   3.564  17.572  0.2508 -0.5945 -0.3436
 4589SOL    HW125229   0.173   3.498  17.515 -0.0352  0.0006 -0.8192
 4589SOL    HW225230   0.225   3.505  17.647  0.9941 -1.3897 -1.0773
 4590SOL     OW25231   4.448   0.459   6.158  0.5314 -0.2664  0.0637
 4590SOL    HW125232   4.475   0.383   6.107 -0.8647 -1.6517  1.3795
 4590SOL    HW225233   4.469   0.423   6.244 -0.1718 -2.6199 -0.7670
 4591SOL     OW25234   2.930   0.073  13.134  0.0780 -0.7663  0.6669
 4591SOL    HW125235   2.876   4.718  13.125  0.2995 -0.8873  0.4198
 4591SOL    HW225236   2.883   0.130  13.073 -0.0357 -2.3515 -0.7094
 4592SOL     OW25237   1.401   1.073   3.584  0.2588  0.8756  0.0599
 4592SOL    HW125238   1.329   1.119   3.627  0.5085  0.6349  0.7276
 4592SOL    HW225239   1.396   0.986   3.624 -1.0077 -0.0170 -2.0018
 4593SOL     OW25240   0.700   4.654   5.122  0.2873 -0.5238 -1.1376
 4593SOL    HW125241   0.719   4.624   5.033  1.6083 -0.0471 -1.0113
 4593SOL    HW225242   0.737   4.587   5.179  1.4731  2.3310  1.4452
 4594SOL     OW25243   1.978   4.539   6.322  0.1562 -0.0893  0.0425
 4594SOL    HW125244   1.892   4.570   6.294 -0.0566 -0.9236 -0.2222
 4594SOL    HW225245   2.010   4.472   6.262  0.9244  0.0622  0.2803
 4595SOL     OW25246   2.657   2.704   3.612 -0.0157  0.2440  0.1317
 4595SOL    HW125247   2.651   2.617   3.573  2.9341 -0.8064  1.9896
 4595SOL    HW225248   2.743   2.691   3.653  0.2045  0.7578 -0.1665
 4596SOL     OW25249   3.422   3.076   2.478 -0.0113 -0.1082  1.0363
 4596SOL    HW125250   3.371   3.126   2.541  0.0269  1.1235  0.0852
 4596SOL    HW225251   3.375   2.994   2.493 -1.5074  0.7473  0.9677
 4597SOL     OW25252   0.900   3.637   4.251 -0.1859  0.6253 -0.2499
 4597SOL    HW125253   0.990   3.637   4.217 -0.4141 -0.6621 -0.8419
 4597SOL    HW225254   0.856   3.587   4.182 -3.5541  1.4655  1.3028
 4598SOL     OW25255   4.204   1.242   8.208 -0.6359 -0.2354  0.2553
 4598SOL    HW125256   4.150   1.227   8.131 -1.8976  1.5438  0.7901
 4598SOL    HW225257   4.147   1.302   8.256  0.1841  1.5601 -0.9930
 4599SOL     OW25258   3.018   3.303  13.441 -0.4848  0.1292  0.1456
 4599SOL    HW125259   3.015   3.263  13.528 -0.8658  1.8581  0.9336
 4599SOL    HW225260   2.922   3.307  13.436 -0.5292 -0.9633 -0.0092
 4600SOL     OW25261   0.518   2.692   8.509  0.3133  0.2169  0.1095
 4600SOL    HW125262   0.429   2.670   8.482  0.1627  0.0391  0.7629
 4600SOL    HW225263   0.512   2.676   8.603  1.1151  0.1790  0.1550
 4601SOL     OW25264   2.746   1.471   3.593 -0.0914  0.3761  0.4303
 4601SOL    HW125265   2.696   1.509   3.665  1.3774  1.9535  0.6270
 4601SOL    HW225266   2.774   1.550   3.547  0.5106 -0.9333 -1.4426
 4602SOL     OW25267   0.228   2.511   4.327  0.1893 -0.7782  0.5595
 4602SOL    HW125268   0.317   2.546   4.322 -0.3589  0.4897 -0.4047
 4602SOL    HW225269   0.194   2.575   4.264  1.5320  0.9826  1.6366
 4603SOL     OW25270   1.191   4.398  10.981 -0.3893 -0.1053  0.4494
 4603SOL    HW125271   1.178   4.400  11.076 -1.2702  0.1756  0.3157
 4603SOL    HW225272   1.226   4.310  10.965 -1.2219  0.0025 -1.9432
 4604SOL     OW25273   4.453   1.773  14.686  0.2461  0.2052 -0.3384
 4604SOL    HW125274   4.425   1.851  14.638 -2.0802  0.8961  2.1681
 4604SOL    HW225275   4.371   1.726  14.698  1.3018 -1.3242  0.8640
 4605SOL     OW25276   2.512   2.703   4.370 -0.5849  0.0068 -0.1075
 4605SOL    HW125277   2.579   2.673   4.308 -2.1364  0.6317 -2.0706
 4605SOL    HW225278   2.543   2.651   4.444 -0.0551  0.6024  0.0845
 4606SOL     OW25279   4.618   4.264   5.895 -0.3852  0.3126 -0.0770
 4606SOL    HW125280   4.678   4.301   5.959  2.9730 -0.5161 -2.7417
 4606SOL    HW225281   4.530   4.300   5.908 -1.7641 -3.3006  0.4720
 4607SOL     OW25282   0.954   0.417   9.218 -0.3385  0.0588  0.5241
 4607SOL    HW125283   1.013   0.454   9.283  1.5825  1.3101 -1.9333
 4607SOL    HW225284   0.994   0.329   9.213 -2.0034 -0.7487  1.5398
 4608SOL     OW25285   0.767   2.402   2.964 -0.0271 -0.2434 -0.0409
 4608SOL    HW125286   0.767   2.497   2.964 -0.6441 -0.2433 -0.9784
 4608SOL    HW225287   0.729   2.379   2.879  2.3369 -2.1320 -0.5860
 4609SOL     OW25288   3.996   0.407   3.343  0.1760 -0.2808 -0.1675
 4609SOL    HW125289   3.998   0.317   3.313 -0.8312  0.1470 -1.5187
 4609SOL    HW225290   4.012   0.462   3.267 -0.8461  1.3742  0.8030
 4610SOL     OW25291   4.209   2.897   4.145 -0.0554  0.2013  0.1309
 4610SOL    HW125292   4.125   2.927   4.109 -0.5277 -1.3880 -0.0763
 4610SOL    HW225293   4.247   2.980   4.175  0.9259  0.6199 -2.2460
 4611SOL     OW25294   4.327   3.653   1.243 -0.2175  0.5795 -0.6120
 4611SOL    HW125295   4.264   3.684   1.178 -1.7730 -1.0850  0.1233
 4611SOL    HW225296   4.263   3.638   1.313  1.3823 -1.0238  0.5153
 4612SOL     OW25297   3.349   2.007   2.915 -0.3313  0.4186  0.5979
 4612SOL    HW125298   3.261   1.987   2.886  0.7247 -0.1548 -2.1652
 4612SOL    HW225299   3.368   2.074   2.849  0.3135 -0.1909  0.1719
 4613SOL     OW25300   1.151   2.364   7.007  0.3075  0.2549  0.2610
 4613SOL    HW125301   1.200   2.302   7.061 -2.3110 -1.0160  1.1767
 4613SOL    HW225302   1.118   2.418   7.080  1.3639 -0.0599  0.9668
 4614SOL     OW25303   1.546   1.438  16.657 -0.3618 -0.1619 -0.5576
 4614SOL    HW125304   1.557   1.409  16.747  0.2968 -1.2007 -0.9695
 4614SOL    HW225305   1.626   1.408  16.615 -0.7328 -3.7661  1.2980
 4615SOL     OW25306   0.031   4.596   6.950 -0.1458 -0.1785  0.4459
 4615SOL    HW125307   0.053   4.531   6.884  1.7429 -0.0913  0.9894
 4615SOL    HW225308   4.659   4.602   6.941  0.3251  2.8010 -2.5200
 4616SOL     OW25309   2.903   2.671  10.585  0.3186 -0.1974 -0.2716
 4616SOL    HW125310   2.990   2.656  10.547  0.6847 -0.8896  0.8130
 4616SOL    HW225311   2.921   2.756  10.625 -4.2880 -0.0556  1.4614
 4617SOL     OW25312   3.976   1.336   9.866 -0.2994  0.5471 -0.6672
 4617SOL    HW125313   4.039   1.375   9.926  1.3510 -3.3207  0.1055
 4617SOL    HW225314   3.943   1.266   9.923  0.4290 -0.9763 -2.0923
 4618SOL     OW25315   2.684   2.721  14.150  0.4210  0.3334  0.9204
 4618SOL    HW125316   2.696   2.737  14.056 -0.7552  2.2598  1.0912
 4618SOL    HW225317   2.705   2.808  14.185 -0.2840 -0.1549  2.5247
 4619SOL     OW25318   2.544   3.667   3.145  0.6494  0.0031 -0.0164
 4619SOL    HW125319   2.558   3.760   3.163 -0.2551  0.0560  0.4084
 4619SOL    HW225320   2.580   3.637   3.229  0.8894  1.3690  0.3729
 4620SOL     OW25321   3.501   3.267  16.722 -0.5276 -0.2367  0.0872
 4620SOL    HW125322   3.475   3.304  16.807  1.3640  2.2007 -0.3982
 4620SOL    HW225323   3.591   3.252  16.750 -0.4536 -0.1387 -0.1025
 4621SOL     OW25324   1.752   1.486   3.549  0.0894 -0.1434  0.6012
 4621SOL    HW125325   1.662   1.456   3.556 -0.2692  0.5880 -0.8701
 4621SOL    HW225326   1.751   1.536   3.468  0.3818 -0.5163  0.3678
 4622SOL     OW25327   2.134   0.664   9.097  0.1791  0.6780 -0.1411
 4622SOL    HW125328   2.042   0.674   9.075 -0.7799 -1.1961  3.0208
 4622SOL    HW225329   2.121   0.710   9.179 -2.4415 -2.5056  1.2197
 4623SOL     OW25330   4.137   3.645  15.211 -0.0107  0.8879  0.3921
 4623SOL    HW125331   4.086   3.723  15.229 -1.2445 -0.0332  0.8738
 4623SOL    HW225332   4.099   3.618  15.127 -1.1497 -1.0221  1.5261
 4624SOL     OW25333   3.131   1.258   5.593 -0.0727  0.3744  1.0009
 4624SOL    HW125334   3.226   1.273   5.599 -0.1707  1.8768 -1.3085
 4624SOL    HW225335   3.106   1.252   5.685  2.8515 -1.5677  1.7029
 4625SOL     OW25336   2.232   2.055   7.338  0.0107  0.3978 -0.1020
 4625SOL    HW125337   2.136   2.052   7.331  0.1855 -1.8096 -1.6315
 4625SOL    HW225338   2.253   2.039   7.246  1.0520 -0.7768  0.3447
 4626SOL     OW25339   1.096   2.053   2.298 -0.0219 -0.5552 -0.2760
 4626SOL    HW125340   1.090   2.148   2.290  0.2403 -0.5296 -0.1741
 4626SOL    HW225341   1.097   2.026   2.206 -0.9893 -1.2884 -0.0679
 4627SOL     OW25342   0.936   2.967   3.995  0.0804  0.1238  0.1170
 4627SOL    HW125343   1.028   2.940   4.001  0.9286  2.5727 -1.8617
 4627SOL    HW225344   0.907   2.944   4.083 -0.8228 -0.4271 -0.3328
 4628SOL     OW25345   3.512   1.075   7.982  0.3442  0.0678  0.0298
 4628SOL    HW125346   3.460   1.086   7.903 -2.3972 -2.2966  1.4666
 4628SOL    HW225347   3.446   1.122   8.034  0.2069  0.4496 -0.4937
 4629SOL     OW25348   0.349   2.470   5.127  0.0279 -0.3107 -0.3761
 4629SOL    HW125349   0.275   2.424   5.086 -0.3799  0.7281 -0.8159
 4629SOL    HW225350   0.393   2.397   5.170  0.4208 -0.5398 -1.1613
 4630SOL     OW25351   2.908   1.451  12.467  0.5480 -0.1806  0.1087
 4630SOL    HW125352   2.914   1.423  12.558  0.0882  2.1550  0.8548
 4630SOL    HW225353   2.939   1.542  12.463 -0.9916  0.2529 -2.3850
 4631SOL     OW25354   3.993   3.422   3.084  0.1011  0.0265  0.1156
 4631SOL    HW125355   3.966   3.335   3.056 -2.6177  0.3765  1.6861
 4631SOL    HW225356   3.907   3.460   3.100 -0.0871 -0.0749 -0.6763
 4632SOL     OW25357   2.233   4.086   0.210  0.0840  0.1446  1.3085
 4632SOL    HW125358   2.227   4.126   0.123 -0.9461 -0.5408  1.0596
 4632SOL    HW225359   2.295   4.142   0.256  0.8583  0.5837 -0.2549
 4633SOL     OW25360   0.024   3.991  13.933 -0.2318 -0.2415  0.3993
 4633SOL    HW125361   0.063   3.914  13.975 -1.4137 -1.2730 -0.3569
 4633SOL    HW225362   4.669   3.948  13.897  0.0858 -1.1403  0.7856
 4634SOL     OW25363   2.246   1.717   7.885  0.0778 -0.2760 -0.4167
 4634SOL    HW125364   2.227   1.640   7.831 -0.0608 -0.3219 -0.3016
 4634SOL    HW225365   2.213   1.784   7.826  0.5973  1.3053  1.0772
 4635SOL     OW25366   0.989   4.168   3.196 -0.2286 -0.2875 -0.3971
 4635SOL    HW125367   0.974   4.195   3.106 -1.4680  0.8379  0.1574
 4635SOL    HW225368   1.010   4.076   3.180  0.1769 -0.7133  2.4802
 4636SOL     OW25369   1.922   4.604   8.536  0.1183  0.2714  0.0340
 4636SOL    HW125370   1.865   4.528   8.530  1.2867 -0.6069  0.1402
 4636SOL    HW225371   1.893   4.658   8.463 -0.8034 -1.3126 -0.7532
 4637SOL     OW25372   2.727   2.335   2.983 -0.3626  0.0202  0.2561
 4637SOL    HW125373   2.661   2.399   3.010  0.3613  1.1902 -0.7210
 4637SOL    HW225374   2.727   2.356   2.889 -0.9921  0.2718  0.3148
 4638SOL     OW25375   0.812   0.983  17.686 -0.2519  0.4387  0.0532
 4638SOL    HW125376   0.734   1.007  17.636 -0.4726  0.1668  0.2686
 4638SOL    HW225377   0.802   0.891   0.014  3.4232 -0.2243 -1.1727
 4639SOL     OW25378   2.323   2.006  12.105  0.2456 -0.0122 -0.8530
 4639SOL    HW125379   2.354   2.038  12.190  3.0093  0.5149 -2.0707
 4639SOL    HW225380   2.385   2.047  12.044 -1.5653 -1.7073 -3.8356
 4640SOL     OW25381   3.860   2.397   2.515 -0.0371 -0.5877  0.5432
 4640SOL    HW125382   3.929   2.334   2.536 -0.9597 -1.0689  2.1011
 4640SOL    HW225383   3.898   2.414   2.429 -3.5217  2.5360 -0.3442
 4641SOL     OW25384   3.241   4.573   8.220  0.4958  0.0177  0.2435
 4641SOL    HW125385   3.224   4.529   8.137  0.4604 -1.7371  1.1745
 4641SOL    HW225386   3.335   4.586   8.210  0.5998  0.2662  1.5647
 4642SOL     OW25387   1.981   2.547  14.345  0.2857  0.1285  0.4942
 4642SOL    HW125388   1.999   2.466  14.392 -2.3129 -0.8772 -0.2701
 4642SOL    HW225389   1.893   2.565  14.378  0.7825 -0.5845  2.2087
 4643SOL     OW25390   1.061   2.172   5.795 -0.9228  0.6202 -0.0213
 4643SOL    HW125391   1.078   2.266   5.786  0.7872  0.4943  1.7813
 4643SOL    HW225392   1.064   2.149   5.702  2.3296  0.2339  0.1868
 4644SOL     OW25393   2.238   0.816   3.971 -0.1014  0.4102  0.2406
 4644SOL    HW125394   2.188   0.769   4.039  0.9952  0.0305  0.7761
 4644SOL    HW225395   2.328   0.811   4.001 -0.5286  0.3808  1.5155
 4645SOL     OW25396   1.493   4.429   6.616  0.1975  0.5799 -0.2170
 4645SOL    HW125397   1.519   4.337   6.619 -1.6394  0.0884  0.9555
 4645SOL    HW225398   1.480   4.439   6.711 -2.4340 -0.3427 -0.4776
 4646SOL     OW25399   2.606   2.479   3.479  0.5668  0.0322  0.4490
 4646SOL    HW125400   2.515   2.479   3.449  1.7035 -0.3516 -2.9775
 4646SOL    HW225401   2.627   2.386   3.473 -0.5100 -0.2722  1.4152
 4647SOL     OW25402   4.078   2.470   9.651  0.4155  0.1924 -0.5015
 4647SOL    HW125403   4.086   2.386   9.604  1.1960 -0.1906  0.3195
 4647SOL    HW225404   4.027   2.522   9.588  1.0740  1.7206  0.2398
 4648SOL     OW25405   2.291   4.397  10.876 -0.9935  0.4667  0.0866
 4648SOL    HW125406   2.317   4.307  10.897  0.6756  1.0633  0.5861
 4648SOL    HW225407   2.281   4.435  10.963  1.1143 -0.2563  0.6280
 4649SOL     OW25408   3.749   0.705  11.876 -0.3055  0.2513 -0.2915
 4649SOL    HW125409   3.654   0.700  11.887  0.3079  1.5118  5.2185
 4649SOL    HW225410   3.773   0.708  11.968 -1.4954 -0.1762  0.0347
 4650SOL     OW25411   3.117   3.554   8.326  0.1963  0.3623 -0.2907
 4650SOL    HW125412   3.025   3.576   8.309  0.1125  0.0161 -0.2970
 4650SOL    HW225413   3.099   3.475   8.377 -0.3507 -0.2538 -1.4402
 4651SOL     OW25414   3.409   2.623   4.706  0.0704  0.3334 -0.4086
 4651SOL    HW125415   3.332   2.602   4.758 -0.7839  2.2142 -0.9061
 4651SOL    HW225416   3.467   2.666   4.769  0.7747  1.1110 -1.5773
 4652SOL     OW25417   1.284   1.532   3.896  0.0519 -0.0510  0.1557
 4652SOL    HW125418   1.264   1.453   3.844  3.4745  0.8006 -2.4367
 4652SOL    HW225419   1.250   1.511   3.983  1.7960  0.7255  1.0206
 4653SOL     OW25420   0.704   0.457   6.289 -0.4017 -0.0603  0.4508
 4653SOL    HW125421   0.691   0.486   6.198  0.3693 -0.7555  0.1199
 4653SOL    HW225422   0.620   0.413   6.301 -1.2861  1.5455  0.2539
 4654SOL     OW25423   1.692   4.202   6.995  0.3004  0.0707 -0.4387
 4654SOL    HW125424   1.617   4.149   7.024  0.7990 -0.8325 -0.8002
 4654SOL    HW225425   1.739   4.138   6.942  0.2394 -1.5169  1.4065
 4655SOL     OW25426   3.766   0.637   5.045  0.9128 -0.4638  0.3000
 4655SOL    HW125427   3.704   0.568   5.019  0.8381 -0.1314 -0.4263
 4655SOL    HW225428   3.719   0.720   5.049  1.5252 -0.1680  1.1551
 4656SOL     OW25429   0.437   1.942   2.282  0.1135 -0.3703  0.1555
 4656SOL    HW125430   0.500   1.911   2.216  1.9258  0.3147  1.5602
 4656SOL    HW225431   0.444   1.885   2.358 -0.6099  0.2022  0.6474
 4657SOL     OW25432   2.741   0.113   9.384  0.2815  0.1265  0.1048
 4657SOL    HW125433   2.758   0.164   9.464  0.8062  0.4754 -0.2346
 4657SOL    HW225434   2.652   0.091   9.412  0.5034  1.5551  1.9755
 4658SOL     OW25435   3.660   1.000   9.397 -0.0863  0.7798 -0.8742
 4658SOL    HW125436   3.739   0.957   9.428 -0.3335 -0.5467 -2.0969
 4658SOL    HW225437   3.609   0.994   9.478  0.0986 -2.8866 -1.0189
 4659SOL     OW25438   1.621   3.729   8.413  0.4750 -0.2946  0.0464
 4659SOL    HW125439   1.716   3.737   8.414  0.3217  1.6023 -0.7728
 4659SOL    HW225440   1.608   3.717   8.319  1.3132 -0.0862 -0.0995
 4660SOL     OW25441   3.552   0.839   3.052 -0.0413  0.0873  0.9358
 4660SOL    HW125442   3.558   0.929   3.020 -0.8242  0.1992  1.1108
 4660SOL    HW225443   3.549   0.788   2.971 -0.3957  0.9991  0.3891
 4661SOL     OW25444   3.774   3.612  15.914  0.0453  0.5181  0.6079
 4661SOL    HW125445   3.846   3.667  15.946 -0.2408  1.0093  0.4109
 4661SOL    HW225446   3.815   3.565  15.841 -1.5592  0.7808 -0.4382
 4662SOL     OW25447   1.121   0.428   7.575 -0.7633 -0.1371  0.1219
 4662SOL    HW125448   1.072   0.390   7.648 -0.1092  2.4204  1.8587
 4662SOL    HW225449   1.205   0.441   7.618  1.0520  1.1966 -3.7559
 4663SOL     OW25450   4.383   2.087   4.097 -0.3322 -0.3735  0.0019
 4663SOL    HW125451   4.409   2.100   4.189  4.3382  1.8119 -1.6207
 4663SOL    HW225452   4.287   2.092   4.089 -0.4050 -1.4216  0.2617
 4664SOL     OW25453   2.734   3.935   2.657 -0.3972  0.1186  0.1016
 4664SOL    HW125454   2.755   3.860   2.713 -1.6085 -0.4224 -0.1552
 4664SOL    HW225455   2.685   3.989   2.719 -0.1782  0.6223 -0.1656
 4665SOL     OW25456   3.572   1.057  12.017  0.0102 -0.2668 -0.0618
 4665SOL    HW125457   3.489   1.018  11.989 -0.7977  1.8283 -0.5807
 4665SOL    HW225458   3.617   1.043  11.934 -2.2977  1.7028 -1.6762
 4666SOL     OW25459   2.762   3.902   5.709  0.2015  0.1571 -0.1314
 4666SOL    HW125460   2.782   3.917   5.801  1.1654  1.9071 -0.6313
 4666SOL    HW225461   2.756   3.806   5.703 -2.3919  0.3025  0.1303
 4667SOL     OW25462   2.350   3.453   8.798  0.3900 -0.1923  0.0546
 4667SOL    HW125463   2.392   3.513   8.861  0.0623 -0.0032  0.0909
 4667SOL    HW225464   2.270   3.497   8.769  0.5494 -0.3784 -0.6576
 4668SOL     OW25465   0.142   2.249   8.746 -0.4819  0.7438  0.0504
 4668SOL    HW125466   0.062   2.204   8.718 -0.8369  1.7647 -0.5956
 4668SOL    HW225467   0.135   2.231   8.839  0.1162  1.7016  0.2796
 4669SOL     OW25468   2.635   0.398   8.586  0.0619  0.1717 -0.3311
 4669SOL    HW125469   2.585   0.472   8.622  3.5397  3.0647 -1.4264
 4669SOL    HW225470   2.580   0.323   8.610 -0.8752  0.5859 -1.1641
 4670SOL     OW25471   0.872   3.566  16.551 -0.2950  0.1074 -0.3965
 4670SOL    HW125472   0.798   3.560  16.491  1.0009 -1.6201 -1.8463
 4670SOL    HW225473   0.820   3.603  16.622 -0.9444  1.1916 -1.4362
 4671SOL     OW25474   2.281   1.845   8.566 -0.0521  0.7220  0.0651
 4671SOL    HW125475   2.206   1.808   8.612 -0.6056  1.1293 -0.5023
 4671SOL    HW225476   2.325   1.882   8.642 -0.0702 -1.1873  1.0028
 4672SOL     OW25477   0.754   1.871   2.772  0.7272  0.1792  0.6655
 4672SOL    HW125478   0.671   1.899   2.809 -0.5081 -1.5451 -0.8255
 4672SOL    HW225479   0.809   1.949   2.784  1.7181 -0.1287 -1.9168
 4673SOL     OW25480   2.281   2.628   4.151 -0.4979 -0.3320  0.2976
 4673SOL    HW125481   2.307   2.624   4.244 -1.2302 -0.5826  0.4923
 4673SOL    HW225482   2.205   2.571   4.145 -1.6041  1.0313  1.3003
 4674SOL     OW25483   2.050   4.646   5.909  0.2195 -0.2790 -1.1117
 4674SOL    HW125484   2.015   4.688   5.988 -0.9070 -1.1751 -1.1337
 4674SOL    HW225485   1.995   4.569   5.899 -1.1868  0.5427  0.3151
 4675SOL     OW25486   3.372   1.343   6.499 -0.3150  0.2623  0.4868
 4675SOL    HW125487   3.351   1.414   6.559 -0.1591 -0.6076  1.5826
 4675SOL    HW225488   3.317   1.276   6.538  0.4613  0.9388  2.7207
 4676SOL     OW25489   0.519   1.793   7.761 -0.2113 -0.0643  0.3196
 4676SOL    HW125490   0.569   1.844   7.698  0.6144  1.3800  2.1550
 4676SOL    HW225491   0.546   1.706   7.730  1.1894  0.6430 -0.4491
 4677SOL     OW25492   3.154   4.225   8.042  0.7798  0.6751 -0.5925
 4677SOL    HW125493   3.065   4.256   8.057 -0.3908 -2.1872 -1.5438
 4677SOL    HW225494   3.191   4.297   7.990 -0.3329  2.7440  1.5455
 4678SOL     OW25495   1.601   4.498  15.648  0.5298  0.4144 -0.2742
 4678SOL    HW125496   1.685   4.522  15.687 -0.0195  0.2906  0.9830
 4678SOL    HW225497   1.548   4.534  15.719  2.1005 -1.5379  1.8907
 4679SOL     OW25498   4.396   4.385   8.435 -0.1968 -0.4905 -0.1512
 4679SOL    HW125499   4.309   4.391   8.395  0.4848 -2.7038 -1.9403
 4679SOL    HW225500   4.405   4.463   8.490  1.4174  0.2712 -1.5168
 4680SOL     OW25501   1.929   2.001   2.095  0.3073  0.1431  0.6007
 4680SOL    HW125502   2.001   2.042   2.047 -0.8652  1.4654 -0.0367
 4680SOL    HW225503   1.881   1.955   2.026 -0.3121  0.1560  1.0237
 4681SOL     OW25504   4.644   1.605   2.998 -0.3264 -0.4490 -0.5631
 4681SOL    HW125505   4.700   1.578   2.926  1.1275  0.5628  0.1783
 4681SOL    HW225506   4.607   1.521   3.027  0.6940 -0.5731  0.3737
 4682SOL     OW25507   0.694   3.447   7.284 -0.4764 -0.0261 -0.1769
 4682SOL    HW125508   0.604   3.462   7.255 -0.4957  2.3239  1.1160
 4682SOL    HW225509   0.716   3.534   7.316  1.9484 -0.1137 -1.6295
 4683SOL     OW25510   4.305   2.589  11.837  0.1229  0.4396  0.3541
 4683SOL    HW125511   4.327   2.559  11.749 -1.4387 -0.8143  0.4047
 4683SOL    HW225512   4.211   2.582  11.825  0.2079 -0.1351  0.0284
 4684SOL     OW25513   4.584   4.442  11.111 -0.4689  0.0469 -0.4119
 4684SOL    HW125514   4.638   4.375  11.150 -0.0357 -1.1619 -3.1096
 4684SOL    HW225515   4.525   4.394  11.052 -1.2600  0.0690  0.3698
 4685SOL     OW25516   0.944   2.623  11.815  0.1554 -0.1101 -0.1041
 4685SOL    HW125517   1.002   2.638  11.890  0.1616 -0.9319  0.0540
 4685SOL    HW225518   1.001   2.565  11.766  0.5195 -1.4361  1.8732
 4686SOL     OW25519   1.449   3.724   4.476  0.3769 -0.2823 -0.0348
 4686SOL    HW125520   1.493   3.683   4.402  0.5577 -2.1083  1.0843
 4686SOL    HW225521   1.494   3.808   4.473 -1.8550  1.0633  3.1369
 4687SOL     OW25522   0.935   3.031   1.900  0.5814 -0.5172 -0.2971
 4687SOL    HW125523   0.943   3.124   1.878  2.8702 -0.8318 -0.7364
 4687SOL    HW225524   0.874   3.042   1.973  0.4764  0.2911 -0.5026
 4688SOL     OW25525   2.344   2.905   5.207 -0.0946 -0.0275 -0.0243
 4688SOL    HW125526   2.360   2.968   5.278 -0.0856  1.0242 -0.9536
 4688SOL    HW225527   2.252   2.916   5.184 -0.5616 -1.0676  1.3668
 4689SOL     OW25528   1.315   3.655   1.956 -0.0131  0.1348  0.3111
 4689SOL    HW125529   1.383   3.723   1.959  2.4474 -2.4756  2.9946
 4689SOL    HW225530   1.340   3.616   1.872  1.1555  0.9170  0.2897
 4690SOL     OW25531   1.131   0.493   8.914  0.0397  0.3002 -0.0809
 4690SOL    HW125532   1.209   0.440   8.934  0.5834  0.5686 -1.5096
 4690SOL    HW225533   1.149   0.523   8.825 -0.1993  0.1956 -0.1628
 4691SOL     OW25534   2.308   3.442   1.068 -0.2283 -0.2161 -0.4467
 4691SOL    HW125535   2.299   3.499   0.992 -0.5815 -1.6278 -1.4676
 4691SOL    HW225536   2.394   3.472   1.100 -0.3374 -0.1451 -0.2220
 4692SOL     OW25537   1.829   3.271  15.292 -0.6315 -0.0429  0.2995
 4692SOL    HW125538   1.781   3.275  15.374 -0.2249 -2.0919  0.6306
 4692SOL    HW225539   1.770   3.227  15.232 -0.9252  1.6536 -0.6692
 4693SOL     OW25540   3.308   0.410   3.496  0.6995  0.4107  0.3880
 4693SOL    HW125541   3.359   0.418   3.576  0.1250 -2.9739  1.0728
 4693SOL    HW225542   3.358   0.470   3.440  1.3302  0.7079  1.2829
 4694SOL     OW25543   3.600   3.358   7.065 -0.2134  0.1653 -0.1098
 4694SOL    HW125544   3.566   3.417   6.998 -2.4240  1.3959  2.1036
 4694SOL    HW225545   3.686   3.399   7.077 -0.0820 -0.0977 -0.1510
 4695SOL     OW25546   3.279   4.520  14.778 -0.7056  0.3100 -0.5903
 4695SOL    HW125547   3.237   4.603  14.801  1.8528  1.5096 -0.2859
 4695SOL    HW225548   3.203   4.477  14.739 -1.2503  2.1407 -1.5513
 4696SOL     OW25549   3.235   2.824   4.107  0.0490 -0.2605  0.0416
 4696SOL    HW125550   3.172   2.884   4.067  1.0549  0.7770 -0.0004
 4696SOL    HW225551   3.230   2.747   4.051  0.5644 -0.2622 -0.0014
 4697SOL     OW25552   3.152   0.661   7.776  0.1565 -0.0815 -0.5358
 4697SOL    HW125553   3.096   0.691   7.704 -1.2289 -2.2088 -0.3572
 4697SOL    HW225554   3.193   0.744   7.801 -0.1186 -0.8040  2.2404
 4698SOL     OW25555   4.360   3.843  17.652  0.5164  0.2890 -0.1576
 4698SOL    HW125556   4.350   3.834   0.053  1.3401 -0.3517 -0.1322
 4698SOL    HW225557   4.317   3.769  17.609  2.3824 -2.3333  2.5186
 4699SOL     OW25558   4.489   3.319   2.337 -0.1983 -0.0012  0.0363
 4699SOL    HW125559   4.395   3.311   2.355 -0.6585  0.0391 -2.3647
 4699SOL    HW225560   4.496   3.274   2.253  1.7241 -1.1043  0.8000
 4700SOL     OW25561   1.464   2.569   1.624  0.5146 -0.2849 -0.1582
 4700SOL    HW125562   1.369   2.555   1.617  1.0475 -2.6728 -2.4333
 4700SOL    HW225563   1.496   2.498   1.568 -1.4053  2.3430 -4.5756
 4701SOL     OW25564   2.860   1.381   6.306 -0.4750 -0.2031 -0.3470
 4701SOL    HW125565   2.909   1.333   6.372  0.1599  1.5900  0.4934
 4701SOL    HW225566   2.844   1.464   6.351  0.5826 -0.4230  0.4273
 4702SOL     OW25567   0.111   3.649  14.788  0.1657  0.0289 -0.6426
 4702SOL    HW125568   0.059   3.585  14.740  3.4451 -2.2046 -1.2172
 4702SOL    HW225569   0.159   3.595  14.851  0.8852  2.0400  0.5306
 4703SOL     OW25570   3.101   0.375   7.819 -0.6139  0.1727  0.1767
 4703SOL    HW125571   3.048   0.410   7.748 -3.0176  0.3793  2.0686
 4703SOL    HW225572   3.125   0.461   7.854  0.7937 -0.2878  0.3706
 4704SOL     OW25573   1.170   1.956   4.416  0.2049  0.3814  0.3966
 4704SOL    HW125574   1.174   2.041   4.460  0.5867 -0.2841  1.6294
 4704SOL    HW225575   1.263   1.933   4.425  0.0687  0.2367  1.4295
 4705SOL     OW25576   2.247   3.022  16.352 -0.0775 -0.2625 -0.2178
 4705SOL    HW125577   2.258   2.946  16.409  3.0563 -0.9388 -1.7279
 4705SOL    HW225578   2.238   2.978  16.267 -1.7591 -3.9692  1.8781
 4706SOL     OW25579   1.112   0.132   7.016 -0.5769 -0.2583  0.0072
 4706SOL    HW125580   1.195   0.149   6.971 -2.0568  0.9871 -2.2810
 4706SOL    HW225581   1.131   0.041   7.037  0.7640 -0.0751 -0.4318
 4707SOL     OW25582   0.582   0.925  11.618 -0.2609  0.3465 -0.2288
 4707SOL    HW125583   0.510   0.985  11.637 -1.1235 -0.6778 -0.2475
 4707SOL    HW225584   0.575   0.925  11.522  1.2996 -2.5142 -0.3662
 4708SOL     OW25585   3.033   3.468  12.032  0.1549  0.0621 -0.4390
 4708SOL    HW125586   3.061   3.550  11.991 -0.2565  0.8288  0.7977
 4708SOL    HW225587   2.976   3.511  12.096 -1.2111 -1.2708 -0.7714
 4709SOL     OW25588   3.239   0.498  16.624 -0.1108 -0.2438  0.4391
 4709SOL    HW125589   3.186   0.573  16.652 -0.1583 -0.1136  0.0023
 4709SOL    HW225590   3.255   0.525  16.533 -0.4613 -0.0012  0.4481
 4710SOL     OW25591   0.694   1.444   6.988 -0.4486  0.2240  0.3148
 4710SOL    HW125592   0.656   1.388   7.056  0.6047  1.0105  1.5505
 4710SOL    HW225593   0.773   1.392   6.975 -0.5535  0.5538 -1.6032
 4711SOL     OW25594   4.490   1.778   1.705 -0.4586 -0.1000 -0.0402
 4711SOL    HW125595   4.465   1.771   1.797  2.2314 -3.1635  0.4651
 4711SOL    HW225596   4.448   1.863   1.691  3.6892  2.0938  1.0699
 4712SOL     OW25597   0.177   1.153   5.814 -0.6891  0.4963 -0.8618
 4712SOL    HW125598   0.230   1.076   5.792 -0.6577  0.8181 -1.9416
 4712SOL    HW225599   0.244   1.222   5.820  1.8520 -2.0715  0.1886
 4713SOL     OW25600   2.305   0.606   2.196  0.1044 -0.2474  0.7460
 4713SOL    HW125601   2.237   0.579   2.134  0.9399 -2.2947  0.7364
 4713SOL    HW225602   2.272   0.688   2.234 -2.9962 -0.1625 -2.1351
 4714SOL     OW25603   4.404   0.153   9.121 -0.5161  0.2471 -0.1684
 4714SOL    HW125604   4.415   0.223   9.185  0.1936 -0.2885  0.2795
 4714SOL    HW225605   4.497   0.146   9.101 -0.4536 -1.4419  0.7225
 4715SOL     OW25606   1.258   1.927   8.866 -0.4678  0.1407  0.1245
 4715SOL    HW125607   1.295   1.843   8.841 -2.0362 -0.6782  0.5333
 4715SOL    HW225608   1.242   1.963   8.779  0.1147 -2.8034 -1.2081
 4716SOL     OW25609   2.349   4.494   5.412 -0.6358 -0.2213 -0.8119
 4716SOL    HW125610   2.331   4.411   5.456  0.1078 -0.1183 -0.3104
 4716SOL    HW225611   2.294   4.547   5.469  0.5573  0.2627 -0.1234
 4717SOL     OW25612   2.265   1.102   2.571 -0.2005  0.3055  0.3485
 4717SOL    HW125613   2.237   1.189   2.600 -2.1805  0.2049 -1.2609
 4717SOL    HW225614   2.359   1.118   2.566 -0.4177  1.1836 -0.9221
 4718SOL     OW25615   4.329   0.878  16.333 -0.4707 -0.2766 -0.0863
 4718SOL    HW125616   4.261   0.932  16.293  1.3675  2.2453  0.1910
 4718SOL    HW225617   4.397   0.914  16.276  0.9027 -2.2660  0.3116
 4719SOL     OW25618   1.935   2.193   6.324  0.1786 -0.0286 -0.0830
 4719SOL    HW125619   1.940   2.242   6.406  1.2017 -0.0521 -0.1270
 4719SOL    HW225620   1.877   2.250   6.274  1.3406  1.9320  0.7845
 4720SOL     OW25621   4.299   3.966   5.906 -0.2601  0.2542 -0.4074
 4720SOL    HW125622   4.368   3.918   5.952 -0.2481 -0.2175 -0.9083
 4720SOL    HW225623   4.351   3.985   5.828  0.3006  0.2357 -0.0332
 4721SOL     OW25624   0.814   4.116  11.165 -0.2666  0.1528  0.1736
 4721SOL    HW125625   0.882   4.052  11.190  0.5223 -0.2323 -3.0287
 4721SOL    HW225626   0.859   4.200  11.175  1.2644 -0.7413  0.9088
 4722SOL     OW25627   1.135   3.772   1.170 -0.1834 -0.9114 -0.2466
 4722SOL    HW125628   1.226   3.744   1.156 -0.1120  0.1878 -1.8862
 4722SOL    HW225629   1.114   3.706   1.236 -2.1819 -0.6532 -0.6430
 4723SOL     OW25630   3.292   0.337   7.625 -0.1812  0.4113  0.2263
 4723SOL    HW125631   3.212   0.314   7.672  0.0066  2.7074  1.6841
 4723SOL    HW225632   3.334   0.376   7.702 -0.8030  1.9657 -0.2176
 4724SOL     OW25633   2.851   0.065   3.899  0.5097  0.0202 -0.5233
 4724SOL    HW125634   2.865   0.082   3.805 -1.5821 -0.3892 -0.9173
 4724SOL    HW225635   2.763   0.028   3.890 -0.4811  2.1325  0.5567
 4725SOL     OW25636   0.523   2.263   5.196 -0.6936 -0.1242  0.0140
 4725SOL    HW125637   0.482   2.197   5.140 -1.0179 -0.8354  1.0900
 4725SOL    HW225638   0.605   2.222   5.222 -1.7734 -2.2677  0.0546
 4726SOL     OW25639   2.178   3.322   5.094  0.0622 -0.7670  0.1257
 4726SOL    HW125640   2.250   3.355   5.148 -2.6662  2.9571  1.4176
 4726SOL    HW225641   2.125   3.265   5.150 -1.4468 -1.5471 -2.0877
 4727SOL     OW25642   4.110   0.640   0.364 -0.2775  0.1328 -0.3959
 4727SOL    HW125643   4.166   0.565   0.384 -0.1918  0.6022  1.1255
 4727SOL    HW225644   4.024   0.600   0.359 -0.1981 -0.1235  0.3499
 4728SOL     OW25645   3.041   4.418   4.109 -0.1551  0.1366 -0.3418
 4728SOL    HW125646   3.072   4.329   4.093  1.7997  0.5604  1.0908
 4728SOL    HW225647   3.025   4.423   4.203  1.7165 -0.2824 -0.0039
 4729SOL     OW25648   0.363   2.253   2.197  0.7174 -0.6369  0.1866
 4729SOL    HW125649   0.362   2.320   2.266  0.3381 -2.9751  2.4636
 4729SOL    HW225650   0.390   2.176   2.247  2.3243 -1.0225 -1.2817
 4730SOL     OW25651   1.888   4.063   7.170  0.1787 -0.5001  0.3206
 4730SOL    HW125652   1.820   4.015   7.218 -0.6268  0.8701  0.5366
 4730SOL    HW225653   1.832   4.096   7.100  2.1233  0.7688 -0.6077
 4731SOL     OW25654   2.898   4.161   4.196  0.3080 -0.6423  0.1563
 4731SOL    HW125655   2.876   4.090   4.256 -1.4384 -1.4258 -1.4019
 4731SOL    HW225656   2.962   4.203   4.253 -0.1950 -0.6626  0.7372
 4732SOL     OW25657   0.772   3.423   6.014  0.2186 -0.0524  0.4007
 4732SOL    HW125658   0.758   3.328   6.017  2.8806 -0.4061  1.8942
 4732SOL    HW225659   0.723   3.451   6.091 -0.3940 -1.3708  0.4902
 4733SOL     OW25660   3.692   1.553   7.314  0.5380 -0.0290 -0.4153
 4733SOL    HW125661   3.700   1.583   7.223  2.1961  1.8935  0.3638
 4733SOL    HW225662   3.625   1.487   7.300  1.8817 -1.4873  0.0947
 4734SOL     OW25663   2.406   0.890   6.298 -0.4495  0.0645  0.3264
 4734SOL    HW125664   2.460   0.879   6.376 -1.3706  0.0786  0.9723
 4734SOL    HW225665   2.348   0.813   6.302  0.3590 -0.4881  1.3849
 4735SOL     OW25666   3.765   2.402   3.098 -0.0383 -0.0172 -0.1037
 4735SOL    HW125667   3.815   2.344   3.156 -2.3405 -3.1996 -1.2983
 4735SOL    HW225668   3.847   2.427   3.056  0.2701 -1.2739 -0.2537
 4736SOL     OW25669   3.921   1.721   1.245  0.1067 -0.2540  0.5486
 4736SOL    HW125670   3.997   1.667   1.265 -0.1892  0.1245  2.6474
 4736SOL    HW225671   3.901   1.779   1.319 -0.7432 -1.4193  1.2226
 4737SOL     OW25672   0.794   0.167   2.969  0.0254 -0.6193 -0.7556
 4737SOL    HW125673   0.805   0.100   2.901  0.0572 -2.0398  0.6420
 4737SOL    HW225674   0.699   0.179   2.965  0.1977  1.1486  0.4003
 4738SOL     OW25675   3.230   0.303   0.820  0.4440 -0.0778 -0.3659
 4738SOL    HW125676   3.312   0.257   0.805  0.4935  0.1339 -0.7335
 4738SOL    HW225677   3.168   0.241   0.782 -0.8729 -0.6743  2.7139
 4739SOL     OW25678   3.651   2.547   2.127  0.5167  0.5351 -0.2725
 4739SOL    HW125679   3.622   2.459   2.105  2.4599 -0.2119  0.2126
 4739SOL    HW225680   3.603   2.595   2.059  0.2865  0.2271 -0.3274
 4740SOL     OW25681   4.697   2.561   2.079  0.4196  0.1315 -0.2693
 4740SOL    HW125682   4.697   2.607   1.995  0.7085  1.3109  0.3727
 4740SOL    HW225683   0.019   2.478   2.061  1.5019  0.5543  0.4992
 4741SOL     OW25684   3.488   1.460   0.437 -0.3242  0.0421 -0.1692
 4741SOL    HW125685   3.584   1.462   0.434 -0.2436 -0.6901  1.4605
 4741SOL    HW225686   3.476   1.517   0.361  1.9247  0.8512  0.0665
 4742SOL     OW25687   2.370   0.641   5.316  0.4143  0.6263 -0.4797
 4742SOL    HW125688   2.343   0.705   5.250 -3.3441 -1.2595 -0.7176
 4742SOL    HW225689   2.292   0.634   5.370  0.4808 -2.0206 -0.7506
 4743SOL     OW25690   2.840   3.648  13.440 -0.1383 -0.4433  0.0942
 4743SOL    HW125691   2.813   3.557  13.451  1.5798 -0.9472  0.1283
 4743SOL    HW225692   2.934   3.633  13.449  0.4662  3.4209  0.2821
 4744SOL     OW25693   0.076   1.702  11.785  0.1242  0.3788  0.0688
 4744SOL    HW125694   0.088   1.607  11.774 -0.4269  0.3590 -0.4157
 4744SOL    HW225695   0.129   1.718  11.862 -0.0888  1.7579 -0.0766
 4745SOL     OW25696   0.194   2.612   6.989  0.2768 -0.2800 -0.3556
 4745SOL    HW125697   0.260   2.555   7.028  0.2541  2.0690  3.1694
 4745SOL    HW225698   0.228   2.701   7.001  0.2343 -0.6529  2.5486
 4746SOL     OW25699   3.945   2.540   4.211  0.1355 -0.4332 -0.0560
 4746SOL    HW125700   3.973   2.503   4.127  2.0720 -0.3496  0.5558
 4746SOL    HW225701   3.853   2.514   4.202 -0.0147  0.2412 -0.4064
 4747SOL     OW25702   3.356   0.269   2.918  0.1650  0.3256  0.1220
 4747SOL    HW125703   3.435   0.237   2.875 -1.6779 -0.1510 -2.9193
 4747SOL    HW225704   3.294   0.216   2.868  1.1209 -0.6634 -0.0020
 4748SOL     OW25705   0.710   0.420   8.487 -0.9913 -0.3239  0.0015
 4748SOL    HW125706   0.716   0.460   8.573  1.2080  1.0820 -0.8164
 4748SOL    HW225707   0.667   0.486   8.434  1.4065  2.4651  1.5653
 4749SOL     OW25708   4.463   2.228  11.920 -0.1314 -0.3407  0.0544
 4749SOL    HW125709   4.375   2.242  11.955 -0.0833 -0.1270  0.0853
 4749SOL    HW225710   4.459   2.134  11.898 -2.4314 -0.1283 -0.5074
 4750SOL     OW25711   1.190   4.301   8.876  0.0907  0.4752  0.5432
 4750SOL    HW125712   1.187   4.315   8.781  3.3594 -1.9803  0.0637
 4750SOL    HW225713   1.152   4.384   8.904 -0.5723  1.2081 -2.4833
 4751SOL     OW25714   1.388   4.629   6.464  0.3145 -0.0707  0.3911
 4751SOL    HW125715   1.443   4.554   6.487  0.7712  0.9939  2.7712
 4751SOL    HW225716   1.298   4.600   6.481 -0.3895  1.2621 -1.1295
 4752SOL     OW25717   0.498   1.234   3.341  0.2874 -0.2826 -0.2816
 4752SOL    HW125718   0.457   1.318   3.321 -0.8774 -0.6807  0.4157
 4752SOL    HW225719   0.586   1.246   3.306  0.7902 -1.8969  0.3773
 4753SOL     OW25720   3.737   4.225   0.227  0.5387 -0.2746 -0.0146
 4753SOL    HW125721   3.730   4.300   0.168  0.8757 -1.3984 -1.4854
 4753SOL    HW225722   3.695   4.252   0.308 -1.4361 -0.4718 -0.9736
 4754SOL     OW25723   1.101   3.335   5.178 -0.1056  0.1069 -0.0797
 4754SOL    HW125724   1.053   3.357   5.098 -0.9692 -0.0386  0.3969
 4754SOL    HW225725   1.049   3.265   5.217 -0.5809 -1.3925 -3.3723
 4755SOL     OW25726   3.936   0.937   8.176  0.1676 -0.1978  0.1569
 4755SOL    HW125727   4.014   0.926   8.231  1.9567  2.4726 -1.8817
 4755SOL    HW225728   3.870   0.990   8.221  2.3196  0.8532  2.0853
 4756SOL     OW25729   2.592   1.853   2.084 -0.0839  0.5469  0.0244
 4756SOL    HW125730   2.628   1.935   2.119 -0.8846  0.4032  1.1825
 4756SOL    HW225731   2.501   1.882   2.085 -0.6996 -1.3985 -0.0691
 4757SOL     OW25732   1.307   0.686   2.104 -0.2638  0.7208  0.3527
 4757SOL    HW125733   1.279   0.683   2.013  1.4843 -1.5667 -0.1051
 4757SOL    HW225734   1.311   0.594   2.131 -0.9648  1.4067  2.8484
 4758SOL     OW25735   2.360   1.347   5.805  0.1721 -0.3364  0.0387
 4758SOL    HW125736   2.333   1.430   5.766  2.9108  0.6866  0.3169
 4758SOL    HW225737   2.376   1.305   5.720 -2.3382  0.5256 -0.8735
 4759SOL     OW25738   0.250   1.529   5.920 -0.3076 -0.5173 -0.1530
 4759SOL    HW125739   0.339   1.517   5.953 -0.9198 -1.2854  1.2758
 4759SOL    HW225740   0.262   1.489   5.834  1.7561 -0.4839  0.1288
 4760SOL     OW25741   0.341   2.924   2.732  0.5353  1.0719  0.0845
 4760SOL    HW125742   0.285   2.879   2.670 -0.7232 -1.2414  2.9033
 4760SOL    HW225743   0.323   2.881   2.816  1.5170  0.1328 -0.1872
 4761SOL     OW25744   1.132   2.382   6.109  0.1056  0.1794 -0.2882
 4761SOL    HW125745   1.039   2.393   6.129  0.7581 -0.3075  3.0219
 4761SOL    HW225746   1.145   2.472   6.078 -0.8589  0.4071 -0.0341
 4762SOL     OW25747   0.206   0.849   4.852  0.6845 -0.1188  0.1457
 4762SOL    HW125748   0.122   0.805   4.839 -0.1890  1.3418  0.8579
 4762SOL    HW225749   0.230   0.870   4.761 -0.4507  1.6070  0.2487
 4763SOL     OW25750   4.680   3.930  10.913 -0.3950 -0.4671 -0.0004
 4763SOL    HW125751   4.676   4.014  10.869  2.1099 -0.6259 -0.5083
 4763SOL    HW225752   4.669   3.877  10.834 -0.0135 -1.0948  0.3679
 4764SOL     OW25753   2.491   0.564  16.600  0.6102  0.5418 -0.5472
 4764SOL    HW125754   2.400   0.581  16.576  0.4598  0.7510  0.1620
 4764SOL    HW225755   2.483   0.500  16.671  2.6238  2.1964  1.1846
 4765SOL     OW25756   1.791   1.573  12.675 -0.8174 -0.4321 -0.2101
 4765SOL    HW125757   1.750   1.657  12.655  0.7016  0.5291  0.7285
 4765SOL    HW225758   1.878   1.604  12.652 -0.4882 -1.3778 -0.2580
 4766SOL     OW25759   0.951   0.845   5.173  0.3603  0.3273  0.6636
 4766SOL    HW125760   0.939   0.764   5.223  1.7710  0.4675  1.2214
 4766SOL    HW225761   0.867   0.885   5.193 -0.2537  0.3379 -1.9304
 4767SOL     OW25762   3.660   1.383   2.509  0.3935  0.2299  0.0437
 4767SOL    HW125763   3.707   1.461   2.538  0.8008 -0.1397  0.3760
 4767SOL    HW225764   3.592   1.394   2.576 -0.6374 -1.4900 -0.7283
 4768SOL     OW25765   4.306   0.148   4.127  0.0085 -0.1689 -0.0920
 4768SOL    HW125766   4.233   0.087   4.113  0.8136 -1.3293  0.8181
 4768SOL    HW225767   4.317   0.126   4.220 -1.6981  2.4584  0.7519
 4769SOL     OW25768   0.956   1.320   6.898  0.6698 -0.2344 -0.1623
 4769SOL    HW125769   1.042   1.351   6.928 -0.5609  0.4652  2.6168
 4769SOL    HW225770   0.947   1.383   6.826  0.3069 -0.5756 -0.4108
 4770SOL     OW25771   4.017   0.496   8.835 -0.4838 -0.2828  0.0046
 4770SOL    HW125772   4.104   0.495   8.795  0.2527  1.3340  1.5715
 4770SOL    HW225773   4.028   0.409   8.874  1.5791 -0.2662 -0.5408
 4771SOL     OW25774   2.683   0.480   8.966  0.4915 -0.6468  0.7157
 4771SOL    HW125775   2.599   0.494   8.921 -0.2756 -1.6083  1.8464
 4771SOL    HW225776   2.669   0.402   9.020  1.3878 -0.6466  0.9402
 4772SOL     OW25777   0.300   0.130   3.187  0.4596  0.0851 -0.0147
 4772SOL    HW125778   0.379   0.126   3.134  0.5107  1.0089 -0.0078
 4772SOL    HW225779   0.245   0.189   3.136 -0.8774 -0.1644  1.1383
 4773SOL     OW25780   1.381   3.218   7.177 -0.1680 -0.5617  0.3716
 4773SOL    HW125781   1.428   3.135   7.181  0.4833 -0.1437  1.3932
 4773SOL    HW225782   1.339   3.228   7.263  0.2002  0.0090  0.4829
 4774SOL     OW25783   3.540   1.070   5.615 -0.1519  0.2029  0.1380
 4774SOL    HW125784   3.603   1.006   5.649 -1.8659 -1.8665 -0.5460
 4774SOL    HW225785   3.502   1.015   5.546 -1.5926 -0.8704  1.7810
 4775SOL     OW25786   1.341   3.293   4.636  0.7771  0.5735 -0.2974
 4775SOL    HW125787   1.393   3.269   4.558 -0.8691  0.9249 -1.4977
 4775SOL    HW225788   1.329   3.208   4.678 -0.2256  0.3843 -0.9665
 4776SOL     OW25789   2.240   2.001   9.756 -0.3291 -0.5408 -0.3501
 4776SOL    HW125790   2.314   2.059   9.771  1.6366 -2.7590 -1.3817
 4776SOL    HW225791   2.259   1.918   9.799 -4.1425 -0.9838  0.5464
 4777SOL     OW25792   3.111   4.451  15.631  0.1304 -0.1410 -0.4286
 4777SOL    HW125793   3.140   4.513  15.698 -1.2696 -1.4912  1.4409
 4777SOL    HW225794   3.178   4.467  15.565 -0.0656 -0.4602 -0.7015
 4778SOL     OW25795   1.855   2.301   3.928  0.3946 -0.2058  0.6397
 4778SOL    HW125796   1.838   2.239   3.999 -2.1024  1.5134  1.5412
 4778SOL    HW225797   1.833   2.247   3.852 -0.8611 -0.3897  1.1358
 4779SOL     OW25798   3.146   3.703   3.797  0.0905  0.0558 -0.0553
 4779SOL    HW125799   3.109   3.790   3.781  0.7580  0.4700  0.6408
 4779SOL    HW225800   3.174   3.703   3.888  2.0822  0.6335 -0.6593
 4780SOL     OW25801   3.866   0.905   0.341  0.2187  0.1484 -0.0303
 4780SOL    HW125802   3.856   0.826   0.289  0.2114  0.9781 -1.2812
 4780SOL    HW225803   3.900   0.868   0.422 -3.1778 -5.0751 -1.0136
 4781SOL     OW25804   3.747   3.588   3.153  0.2013  1.1914 -0.5005
 4781SOL    HW125805   3.683   3.579   3.082 -0.7932  1.7917  0.3427
 4781SOL    HW225806   3.769   3.680   3.166 -1.2154  1.4808 -0.1973
 4782SOL     OW25807   1.100   0.437   3.470  0.3545  0.6248  0.0914
 4782SOL    HW125808   1.019   0.391   3.493  0.5791  0.3684  0.3722
 4782SOL    HW225809   1.058   0.501   3.412 -1.4815 -1.2995 -0.7193
 4783SOL     OW25810   0.316   0.124   5.050 -0.3044 -0.1050 -0.2512
 4783SOL    HW125811   0.241   0.110   4.990 -0.4162  2.2385 -0.6394
 4783SOL    HW225812   0.334   0.217   5.043 -2.6027  0.3773  0.1989
 4784SOL     OW25813   0.638   4.030   5.243  0.2377  0.2545 -0.0267
 4784SOL    HW125814   0.545   4.014   5.261  0.7934 -2.3453  0.5986
 4784SOL    HW225815   0.633   4.091   5.170  1.4362  0.7038  0.2561
 4785SOL     OW25816   1.903   0.162   3.074 -0.5027 -0.5216 -0.7136
 4785SOL    HW125817   1.828   0.219   3.090 -0.5902 -0.8579  0.1103
 4785SOL    HW225818   1.903   0.114   3.157  1.0637  1.1022  0.2214
 4786SOL     OW25819   3.600   3.482   0.844 -0.3249 -0.2064  0.2142
 4786SOL    HW125820   3.557   3.402   0.874  1.2937 -0.2269  2.5468
 4786SOL    HW225821   3.649   3.498   0.925 -2.0966  0.0715  1.2265
 4787SOL     OW25822   4.228   2.633   3.440 -0.1509 -0.0245  0.4630
 4787SOL    HW125823   4.172   2.617   3.364 -0.0472 -0.3232  0.4513
 4787SOL    HW225824   4.243   2.727   3.450 -3.0089  0.5949 -1.0309
 4788SOL     OW25825   2.084   2.133  17.470  0.1411  0.8363 -0.3776
 4788SOL    HW125826   2.106   2.209  17.523  0.7960  0.4078 -0.0350
 4788SOL    HW225827   2.127   2.067  17.524 -0.2656  0.4857 -0.4797
 4789SOL     OW25828   2.036   0.471   5.183  0.4067  0.2866 -0.2295
 4789SOL    HW125829   2.045   0.431   5.269  1.1802 -0.7454 -0.8028
 4789SOL    HW225830   2.053   0.563   5.206 -0.4744  0.4179 -0.0673
 4790SOL     OW25831   4.721   2.767   6.564 -0.1179  0.3427 -0.1779
 4790SOL    HW125832   4.667   2.699   6.604 -0.1357  0.3698 -0.1564
 4790SOL    HW225833   0.057   2.720   6.505 -2.6073 -3.1654  0.1235
 4791SOL     OW25834   0.125   0.510  14.741  0.2794 -0.0324  0.2641
 4791SOL    HW125835   0.163   0.539  14.824 -0.3051 -0.6903  0.7642
 4791SOL    HW225836   0.097   0.592  14.701 -2.2926 -0.5833  0.9643
 4792SOL     OW25837   1.660   2.852   8.671 -0.4217  0.2354 -0.2224
 4792SOL    HW125838   1.704   2.935   8.654  1.8000 -0.8376  0.2890
 4792SOL    HW225839   1.597   2.850   8.599 -1.0892  2.4153  0.3203
 4793SOL     OW25840   3.396   1.253  14.978  0.3901  0.7818  0.0386
 4793SOL    HW125841   3.364   1.163  14.969 -0.3975  1.0657  0.0010
 4793SOL    HW225842   3.433   1.234  15.064 -0.4023 -1.9992 -0.2297
 4794SOL     OW25843   1.495   2.336  14.764 -0.5176 -0.3099 -0.0034
 4794SOL    HW125844   1.469   2.339  14.856  1.0065 -0.1708  0.4240
 4794SOL    HW225845   1.416   2.374  14.725  0.1775  2.6132  1.4031
 4795SOL     OW25846   2.668   1.006   5.561  0.3220  0.2371 -0.0705
 4795SOL    HW125847   2.613   0.936   5.525 -0.4852  0.3618  0.9338
 4795SOL    HW225848   2.756   0.992   5.526  0.4604  0.8726  0.0172
 4796SOL     OW25849   1.729   1.949   8.165 -0.2032  0.5861  0.2728
 4796SOL    HW125850   1.783   1.931   8.242 -1.6840  0.5477  1.2991
 4796SOL    HW225851   1.802   1.972   8.107  0.1805 -0.2724  0.4226
 4797SOL     OW25852   1.676   1.810  11.374  0.4700 -0.0519 -0.3601
 4797SOL    HW125853   1.621   1.736  11.348  0.9170 -1.0611  1.5880
 4797SOL    HW225854   1.628   1.836  11.452 -1.2233 -0.5463 -1.2251
 4798SOL     OW25855   2.435   1.832   5.720 -0.7643 -0.3002 -0.8286
 4798SOL    HW125856   2.426   1.898   5.788 -0.9085 -0.9008 -0.2710
 4798SOL    HW225857   2.517   1.792   5.747 -1.0019 -0.6534 -0.6404
 4799SOL     OW25858   3.717   4.574   3.367  0.3721 -0.1840  0.3070
 4799SOL    HW125859   3.736   4.668   3.371 -0.1344 -0.0411 -0.8735
 4799SOL    HW225860   3.793   4.542   3.317  0.5946 -1.3627  1.3949
 4800SOL     OW25861   4.100   0.228   0.378 -0.2743  0.5433  0.0502
 4800SOL    HW125862   4.127   0.216   0.469 -1.1663  0.8495  0.3617
 4800SOL    HW225863   4.069   0.139   0.362  0.0314  0.5245 -0.4186
 4801SOL     OW25864   3.402   1.846   0.780 -0.0252 -0.1975  0.2928
 4801SOL    HW125865   3.369   1.853   0.870  1.4257  1.4775  0.7014
 4801SOL    HW225866   3.335   1.900   0.737 -0.4925 -0.5699  0.5455
 4802SOL     OW25867   3.325   0.117   8.628 -0.4799 -0.2792 -0.2274
 4802SOL    HW125868   3.416   0.090   8.614 -0.2642 -0.0915  0.7582
 4802SOL    HW225869   3.297   0.158   8.546  1.1549  2.4902  0.5855
 4803SOL     OW25870   3.888   4.625   7.150  0.5439 -0.1668  0.0695
 4803SOL    HW125871   3.840   4.590   7.225 -0.0020 -0.1280 -0.2630
 4803SOL    HW225872   3.888   4.721   7.147 -0.1214 -0.2141 -1.6632
 4804SOL     OW25873   2.242   3.048   8.053 -0.2984 -0.0772 -0.4927
 4804SOL    HW125874   2.190   3.065   8.131 -0.4868 -0.3263 -0.5639
 4804SOL    HW225875   2.179   3.015   7.989  0.1181 -1.8758  0.0244
 4805SOL     OW25876   2.504   2.113   8.715  0.0027  0.7713 -0.3169
 4805SOL    HW125877   2.563   2.048   8.676  1.6574  0.8122  2.1091
 4805SOL    HW225878   2.456   2.063   8.782 -0.3184  0.4757 -0.7645
 4806SOL     OW25879   4.098   0.302   8.437  0.2191 -0.0496  0.2664
 4806SOL    HW125880   4.093   0.394   8.463  0.9808 -0.0434  0.3699
 4806SOL    HW225881   4.169   0.262   8.487 -0.5775  0.7033  1.9910
 4807SOL     OW25882   2.934   4.044   2.481 -0.2016  0.8287  0.4142
 4807SOL    HW125883   2.869   4.077   2.419  0.8465 -0.1351 -1.2106
 4807SOL    HW225884   2.877   4.002   2.546  0.0790 -0.8014 -0.3843
 4808SOL     OW25885   3.606   1.744   4.196  0.0922  0.0418  0.2858
 4808SOL    HW125886   3.565   1.684   4.133  1.0311 -0.5373  0.2212
 4808SOL    HW225887   3.589   1.828   4.154 -3.5337 -0.6007  0.4335
 4809SOL     OW25888   0.650   2.392   2.299 -0.3159 -0.4312 -0.2577
 4809SOL    HW125889   0.736   2.382   2.259 -1.6701 -3.1443 -2.4396
 4809SOL    HW225890   0.643   2.318   2.359  0.6906  1.3814  2.1393
 4810SOL     OW25891   0.933   2.592   5.285  0.1057  0.2336 -0.0230
 4810SOL    HW125892   0.894   2.678   5.298 -2.4105 -0.7773 -0.7826
 4810SOL    HW225893   0.860   2.553   5.236  1.6946 -2.1590 -0.5328
 4811SOL     OW25894   1.069   4.588   3.337  0.0596  0.3058  0.0242
 4811SOL    HW125895   1.001   4.655   3.349 -0.7287 -0.9451  2.4083
 4811SOL    HW225896   1.137   4.641   3.294  0.1621 -0.9612 -1.3635
 4812SOL     OW25897   2.783   1.362   7.296 -0.2136 -0.0490  0.1271
 4812SOL    HW125898   2.706   1.417   7.313 -2.1589 -2.5899 -0.3989
 4812SOL    HW225899   2.843   1.420   7.250  0.2320  0.5468  1.4392
 4813SOL     OW25900   1.584   2.651   7.237  0.2061 -0.3490 -0.1924
 4813SOL    HW125901   1.573   2.646   7.332 -0.0477  2.2406 -0.0943
 4813SOL    HW225902   1.495   2.655   7.203 -0.5138 -0.0733  1.6825
 4814SOL     OW25903   0.006   0.421  14.086 -1.0444  0.1845 -0.1216
 4814SOL    HW125904   4.660   0.379  14.136 -1.3693 -1.1081 -1.6614
 4814SOL    HW225905   4.680   0.464  14.016  0.6923 -1.2208 -2.2248
 4815SOL     OW25906   0.838   3.391  10.332 -0.5806 -0.1904 -0.5136
 4815SOL    HW125907   0.873   3.391  10.421  0.4277 -1.2004 -0.9006
 4815SOL    HW225908   0.848   3.485  10.318 -0.0197  0.2049  2.6574
 4816SOL     OW25909   4.092   1.564   0.055 -0.5557 -0.0264 -0.5004
 4816SOL    HW125910   4.111   1.478   0.092 -1.3719 -0.0317 -0.0817
 4816SOL    HW225911   4.002   1.551   0.025 -0.9930  0.8002  0.4537
 4817SOL     OW25912   2.134   3.003   3.904  0.4374  0.6996  0.3009
 4817SOL    HW125913   2.141   3.031   3.813  2.5579  0.5326  0.4096
 4817SOL    HW225914   2.210   2.947   3.921 -0.5630 -0.0729  2.1441
 4818SOL     OW25915   0.645   1.248   3.607  0.2652 -0.0376  0.0892
 4818SOL    HW125916   0.584   1.301   3.658 -0.3861 -0.1235 -0.6074
 4818SOL    HW225917   0.614   1.159   3.623  0.7455 -0.1884  0.1817
 4819SOL     OW25918   1.964   0.009   6.747  0.2997 -0.3922  0.3021
 4819SOL    HW125919   2.026   0.080   6.767 -0.5334  0.4100  0.0580
 4819SOL    HW225920   1.997   4.665   6.806  0.9084 -0.5379 -0.2035
 4820SOL     OW25921   2.813   3.242   7.281 -0.8008 -0.1923  0.0477
 4820SOL    HW125922   2.889   3.297   7.264 -0.7988 -0.8449 -2.0022
 4820SOL    HW225923   2.774   3.287   7.356  0.4868 -1.5123  1.5202
 4821SOL     OW25924   4.303   3.736   6.413 -0.0879 -0.1931 -0.2893
 4821SOL    HW125925   4.284   3.675   6.342  1.5320 -0.8945 -0.1268
 4821SOL    HW225926   4.216   3.764   6.442  0.5208  1.4278 -0.0215
 4822SOL     OW25927   0.659   0.543   3.293 -0.3260 -0.0487 -0.3081
 4822SOL    HW125928   0.747   0.506   3.294 -0.3561 -0.1281 -0.4795
 4822SOL    HW225929   0.629   0.507   3.209  0.4819  0.8359 -0.9779
 4823SOL     OW25930   0.893   2.332  13.324  0.0214 -0.3333 -0.7236
 4823SOL    HW125931   0.919   2.321  13.232 -0.7905 -1.1339 -0.8598
 4823SOL    HW225932   0.832   2.258  13.331  2.1644 -2.1214 -0.8599
 4824SOL     OW25933   0.060   2.098   3.758  0.5114 -0.2370  0.0727
 4824SOL    HW125934   0.063   2.004   3.774  1.1486 -0.1350  0.5352
 4824SOL    HW225935   0.149   2.101   3.721  0.2181 -1.0035 -0.6903
 4825SOL     OW25936   2.039   0.120  15.559 -0.0370  0.2418 -0.3212
 4825SOL    HW125937   2.059   0.054  15.492  0.4838  0.7066 -0.6324
 4825SOL    HW225938   1.972   0.072  15.607  0.6641 -0.5908 -0.1910
 4826SOL     OW25939   2.781   0.513   7.009 -0.4409 -0.5697 -0.0599
 4826SOL    HW125940   2.715   0.447   7.031  0.2056 -1.1257  0.2158
 4826SOL    HW225941   2.857   0.461   7.035 -1.1249 -0.8094  1.4696
 4827SOL     OW25942   4.608   3.105  10.187  0.1460 -0.0818  0.6665
 4827SOL    HW125943   4.639   3.032  10.239  2.1605  0.2268 -0.1115
 4827SOL    HW225944   4.519   3.116  10.222  0.0866 -0.7524  0.7304
 4828SOL     OW25945   0.402   0.557   3.585  0.9080 -0.0134 -0.2083
 4828SOL    HW125946   0.325   0.610   3.605 -1.0873 -2.7679 -0.6274
 4828SOL    HW225947   0.368   0.486   3.529 -0.1973 -0.2628  0.7851
 4829SOL     OW25948   0.021   2.409   2.986 -0.6880 -0.7746  0.2105
 4829SOL    HW125949   4.691   2.413   3.065 -1.6362 -2.6463 -0.3331
 4829SOL    HW225950   4.681   2.383   2.919 -0.0602  0.4405 -0.8674
 4830SOL     OW25951   2.331   3.567  13.294  0.3216  0.3115 -0.2835
 4830SOL    HW125952   2.387   3.639  13.264  0.7699  0.4106  0.7859
 4830SOL    HW225953   2.367   3.548  13.380  2.2151 -0.6043 -1.2875
 4831SOL     OW25954   3.166   3.412   1.464  0.0634 -0.3724 -0.6107
 4831SOL    HW125955   3.173   3.376   1.553 -0.2573 -0.4319 -0.6091
 4831SOL    HW225956   3.250   3.456   1.456  0.4176 -0.5099  2.5417
 4832SOL     OW25957   0.298   2.578   9.529 -0.4667 -0.6883  0.1153
 4832SOL    HW125958   0.282   2.484   9.521  2.6953 -1.2204  0.1400
 4832SOL    HW225959   0.278   2.601   9.438  0.7987  2.2615  0.5965
 4833SOL     OW25960   0.140   3.059  16.157 -0.1210  0.2129 -0.9957
 4833SOL    HW125961   0.130   2.973  16.115  0.8377 -0.3072 -0.1840
 4833SOL    HW225962   0.210   3.095  16.102 -1.5336  0.7682 -2.4143
 4834SOL     OW25963   0.056   0.578   4.400  0.4944  1.0409  0.5306
 4834SOL    HW125964   0.082   0.555   4.490 -0.5515  1.1497  0.8586
 4834SOL    HW225965   0.002   0.500   4.387  0.5115  0.8327  1.6968
 4835SOL     OW25966   2.327   1.669   3.262 -1.2418  0.1777  0.8168
 4835SOL    HW125967   2.391   1.598   3.268 -2.8615 -1.1557  2.2995
 4835SOL    HW225968   2.362   1.708   3.182 -0.8036 -0.0708  0.8859
 4836SOL     OW25969   2.698   3.413   6.909  0.4710 -0.3708  0.0225
 4836SOL    HW125970   2.676   3.320   6.923 -0.3268 -0.4455 -1.6372
 4836SOL    HW225971   2.641   3.449   6.977 -0.1872  1.6770 -1.6344
 4837SOL     OW25972   4.257   0.671   7.343  0.3214 -0.1018 -0.0938
 4837SOL    HW125973   4.254   0.636   7.432 -2.5926 -1.4174 -0.7073
 4837SOL    HW225974   4.310   0.749   7.356  0.2715  0.1531 -1.4159
 4838SOL     OW25975   3.287   1.436   3.152 -0.2322  0.8034 -0.2855
 4838SOL    HW125976   3.241   1.408   3.074 -1.7033 -0.8495  1.1938
 4838SOL    HW225977   3.210   1.450   3.207  0.9304 -2.2507  2.1438
 4839SOL     OW25978   0.071   3.157   3.460  0.6741  0.5636 -0.2374
 4839SOL    HW125979   0.090   3.100   3.385 -0.5444  1.0686 -0.9254
 4839SOL    HW225980   4.698   3.159   3.461  0.7084  1.8856  0.2775
 4840SOL     OW25981   0.349   2.376   2.679 -0.2119 -0.3504 -0.1957
 4840SOL    HW125982   0.295   2.429   2.737  0.2116  2.0213 -1.9894
 4840SOL    HW225983   0.326   2.286   2.704  0.3163  0.0594  1.8101
 4841SOL     OW25984   4.173   4.223   4.407  0.3679 -0.0400  0.5038
 4841SOL    HW125985   4.229   4.188   4.338  0.5486  0.6257  0.3083
 4841SOL    HW225986   4.219   4.307   4.403  0.3727 -0.0918 -0.4866
 4842SOL     OW25987   0.701   2.945  11.351  0.3545 -0.0513 -0.0414
 4842SOL    HW125988   0.663   2.858  11.365  2.5452 -1.1021 -0.6229
 4842SOL    HW225989   0.669   2.959  11.262 -0.0167  1.7412  0.3868
 4843SOL     OW25990   0.481   0.960   6.766 -0.3926 -0.3665  0.1409
 4843SOL    HW125991   0.405   1.015   6.745  0.9731  1.8215  0.8449
 4843SOL    HW225992   0.440   0.877   6.791  0.6918  0.0286  3.2534
 4844SOL     OW25993   0.991   3.640   2.720  0.7359  0.0402 -0.2275
 4844SOL    HW125994   1.047   3.640   2.642  0.7419 -2.1415 -0.2310
 4844SOL    HW225995   0.911   3.619   2.673  0.4416  0.9565 -0.1235
 4845SOL     OW25996   1.382   3.444  13.999 -0.4010 -0.1971 -0.2481
 4845SOL    HW125997   1.301   3.492  14.019  0.7386  1.4028  0.4562
 4845SOL    HW225998   1.380   3.368  14.058 -0.9930 -1.1441 -1.4897
 4846SOL     OW25999   1.892   2.213   8.579  0.5626  0.3888  0.2063
 4846SOL    HW126000   1.900   2.121   8.555 -2.9088  0.9550 -3.1992
 4846SOL    HW226001   1.948   2.201   8.656  0.2594 -0.3924  0.3040
 4847SOL     OW26002   2.876   3.793   6.525 -0.2867 -0.1703 -0.5083
 4847SOL    HW126003   2.842   3.882   6.534  1.5785  0.5270 -0.2730
 4847SOL    HW226004   2.791   3.757   6.500 -0.7409  1.4137 -1.2336
 4848SOL     OW26005   1.908   3.651   4.305 -0.5837  0.3995  0.3335
 4848SOL    HW126006   1.815   3.654   4.328 -0.8522 -1.6329 -0.5407
 4848SOL    HW226007   1.935   3.741   4.324 -0.5252  0.1531  1.4236
 4849SOL     OW26008   2.487   4.158   4.282 -0.2856  0.2379  0.6602
 4849SOL    HW126009   2.500   4.253   4.278  0.8985 -0.0918 -2.6879
 4849SOL    HW226010   2.571   4.130   4.318 -0.5021 -0.9056  0.2756
 4850SOL     OW26011   0.432   1.146   5.913 -0.3257 -0.6391  0.1806
 4850SOL    HW126012   0.443   1.074   5.976 -0.0801  0.4091  1.3275
 4850SOL    HW226013   0.498   1.115   5.852  0.2646  0.1511  0.4205
 4851SOL     OW26014   1.124   4.054   3.480 -0.2371 -0.2820  0.0214
 4851SOL    HW126015   1.059   3.989   3.504  0.7175 -0.8085  1.2205
 4851SOL    HW226016   1.091   4.070   3.392  0.5069 -1.8870 -0.5460
 4852SOL     OW26017   0.238   1.137  14.181  0.0908 -0.3760 -0.4280
 4852SOL    HW126018   0.318   1.150  14.130 -0.7932 -1.3894 -2.0709
 4852SOL    HW226019   0.266   1.175  14.264  1.9619  0.0228 -1.2433
 4853SOL     OW26020   4.423   0.314   4.748  0.0375  0.0103 -0.3373
 4853SOL    HW126021   4.370   0.288   4.823  2.6651 -1.5321  0.9916
 4853SOL    HW226022   4.353   0.333   4.686 -0.3952  1.2344  0.5296
 4854SOL     OW26023   0.680   3.216   6.777 -0.0285  0.0598  0.2058
 4854SOL    HW126024   0.756   3.176   6.735  1.0696 -0.3691  2.6595
 4854SOL    HW226025   0.698   3.210   6.871  0.9881 -0.3901 -0.0195
 4855SOL     OW26026   2.942   3.348  14.654  0.0040  0.9983  0.2209
 4855SOL    HW126027   2.881   3.322  14.585  0.2171 -0.0911  0.4504
 4855SOL    HW226028   3.018   3.296  14.632 -2.0982 -2.7467  1.8186
 4856SOL     OW26029   2.929   1.237   6.086 -0.2477  0.2468 -0.6999
 4856SOL    HW126030   2.912   1.288   6.165  0.5445 -0.4118 -0.1129
 4856SOL    HW226031   2.838   1.211   6.067 -0.5204 -0.6015  1.8065
 4857SOL     OW26032   3.066   2.830  14.089  0.2886  0.1533 -0.1808
 4857SOL    HW126033   3.021   2.823  14.173  0.6282  0.3778  0.0173
 4857SOL    HW226034   3.153   2.800  14.116 -0.2261 -0.4426  0.8013
 4858SOL     OW26035   0.797   3.950  16.606 -0.7101  0.4463  0.0603
 4858SOL    HW126036   0.861   3.934  16.675  0.0703 -1.5745 -1.1132
 4858SOL    HW226037   0.855   3.986  16.539 -0.7240  2.7589  1.3061
 4859SOL     OW26038   4.100   2.656   8.891  0.4338 -0.1427  0.1460
 4859SOL    HW126039   4.130   2.651   8.800  2.2596 -1.4802  0.8155
 4859SOL    HW226040   4.040   2.731   8.893  1.0520  0.3306  1.6575
 4860SOL     OW26041   1.856   2.701   7.608  0.5032  0.0822  0.5546
 4860SOL    HW126042   1.803   2.655   7.543 -1.5566  1.4070  1.2870
 4860SOL    HW226043   1.852   2.645   7.686  0.3508 -0.6150  0.0430
 4861SOL     OW26044   1.694   0.033   6.517 -0.3820  0.0617  0.5307
 4861SOL    HW126045   1.648   0.024   6.434  0.2241 -0.7653  0.2745
 4861SOL    HW226046   1.782   0.058   6.489 -0.8411  0.7984 -0.2443
 4862SOL     OW26047   0.185   4.392   8.130 -0.4420  0.1999  0.4614
 4862SOL    HW126048   0.186   4.469   8.187  0.0632  1.8454 -1.7564
 4862SOL    HW226049   0.129   4.328   8.175 -1.6201  2.0007  1.5762
 4863SOL     OW26050   0.525   2.345   1.980  0.3106 -0.2772  0.4098
 4863SOL    HW126051   0.489   2.315   2.063  2.7635  2.0830  2.3075
 4863SOL    HW226052   0.500   2.437   1.991  0.3702 -0.4502  1.9160
 4864SOL     OW26053   3.516   0.668  15.147  0.1999 -0.0706  0.1608
 4864SOL    HW126054   3.523   0.736  15.214  1.7468  0.0864 -0.1588
 4864SOL    HW226055   3.507   0.724  15.070 -0.8773 -0.7643 -0.2064
 4865SOL     OW26056   0.933   2.902   7.062 -0.0864  0.1658  0.0757
 4865SOL    HW126057   0.883   2.980   7.039 -0.6440 -0.7367 -1.7945
 4865SOL    HW226058   0.987   2.889   6.984 -0.2113  0.2867 -0.0304
 4866SOL     OW26059   1.543   3.921   4.113 -0.4902 -0.1365  0.7593
 4866SOL    HW126060   1.557   3.876   4.030 -1.2358  2.1462 -0.5832
 4866SOL    HW226061   1.462   3.966   4.090 -2.0125 -3.8229 -0.9922
 4867SOL     OW26062   0.329   3.810   9.713  0.5680  0.7173 -0.0700
 4867SOL    HW126063   0.275   3.762   9.776 -0.1695  0.1513 -1.1113
 4867SOL    HW226064   0.291   3.772   9.633 -1.0796 -1.4852  1.7608
 4868SOL     OW26065   2.868   3.426  11.824  0.5093  0.4469 -0.2783
 4868SOL    HW126066   2.803   3.391  11.884  0.5619 -0.3712 -0.7029
 4868SOL    HW226067   2.941   3.427  11.887 -0.6291 -1.7315  1.0851
 4869SOL     OW26068   4.600   0.141   8.019 -0.7672  0.2959  0.3855
 4869SOL    HW126069   4.648   0.223   8.009 -0.3639  0.2165  1.7285
 4869SOL    HW226070   4.511   0.176   8.010 -0.3551  1.9125  2.7300
 4870SOL     OW26071   1.918   3.339   2.386  0.2404 -0.2302 -0.2018
 4870SOL    HW126072   1.979   3.413   2.380 -2.6034  2.2515  1.5539
 4870SOL    HW226073   1.943   3.285   2.311 -0.0141  0.1555 -0.5645
 4871SOL     OW26074   1.199   1.973   3.506  0.0172 -0.1381 -0.5720
 4871SOL    HW126075   1.126   2.034   3.492 -0.5432 -0.4800  0.7887
 4871SOL    HW226076   1.175   1.889   3.467  1.9001 -1.3390  0.8282
 4872SOL     OW26077   0.539   4.083  17.587  0.3143  0.0600  0.3389
 4872SOL    HW126078   0.465   4.140  17.609 -0.9885 -0.1178 -3.6218
 4872SOL    HW226079   0.518   4.055  17.498  1.4885  0.6851 -0.1280
 4873SOL     OW26080   2.859   2.365   5.264 -0.4409  0.4469 -0.1230
 4873SOL    HW126081   2.768   2.337   5.253 -0.0907 -1.6672  2.1808
 4873SOL    HW226082   2.892   2.283   5.301 -1.8900  0.4233  1.1067
 4874SOL     OW26083   0.276   3.411  11.210 -0.0563 -0.5306  0.1076
 4874SOL    HW126084   0.303   3.494  11.172 -2.8954  0.5423  0.3819
 4874SOL    HW226085   0.205   3.449  11.263  1.1686 -0.0430  1.4146
 4875SOL     OW26086   4.155   3.713   5.946  0.1286 -0.5082  0.0470
 4875SOL    HW126087   4.185   3.790   5.898 -1.1497  0.2778  0.5225
 4875SOL    HW226088   4.085   3.692   5.885  1.2571  1.0532 -1.7706
 4876SOL     OW26089   2.790   3.426  16.107 -0.2417 -0.2318  0.1004
 4876SOL    HW126090   2.854   3.415  16.037 -0.2366  0.1576  0.0396
 4876SOL    HW226091   2.729   3.486  16.064  2.7555  2.7830  0.0216
 4877SOL     OW26092   1.569   1.115   2.475  0.2884  0.3221  0.0098
 4877SOL    HW126093   1.562   1.041   2.414 -3.2267 -1.1099  2.1663
 4877SOL    HW226094   1.561   1.190   2.418  0.6299 -0.6887 -1.3666
 4878SOL     OW26095   4.716   2.553   7.521  0.1950 -0.1066  0.3137
 4878SOL    HW126096   4.628   2.522   7.543  0.3038 -0.0248  0.8647
 4878SOL    HW226097   4.706   2.625   7.459 -1.8511  0.4172  1.2572
 4879SOL     OW26098   2.421   2.741   3.732  0.3055  0.0846 -0.1372
 4879SOL    HW126099   2.403   2.831   3.706  1.6663  1.3205  3.1604
 4879SOL    HW226100   2.510   2.731   3.699  0.9174  0.2723  1.4522
 4880SOL     OW26101   3.602   1.108   7.483  0.1160  0.0858  0.1857
 4880SOL    HW126102   3.541   1.073   7.548 -0.8183 -0.6770 -1.1093
 4880SOL    HW226103   3.551   1.095   7.404  0.6006 -2.6506  0.3385
 4881SOL     OW26104   3.860   4.156   8.233 -0.7660  0.6035 -0.2418
 4881SOL    HW126105   3.914   4.136   8.310 -2.2163 -1.5555  0.2009
 4881SOL    HW226106   3.784   4.203   8.268 -1.9912  0.7271 -3.0979
 4882SOL     OW26107   2.243   0.193   5.692  1.0280  0.0253 -0.0018
 4882SOL    HW126108   2.310   0.155   5.749  0.5107  0.7550  1.0827
 4882SOL    HW226109   2.246   0.281   5.730 -0.3020  0.0138  0.1024
 4883SOL     OW26110   4.598   0.660  11.282  0.0924  0.3958 -0.0511
 4883SOL    HW126111   4.685   0.677  11.247  0.4193 -0.8138  0.1928
 4883SOL    HW226112   4.545   0.675  11.203  0.7044  0.9039 -0.3666
 4884SOL     OW26113   1.452   4.338   7.390  0.1560 -0.0135  0.8582
 4884SOL    HW126114   1.471   4.392   7.313 -0.1586 -0.7061  0.2900
 4884SOL    HW226115   1.477   4.389   7.467  0.8635 -0.8515  1.1852
 4885SOL     OW26116   2.413   2.350   3.855 -0.4146 -0.2096  0.1795
 4885SOL    HW126117   2.453   2.331   3.770 -1.4797  0.1890 -0.4049
 4885SOL    HW226118   2.327   2.318   3.831 -1.4459  0.7317  2.6185
 4886SOL     OW26119   4.650   0.999  10.738  0.7869  0.9209 -0.0819
 4886SOL    HW126120   4.587   0.995  10.810 -0.5740 -2.6819 -1.4689
 4886SOL    HW226121   4.586   1.012  10.668 -0.1960  0.4645  0.7316
 4887SOL     OW26122   0.353   1.092   2.738 -0.3772 -0.2784  0.1653
 4887SOL    HW126123   0.352   1.030   2.811 -1.4076 -0.5116 -0.0476
 4887SOL    HW226124   0.400   1.050   2.666 -0.0820  0.5881 -0.1558
 4888SOL     OW26125   1.559   2.957  15.559  0.0120 -0.0131 -0.1189
 4888SOL    HW126126   1.645   2.917  15.569 -1.1091 -1.5930  3.3906
 4888SOL    HW226127   1.507   2.888  15.517 -0.9555  0.5743  0.1019
 4889SOL     OW26128   2.009   1.182   1.648 -0.0846  0.7815  0.1896
 4889SOL    HW126129   2.067   1.107   1.652  1.5938  2.0583 -0.2103
 4889SOL    HW226130   1.956   1.167   1.570 -0.2512  1.0178  0.2540
 4890SOL     OW26131   4.563   1.236   3.643  0.3409  0.5648 -0.1602
 4890SOL    HW126132   4.634   1.293   3.614 -0.8398  2.5587  0.8501
 4890SOL    HW226133   4.500   1.242   3.570 -1.6585 -1.1156  1.4083
 4891SOL     OW26134   4.377   3.005   6.877 -0.7337  0.2765  0.0908
 4891SOL    HW126135   4.291   3.009   6.918 -0.2167  0.9873  1.0876
 4891SOL    HW226136   4.341   2.983   6.791 -1.5073  0.7820  0.2804
 4892SOL     OW26137   4.660   0.921  11.471 -0.4116  1.0743  0.0444
 4892SOL    HW126138   4.662   0.944  11.378 -1.5794  1.8550  0.2113
 4892SOL    HW226139   0.018   0.963  11.500 -0.7148  0.0388  2.3899
 4893SOL     OW26140   1.622   1.100   3.221 -0.5631  0.3689 -0.5963
 4893SOL    HW126141   1.671   1.167   3.268 -2.7443  2.6406 -1.5316
 4893SOL    HW226142   1.698   1.052   3.188 -0.7804  0.1590 -0.7886
 4894SOL     OW26143   0.910   0.281   4.577  0.8003 -0.7082 -0.1081
 4894SOL    HW126144   0.952   0.245   4.655  0.6749 -0.5751  0.0202
 4894SOL    HW226145   0.978   0.262   4.512 -0.5520 -1.7720 -1.2133
 4895SOL     OW26146   4.072   4.681   0.382 -0.0228 -0.2895  0.3189
 4895SOL    HW126147   4.027   4.696   0.465  1.1445 -1.0779  1.0958
 4895SOL    HW226148   3.999   4.647   0.330  2.7330 -1.3221 -2.9384
 4896SOL     OW26149   1.658   3.931   5.219  0.0254 -0.2763  0.2209
 4896SOL    HW126150   1.564   3.925   5.201  0.0718  0.1479 -0.1652
 4896SOL    HW226151   1.684   3.840   5.207  0.0671 -0.5063  1.9346
 4897SOL     OW26152   4.211   1.138  10.576 -0.2709  0.4854 -0.1594
 4897SOL    HW126153   4.207   1.233  10.564 -0.9655  0.5634  0.6044
 4897SOL    HW226154   4.295   1.111  10.538 -1.8578  0.2821 -3.5253
 4898SOL     OW26155   4.321   3.332   9.900 -0.3560  0.3125  0.2866
 4898SOL    HW126156   4.386   3.277   9.855 -1.2399 -0.6890  0.2422
 4898SOL    HW226157   4.381   3.406   9.911 -1.2934  1.1083  0.0069
 4899SOL     OW26158   2.967   4.222   5.362 -0.1293  0.4023  0.1817
 4899SOL    HW126159   2.881   4.259   5.345 -0.8742 -0.4956  1.9373
 4899SOL    HW226160   2.953   4.201   5.455 -1.0471 -2.6441 -0.6310
 4900SOL     OW26161   3.449   1.634   7.691  0.0453 -0.2014 -0.3001
 4900SOL    HW126162   3.410   1.591   7.614  1.3922 -2.6974  0.4131
 4900SOL    HW226163   3.460   1.555   7.743 -0.3881  0.2655  0.4950
 4901SOL     OW26164   1.618   2.245   1.029 -0.1315 -0.0011  0.1416
 4901SOL    HW126165   1.682   2.192   1.076  2.1300  2.6745  0.0820
 4901SOL    HW226166   1.654   2.241   0.940  0.4293 -0.6681  0.4012
 4902SOL     OW26167   0.171   0.909  10.255  0.2125 -0.2915  0.0050
 4902SOL    HW126168   0.222   0.960  10.319 -1.8591 -0.9997  2.2342
 4902SOL    HW226169   0.237   0.844  10.234  0.2636 -0.1580 -0.2513
 4903SOL     OW26170   1.494   0.052  12.133 -0.4345 -0.2245 -0.1733
 4903SOL    HW126171   1.439   0.026  12.207  0.2522  0.1460  0.4590
 4903SOL    HW226172   1.500   4.689  12.092 -0.5909 -0.8168  1.0618
 4904SOL     OW26173   2.747   3.974   4.371  0.2827  0.1224 -0.3635
 4904SOL    HW126174   2.712   3.892   4.338  0.5287  0.6887 -2.0395
 4904SOL    HW226175   2.750   3.975   4.467  1.4515  3.2993 -0.4354
 4905SOL     OW26176   1.238   1.205   8.357 -0.1656 -0.2155  0.6191
 4905SOL    HW126177   1.190   1.123   8.349  0.6586 -0.6958  0.5268
 4905SOL    HW226178   1.219   1.218   8.449 -1.4957 -0.3853  0.3634
 4906SOL     OW26179   2.891   4.611   5.727  0.7003  0.1033 -0.4605
 4906SOL    HW126180   2.912   4.700   5.755  1.1056 -0.4792  1.0630
 4906SOL    HW226181   2.819   4.636   5.669  1.6753  0.2042 -1.6377
 4907SOL     OW26182   0.897   3.577   8.623  0.2978  0.1208  0.4095
 4907SOL    HW126183   0.911   3.639   8.694 -0.3846  1.7010 -0.8621
 4907SOL    HW226184   0.950   3.629   8.563  1.0111 -0.5181  0.4876
 4908SOL     OW26185   2.726   0.298   7.765 -1.1214 -0.4526  0.2316
 4908SOL    HW126186   2.771   0.216   7.741 -1.7954 -0.6998 -0.1761
 4908SOL    HW226187   2.641   0.267   7.797 -0.7886 -1.0042  0.5898
 4909SOL     OW26188   2.372   3.644   2.363 -0.6383 -0.0826 -0.5113
 4909SOL    HW126189   2.416   3.650   2.448 -2.3463  0.5649  0.3450
 4909SOL    HW226190   2.442   3.674   2.305 -1.1649  1.4836 -0.3471
 4910SOL     OW26191   4.685   2.019   2.101  0.2843  0.3540  0.0196
 4910SOL    HW126192   0.049   1.990   2.075 -0.9218 -0.8285 -2.8086
 4910SOL    HW226193   4.646   2.044   2.017 -0.9816 -2.4686 -0.2371
 4911SOL     OW26194   0.324   3.820   7.516 -0.1021  0.3217 -0.9553
 4911SOL    HW126195   0.301   3.909   7.542  1.3665  0.3755  0.1424
 4911SOL    HW226196   0.312   3.828   7.421  2.4293 -0.2662 -1.3388
 4912SOL     OW26197   1.429   2.668   2.323  0.3877 -0.1070 -0.6241
 4912SOL    HW126198   1.460   2.598   2.265 -0.3199  1.0248 -2.3830
 4912SOL    HW226199   1.462   2.743   2.273  1.2336  1.2862  2.0048
 4913SOL     OW26200   1.514   2.708   3.266 -0.3602 -0.1950  0.0956
 4913SOL    HW126201   1.569   2.783   3.285 -0.4906 -0.2219  0.5846
 4913SOL    HW226202   1.457   2.752   3.202 -1.2096 -1.8930 -0.3236
 4914SOL     OW26203   4.460   3.016  10.805 -0.4669 -0.2120 -0.8094
 4914SOL    HW126204   4.544   3.053  10.781 -1.1339  1.1408 -1.0527
 4914SOL    HW226205   4.408   3.064  10.741  0.2164 -0.0864 -1.2659
 4915SOL     OW26206   4.208   2.322   9.193 -0.5102  0.1661  0.1645
 4915SOL    HW126207   4.281   2.382   9.208 -2.1153  2.3394 -0.6825
 4915SOL    HW226208   4.152   2.389   9.153 -1.2431 -0.0205  0.8692
 4916SOL     OW26209   4.472   3.375  10.401  0.4814  0.1290 -0.5938
 4916SOL    HW126210   4.406   3.346  10.339  0.2710 -1.3183  0.3032
 4916SOL    HW226211   4.441   3.320  10.473  0.1856 -0.3152 -1.0665
 4917SOL     OW26212   3.105   0.778   5.565 -0.1800 -0.0255 -0.0918
 4917SOL    HW126213   3.139   0.729   5.490  0.9250  1.9937 -0.9229
 4917SOL    HW226214   3.127   0.724   5.641 -0.3758  0.5328  0.3642
 4918SOL     OW26215   1.315   3.184  10.092  0.1858  0.0817 -0.2271
 4918SOL    HW126216   1.251   3.171  10.163  2.3831 -0.0675  1.7228
 4918SOL    HW226217   1.326   3.278  10.083  0.5381  0.2174  1.5029
 4919SOL     OW26218   1.211   3.156   4.077 -0.1783  0.3815 -0.0581
 4919SOL    HW126219   1.267   3.104   4.020 -0.2191  0.8027 -0.4755
 4919SOL    HW226220   1.258   3.139   4.159 -1.3209  1.8176  0.9095
 4920SOL     OW26221   3.575   1.796   2.937 -0.0996  0.4260 -0.4047
 4920SOL    HW126222   3.507   1.748   2.985  0.0394  0.0693 -0.5620
 4920SOL    HW226223   3.541   1.885   2.933  2.1643  1.2041 -2.8421
 4921SOL     OW26224   0.942   4.183  10.180 -0.1049  0.1072  0.4311
 4921SOL    HW126225   0.912   4.099  10.145 -0.0089 -0.9373  2.8386
 4921SOL    HW226226   0.976   4.153  10.264 -2.8676 -1.4756  1.0106
 4922SOL     OW26227   4.256   2.097   8.100 -0.0593 -0.4691 -0.6740
 4922SOL    HW126228   4.191   2.090   8.031 -1.0044 -0.9872  0.2559
 4922SOL    HW226229   4.223   2.046   8.175 -0.5197 -0.8718 -1.1490
 4923SOL     OW26230   1.083   1.519   4.745  0.3539  1.1061  0.7690
 4923SOL    HW126231   1.162   1.530   4.798  1.3244 -0.8758 -0.2901
 4923SOL    HW226232   1.099   1.596   4.690 -1.2562  1.2723  0.5181
 4924SOL     OW26233   0.856   0.320   3.535 -0.2587 -0.2993 -0.2547
 4924SOL    HW126234   0.768   0.338   3.568 -0.0485  0.1787  0.0580
 4924SOL    HW226235   0.867   0.236   3.580 -0.5904 -0.5145 -0.5806
 4925SOL     OW26236   0.121   2.719   1.326 -0.4534 -0.0788  0.5923
 4925SOL    HW126237   0.087   2.760   1.247 -0.3549 -0.5290  0.3148
 4925SOL    HW226238   0.204   2.766   1.331 -0.5690  0.0025  1.7681
 4926SOL     OW26239   0.735   1.091   7.671  0.0803  0.0138  0.2691
 4926SOL    HW126240   0.732   1.056   7.760  0.5714  1.0042  0.6731
 4926SOL    HW226241   0.815   1.053   7.635 -0.5739 -1.2110  0.1160
 4927SOL     OW26242   3.536   0.791  16.259  0.6240 -0.0683 -0.3574
 4927SOL    HW126243   3.572   0.715  16.304  2.9395  0.3332 -1.5230
 4927SOL    HW226244   3.610   0.849  16.240 -0.0501  0.9848  0.2032
 4928SOL     OW26245   2.260   2.630   5.885 -0.7875 -0.2370  0.0066
 4928SOL    HW126246   2.200   2.642   5.811  2.4573 -0.4142 -2.6643
 4928SOL    HW226247   2.281   2.539   5.862  0.5398  0.2196 -0.5869
 4929SOL     OW26248   4.543   1.572   2.103  0.4823  0.1662 -0.0576
 4929SOL    HW126249   4.509   1.652   2.062  1.6694  0.6191 -0.1746
 4929SOL    HW226250   4.533   1.508   2.033 -1.7114  1.2380 -0.7083
 4930SOL     OW26251   2.552   0.590  11.645 -0.3753 -0.3349 -0.0290
 4930SOL    HW126252   2.479   0.635  11.602 -0.5800  0.8123  1.5146
 4930SOL    HW226253   2.561   0.517  11.584 -0.5304  1.6349 -2.3958
 4931SOL     OW26254   4.264   4.381   5.134 -0.5141  0.2077 -0.4791
 4931SOL    HW126255   4.200   4.330   5.085 -0.0062 -1.4641  0.5750
 4931SOL    HW226256   4.231   4.470   5.122 -0.2660  0.2032 -1.1785
 4932SOL     OW26257   4.086   1.428   2.098 -0.6304  0.4818 -0.1288
 4932SOL    HW126258   4.138   1.385   2.166 -1.2122 -0.5261 -0.3055
 4932SOL    HW226259   4.148   1.403   2.029  0.7396 -0.4724  1.4362
 4933SOL     OW26260   0.960   1.829   6.638  0.2371 -0.0388 -0.4521
 4933SOL    HW126261   0.878   1.849   6.682  0.8772  0.9569  0.2904
 4933SOL    HW226262   0.944   1.777   6.559  0.8168 -2.1719  0.8119
 4934SOL     OW26263   3.339   3.385   6.267  0.6300  0.1792 -0.1332
 4934SOL    HW126264   3.426   3.395   6.229  1.1041  1.1017  1.1931
 4934SOL    HW226265   3.323   3.471   6.308  0.4528 -0.9816  2.2359
 4935SOL     OW26266   4.143   3.185   5.988  0.1364  0.1511  0.0878
 4935SOL    HW126267   4.068   3.223   6.033  0.8840  1.0272  0.5896
 4935SOL    HW226268   4.219   3.223   6.032 -0.3550  0.3747  0.7334
 4936SOL     OW26269   3.365   4.112   0.416 -0.1896 -0.1340 -0.5852
 4936SOL    HW126270   3.305   4.066   0.476 -1.5336  2.1676 -0.1754
 4936SOL    HW226271   3.292   4.146   0.364  0.9792 -1.0552 -2.8227
 4937SOL     OW26272   0.808   1.297   1.190 -0.4845  0.0585 -0.4007
 4937SOL    HW126273   0.895   1.275   1.157 -0.6976 -1.8617  0.2923
 4937SOL    HW226274   0.786   1.364   1.125 -0.0391  0.8600  0.2784
 4938SOL     OW26275   3.992   2.731   2.314 -0.3124 -0.2756  0.2861
 4938SOL    HW126276   4.038   2.779   2.245 -0.3230 -0.8344 -0.1152
 4938SOL    HW226277   3.992   2.789   2.390  0.6703  0.3385 -0.1756
 4939SOL     OW26278   3.456   3.608  10.948 -0.4230 -0.1591  0.1460
 4939SOL    HW126279   3.370   3.640  10.973 -0.1709 -1.2356  2.4228
 4939SOL    HW226280   3.492   3.624  11.035  0.3780 -0.2834 -0.1591
 4940SOL     OW26281   1.638   4.707   7.579 -0.1181  0.2614  0.5925
 4940SOL    HW126282   1.711   4.675   7.525  0.0723  2.6999 -0.6268
 4940SOL    HW226283   1.595   0.024   7.503 -1.6130 -0.0553  1.2657
 4941SOL     OW26284   2.223   3.021   2.138 -0.2389 -0.1500  0.0537
 4941SOL    HW126285   2.240   3.034   2.045  2.5824 -0.5374  0.5321
 4941SOL    HW226286   2.194   2.930   2.140  1.4406 -0.6114  2.4771
 4942SOL     OW26287   2.152   0.881   8.895  0.0840  0.3341  0.3644
 4942SOL    HW126288   2.196   0.825   8.959 -2.0402 -2.0716 -0.2817
 4942SOL    HW226289   2.072   0.832   8.875  0.8731 -1.2027  0.9561
 4943SOL     OW26290   2.084   0.716   2.076 -0.3930 -0.0707  0.0194
 4943SOL    HW126291   2.079   0.647   2.010  0.4555 -1.3457  1.3221
 4943SOL    HW226292   2.162   0.757   2.038 -0.8268  2.1005  1.4751
 4944SOL     OW26293   4.005   0.510   5.103 -0.1531  0.3842 -0.6842
 4944SOL    HW126294   3.936   0.459   5.147  1.0976 -0.4934  0.2618
 4944SOL    HW226295   3.940   0.570   5.067 -0.7532  0.0175 -0.2155
 4945SOL     OW26296   1.141   2.657   5.946  0.1086 -0.4171  0.2236
 4945SOL    HW126297   1.111   2.697   6.028  1.2371 -1.3669  1.0991
 4945SOL    HW226298   1.085   2.697   5.880  2.0152 -0.4796 -1.4419
 4946SOL     OW26299   4.294   0.409   8.706 -0.2579  0.5175 -0.1207
 4946SOL    HW126300   4.320   0.321   8.735 -0.9261 -0.0610 -1.2827
 4946SOL    HW226301   4.333   0.457   8.779  0.5738 -0.7272  0.2648
 4947SOL     OW26302   2.267   0.196   7.280  0.7435 -0.2489 -0.2404
 4947SOL    HW126303   2.358   0.222   7.299  0.3640  0.3562  0.7078
 4947SOL    HW226304   2.216   0.262   7.326 -0.6386 -0.4338 -1.5099
 4948SOL     OW26305   3.681   3.267  13.423 -0.0262 -0.3074 -0.3456
 4948SOL    HW126306   3.612   3.230  13.368 -2.2270  0.1460  2.1407
 4948SOL    HW226307   3.706   3.182  13.461 -2.1280 -1.0593 -0.6581
 4949SOL     OW26308   0.539   3.387  12.908  0.3016 -0.2185 -0.2712
 4949SOL    HW126309   0.494   3.360  12.828  0.6025 -0.8137 -0.2406
 4949SOL    HW226310   0.632   3.387  12.884  0.8046  3.5246  1.5863
 4950SOL     OW26311   3.806   1.005   4.472  0.4403  0.0532  0.0233
 4950SOL    HW126312   3.783   0.929   4.524  0.0498 -0.8987 -1.5368
 4950SOL    HW226313   3.900   1.006   4.490  0.8223  0.4214 -1.9352
 4951SOL     OW26314   3.928   3.184  14.445  0.0853 -0.1234  0.6581
 4951SOL    HW126315   3.864   3.137  14.497  0.5579 -0.1895  1.1810
 4951SOL    HW226316   3.905   3.151  14.358  0.4129 -2.1947  1.3563
 4952SOL     OW26317   1.327   2.101   6.013 -0.2023  0.2184  0.2024
 4952SOL    HW126318   1.318   2.172   5.949  2.1902 -0.9458 -1.4079
 4952SOL    HW226319   1.332   2.145   6.098  0.7831  0.3926  0.0531
 4953SOL     OW26320   2.801   3.587   4.810 -0.6507 -0.3426 -0.4642
 4953SOL    HW126321   2.848   3.509   4.780 -0.4310  0.2510 -1.6664
 4953SOL    HW226322   2.750   3.554   4.884 -0.3825 -0.3219 -0.2695
 4954SOL     OW26323   1.233   0.039   1.657 -0.0896 -0.5321 -0.4830
 4954SOL    HW126324   1.139   0.047   1.640 -0.1522 -0.3536 -0.0465
 4954SOL    HW226325   1.229   0.006   1.747 -1.7832  1.0409  0.0008
 4955SOL     OW26326   4.334   4.604   7.029  0.0242  0.3990  0.2217
 4955SOL    HW126327   4.378   4.576   6.949  0.6638 -1.1850  1.1243
 4955SOL    HW226328   4.334   4.522   7.078  1.3126 -0.6127 -1.4409
 4956SOL     OW26329   1.811   3.109   8.542 -0.3623 -0.2659  0.0639
 4956SOL    HW126330   1.761   3.160   8.606  1.0572 -0.2950  1.1748
 4956SOL    HW226331   1.901   3.092   8.570 -0.3160  1.9268  1.3082
 4957SOL     OW26332   0.621   3.615   0.713  0.0595 -0.1859  0.0356
 4957SOL    HW126333   0.537   3.568   0.714  0.5833 -1.1288  0.2977
 4957SOL    HW226334   0.656   3.601   0.625 -0.9032 -2.4023 -0.0114
 4958SOL     OW26335   3.851   3.447   7.140 -0.2243 -0.1496  0.0336
 4958SOL    HW126336   3.845   3.482   7.228 -0.4357  2.4049 -0.9861
 4958SOL    HW226337   3.888   3.521   7.092  1.6044 -0.0223  1.6579
 4959SOL     OW26338   2.554   3.545  15.024  0.1992 -0.2142 -0.2499
 4959SOL    HW126339   2.589   3.633  15.033 -0.1275  0.0855 -1.9512
 4959SOL    HW226340   2.626   3.484  15.043  0.7829  0.8744  1.0256
 4960SOL     OW26341   4.144   2.670   6.762  0.0917 -0.1972  0.5677
 4960SOL    HW126342   4.179   2.648   6.675 -1.8299 -2.1098  0.2638
 4960SOL    HW226343   4.049   2.670   6.747  0.1024 -0.0179  0.5023
 4961SOL     OW26344   3.167   1.983  10.868  0.0440 -0.4387  0.6126
 4961SOL    HW126345   3.083   1.961  10.828  1.1531 -0.6619 -1.6247
 4961SOL    HW226346   3.217   1.908  10.836  1.2200  0.0983  1.1865
 4962SOL     OW26347   0.894   4.416   3.626 -0.0895 -0.0017 -0.7905
 4962SOL    HW126348   0.832   4.369   3.570  0.1719  0.8821 -1.8398
 4962SOL    HW226349   0.933   4.463   3.552 -3.4662  0.7493 -2.0783
 4963SOL     OW26350   4.272   1.422  17.064 -0.1132 -0.0444 -0.1525
 4963SOL    HW126351   4.318   1.457  17.141  1.3765  0.3964 -1.2444
 4963SOL    HW226352   4.210   1.494  17.057  0.0426  0.1397  0.3586
 4964SOL     OW26353   3.979   0.909   5.266 -0.1269 -0.3082 -0.7648
 4964SOL    HW126354   3.932   0.959   5.333 -0.2392 -0.8419 -0.4487
 4964SOL    HW226355   4.064   0.891   5.305 -1.0642 -0.5051  1.1780
 4965SOL     OW26356   0.603   4.509   7.414 -0.0196 -0.3303 -0.3129
 4965SOL    HW126357   0.594   4.536   7.506 -0.4841 -1.3883 -0.0438
 4965SOL    HW226358   0.689   4.468   7.418  0.6197  1.0801  0.2306
 4966SOL     OW26359   1.781   4.619  12.014 -0.3222  0.0228 -0.1351
 4966SOL    HW126360   1.825   4.610  12.098 -0.4212 -2.7909 -0.3677
 4966SOL    HW226361   1.696   4.580  12.035 -0.9322  1.5903  0.2577
 4967SOL     OW26362   1.897   4.112  14.231  0.5285  0.1062 -0.0913
 4967SOL    HW126363   1.980   4.066  14.243 -0.7521 -2.4303 -0.9807
 4967SOL    HW226364   1.895   4.146  14.320 -1.0978  2.0494 -0.8780
 4968SOL     OW26365   1.060   0.357  12.641 -0.0569  0.5605  0.0419
 4968SOL    HW126366   1.023   0.423  12.699 -0.9022  0.5345 -0.4619
 4968SOL    HW226367   1.152   0.370  12.662  0.2914 -1.3554 -0.3046
 4969SOL     OW26368   0.790   1.472   6.016  0.2907  0.0961 -0.4293
 4969SOL    HW126369   0.741   1.515   6.086 -0.6678 -0.5516 -0.7094
 4969SOL    HW226370   0.873   1.516   6.036  0.1530  1.1179 -2.1250
 4970SOL     OW26371   0.078   2.030  12.443 -0.3280 -0.0732  0.0262
 4970SOL    HW126372   0.060   1.982  12.362 -1.2604  1.6140 -0.7624
 4970SOL    HW226373   0.170   2.048  12.422 -0.2921  0.4128  0.6300
 4971SOL     OW26374   2.698   3.136  14.493 -0.0304 -0.9609  0.3602
 4971SOL    HW126375   2.620   3.192  14.487  0.5363 -0.2253 -0.0433
 4971SOL    HW226376   2.671   3.078  14.565 -0.7800  1.3266  1.9268
 4972SOL     OW26377   1.470   3.549   5.798  0.1452 -0.2828  0.1830
 4972SOL    HW126378   1.442   3.641   5.791  1.1272 -0.1245 -1.6728
 4972SOL    HW226379   1.407   3.519   5.733 -1.1669  0.1885  1.2446
 4973SOL     OW26380   1.226   3.048   2.914  0.1702  0.5663 -0.0885
 4973SOL    HW126381   1.182   3.055   2.829  0.1016 -1.1457 -0.2039
 4973SOL    HW226382   1.194   3.120   2.968 -1.5599  1.9854 -3.0286
 4974SOL     OW26383   0.698   1.147  15.956 -0.5044 -0.1677  0.2001
 4974SOL    HW126384   0.681   1.207  15.883  1.4047  1.9187  1.4616
 4974SOL    HW226385   0.773   1.102  15.918 -1.9374 -2.7340  0.4083
 4975SOL     OW26386   3.199   2.548   5.588  0.0869  0.5732 -0.6867
 4975SOL    HW126387   3.275   2.530   5.533 -0.2836 -2.8134 -0.0569
 4975SOL    HW226388   3.174   2.634   5.553  1.2022  1.2551  0.1890
 4976SOL     OW26389   0.726   3.461  15.292 -0.2061 -0.4239 -0.4308
 4976SOL    HW126390   0.757   3.546  15.323  2.2598 -1.0480 -1.1953
 4976SOL    HW226391   0.740   3.467  15.197 -3.5730  0.9515 -0.8521
 4977SOL     OW26392   0.999   3.037   5.215 -0.1763  0.5681  0.0891
 4977SOL    HW126393   1.056   3.012   5.143 -1.0909 -1.5324  0.0764
 4977SOL    HW226394   0.921   2.993   5.181 -1.8675  1.2444  3.1123
 4978SOL     OW26395   2.077   3.863   0.075  0.6235  0.6054 -0.7514
 4978SOL    HW126396   2.095   3.897  17.681 -0.8343  1.6425 -0.6555
 4978SOL    HW226397   2.112   3.934   0.129 -1.5783  0.6249  0.6366
 4979SOL     OW26398   1.438   3.224   2.453  0.0684 -0.1429 -0.2838
 4979SOL    HW126399   1.526   3.188   2.443  0.9274  2.0288 -0.5747
 4979SOL    HW226400   1.427   3.230   2.548  0.6778  0.2619 -0.2400
 4980SOL     OW26401   4.188   2.211  11.951  0.2432  0.2901  0.0490
 4980SOL    HW126402   4.151   2.212  12.040 -1.3306 -1.8255 -0.5779
 4980SOL    HW226403   4.109   2.189  11.902 -0.5962  0.0592  1.4789
 4981SOL     OW26404   3.801   2.844   5.153 -0.0019  0.0338  0.1991
 4981SOL    HW126405   3.769   2.912   5.213 -0.5479 -0.2818  0.2716
 4981SOL    HW226406   3.896   2.840   5.165 -0.1662  1.2837  2.0098
 4982SOL     OW26407   0.531   1.454   4.312  0.4672  0.3940 -0.2962
 4982SOL    HW126408   0.573   1.456   4.398 -0.6551  0.7958  0.2422
 4982SOL    HW226409   0.455   1.397   4.324 -2.1386  3.6825 -0.9826
 4983SOL     OW26410   1.717   1.742   2.915  0.3645  0.2900  0.3179
 4983SOL    HW126411   1.706   1.676   2.847 -2.0424  0.3417  0.6609
 4983SOL    HW226412   1.745   1.689   2.990  1.6522  0.9774  0.3257
 4984SOL     OW26413   2.323   4.166  12.413  0.0458 -0.6021 -0.0770
 4984SOL    HW126414   2.369   4.139  12.334  1.8288  1.0719  0.3978
 4984SOL    HW226415   2.290   4.081  12.443  1.4425 -0.7099  1.1609
 4985SOL     OW26416   0.862   0.764   1.872  0.4050 -0.0501  0.2244
 4985SOL    HW126417   0.923   0.771   1.946  0.8393 -0.1322 -0.1282
 4985SOL    HW226418   0.881   0.848   1.832  0.2081  0.5855  1.4608
 4986SOL     OW26419   1.156   4.596  13.593  0.0221 -0.0280  0.3122
 4986SOL    HW126420   1.087   4.568  13.533 -1.5415  0.8584  1.7076
 4986SOL    HW226421   1.221   4.627  13.530 -2.0533 -1.4857 -2.5792
 4987SOL     OW26422   0.854   4.710   2.765  0.2444 -0.0826 -0.2786
 4987SOL    HW126423   0.945   4.683   2.782  0.9766  2.3668 -0.2450
 4987SOL    HW226424   0.857   0.001   2.670  0.0530 -1.3194 -0.4595
 4988SOL     OW26425   4.232   3.832   7.276 -0.4373 -0.8418  0.4050
 4988SOL    HW126426   4.162   3.894   7.256  1.8361  1.4028 -0.7226
 4988SOL    HW226427   4.207   3.788   7.357  0.4445  0.3169  1.3192
 4989SOL     OW26428   2.865   3.020   5.858  0.3785 -0.0007  0.0014
 4989SOL    HW126429   2.814   2.944   5.829  0.2042  0.2965 -0.4846
 4989SOL    HW226430   2.798   3.080   5.892  0.3848 -0.1094  0.2040
 4990SOL     OW26431   4.354   3.891   2.697  0.1596 -0.2570 -0.0403
 4990SOL    HW126432   4.421   3.853   2.754 -0.7299  1.6084  2.2764
 4990SOL    HW226433   4.383   3.981   2.709 -0.6144  0.3101 -2.5037
 4991SOL     OW26434   0.450   2.675   1.679 -0.4477 -0.0945 -0.0435
 4991SOL    HW126435   0.396   2.631   1.744  1.4785 -1.4351  0.6206
 4991SOL    HW226436   0.412   2.637   1.600  2.5535  0.4378 -1.7709
 4992SOL     OW26437   0.307   4.079   8.343 -0.3577 -0.0387  0.4258
 4992SOL    HW126438   0.385   4.129   8.366 -0.9635  1.1016  0.0039
 4992SOL    HW226439   0.238   4.141   8.366  1.0354  0.8827  2.1781
 4993SOL     OW26440   0.242   0.762   8.485  0.0663 -0.6111  0.2372
 4993SOL    HW126441   0.235   0.838   8.543  0.4106  0.3615 -1.0000
 4993SOL    HW226442   0.159   0.721   8.511 -0.7214  0.7770 -0.0812
 4994SOL     OW26443   2.516   0.186  12.869  0.0788 -0.6674 -0.3007
 4994SOL    HW126444   2.451   0.184  12.939 -1.1845 -3.5106 -1.5456
 4994SOL    HW226445   2.600   0.191  12.915  0.2814  1.7187 -0.9527
 4995SOL     OW26446   1.241   1.104   2.701 -0.1255 -0.8692  0.0425
 4995SOL    HW126447   1.216   1.046   2.773 -1.4426 -1.0222 -0.5393
 4995SOL    HW226448   1.240   1.191   2.741 -1.9778 -0.8162 -0.0841
 4996SOL     OW26449   3.509   1.317   2.261  0.2660  0.1982  0.2547
 4996SOL    HW126450   3.604   1.324   2.273  0.2407  1.5498 -0.4317
 4996SOL    HW226451   3.492   1.230   2.298  0.3227 -0.8343 -2.1724
 4997SOL     OW26452   1.878   0.641   7.926 -0.0035 -0.4544  0.2186
 4997SOL    HW126453   1.915   0.596   8.001  2.2875 -2.1788 -1.9331
 4997SOL    HW226454   1.784   0.655   7.941  0.0558 -0.7414  0.8156
 4998SOL     OW26455   2.385   2.446   2.826  0.7581 -0.5186 -0.3639
 4998SOL    HW126456   2.422   2.531   2.851 -2.5705  1.1256 -1.1382
 4998SOL    HW226457   2.338   2.438   2.908  1.8822  0.7398  0.4108
 4999SOL     OW26458   1.701   0.821   1.922  0.3884 -0.1042 -0.1880
 4999SOL    HW126459   1.709   0.910   1.888  0.8699 -0.7054 -1.6561
 4999SOL    HW226460   1.768   0.780   1.866 -1.2495  1.0474 -3.0123
 5000SOL     OW26461   3.892   4.390  15.995  0.3475  0.6273  0.0789
 5000SOL    HW126462   3.949   4.466  15.980  0.6873  0.6231  1.3501
 5000SOL    HW226463   3.941   4.353  16.069 -3.9228 -2.8292  1.1791
 5001SOL     OW26464   0.112   2.573   9.057 -0.0872 -0.2870  0.2272
 5001SOL    HW126465   0.034   2.614   9.096  0.9755  1.0074  0.9902
 5001SOL    HW226466   0.084   2.585   8.967  3.5376 -0.2582 -0.8642
 5002SOL     OW26467   0.306   4.040   9.099  0.3527  0.2831  0.3992
 5002SOL    HW126468   0.325   4.091   9.020  0.5898  1.1838  1.0386
 5002SOL    HW226469   0.239   3.984   9.059 -0.9021  1.8524  0.3273
 5003SOL     OW26470   3.833   2.914   6.894  0.1831 -0.1255  0.0406
 5003SOL    HW126471   3.833   2.939   6.801  1.8503  1.6620  0.5275
 5003SOL    HW226472   3.774   2.977   6.935 -0.1759 -1.2673  1.2650
 5004SOL     OW26473   4.643   3.461   3.624 -0.2419  0.4911  0.0695
 5004SOL    HW126474   4.695   3.540   3.613 -0.7938  0.8094 -0.2234
 5004SOL    HW226475   4.607   3.483   3.710 -0.3419  3.3626 -0.7280
 5005SOL     OW26476   4.115   4.429   2.249  0.0983  0.4884 -0.7308
 5005SOL    HW126477   4.170   4.507   2.245  1.0368 -0.2505 -2.2168
 5005SOL    HW226478   4.153   4.375   2.319 -2.6857  1.9746  1.8942
 5006SOL     OW26479   1.917   0.434   1.365  0.2003 -0.4067  0.6965
 5006SOL    HW126480   1.942   0.466   1.451 -0.0822  1.3181  0.1379
 5006SOL    HW226481   1.822   0.440   1.368  0.0637 -3.9521  2.5850
 5007SOL     OW26482   3.056   3.006   3.964  0.5773  0.2949  0.0983
 5007SOL    HW126483   2.978   2.989   3.912 -0.3727  1.4708  1.1646
 5007SOL    HW226484   3.120   3.048   3.907  0.2109  1.1048  0.2896
 5008SOL     OW26485   2.988   2.593   4.577  0.1357 -0.1643 -0.0613
 5008SOL    HW126486   2.950   2.646   4.507 -0.4229 -0.0407  0.3341
 5008SOL    HW226487   2.960   2.642   4.655  0.3597 -0.8087  0.4251
 5009SOL     OW26488   1.299   1.537   4.951  0.1262 -0.4728  0.0274
 5009SOL    HW126489   1.272   1.519   5.041  1.7001 -2.5812  0.0852
 5009SOL    HW226490   1.349   1.462   4.917 -1.7323 -1.7363  0.0243
 5010SOL     OW26491   1.893   2.810  15.943  0.1030 -0.5218 -0.3862
 5010SOL    HW126492   1.976   2.833  15.902  0.9533 -3.4913 -0.3366
 5010SOL    HW226493   1.869   2.725  15.907  1.8671 -1.8154  1.4969
 5011SOL     OW26494   1.472   4.104  13.325 -0.0773 -0.2856 -0.2128
 5011SOL    HW126495   1.497   4.119  13.234  1.3063  0.9156  0.3763
 5011SOL    HW226496   1.392   4.053  13.313 -1.2397  0.9182  2.2849
 5012SOL     OW26497   4.023   2.495   9.091  0.0263 -0.1870  0.0892
 5012SOL    HW126498   3.945   2.448   9.062  1.1014 -1.0663 -1.3453
 5012SOL    HW226499   4.010   2.567   9.030 -1.9113  0.1235  0.8704
 5013SOL     OW26500   1.995   1.342  15.851 -0.1452  0.0210 -0.6572
 5013SOL    HW126501   1.957   1.369  15.768  0.6068  0.5752 -0.8270
 5013SOL    HW226502   1.917   1.334  15.906 -0.4854 -1.8306 -1.3977
 5014SOL     OW26503   2.503   1.157   1.843  0.0938  0.6052  0.1321
 5014SOL    HW126504   2.577   1.162   1.902 -0.9021 -1.3519  1.5644
 5014SOL    HW226505   2.535   1.221   1.779  0.5862 -0.2345 -0.4589
 5015SOL     OW26506   4.334   3.117   9.151 -0.1894 -0.5751 -0.1973
 5015SOL    HW126507   4.248   3.084   9.127 -0.8734  0.5665  0.6782
 5015SOL    HW226508   4.365   3.063   9.223  2.0632 -0.7761 -1.3093
 5016SOL     OW26509   1.800   0.860  10.540  0.6130 -0.2639 -0.1299
 5016SOL    HW126510   1.858   0.895  10.473 -1.2738  1.1548 -1.0113
 5016SOL    HW226511   1.762   0.942  10.571  0.8872 -1.5397  3.6984
 5017SOL     OW26512   3.497   4.688   7.602 -0.3717 -0.0533 -0.4185
 5017SOL    HW126513   3.448   4.712   7.523  0.4172  1.0774 -0.5638
 5017SOL    HW226514   3.547   0.043   7.626  1.3476 -1.3223  0.0910
 5018SOL     OW26515   1.027   3.224   4.270 -0.0735 -0.9161 -0.3407
 5018SOL    HW126516   1.085   3.229   4.194  1.0253 -0.1563  0.5473
 5018SOL    HW226517   1.058   3.147   4.317 -0.0992  1.1161  2.9476
 5019SOL     OW26518   2.364   2.008   7.598  0.5640 -0.2954 -0.1512
 5019SOL    HW126519   2.314   2.074   7.646 -0.7903 -1.0314 -0.5596
 5019SOL    HW226520   2.333   2.030   7.511  1.7251 -0.2241 -0.5491
 5020SOL     OW26521   4.461   0.976   2.383 -0.8252  0.0617 -0.4557
 5020SOL    HW126522   4.381   1.007   2.340  0.1129  1.7222 -1.0078
 5020SOL    HW226523   4.472   0.893   2.337 -0.2305 -0.5024  0.7065
 5021SOL     OW26524   2.082   4.303   6.184  0.4022 -0.4479  0.0047
 5021SOL    HW126525   2.066   4.262   6.099  1.1378  1.0650 -0.8628
 5021SOL    HW226526   2.157   4.348   6.144 -0.4734  1.9508  1.1074
 5022SOL     OW26527   0.943   4.156   2.629 -0.1812  0.0290 -0.6200
 5022SOL    HW126528   0.913   4.217   2.562  0.0987 -1.1670 -1.8288
 5022SOL    HW226529   1.010   4.119   2.572  1.6523  2.0012  0.2833
 5023SOL     OW26530   4.037   1.137   6.178  0.5083 -0.0502  0.3494
 5023SOL    HW126531   3.968   1.118   6.241 -0.8766  1.3302 -0.7626
 5023SOL    HW226532   4.105   1.113   6.242 -0.4609 -4.3744 -0.2568
 5024SOL     OW26533   2.619   2.961   6.126 -0.3172  0.4257  0.0421
 5024SOL    HW126534   2.595   2.883   6.075 -0.6919  0.7169 -0.2291
 5024SOL    HW226535   2.713   2.960   6.140 -0.4103  0.3821  0.6541
 5025SOL     OW26536   4.172   0.055   2.860 -0.8214 -0.3128  0.0178
 5025SOL    HW126537   4.102   4.720   2.889 -0.4011 -0.8801 -0.0945
 5025SOL    HW226538   4.147   0.065   2.769 -3.4296  1.5163  0.9361
 5026SOL     OW26539   4.333   3.292   2.919 -0.5075  0.2797 -0.7364
 5026SOL    HW126540   4.264   3.245   2.966 -0.3817  1.1116  0.2745
 5026SOL    HW226541   4.376   3.216   2.879 -0.7452 -0.9179  1.2971
 5027SOL     OW26542   4.595   1.325   0.119  0.0358 -0.0913  0.6547
 5027SOL    HW126543   4.591   1.414   0.154 -3.6596  0.1823 -0.5049
 5027SOL    HW226544   4.595   1.280   0.203  1.1282 -2.1685 -0.4604
 5028SOL     OW26545   4.621   1.284  10.584  0.4522  0.2758  0.3551
 5028SOL    HW126546   4.690   1.281  10.517 -0.0375  1.4271 -0.2104
 5028SOL    HW226547   4.675   1.321  10.653  1.5274 -0.8165  0.1079
 5029SOL     OW26548   2.403   2.622   4.689 -0.2685  0.0901  0.2544
 5029SOL    HW126549   2.416   2.553   4.755  2.4591 -2.0942 -2.5453
 5029SOL    HW226550   2.479   2.607   4.632 -1.0657  0.9120 -1.0203
 5030SOL     OW26551   0.539   4.450  10.219  0.1820  0.4537  0.0396
 5030SOL    HW126552   0.593   4.398  10.279  1.3109  1.5486 -0.0337
 5030SOL    HW226553   0.606   4.505  10.179  0.4142 -1.2930 -1.9963
 5031SOL     OW26554   0.804   3.500   7.029  0.3626  0.2433  0.1637
 5031SOL    HW126555   0.879   3.557   7.045  0.4383  0.5013 -1.0970
 5031SOL    HW226556   0.770   3.494   7.118  0.3760  1.7444  0.2685
 5032SOL     OW26557   0.751   2.079  12.086 -0.2487  0.0784 -0.6324
 5032SOL    HW126558   0.781   2.164  12.054  0.5123 -0.7618 -2.1409
 5032SOL    HW226559   0.726   2.046  12.000  0.9349 -0.3204 -0.8315
 5033SOL     OW26560   3.181   1.920   8.094 -0.5258  0.0317  0.2904
 5033SOL    HW126561   3.118   1.856   8.127 -0.0139 -0.3461  0.5449
 5033SOL    HW226562   3.203   1.884   8.009  1.3546  1.4701  0.1595
 5034SOL     OW26563   4.254   0.489   6.946  0.0068 -0.5953 -0.7761
 5034SOL    HW126564   4.235   0.446   6.862 -4.6015  1.2789 -0.6696
 5034SOL    HW226565   4.305   0.566   6.921 -1.3916  0.9616  1.2037
 5035SOL     OW26566   3.674   0.271   3.552  0.2004  0.5749 -0.3454
 5035SOL    HW126567   3.630   0.221   3.483 -0.2646 -1.1647  1.2001
 5035SOL    HW226568   3.642   0.357   3.525 -0.4331 -0.7956 -3.9552
 5036SOL     OW26569   0.558   0.932  11.353 -0.3022  0.1097  0.2109
 5036SOL    HW126570   0.493   0.885  11.302 -1.0817 -0.0407  1.3370
 5036SOL    HW226571   0.642   0.895  11.327 -0.7697 -1.6708  1.2221
 5037SOL     OW26572   4.700   2.932   9.281  0.2472 -0.0183  0.1847
 5037SOL    HW126573   0.025   3.013   9.293 -1.4636  1.2054 -1.1600
 5037SOL    HW226574   4.665   2.933   9.370  1.4286 -1.0572  0.6645
 5038SOL     OW26575   1.110   0.200   8.323 -0.0175 -0.0316  0.5275
 5038SOL    HW126576   1.094   0.192   8.417 -0.4724  0.6867  0.5127
 5038SOL    HW226577   1.043   0.144   8.284  0.1351  0.7443 -0.8400
 5039SOL     OW26578   0.156   1.413  14.198 -0.6843  0.0443  0.3031
 5039SOL    HW126579   0.110   1.330  14.214 -1.1820  0.2303 -0.1561
 5039SOL    HW226580   0.200   1.394  14.116 -2.5033 -0.8878 -0.4632
 5040SOL     OW26581   1.879   1.565   3.779  0.5365 -0.0264  0.2415
 5040SOL    HW126582   1.935   1.491   3.803  0.8699  0.2869  0.4315
 5040SOL    HW226583   1.808   1.531   3.724 -0.7168 -0.8350  2.3508
 5041SOL     OW26584   0.679   2.100   7.348  0.6636  0.0131 -0.0150
 5041SOL    HW126585   0.624   2.065   7.278  0.5573 -0.9198  0.5280
 5041SOL    HW226586   0.725   2.169   7.302 -0.4179 -0.2641 -1.5037
 5042SOL     OW26587   3.250   3.967   7.303 -0.0674  0.5131  0.0308
 5042SOL    HW126588   3.157   3.959   7.327 -0.3088  0.3715 -0.9321
 5042SOL    HW226589   3.286   3.879   7.288  1.1839  1.1267 -0.5055
 5043SOL     OW26590   1.457   1.268  16.367  0.2285  0.4139  0.0444
 5043SOL    HW126591   1.423   1.260  16.277 -0.9408  1.3830  0.3962
 5043SOL    HW226592   1.526   1.333  16.360 -1.5894  2.2283 -1.2756
 5044SOL     OW26593   4.494   1.135   2.692  0.3069  0.0497 -0.8863
 5044SOL    HW126594   4.584   1.162   2.672  0.8264 -1.9678 -1.2099
 5044SOL    HW226595   4.504   1.041   2.684 -0.2062 -0.3348  3.3142
 5045SOL     OW26596   1.495   0.824   4.835 -0.4744  0.1588 -0.3508
 5045SOL    HW126597   1.439   0.888   4.878  0.3763  0.6510  0.0039
 5045SOL    HW226598   1.580   0.866   4.838 -0.3012  0.0683 -3.3055
 5046SOL     OW26599   0.482   1.805   3.421  0.5407 -0.0993  0.0998
 5046SOL    HW126600   0.455   1.823   3.512 -1.1663  3.2840 -1.0921
 5046SOL    HW226601   0.564   1.854   3.422 -0.9260  2.3281  0.4190
 5047SOL     OW26602   0.044   2.538   5.262  0.1223  0.0459 -0.4972
 5047SOL    HW126603   0.030   2.488   5.181  0.9852 -0.1226 -0.5355
 5047SOL    HW226604   4.697   2.505   5.319  0.5835 -0.5110 -0.2591
 5048SOL     OW26605   4.111   1.052   7.408  0.0387 -0.0450 -0.1952
 5048SOL    HW126606   4.154   1.032   7.491  1.4083 -1.3690 -1.2172
 5048SOL    HW226607   4.060   1.129   7.430 -0.2291 -0.4034  0.4515
 5049SOL     OW26608   3.425   4.032  12.744 -0.4402  0.3209  0.5719
 5049SOL    HW126609   3.493   3.978  12.705 -1.7672 -0.7099 -0.3233
 5049SOL    HW226610   3.452   4.040  12.836 -0.9903  0.8672  0.6874
 5050SOL     OW26611   4.049   3.876   8.930 -0.0393  0.3021  0.4818
 5050SOL    HW126612   4.100   3.809   8.976 -1.8971 -1.7950 -0.4978
 5050SOL    HW226613   4.010   3.925   9.003  1.0574  0.3813  1.0237
 5051SOL     OW26614   1.205   3.442  17.198 -0.2880  0.2012 -0.4722
 5051SOL    HW126615   1.119   3.400  17.197  0.6215 -1.6613 -1.3528
 5051SOL    HW226616   1.182   3.534  17.207 -0.5649 -0.1310  2.2936
 5052SOL     OW26617   3.386   0.380   8.136 -0.2351 -0.3931 -0.0264
 5052SOL    HW126618   3.393   0.371   8.041  1.9305  4.1895 -0.2717
 5052SOL    HW226619   3.386   0.291   8.171  0.2849 -0.8094 -1.0930
 5053SOL     OW26620   2.977   0.582  10.202 -0.2876 -0.1467 -0.4438
 5053SOL    HW126621   2.994   0.516  10.270 -1.1520  0.6823  0.5741
 5053SOL    HW226622   2.920   0.538  10.139  0.5111  2.1003 -2.7380
 5054SOL     OW26623   4.651   2.493   9.363  0.2895 -0.4115 -0.3595
 5054SOL    HW126624   4.680   2.555   9.296  2.3183 -1.4315 -0.4271
 5054SOL    HW226625   4.557   2.506   9.354  0.3939  0.5899 -0.0688
 5055SOL     OW26626   3.431   0.852   5.457  0.2936 -0.1388 -0.4651
 5055SOL    HW126627   3.517   0.810   5.456 -0.6224 -1.9777 -2.0671
 5055SOL    HW226628   3.371   0.781   5.437  0.2846 -0.0517 -0.7416
 5056SOL     OW26629   4.417   3.634  16.674 -0.8430 -0.4154  0.2210
 5056SOL    HW126630   4.389   3.724  16.659 -1.4826 -0.3183  1.9844
 5056SOL    HW226631   4.473   3.624  16.751 -0.5138 -4.6520 -0.5253
 5057SOL     OW26632   0.239   0.432   7.171 -0.1658 -0.4690  0.2073
 5057SOL    HW126633   0.206   0.352   7.212  0.2259 -1.8041 -2.0678
 5057SOL    HW226634   0.262   0.417   7.080 -1.4258  0.9191 -0.3366
 5058SOL     OW26635   0.594   4.365   8.905  0.5300 -0.2906 -0.2436
 5058SOL    HW126636   0.534   4.290   8.905 -1.3202  1.2050  1.0053
 5058SOL    HW226637   0.559   4.410   8.982  3.4602  2.3550 -0.4469
 5059SOL     OW26638   4.137   1.841  17.230 -0.1344  0.0289 -0.4922
 5059SOL    HW126639   4.083   1.912  17.196 -1.5124 -1.5143 -1.5572
 5059SOL    HW226640   4.207   1.892  17.269 -0.9496  0.1820  0.7878
 5060SOL     OW26641   2.664   4.335   3.360 -0.1513 -0.3402 -0.1520
 5060SOL    HW126642   2.686   4.262   3.302  0.8487  0.4296 -0.7494
 5060SOL    HW226643   2.579   4.313   3.397  0.7185 -3.3525  0.0011
 5061SOL     OW26644   2.510   2.555   3.997 -0.0890  0.0659 -0.2435
 5061SOL    HW126645   2.435   2.583   4.050 -0.3079 -1.4426  0.2540
 5061SOL    HW226646   2.476   2.484   3.943 -1.7017 -0.3181  1.2910
 5062SOL     OW26647   4.032   4.333   4.975  0.2428  0.1933  0.0787
 5062SOL    HW126648   3.963   4.325   5.041  0.8730  1.1740  0.8573
 5062SOL    HW226649   3.976   4.336   4.898  0.9185  2.3602 -0.3210
 5063SOL     OW26650   2.331   3.009   9.075 -0.5848 -0.4130  0.1188
 5063SOL    HW126651   2.247   3.054   9.072 -0.5879 -0.1794  3.9505
 5063SOL    HW226652   2.330   2.946   9.003 -3.7263  0.7285 -0.8372
 5064SOL     OW26653   4.255   3.287   8.723  0.1675 -0.2269  0.0634
 5064SOL    HW126654   4.279   3.199   8.751 -0.3480 -0.3731  0.0562
 5064SOL    HW226655   4.336   3.333   8.703 -0.2959  0.0300 -1.2395
 5065SOL     OW26656   2.593   1.305   4.417  0.4498 -0.4818 -0.0364
 5065SOL    HW126657   2.631   1.235   4.470  1.7032  1.6951  1.9369
 5065SOL    HW226658   2.646   1.384   4.427 -0.5159 -0.1519  2.4314
 5066SOL     OW26659   4.024   2.590  11.800  0.0433  0.3418  0.1525
 5066SOL    HW126660   3.974   2.533  11.742  0.2531 -0.0333  0.3394
 5066SOL    HW226661   3.959   2.611  11.867 -0.8638 -0.7006 -0.4024
 5067SOL     OW26662   2.951   2.406   9.251 -0.5255 -0.0731 -0.0685
 5067SOL    HW126663   2.913   2.335   9.200 -0.0451  0.1032 -0.6632
 5067SOL    HW226664   2.869   2.442   9.286 -0.7333  0.7019 -1.3749
 5068SOL     OW26665   0.782   0.187  14.652  0.1860 -0.0882  0.5895
 5068SOL    HW126666   0.758   0.156  14.565  2.0585 -1.8148  0.6973
 5068SOL    HW226667   0.703   0.239  14.669 -0.8214 -1.0027 -1.3800
 5069SOL     OW26668   3.647   1.575   3.700 -0.4482 -0.2511  0.0348
 5069SOL    HW126669   3.647   1.670   3.686  1.1192 -0.0413  1.3541
 5069SOL    HW226670   3.556   1.547   3.693 -0.7230  0.7624 -0.5529
 5070SOL     OW26671   4.313   1.717   0.065  0.2247 -0.2723 -0.5240
 5070SOL    HW126672   4.241   1.653   0.057 -1.0665  1.4054 -2.1980
 5070SOL    HW226673   4.351   1.693   0.150 -0.0555 -2.0942 -0.9023
 5071SOL     OW26674   1.291   4.246   7.817  0.3750  0.5162 -0.0973
 5071SOL    HW126675   1.253   4.321   7.771  0.8530  0.6486 -0.2722
 5071SOL    HW226676   1.290   4.182   7.746  1.0486 -0.5833  0.8891
 5072SOL     OW26677   4.016   0.669   9.692 -0.2333 -0.2826  0.1682
 5072SOL    HW126678   4.088   0.730   9.710 -0.0536 -0.3486 -0.3402
 5072SOL    HW226679   4.055   0.583   9.679  2.0277  1.2164 -3.1907
 5073SOL     OW26680   3.079   1.851  12.959 -0.1340  0.4019 -0.1570
 5073SOL    HW126681   3.149   1.915  12.974  0.5303 -0.5327  0.7657
 5073SOL    HW226682   3.044   1.883  12.876 -0.9860  0.2204  0.1411
 5074SOL     OW26683   4.026   1.369   5.318  0.2440 -0.0699  0.4867
 5074SOL    HW126684   4.043   1.446   5.372 -1.4194  1.1963 -0.7949
 5074SOL    HW226685   4.076   1.311   5.376  1.4737 -1.5425 -2.0385
 5075SOL     OW26686   0.052   1.211   2.752  0.0050  0.0229 -0.2470
 5075SOL    HW126687   0.081   1.122   2.772  1.1221  0.4440 -0.0127
 5075SOL    HW226688   0.076   1.255   2.833 -1.7205  4.7073 -2.3230
 5076SOL     OW26689   2.430   2.659   5.304 -0.1425  0.0709 -0.6449
 5076SOL    HW126690   2.395   2.735   5.257 -1.8777 -1.7139 -2.2586
 5076SOL    HW226691   2.516   2.691   5.333 -2.3128  4.3263  0.9799
 5077SOL     OW26692   3.683   2.019  10.030 -0.2042  0.2694  0.2589
 5077SOL    HW126693   3.699   2.033  10.123  0.8286 -0.0423  0.1323
 5077SOL    HW226694   3.633   1.937  10.029 -0.9774  0.7445  0.1326
 5078SOL     OW26695   0.017   1.987   2.814 -0.6225 -0.0775  0.6374
 5078SOL    HW126696   0.101   1.942   2.808 -1.0034 -0.6001 -0.8942
 5078SOL    HW226697   0.012   1.999   2.909  1.5042  1.7521  0.5256
 5079SOL     OW26698   0.726   4.451   5.822 -0.2051  0.4262  0.2019
 5079SOL    HW126699   0.723   4.522   5.886 -0.4532 -0.4019  1.1089
 5079SOL    HW226700   0.742   4.498   5.740 -0.3222  2.3759  1.2822
 5080SOL     OW26701   3.362   0.612   6.220 -0.2399 -0.0411 -0.4765
 5080SOL    HW126702   3.302   0.683   6.245  0.2509 -0.3180  1.4647
 5080SOL    HW226703   3.445   0.648   6.251  0.6827 -2.6868  0.1107
 5081SOL     OW26704   2.489   3.033  10.268 -0.1087  0.2949  0.2175
 5081SOL    HW126705   2.531   3.033  10.182 -0.0570 -1.2571  0.2572
 5081SOL    HW226706   2.468   2.942  10.286  1.1546  0.0592  0.4502
 5082SOL     OW26707   1.553   1.646   7.826  0.0812 -0.1378  0.0428
 5082SOL    HW126708   1.510   1.722   7.865 -1.0058 -0.4594 -0.5405
 5082SOL    HW226709   1.563   1.589   7.903 -0.3080  1.2557  1.1338
 5083SOL     OW26710   4.695   2.643   2.796  0.1599  0.4509  0.4787
 5083SOL    HW126711   4.605   2.646   2.827  0.1453  0.6464  0.4147
 5083SOL    HW226712   4.719   2.569   2.852  2.4571  0.6055 -0.3001
 5084SOL     OW26713   0.091   3.843   9.273 -0.1288  0.0930 -1.2455
 5084SOL    HW126714   0.015   3.799   9.235 -0.5617  0.4699 -0.8127
 5084SOL    HW226715   0.158   3.810   9.213  0.9538  0.3529 -0.1821
 5085SOL     OW26716   3.940   1.020  13.358 -0.2941  0.0174  0.0602
 5085SOL    HW126717   3.845   1.011  13.352 -0.3312 -0.7260  1.5521
 5085SOL    HW226718   3.974   0.985  13.276  1.3411  3.0696 -0.5593
 5086SOL     OW26719   0.819   4.582  17.479  0.3380  0.3941 -0.0275
 5086SOL    HW126720   0.741   4.634  17.496  0.3350  0.9805 -1.8448
 5086SOL    HW226721   0.837   4.542  17.564  1.0292  0.3883 -0.1720
 5087SOL     OW26722   1.090   2.421   7.502 -0.2566 -0.2266  0.1229
 5087SOL    HW126723   1.049   2.335   7.510  0.7392 -0.8363 -1.5412
 5087SOL    HW226724   1.046   2.478   7.566  0.1625  1.1148 -0.7923
 5088SOL     OW26725   0.115   1.295   3.309 -0.1662 -0.4937  0.1303
 5088SOL    HW126726   0.111   1.255   3.222 -2.8200 -0.5132  0.2458
 5088SOL    HW226727   0.026   1.329   3.300  0.1637 -0.0074 -1.2694
 5089SOL     OW26728   0.771   1.463   0.069 -0.0252  0.0674 -0.0554
 5089SOL    HW126729   0.683   1.472   0.105 -0.3969 -0.4001 -0.8357
 5089SOL    HW226730   0.807   1.387   0.115  0.8340  2.2291  2.7776
 5090SOL     OW26731   0.114   0.769   1.816 -0.0275 -0.4732  0.2258
 5090SOL    HW126732   0.122   0.781   1.721 -0.9388 -1.1438  0.0600
 5090SOL    HW226733   0.204   0.755   1.844 -0.1782 -0.1056  0.9026
 5091SOL     OW26734   3.851   0.893   3.583  0.1946  0.2014  0.2031
 5091SOL    HW126735   3.817   0.814   3.542  3.7140 -0.8552 -0.7205
 5091SOL    HW226736   3.822   0.881   3.673  0.0547  1.3556  0.3164
 5092SOL     OW26737   0.299   1.193  11.340  0.1337 -0.4659 -0.0883
 5092SOL    HW126738   0.394   1.188  11.329  0.0495 -1.3132 -0.4002
 5092SOL    HW226739   0.297   1.264  11.405 -2.3786 -1.6089  1.0760
 5093SOL     OW26740   1.419   1.733   3.468  0.0878 -0.4474 -0.1326
 5093SOL    HW126741   1.435   1.820   3.431 -1.2720 -0.5058 -0.8672
 5093SOL    HW226742   1.362   1.765   3.537 -0.8448 -2.8943  0.2145
 5094SOL     OW26743   4.101   4.116   2.006  0.3182  0.0296  0.3911
 5094SOL    HW126744   4.193   4.144   1.998  1.0971 -2.2203  1.4219
 5094SOL    HW226745   4.090   4.082   1.918  0.4157  0.2123  0.3089
 5095SOL     OW26746   3.042   2.954   7.388  0.1688  0.3445  0.3102
 5095SOL    HW126747   3.100   2.936   7.462  1.5862  0.7524 -0.6977
 5095SOL    HW226748   3.026   3.048   7.398  1.2591  0.5040  0.5684
 5096SOL     OW26749   2.397   0.074  10.917  0.3264 -0.6059  0.4627
 5096SOL    HW126750   2.488   0.104  10.913 -0.1447  0.8830  0.7776
 5096SOL    HW226751   2.363   0.123  10.992  3.3402  0.0677  1.3953
 5097SOL     OW26752   0.485   1.085   4.263  0.5870  0.1666  0.1601
 5097SOL    HW126753   0.466   1.047   4.178  3.1618  0.4403 -0.5073
 5097SOL    HW226754   0.434   1.166   4.269  0.4687  0.2555 -1.9980
 5098SOL     OW26755   0.120   1.975   7.786 -0.2090 -0.1177 -0.2658
 5098SOL    HW126756   0.183   2.028   7.738 -0.1086 -1.0461 -1.1558
 5098SOL    HW226757   0.153   1.886   7.789 -0.6904 -0.2861  0.1255
 5099SOL     OW26758   3.047   0.508  15.371 -0.0091 -0.4961 -0.1064
 5099SOL    HW126759   3.010   0.465  15.294  0.4380 -2.5621  0.8040
 5099SOL    HW226760   3.142   0.511  15.357 -0.2857  0.2369 -1.7686
 5100SOL     OW26761   3.793   3.971   5.712 -0.1083 -0.2043 -0.1081
 5100SOL    HW126762   3.744   3.889   5.721  0.6367 -0.7560 -1.0275
 5100SOL    HW226763   3.809   3.984   5.619 -1.1049 -1.3629 -0.4435
 5101SOL     OW26764   0.450   2.385   3.823 -0.7993 -0.2083 -0.3156
 5101SOL    HW126765   0.505   2.311   3.800 -0.4307  0.3590 -1.2531
 5101SOL    HW226766   0.454   2.384   3.919  1.6089 -0.3858 -0.4187
 5102SOL     OW26767   2.073   0.132  11.836 -0.0989  0.6733  0.1589
 5102SOL    HW126768   2.098   0.201  11.774 -0.5650 -0.5991 -1.4580
 5102SOL    HW226769   2.044   0.066  11.773 -1.7243  1.9370 -0.4300
 5103SOL     OW26770   4.369   3.945  15.093  0.3477  0.3173 -0.1868
 5103SOL    HW126771   4.320   3.983  15.166 -0.8425 -0.1063 -0.7773
 5103SOL    HW226772   4.406   4.028  15.062 -0.2092  1.2876  1.7419
 5104SOL     OW26773   2.595   0.747   3.212  0.0646  0.5025  0.0324
 5104SOL    HW126774   2.568   0.705   3.294 -0.9838 -0.5735 -0.8603
 5104SOL    HW226775   2.556   0.833   3.226 -0.0780 -0.1659  3.9029
 5105SOL     OW26776   2.620   2.578   7.310  0.2655 -0.1561 -0.2556
 5105SOL    HW126777   2.633   2.507   7.247  2.1039  0.2846 -0.3715
 5105SOL    HW226778   2.709   2.588   7.342  1.5964 -3.6626 -2.8255
 5106SOL     OW26779   0.761   0.038   3.609 -0.0384  0.2375  0.0209
 5106SOL    HW126780   0.683   0.051   3.555 -0.1979  0.7735  0.3824
 5106SOL    HW226781   0.730   4.699   3.676 -0.7651  1.0064  0.3906
 5107SOL     OW26782   3.213   3.019   2.836 -0.3435  0.3827  0.2516
 5107SOL    HW126783   3.231   3.086   2.770 -0.5405 -0.7263 -0.9177
 5107SOL    HW226784   3.266   3.045   2.912  0.0959  0.2628 -0.0178
 5108SOL     OW26785   1.058   0.930   7.878 -0.4187  1.1056 -0.4408
 5108SOL    HW126786   1.025   0.962   7.961  1.1020 -3.8067  2.0736
 5108SOL    HW226787   1.135   0.985   7.877  1.0975 -1.0077 -0.3566
 5109SOL     OW26788   1.305   1.954  15.191 -0.3475 -0.1301  0.4909
 5109SOL    HW126789   1.324   2.048  15.194  1.5585 -0.5802  2.7599
 5109SOL    HW226790   1.383   1.912  15.227  1.4073  1.0528 -1.9524
 5110SOL     OW26791   4.516   3.147   9.762  0.3155  0.2374 -0.3026
 5110SOL    HW126792   4.442   3.098   9.799  0.6842  1.2648  1.7920
 5110SOL    HW226793   4.582   3.159   9.830  0.1578 -0.5786 -0.0113
 5111SOL     OW26794   1.836   0.092   4.160 -0.3433 -0.7586 -0.3994
 5111SOL    HW126795   1.813   0.183   4.140  1.5382  0.1570  1.6550
 5111SOL    HW226796   1.809   0.095   4.252 -1.3318 -3.8775 -0.5938
 5112SOL     OW26797   3.785   4.351   3.626 -0.1268  0.2886  0.0893
 5112SOL    HW126798   3.696   4.381   3.646  0.6377  1.4467  1.7195
 5112SOL    HW226799   3.835   4.418   3.580 -0.3182  0.3717  0.0007
 5113SOL     OW26800   3.598   2.879   5.666 -0.3484 -0.2721 -0.5221
 5113SOL    HW126801   3.572   2.809   5.606 -1.5007  0.0651 -0.4327
 5113SOL    HW226802   3.517   2.894   5.716 -0.4824 -0.5925 -0.6393
 5114SOL     OW26803   0.496   1.464  15.579  0.5500  0.4811 -0.3322
 5114SOL    HW126804   0.492   1.537  15.640  0.5046  0.7457 -0.6526
 5114SOL    HW226805   0.415   1.477  15.529  0.2048  2.1929  0.6949
 5115SOL     OW26806   0.009   1.410   8.710  0.0731  0.0762  0.2393
 5115SOL    HW126807   0.094   1.398   8.752  1.6520  0.5688 -2.8212
 5115SOL    HW226808   4.719   1.503   8.724 -0.2116  0.5784 -3.2271
 5116SOL     OW26809   2.149   1.374   7.040  0.3958  0.6089 -0.3071
 5116SOL    HW126810   2.225   1.415   7.081 -0.0451 -1.4586  2.6388
 5116SOL    HW226811   2.176   1.354   6.951 -0.1755  4.0342 -1.2459
 5117SOL     OW26812   2.242   2.123  10.076  0.3178  0.1781  0.0198
 5117SOL    HW126813   2.242   2.204  10.024  1.8088 -0.5342 -1.0970
 5117SOL    HW226814   2.333   2.098  10.063 -0.2861 -0.6366 -2.6237
 5118SOL     OW26815   4.486   0.199   5.704  0.2228 -0.2896 -0.3935
 5118SOL    HW126816   4.431   0.151   5.765 -2.2088 -0.5664 -2.8412
 5118SOL    HW226817   4.516   0.130   5.645 -0.1364 -0.4167 -0.4266
 5119SOL     OW26818   3.636   3.723   7.301 -0.0836  0.0924 -0.5121
 5119SOL    HW126819   3.696   3.648   7.307 -1.8293 -1.4546 -2.4551
 5119SOL    HW226820   3.699   3.786   7.265 -0.6534  1.8095  1.4745
 5120SOL     OW26821   4.413   2.635   4.474 -0.0354  0.4874 -0.2440
 5120SOL    HW126822   4.343   2.637   4.409  0.2277  0.7756 -0.5169
 5120SOL    HW226823   4.400   2.550   4.516 -1.2137  1.3705  1.1963
 5121SOL     OW26824   2.980   3.358   8.506 -0.5270  0.0839  0.3118
 5121SOL    HW126825   2.907   3.313   8.462  1.0062 -1.1499 -0.9848
 5121SOL    HW226826   2.932   3.408   8.572  0.7819  2.7120 -0.7388
 5122SOL     OW26827   0.861   0.926   0.430 -0.2295 -0.1696 -0.6403
 5122SOL    HW126828   0.912   0.880   0.363 -2.9390 -0.9931 -2.1620
 5122SOL    HW226829   0.778   0.922   0.381 -0.5920  2.5783 -0.2477
 5123SOL     OW26830   0.995   1.011   7.595  0.1169 -0.5657 -0.2392
 5123SOL    HW126831   1.054   1.021   7.669  0.3646 -0.8362 -0.3994
 5123SOL    HW226832   1.058   1.009   7.523 -1.2054 -0.0207 -1.4174
 5124SOL     OW26833   0.246   1.931   4.840 -0.5545 -0.1722 -0.2219
 5124SOL    HW126834   0.224   2.022   4.822 -2.0093 -0.3295  0.7531
 5124SOL    HW226835   0.314   1.921   4.773 -2.2011  0.0578 -1.9281
 5125SOL     OW26836   1.498   2.751   1.879 -0.0825  0.5813  0.2128
 5125SOL    HW126837   1.571   2.784   1.826  1.7230 -1.0660  1.6547
 5125SOL    HW226838   1.441   2.826   1.891  0.3980  0.5563  2.7815
 5126SOL     OW26839   3.887   3.750  10.569 -0.0045  0.3468 -0.3791
 5126SOL    HW126840   3.820   3.693  10.529  0.0956 -0.0863  0.0760
 5126SOL    HW226841   3.940   3.677  10.600  0.6887  0.3273 -1.5981
 5127SOL     OW26842   4.149   1.036   8.529  0.1149 -0.0897  0.2423
 5127SOL    HW126843   4.218   1.037   8.595  0.9356 -0.5677 -0.6153
 5127SOL    HW226844   4.078   1.016   8.590 -1.2476  0.7465 -1.0511
 5128SOL     OW26845   3.055   3.605   5.348  0.3950 -0.2430 -0.0698
 5128SOL    HW126846   3.000   3.541   5.393 -3.5427  3.8350  0.8597
 5128SOL    HW226847   3.012   3.674   5.398 -2.4862 -2.0265 -0.1210
 5129SOL     OW26848   4.193   1.426   6.349  0.2788 -0.2997 -0.2652
 5129SOL    HW126849   4.112   1.376   6.342  1.4416 -2.1544 -0.5442
 5129SOL    HW226850   4.214   1.407   6.440  0.2910 -1.1396 -0.4429
 5130SOL     OW26851   3.494   2.261   9.721  0.4321  0.0211 -0.5536
 5130SOL    HW126852   3.485   2.169   9.748  0.5581  1.6599  5.1077
 5130SOL    HW226853   3.587   2.262   9.699  0.7052 -1.3487  0.4868
 5131SOL     OW26854   4.276   1.596   6.134  0.6411  0.3783 -0.2674
 5131SOL    HW126855   4.265   1.526   6.199 -0.1636 -1.3673 -2.2697
 5131SOL    HW226856   4.184   1.622   6.129  0.4501 -0.4489 -1.0530
 5132SOL     OW26857   1.261   2.746   1.417  0.4982 -0.6049  0.0934
 5132SOL    HW126858   1.273   2.663   1.370 -0.1362 -0.7844  0.2422
 5132SOL    HW226859   1.180   2.720   1.462  0.0584 -0.2135 -0.4833
 5133SOL     OW26860   4.682   1.462  12.974  0.6412  0.6324  0.2374
 5133SOL    HW126861   4.719   1.540  12.932 -0.9932 -0.4220 -3.1909
 5133SOL    HW226862   4.588   1.467  12.956  0.2684 -0.4460  1.9404
 5134SOL     OW26863   0.285   3.706   0.680 -0.3932  0.0788 -0.0068
 5134SOL    HW126864   0.362   3.648   0.676  0.2397  1.0555 -2.0965
 5134SOL    HW226865   0.285   3.714   0.775 -2.2576  2.3334 -0.2000
 5135SOL     OW26866   0.120   4.174   7.049 -0.2177 -0.5085  0.1370
 5135SOL    HW126867   0.180   4.169   7.123  2.0786  3.0252 -1.4831
 5135SOL    HW226868   0.045   4.206   7.099  0.5599  1.6685 -0.0745
 5136SOL     OW26869   4.305   3.565   5.661  0.0404  0.3859 -0.8270
 5136SOL    HW126870   4.401   3.567   5.658  0.0324  1.4332 -0.4155
 5136SOL    HW226871   4.275   3.517   5.738  2.1225 -0.9614 -0.8331
 5137SOL     OW26872   0.609   2.105  16.743 -0.5510 -0.1303 -0.3526
 5137SOL    HW126873   0.531   2.152  16.713 -0.9940 -0.1017  0.8528
 5137SOL    HW226874   0.666   2.173  16.778  1.2907 -0.0265 -3.4791
 5138SOL     OW26875   0.674   1.312   5.361  0.1692 -0.2772  0.2321
 5138SOL    HW126876   0.619   1.244   5.322 -0.2804  0.8071 -1.0040
 5138SOL    HW226877   0.758   1.267   5.363  0.1109 -0.4692 -2.2897
 5139SOL     OW26878   2.781   0.242  15.336  0.2735 -0.2180  0.4530
 5139SOL    HW126879   2.714   0.174  15.328  0.1852 -0.1309  0.4482
 5139SOL    HW226880   2.847   0.184  15.375 -1.4661 -1.4070  1.6537
 5140SOL     OW26881   2.384   1.766   7.429 -0.3419  0.2905  0.3068
 5140SOL    HW126882   2.436   1.823   7.372  0.1180  0.4976  0.9356
 5140SOL    HW226883   2.393   1.803   7.517  0.0895 -0.6034  0.6343
 5141SOL     OW26884   0.054   0.071   1.268 -0.3350 -0.4351 -0.1040
 5141SOL    HW126885   4.722   4.716   1.276  1.1006 -1.2095  2.1130
 5141SOL    HW226886   0.136   0.030   1.241  0.8536 -0.0238  2.8500
 5142SOL     OW26887   2.609   0.431  11.450 -0.0563  0.0833 -0.3413
 5142SOL    HW126888   2.587   0.370  11.380  0.1304  0.2291 -0.5284
 5142SOL    HW226889   2.660   0.501  11.408 -0.2501 -0.2238 -1.0823
 5143SOL     OW26890   3.458   0.980   8.869  0.2102  0.4906 -0.2695
 5143SOL    HW126891   3.429   1.009   8.956  1.9992 -0.0782  0.5088
 5143SOL    HW226892   3.467   0.887   8.890  0.1217  0.7374  0.9031
 5144SOL     OW26893   0.408   2.252  15.113  0.2439  0.5589 -0.3147
 5144SOL    HW126894   0.346   2.205  15.057  1.4936 -1.4950  0.0282
 5144SOL    HW226895   0.377   2.224  15.199  1.8346 -1.3876 -0.3808
 5145SOL     OW26896   1.795   1.528  11.183  0.3466  0.1041 -0.2659
 5145SOL    HW126897   1.783   1.438  11.212 -2.0570  0.1757 -0.9790
 5145SOL    HW226898   1.709   1.570  11.188  0.2353 -0.3230  1.1631
 5146SOL     OW26899   0.717   3.459  15.014  0.0451 -0.3239 -0.2359
 5146SOL    HW126900   0.692   3.537  14.964  0.5029  2.0378  3.2589
 5146SOL    HW226901   0.795   3.435  14.964 -0.1916  2.6300 -2.0576
 5147SOL     OW26902   3.291   2.517  15.582 -0.1249 -0.3627 -0.1207
 5147SOL    HW126903   3.374   2.488  15.543  1.0705  1.6987  0.9088
 5147SOL    HW226904   3.322   2.589  15.636  0.9662  0.7962 -2.2836
 5148SOL     OW26905   4.370   2.742   2.065 -0.4595 -0.4324  0.2185
 5148SOL    HW126906   4.393   2.814   2.006 -0.2905 -1.0916 -0.5253
 5148SOL    HW226907   4.280   2.768   2.081 -0.0135 -0.1284  2.1809
 5149SOL     OW26908   2.980   0.739   8.188 -0.3238  0.3809 -0.1725
 5149SOL    HW126909   2.922   0.680   8.139 -0.4944 -0.2063  0.7490
 5149SOL    HW226910   3.060   0.687   8.187 -0.9070 -0.5007 -1.2784
 5150SOL     OW26911   3.255   3.746   3.459 -0.1115  0.0782  0.2846
 5150SOL    HW126912   3.169   3.780   3.484 -0.2538 -0.1196  0.0606
 5150SOL    HW226913   3.248   3.658   3.495 -2.5371 -0.5616 -1.7589
 5151SOL     OW26914   3.873   4.468  10.385 -0.6463  0.0417  0.2763
 5151SOL    HW126915   3.830   4.407  10.445 -2.2784 -0.2094 -1.1194
 5151SOL    HW226916   3.890   4.403  10.316  2.6985  0.9751  0.2315
 5152SOL     OW26917   4.046   1.765   8.036 -0.3822 -0.4700  0.7336
 5152SOL    HW126918   4.027   1.837   7.977  0.4701 -0.0274  1.0002
 5152SOL    HW226919   3.974   1.793   8.092 -0.7243  0.5318 -0.2182
 5153SOL     OW26920   4.356   1.107  12.690 -0.0293  0.0770 -0.1971
 5153SOL    HW126921   4.418   1.071  12.626 -0.1425  0.8935 -0.7790
 5153SOL    HW226922   4.393   1.185  12.733 -1.0537  0.8841 -0.7716
 5154SOL     OW26923   3.988   2.157   0.811 -0.1020 -0.6001 -0.0122
 5154SOL    HW126924   3.898   2.184   0.795  0.2966  0.0856 -1.1230
 5154SOL    HW226925   3.967   2.094   0.879  0.5862  0.3535  1.0887
 5155SOL     OW26926   0.343   1.012  12.319 -0.3168 -0.3189 -0.0207
 5155SOL    HW126927   0.273   1.063  12.277  0.9900  2.0416  0.6902
 5155SOL    HW226928   0.323   0.932  12.271  2.0737 -1.7876  1.4443
 5156SOL     OW26929   1.171   1.903   6.797  0.6520 -0.3066  0.2643
 5156SOL    HW126930   1.233   1.891   6.725 -1.1941  1.0999 -1.5662
 5156SOL    HW226931   1.085   1.904   6.755  0.7775  2.9440  0.1158
 5157SOL     OW26932   1.971   1.249   2.855 -0.6780  0.4422  0.5007
 5157SOL    HW126933   1.972   1.163   2.814  0.6624  1.5587 -1.8242
 5157SOL    HW226934   1.886   1.253   2.900 -0.8058 -0.0691  0.2956
 5158SOL     OW26935   3.539   0.688   2.837 -0.1456 -0.0658 -0.3110
 5158SOL    HW126936   3.461   0.673   2.784  0.1184 -1.6515 -0.2319
 5158SOL    HW226937   3.581   0.602   2.837  0.4721  0.2459  0.3147
 5159SOL     OW26938   2.863   4.168   7.366 -0.1750  0.0885  0.3234
 5159SOL    HW126939   2.867   4.264   7.364 -0.7018  0.1428  1.9301
 5159SOL    HW226940   2.947   4.153   7.410 -0.4454  1.0422  1.1808
 5160SOL     OW26941   2.171   4.493   3.072 -0.3422 -0.2540  0.3706
 5160SOL    HW126942   2.115   4.426   3.033 -1.9903  0.0358  2.2448
 5160SOL    HW226943   2.130   4.564   3.023  1.3127  0.7367  0.4028
 5161SOL     OW26944   4.532   2.078  10.298  0.1018  0.3781 -0.2243
 5161SOL    HW126945   4.567   2.047  10.382  3.1705 -1.4910 -2.1898
 5161SOL    HW226946   4.613   2.110  10.258  0.3463  0.1287  0.0638
 5162SOL     OW26947   4.218   4.512   3.560  0.4375 -0.2819 -0.4417
 5162SOL    HW126948   4.175   4.573   3.620 -1.1558 -1.5105 -0.3138
 5162SOL    HW226949   4.221   4.427   3.602 -1.3384  0.9292  2.1275
 5163SOL     OW26950   2.360   0.103  11.663 -0.4124  0.0664  0.0494
 5163SOL    HW126951   2.370   0.179  11.720 -3.2210  0.6121 -0.1601
 5163SOL    HW226952   2.357   0.152  11.580  2.9307  3.1795  1.7530
 5164SOL     OW26953   1.836   1.436   6.478 -0.2193 -0.3671 -0.2707
 5164SOL    HW126954   1.877   1.486   6.408 -0.3555  0.0508 -0.0529
 5164SOL    HW226955   1.876   1.354   6.452  0.5905  0.4269 -1.4973
 5165SOL     OW26956   1.384   3.722   2.284  0.0414 -0.5038  0.1122
 5165SOL    HW126957   1.472   3.688   2.301 -0.2478 -1.4243 -0.2231
 5165SOL    HW226958   1.361   3.665   2.211 -1.7813 -0.0837  0.3526
 5166SOL     OW26959   1.072   3.043   7.535  0.5757 -0.2180 -0.0492
 5166SOL    HW126960   1.044   3.065   7.446  0.9693  2.0947  0.3939
 5166SOL    HW226961   1.014   3.096   7.590 -2.1423 -1.9112 -1.2910
 5167SOL     OW26962   3.593   0.345   9.477  0.4012  0.2930 -0.2269
 5167SOL    HW126963   3.598   0.252   9.497  0.3285  0.4813  0.6671
 5167SOL    HW226964   3.671   0.380   9.520  1.1064 -0.7412 -0.6604
 5168SOL     OW26965   3.455   4.722   2.473 -0.8857 -0.1005 -0.2171
 5168SOL    HW126966   3.510   4.684   2.542  0.9511  2.1688 -0.4670
 5168SOL    HW226967   3.515   0.066   2.440 -0.1664 -0.9364 -0.6040
 5169SOL     OW26968   1.245   2.846   2.675 -0.1731  0.0428  0.0006
 5169SOL    HW126969   1.220   2.932   2.642 -2.2922 -1.0075 -1.1209
 5169SOL    HW226970   1.339   2.840   2.655 -0.8165  0.0057 -3.0486
 5170SOL     OW26971   1.839   0.345   6.237  0.1096 -0.2038 -0.5167
 5170SOL    HW126972   1.794   0.362   6.320 -0.3081  1.3378 -1.0610
 5170SOL    HW226973   1.918   0.399   6.240  0.2773 -0.3170 -3.5463
 5171SOL     OW26974   1.180   0.921  14.176  0.0725  0.1627  0.4778
 5171SOL    HW126975   1.108   0.879  14.128  3.1862 -0.0566 -3.9524
 5171SOL    HW226976   1.133   0.965  14.247  3.0176  1.2312  1.7488
 5172SOL     OW26977   4.161   4.200   8.260  0.1078  0.0822 -0.3212
 5172SOL    HW126978   4.131   4.120   8.217 -2.0873  0.7989 -0.1104
 5172SOL    HW226979   4.232   4.232   8.204 -1.4594  1.2336 -1.6691
 5173SOL     OW26980   0.002   1.882   4.013 -0.1735  0.5179 -0.7335
 5173SOL    HW126981   0.077   1.918   4.060 -0.1627 -0.8740  0.3049
 5173SOL    HW226982   4.656   1.897   4.078 -1.2494 -2.7096 -1.1698
 5174SOL     OW26983   0.590   1.210  11.299  0.2343 -1.0356 -0.9705
 5174SOL    HW126984   0.654   1.237  11.233 -0.6828  0.2439 -1.3457
 5174SOL    HW226985   0.601   1.115  11.299  1.1677 -0.9178  1.5042
 5175SOL     OW26986   2.938   2.765   9.074 -0.1388  0.0803 -0.1380
 5175SOL    HW126987   2.980   2.819   9.141  1.6172 -0.6539 -0.6302
 5175SOL    HW226988   2.919   2.825   9.002 -0.5142  1.4430  1.1036
 5176SOL     OW26989   3.588   3.966   6.525 -0.4453 -0.1999  0.3681
 5176SOL    HW126990   3.604   4.053   6.488  0.1361  0.4395  2.1258
 5176SOL    HW226991   3.570   3.911   6.449  0.5264 -0.8347  0.6023
 5177SOL     OW26992   0.903   3.143   7.787  0.0616  0.0515  0.0689
 5177SOL    HW126993   0.928   3.077   7.851 -1.4440  0.7166  1.3531
 5177SOL    HW226994   0.950   3.215   7.829 -1.8691  1.3791 -0.0350
 5178SOL     OW26995   0.643   3.245  11.105 -0.1520 -0.0886 -0.4509
 5178SOL    HW126996   0.637   3.262  11.011 -0.8632  2.6178  0.0884
 5178SOL    HW226997   0.648   3.151  11.090 -1.4681 -0.1215 -0.6476
 5179SOL     OW26998   3.716   1.047  14.840  0.1372  0.2329  0.4149
 5179SOL    HW126999   3.756   1.061  14.926  1.6615  2.0849 -0.5815
 5179SOL    HW227000   3.666   0.967  14.852 -1.2335  1.2323  1.2671
 5180SOL     OW27001   3.176   2.837   6.431  0.1612 -0.8867  0.4065
 5180SOL    HW127002   3.148   2.882   6.351  2.5395  0.3880  0.2869
 5180SOL    HW227003   3.122   2.885   6.493 -0.5451 -2.3808  0.9333
 5181SOL     OW27004   3.435   3.186  17.305 -0.3505  0.1870  0.7790
 5181SOL    HW127005   3.415   3.225  17.390 -1.7828  1.2768 -0.0682
 5181SOL    HW227006   3.353   3.139  17.292 -0.9166  1.5688 -0.6577
 5182SOL     OW27007   3.711   0.349   8.288 -0.1634  0.1038  0.0209
 5182SOL    HW127008   3.630   0.385   8.322  0.1285 -0.4958  1.3449
 5182SOL    HW227009   3.778   0.415   8.305  1.1269 -0.7440 -1.7251
 5183SOL     OW27010   0.667   2.239  15.287  0.1541  0.1817  0.2690
 5183SOL    HW127011   0.696   2.238  15.378 -0.1318 -0.7732  0.3420
 5183SOL    HW227012   0.611   2.316  15.275 -1.4428 -1.1799 -0.9985
 5184SOL     OW27013   3.179   3.129   6.252  0.1837  0.2321 -0.3296
 5184SOL    HW127014   3.240   3.066   6.212 -0.9066 -1.2940  0.4316
 5184SOL    HW227015   3.236   3.205   6.261 -0.7838  0.7576  1.2827
 5185SOL     OW27016   2.463   4.545   1.514 -0.0932  0.2835 -0.0536
 5185SOL    HW127017   2.454   4.474   1.451  0.6719  0.5662 -0.4792
 5185SOL    HW227018   2.538   4.515   1.565  1.2207  1.3904 -1.3202
 5186SOL     OW27019   1.478   2.390   6.633 -0.0058 -0.0782 -0.1605
 5186SOL    HW127020   1.480   2.440   6.715 -2.5350 -0.6012  0.2155
 5186SOL    HW227021   1.406   2.330   6.653  0.2523 -0.5707 -0.7221
 5187SOL     OW27022   2.427   4.160   4.553 -0.1390 -0.1948  0.1094
 5187SOL    HW127023   2.387   4.197   4.475  2.5891  0.4513 -1.0042
 5187SOL    HW227024   2.410   4.067   4.538 -0.1327 -0.1121 -0.4104
 5188SOL     OW27025   4.126   0.360   3.912 -0.1245 -0.8134 -0.5775
 5188SOL    HW127026   4.154   0.302   3.983 -0.6609 -0.2373  0.1058
 5188SOL    HW227027   4.034   0.375   3.937 -0.7861 -3.8683 -1.1476
 5189SOL     OW27028   4.538   1.060   4.403 -0.6025 -0.2305  0.1643
 5189SOL    HW127029   4.495   1.071   4.319  0.6985  1.9254 -0.2195
 5189SOL    HW227030   4.596   0.988   4.378 -0.5674  0.0902 -0.6632
 5190SOL     OW27031   1.671   2.289  14.403  0.2867 -0.0192 -0.0845
 5190SOL    HW127032   1.640   2.199  14.393  2.1089 -0.8507  1.5652
 5190SOL    HW227033   1.600   2.335  14.358 -0.2870 -1.1452 -0.3236
 5191SOL     OW27034   3.980   2.008   5.856 -0.1776  0.5537  0.2896
 5191SOL    HW127035   4.006   2.050   5.774  0.1073  0.5784  0.3917
 5191SOL    HW227036   3.888   2.033   5.865 -0.1133  1.5672 -1.9802
 5192SOL     OW27037   1.008   4.133  11.731  0.2604 -0.2299 -0.2826
 5192SOL    HW127038   1.017   4.114  11.638 -0.9349 -1.4082 -0.1506
 5192SOL    HW227039   1.064   4.209  11.747 -0.2789 -0.1230  1.0842
 5193SOL     OW27040   4.601   4.665   4.816  1.0192 -0.3654 -0.2104
 5193SOL    HW127041   4.561   4.701   4.894  1.3830  0.3285 -0.3431
 5193SOL    HW227042   4.609   4.574   4.843 -1.1938  0.4333  3.0498
 5194SOL     OW27043   2.759   1.754   6.931 -0.1609 -0.1292  0.1289
 5194SOL    HW127044   2.745   1.846   6.954 -1.2365 -0.5459  1.1458
 5194SOL    HW227045   2.668   1.731   6.912 -0.6289  2.3613 -0.6094
 5195SOL     OW27046   3.318   2.513   9.460  0.2121 -0.3185  0.4220
 5195SOL    HW127047   3.353   2.586   9.510  1.9496  0.7037 -2.2756
 5195SOL    HW227048   3.398   2.487   9.413 -0.5071  0.5373 -1.3046
 5196SOL     OW27049   3.749   0.618  17.210 -0.1927 -0.5811  0.2775
 5196SOL    HW127050   3.745   0.649  17.120  0.5450 -2.3242 -0.3550
 5196SOL    HW227051   3.803   0.683  17.255 -1.2531  0.6588 -0.2461
 5197SOL     OW27052   1.798   3.402   4.793  0.8545  0.4901  0.3128
 5197SOL    HW127053   1.719   3.437   4.751  1.3317  2.9013  1.3950
 5197SOL    HW227054   1.763   3.331   4.846  0.2410  1.4514  1.2124
 5198SOL     OW27055   2.216   2.458  14.687 -0.7917 -0.4477  0.1366
 5198SOL    HW127056   2.312   2.456  14.694 -0.6411  0.7264 -1.8061
 5198SOL    HW227057   2.185   2.541  14.725  1.3952  0.2609  0.3657
 5199SOL     OW27058   2.986   4.342  13.941 -0.1710  0.7703  0.4498
 5199SOL    HW127059   3.031   4.365  14.022  0.7182 -1.1432  0.5184
 5199SOL    HW227060   2.902   4.380  13.968 -0.1649  2.7678 -2.3309
 5200SOL     OW27061   0.864   1.426   3.043  0.1591  0.0647  0.3189
 5200SOL    HW127062   0.938   1.388   2.995  0.1978 -0.9506  1.1843
 5200SOL    HW227063   0.814   1.472   2.976 -1.0935 -1.9714 -0.1483
 5201SOL     OW27064   1.172   0.133   5.817 -0.5432  0.3550  0.4107
 5201SOL    HW127065   1.128   0.063   5.768  2.0317 -0.6214 -0.5247
 5201SOL    HW227066   1.208   0.179   5.741 -1.0375  0.0383 -0.0171
 5202SOL     OW27067   4.328   2.526   9.335 -0.6893  0.5313 -0.1564
 5202SOL    HW127068   4.278   2.578   9.398 -1.1382  1.3605 -1.1987
 5202SOL    HW227069   4.303   2.573   9.256 -0.4525 -0.9954 -1.1516
 5203SOL     OW27070   1.372   2.161   5.605 -0.7866 -0.0674 -0.0224
 5203SOL    HW127071   1.400   2.083   5.558 -0.2844 -0.6581  1.2339
 5203SOL    HW227072   1.285   2.173   5.567 -1.4788 -2.3772  0.8330
 5204SOL     OW27073   4.358   2.785   8.513 -0.5503 -0.3974 -0.1072
 5204SOL    HW127074   4.448   2.816   8.503 -0.9094  0.5718 -0.2955
 5204SOL    HW227075   4.312   2.858   8.471  0.9292  0.5531 -0.0395
 5205SOL     OW27076   4.039   2.424   4.565 -0.2824  0.0668 -0.0582
 5205SOL    HW127077   4.083   2.368   4.501  0.3167 -0.1909  0.5857
 5205SOL    HW227078   3.962   2.375   4.592  0.2679 -0.7034  0.0990
 5206SOL     OW27079   3.495   1.608   3.991  0.1720  0.7312 -0.4379
 5206SOL    HW127080   3.414   1.584   4.037  0.7485 -0.9801 -0.3071
 5206SOL    HW227081   3.478   1.568   3.905  0.2328  0.8723 -0.5151
 5207SOL     OW27082   3.463   3.546   3.339 -0.2719  0.4237  0.2643
 5207SOL    HW127083   3.408   3.624   3.350 -1.1430 -0.2353  0.5341
 5207SOL    HW227084   3.460   3.547   3.243 -0.6265  1.9803  0.2880
 5208SOL     OW27085   0.666   1.135  16.219 -0.4072  0.0520  0.2902
 5208SOL    HW127086   0.674   1.149  16.124  1.3125  0.4172  0.4838
 5208SOL    HW227087   0.661   1.227  16.246 -2.8622  0.5809 -1.9238
 5209SOL     OW27088   2.003   2.522  11.591 -0.3358  0.3775  0.0631
 5209SOL    HW127089   1.911   2.525  11.617 -0.6874 -1.1828 -1.0167
 5209SOL    HW227090   2.004   2.458  11.520  2.5381  1.4102 -0.8474
 5210SOL     OW27091   0.304   0.101   6.016 -0.1616 -0.9426 -0.6427
 5210SOL    HW127092   0.353   0.024   6.045 -1.4273 -1.0436  1.2529
 5210SOL    HW227093   0.374   0.141   5.964 -0.4116 -0.1760 -0.3972
 5211SOL     OW27094   0.045   1.462  11.462 -0.3533 -0.3582  0.0623
 5211SOL    HW127095   4.715   1.443  11.385  0.9112 -0.8319 -0.6804
 5211SOL    HW227096   0.017   1.552  11.477 -1.0994 -0.9435  2.1229
 5212SOL     OW27097   3.970   4.168   0.510  0.1222  0.4644  0.1855
 5212SOL    HW127098   3.989   4.184   0.603 -0.1946  0.5563  0.2311
 5212SOL    HW227099   3.888   4.119   0.510  1.4060 -1.6880 -1.3116
 5213SOL     OW27100   2.567   3.402   2.724 -0.3608 -0.4571 -0.7609
 5213SOL    HW127101   2.495   3.351   2.687 -1.2265  1.3883 -1.6491
 5213SOL    HW227102   2.564   3.484   2.674 -0.8031 -1.2931 -2.0882
 5214SOL     OW27103   0.534   3.724  10.156 -0.3662  0.8278 -0.1745
 5214SOL    HW127104   0.582   3.739  10.075  0.4091 -1.2671 -0.1194
 5214SOL    HW227105   0.600   3.743  10.223 -0.9638 -0.3682  0.7581
 5215SOL     OW27106   3.461   4.687   5.672  0.0084  0.1161 -0.0002
 5215SOL    HW127107   3.448   4.626   5.745  2.7977 -0.7532 -0.2327
 5215SOL    HW227108   3.377   0.010   5.680  0.9411  1.8905 -0.4058
 5216SOL     OW27109   2.702   0.200  13.673  0.2264  0.3546 -0.1637
 5216SOL    HW127110   2.759   0.145  13.618 -0.2937 -0.0465 -0.2994
 5216SOL    HW227111   2.697   0.145  13.751 -1.0902  1.4982  0.5489
 5217SOL     OW27112   2.249   3.446   7.437  0.0878  0.2833 -0.0619
 5217SOL    HW127113   2.291   3.522   7.396 -0.7675  1.7605  1.8207
 5217SOL    HW227114   2.159   3.477   7.432 -0.0290  0.0847  0.7706
 5218SOL     OW27115   2.431   1.780   5.306 -0.0850  0.2531 -0.5165
 5218SOL    HW127116   2.419   1.717   5.236  0.1543  0.2018 -0.5088
 5218SOL    HW227117   2.342   1.804   5.332 -0.1591  0.2849 -0.8053
 5219SOL     OW27118   3.935   0.429   9.301  0.8488  0.0763  1.0061
 5219SOL    HW127119   3.990   0.505   9.319  2.2594 -0.2050 -2.2530
 5219SOL    HW227120   3.853   0.466   9.268  2.2773  2.3068 -0.0837
 5220SOL     OW27121   2.265   3.294   1.524  0.7166  0.1980  0.2510
 5220SOL    HW127122   2.320   3.245   1.585  0.7558 -2.1711 -1.6964
 5220SOL    HW227123   2.179   3.278   1.563 -0.5355  2.0917 -1.7356
 5221SOL     OW27124   2.653   1.612   0.320  0.1562  0.0012  0.4655
 5221SOL    HW127125   2.728   1.626   0.378  0.8725 -1.8025 -0.0349
 5221SOL    HW227126   2.645   1.517   0.328 -2.2113  0.0458 -1.1927
 5222SOL     OW27127   3.677   0.909  11.669 -0.0293  0.0483  0.3235
 5222SOL    HW127128   3.706   0.850  11.739  0.7895 -0.3506 -0.3424
 5222SOL    HW227129   3.740   0.899  11.598  1.9432  0.5302  1.9862
 5223SOL     OW27130   1.164   1.387   3.694 -0.1756 -0.1027 -0.2328
 5223SOL    HW127131   1.070   1.371   3.682 -0.0057 -0.7351 -0.6676
 5223SOL    HW227132   1.201   1.300   3.711  0.4028  0.2654  0.3886
 5224SOL     OW27133   2.916   0.859  12.384 -0.0847  0.0822 -0.1006
 5224SOL    HW127134   2.917   0.877  12.478  0.1362 -2.4455  0.3640
 5224SOL    HW227135   2.950   0.943  12.352  1.7966  0.0409  1.7964
 5225SOL     OW27136   0.700   4.161   0.910  0.3947 -0.3386 -0.1028
 5225SOL    HW127137   0.646   4.140   0.833 -0.4343  2.3129 -0.2512
 5225SOL    HW227138   0.630   4.165   0.975  1.0121  0.2303  0.5232
 5226SOL     OW27139   4.376   1.539   6.978 -0.0529  0.0042  0.2723
 5226SOL    HW127140   4.297   1.489   6.954  0.3837  0.8714 -3.0330
 5226SOL    HW227141   4.352   1.570   7.065  0.4288  1.7511 -0.2137
 5227SOL     OW27142   2.934   3.153   7.699  0.5774 -0.1144  0.1448
 5227SOL    HW127143   2.874   3.222   7.725  0.7256 -0.3876  1.2141
 5227SOL    HW227144   2.943   3.110   7.784  0.7817 -0.3484  0.0070
 5228SOL     OW27145   0.893   0.415  16.969  0.2763  0.0385  0.1650
 5228SOL    HW127146   0.818   0.473  16.981  0.1419 -0.3426  1.1567
 5228SOL    HW227147   0.853   0.346  17.022  3.0916 -0.7059  1.3283
 5229SOL     OW27148   2.444   2.763  10.279 -0.1050  0.3503  0.2881
 5229SOL    HW127149   2.532   2.728  10.292 -0.7595 -0.5611  2.2685
 5229SOL    HW227150   2.410   2.717  10.202  1.1899  0.1382 -0.1688
 5230SOL     OW27151   1.631   1.398   6.108  0.4673  0.1270 -0.1898
 5230SOL    HW127152   1.626   1.428   6.199 -0.5657 -1.0781  0.1480
 5230SOL    HW227153   1.664   1.311   6.130  0.6252  0.2921  0.2182
 5231SOL     OW27154   2.825   0.207   7.253 -0.0863  0.3148  0.4522
 5231SOL    HW127155   2.825   0.173   7.164 -0.3173  0.0010  0.5727
 5231SOL    HW227156   2.737   0.176   7.277 -0.4355  0.2964 -0.8646
 5232SOL     OW27157   4.101   4.659  14.140  0.0717 -0.3590  0.5264
 5232SOL    HW127158   4.007   4.678  14.139 -0.1993 -1.7186 -2.1820
 5232SOL    HW227159   4.104   4.610  14.057 -1.9070 -1.0251  0.8263
 5233SOL     OW27160   2.893   2.000   6.543  0.0413  0.2917  0.2256
 5233SOL    HW127161   2.922   2.067   6.604  0.0358 -0.0272  0.5823
 5233SOL    HW227162   2.927   1.925   6.592 -0.7781 -0.2840 -0.0869
 5234SOL     OW27163   1.043   4.270   8.285 -0.4867 -0.2499  0.3138
 5234SOL    HW127164   1.045   4.359   8.252  0.0549 -0.1669  0.5675
 5234SOL    HW227165   1.112   4.228   8.234 -0.7705 -1.3273  0.7946
 5235SOL     OW27166   2.086   0.230   6.846 -0.0078 -0.3653  0.4718
 5235SOL    HW127167   2.146   0.282   6.899  0.8882 -0.7874 -0.1239
 5235SOL    HW227168   2.090   0.295   6.776 -0.7689 -0.7313  0.0856
 5236SOL     OW27169   3.870   3.874   5.953 -0.1062 -0.8858 -0.2989
 5236SOL    HW127170   3.924   3.937   6.001 -0.7339  1.9772 -3.2990
 5236SOL    HW227171   3.858   3.917   5.868  0.5454 -1.2178 -0.5544
 5237SOL     OW27172   0.131   3.100   2.502 -0.2872 -0.1643  0.0136
 5237SOL    HW127173   0.158   3.167   2.565 -2.6443  0.5463  0.2767
 5237SOL    HW227174   0.097   3.031   2.559  2.9760 -1.5002  0.2879
 5238SOL     OW27175   4.583   4.445   7.857  0.5618  0.1977 -0.2248
 5238SOL    HW127176   4.636   4.520   7.883  1.0790 -0.2758  0.0922
 5238SOL    HW227177   4.530   4.440   7.937  1.7321  2.5431  0.7064
 5239SOL     OW27178   2.280   2.467  16.656 -0.4257 -0.1252  0.0680
 5239SOL    HW127179   2.362   2.426  16.684  0.0289  2.0392  1.8976
 5239SOL    HW227180   2.274   2.442  16.564  0.6690 -1.8865  0.4543
 5240SOL     OW27181   2.644   1.138  14.379 -0.2833 -0.0901 -0.1141
 5240SOL    HW127182   2.559   1.095  14.387 -0.6522  1.0103  1.6407
 5240SOL    HW227183   2.665   1.145  14.472 -1.4312 -0.5027  0.1711
 5241SOL     OW27184   4.640   1.810   1.429 -0.4215  0.5557  0.2602
 5241SOL    HW127185   4.706   1.809   1.498  0.2381  1.3293 -0.3611
 5241SOL    HW227186   4.583   1.880   1.460  1.3793  2.8685 -1.6667
 5242SOL     OW27187   4.419   1.159  10.222  0.3544 -0.3595  0.1550
 5242SOL    HW127188   4.513   1.140  10.229  0.5330  0.0756 -0.9513
 5242SOL    HW227189   4.413   1.254  10.205  1.6792 -0.7194 -2.3544
 5243SOL     OW27190   1.100   2.429   2.934 -0.0361 -0.0071  0.2832
 5243SOL    HW127191   1.017   2.438   2.980 -1.3718 -1.8630 -1.7177
 5243SOL    HW227192   1.081   2.485   2.859  1.1938  2.2343  1.6349
 5244SOL     OW27193   3.862   2.009   4.512 -0.2377  0.0219  0.3967
 5244SOL    HW127194   3.841   1.946   4.442  1.1086  0.2701 -0.2246
 5244SOL    HW227195   3.906   2.079   4.465 -0.6002  0.1183  0.1971
 5245SOL     OW27196   3.202   0.658   2.617 -0.2774 -0.4375 -0.8297
 5245SOL    HW127197   3.203   0.753   2.627  0.4270 -0.4009 -1.2424
 5245SOL    HW227198   3.150   0.633   2.693  0.6237 -1.3240 -0.5035
 5246SOL     OW27199   3.043   4.235   2.103  0.0319 -0.6518 -0.1738
 5246SOL    HW127200   3.105   4.287   2.155 -0.8189 -0.6134  0.8078
 5246SOL    HW227201   2.974   4.302   2.099  0.2095 -0.3223  2.0191
 5247SOL     OW27202   3.675   0.634   9.619  0.2293  0.4147  0.7517
 5247SOL    HW127203   3.762   0.662   9.647  0.6675  0.1306 -0.3585
 5247SOL    HW227204   3.656   0.570   9.687  1.0238  0.0617  0.6415
 5248SOL     OW27205   4.455   2.885   4.590  0.6049  0.2114 -0.4727
 5248SOL    HW127206   4.364   2.877   4.618  0.1765  1.9197 -1.4289
 5248SOL    HW227207   4.486   2.795   4.576  1.2510  0.2004  0.8990
 5249SOL     OW27208   3.731   0.112   5.283 -0.6012  0.0445  0.3771
 5249SOL    HW127209   3.795   0.045   5.258  0.0781  1.5328 -1.8318
 5249SOL    HW227210   3.708   0.084   5.371  0.8318  0.4717  0.8855
 5250SOL     OW27211   2.523   3.725  13.192  0.3304  0.3321 -0.8133
 5250SOL    HW127212   2.546   3.643  13.147  2.1998  0.5127 -0.1953
 5250SOL    HW227213   2.578   3.786  13.142  1.9811 -0.8531 -0.4735
 5251SOL     OW27214   3.990   0.701   9.185  0.7046  0.8532  0.2109
 5251SOL    HW127215   3.945   0.744   9.112  2.4045 -1.1468 -1.9820
 5251SOL    HW227216   4.080   0.730   9.171  0.9839 -0.5232 -0.8417
 5252SOL     OW27217   3.723   1.424   6.698  0.7608 -0.2150 -0.1601
 5252SOL    HW127218   3.777   1.387   6.768  1.1809 -1.4475 -1.1317
 5252SOL    HW227219   3.674   1.485   6.753 -1.1127 -1.8542  0.0030
 5253SOL     OW27220   1.610   0.838   4.522 -0.3035  0.2739  0.3271
 5253SOL    HW127221   1.671   0.861   4.592 -0.9365  0.4543  0.8190
 5253SOL    HW227222   1.548   0.780   4.566 -0.2042 -0.3618 -0.3832
 5254SOL     OW27223   3.017   1.963   4.409  0.3533 -0.5282  0.1767
 5254SOL    HW127224   2.926   1.932   4.406 -0.4174  1.9663 -3.0146
 5254SOL    HW227225   3.056   1.910   4.477  0.1750  0.6335  1.1836
 5255SOL     OW27226   2.585   1.969   2.594 -0.3795 -0.3668  0.0289
 5255SOL    HW127227   2.537   1.922   2.663  1.7687  0.0548  1.8234
 5255SOL    HW227228   2.521   2.034   2.567 -0.2205  0.3076  1.2521
 5256SOL     OW27229   2.158   1.971  15.343  0.0802 -0.5825 -0.1705
 5256SOL    HW127230   2.118   1.973  15.430 -0.1247  2.0306 -0.3222
 5256SOL    HW227231   2.082   1.991  15.288  0.0279  0.0343  0.1227
 5257SOL     OW27232   3.741   2.249   5.377 -0.1226 -0.2090  0.1975
 5257SOL    HW127233   3.745   2.229   5.283 -0.6004 -0.2868  0.1938
 5257SOL    HW227234   3.649   2.270   5.394 -0.2544 -2.1993  1.8904
 5258SOL     OW27235   0.829   2.372   5.913  0.8550 -0.1439  0.2369
 5258SOL    HW127236   0.802   2.320   5.989 -0.8473 -1.5600 -1.3396
 5258SOL    HW227237   0.780   2.325   5.846 -0.3117 -0.5023  1.3380
 5259SOL     OW27238   3.992   1.978   0.173 -0.5496  0.1252 -0.0936
 5259SOL    HW127239   3.943   1.906   0.214 -1.4705  0.7217 -0.1501
 5259SOL    HW227240   3.970   2.052   0.229 -1.5795  1.1154 -1.8340
 5260SOL     OW27241   2.771   2.710  16.480  0.6253  0.2445 -0.4155
 5260SOL    HW127242   2.825   2.772  16.530 -0.7230  0.3046  0.9503
 5260SOL    HW227243   2.805   2.627  16.514 -1.6739 -0.9885 -1.1310
 5261SOL     OW27244   2.072   2.201   2.981  0.0114  0.2882  0.3788
 5261SOL    HW127245   2.039   2.280   2.938  0.0140 -1.1310 -2.2456
 5261SOL    HW227246   2.013   2.205   3.057 -1.7363 -1.3673 -0.9100
 5262SOL     OW27247   2.101   3.098   3.213  0.6855  0.4308  0.5189
 5262SOL    HW127248   2.087   3.171   3.273  0.5022 -1.0363  2.2682
 5262SOL    HW227249   2.016   3.076   3.176  1.0250 -1.0094  0.6148
 5263SOL     OW27250   0.832   4.549   8.440 -0.8065 -0.2911  0.1429
 5263SOL    HW127251   0.913   4.586   8.477  1.1153 -2.6044 -1.7860
 5263SOL    HW227252   0.780   4.544   8.520  0.2103 -0.5618  0.7838
 5264SOL     OW27253   0.300   1.822  15.307  0.3226 -0.2450  0.0328
 5264SOL    HW127254   0.249   1.894  15.343  0.7451 -0.0639  0.2653
 5264SOL    HW227255   0.380   1.874  15.298  0.1690 -0.4314 -2.3736
 5265SOL     OW27256   2.561   4.297   8.724  0.1222  0.5534  0.2173
 5265SOL    HW127257   2.561   4.228   8.791  1.0485 -0.9375 -1.3088
 5265SOL    HW227258   2.556   4.379   8.773 -0.7434  0.6871 -0.1133
 5266SOL     OW27259   2.170   2.530  16.256  0.3838  0.2419 -0.2875
 5266SOL    HW127260   2.118   2.453  16.278  0.4977  0.6434  1.4551
 5266SOL    HW227261   2.251   2.490  16.288 -0.2363 -0.4117  0.4860
 5267SOL     OW27262   0.757   0.813   0.648  0.2951  0.1701  0.2228
 5267SOL    HW127263   0.690   0.879   0.666 -0.9193 -1.0785  0.3583
 5267SOL    HW227264   0.816   0.853   0.584  0.7943  1.6823  1.6472
 5268SOL     OW27265   1.079   4.617   5.677 -0.1700  0.6395 -0.2133
 5268SOL    HW127266   1.142   4.552   5.709  1.2165  1.7816 -0.6049
 5268SOL    HW227267   1.137   4.663   5.616  1.5221 -1.2002  0.0148
 5269SOL     OW27268   3.959   4.640  15.481  0.2938 -0.5114 -0.1850
 5269SOL    HW127269   4.018   4.702  15.439 -3.5894  2.5537 -1.0861
 5269SOL    HW227270   3.903   4.698  15.531  1.0612  0.0100  0.0674
 5270SOL     OW27271   0.201   0.227  11.892 -0.4895  0.1184 -0.1982
 5270SOL    HW127272   0.181   0.262  11.805 -0.7699  0.7595  0.1230
 5270SOL    HW227273   0.198   0.132  11.881  1.9572  0.0713 -0.4180
 5271SOL     OW27274   0.302   0.940  10.824 -0.1335 -0.0229  0.3615
 5271SOL    HW127275   0.379   0.984  10.860  1.0560  1.0097 -3.4208
 5271SOL    HW227276   0.229   1.001  10.826  0.0771  0.2183  0.7698
 5272SOL     OW27277   2.400   1.611   1.731 -0.0957 -0.9779 -0.1369
 5272SOL    HW127278   2.429   1.613   1.640 -0.8340 -0.1090 -0.3433
 5272SOL    HW227279   2.488   1.601   1.768  0.3472  0.5329 -0.7823
 5273SOL     OW27280   0.048   3.704   6.731  0.8201  0.0934 -0.1641
 5273SOL    HW127281   4.684   3.684   6.696  1.7811 -2.7507 -0.9045
 5273SOL    HW227282   0.104   3.663   6.666 -0.7964 -3.2629  0.5562
 5274SOL     OW27283   4.128   3.346   4.670 -0.0533  0.2444 -0.1928
 5274SOL    HW127284   4.146   3.260   4.633  0.5118 -0.4105  1.6124
 5274SOL    HW227285   4.046   3.364   4.624  0.8280 -1.3035 -2.3487
 5275SOL     OW27286   4.028   2.022   6.540  0.5688  0.3959 -0.2469
 5275SOL    HW127287   4.097   2.081   6.569 -0.6727  2.1901 -0.9131
 5275SOL    HW227288   3.976   2.017   6.620 -0.0098  0.5602 -0.6128
 5276SOL     OW27289   0.046   0.539   6.762  0.4067  0.3348 -0.1535
 5276SOL    HW127290   0.004   0.555   6.846  2.0467  2.8419  0.1869
 5276SOL    HW227291   4.704   0.496   6.706 -0.4972 -0.1274  1.2608
 5277SOL     OW27292   2.007   0.960  11.993  0.7718  0.2086 -0.0617
 5277SOL    HW127293   1.997   0.950  12.087  0.6345  0.9746  0.0021
 5277SOL    HW227294   2.100   0.981  11.982  0.7261  0.3218 -0.2345
 5278SOL     OW27295   0.391   0.632   7.294  0.1115  0.4169  0.2569
 5278SOL    HW127296   0.471   0.593   7.329  0.6415  0.2186 -1.1695
 5278SOL    HW227297   0.362   0.573   7.224  1.6017  2.6091 -2.2313
 5279SOL     OW27298   0.695   1.989   6.822 -0.4972  0.2730 -0.2756
 5279SOL    HW127299   0.736   1.967   6.905  0.7644  1.8155 -0.4752
 5279SOL    HW227300   0.690   2.084   6.837  2.4618  0.4937 -0.5592
 5280SOL     OW27301   1.315   0.287   6.101 -0.2072  0.2616  0.0286
 5280SOL    HW127302   1.241   0.230   6.120 -1.7901  2.3214  0.0063
 5280SOL    HW227303   1.390   0.261   6.155  1.1692  0.8737 -1.5591
 5281SOL     OW27304   4.065   2.035   9.720  0.1041 -0.4213 -0.4557
 5281SOL    HW127305   4.085   2.128   9.713  1.1282 -0.3090  3.9845
 5281SOL    HW227306   3.988   2.027   9.663 -1.4347  2.4229  1.2407
 5282SOL     OW27307   4.209   2.232   7.452 -0.1084  0.4401  0.0359
 5282SOL    HW127308   4.172   2.292   7.517  1.7396  0.4257  1.1066
 5282SOL    HW227309   4.250   2.291   7.388  2.0908  2.4475  3.3221
 5283SOL     OW27310   1.256   1.978  11.004  0.3815  0.2982  0.3736
 5283SOL    HW127311   1.221   2.067  11.005  0.0255  0.1778 -1.5942
 5283SOL    HW227312   1.227   1.947  10.918  0.1584  0.5984  0.3410
 5284SOL     OW27313   3.807   0.630   3.850 -0.5962 -0.1029  0.8214
 5284SOL    HW127314   3.838   0.638   3.760  0.4928  0.4212  1.2359
 5284SOL    HW227315   3.725   0.680   3.850 -1.6591 -1.8455  1.6495
 5285SOL     OW27316   3.173   2.531   6.291  0.4194  0.3293  0.0919
 5285SOL    HW127317   3.168   2.537   6.387 -2.0199  1.4427 -0.0891
 5285SOL    HW227318   3.257   2.487   6.280  0.3866  0.6022 -1.1968
 5286SOL     OW27319   4.033   3.007  10.471  0.2986  0.3668 -0.8817
 5286SOL    HW127320   3.947   2.965  10.474  1.1744 -1.4383 -0.8730
 5286SOL    HW227321   4.075   2.982  10.389 -0.7798 -0.1613 -1.2690
 5287SOL     OW27322   0.754   2.259  14.742 -0.5888 -0.4479 -0.4464
 5287SOL    HW127323   0.678   2.289  14.693  0.5569  0.2356 -1.8267
 5287SOL    HW227324   0.799   2.195  14.686  1.6888  1.0503 -0.3349
 5288SOL     OW27325   1.196   3.900  15.647  0.2617 -0.2187 -0.7227
 5288SOL    HW127326   1.205   3.993  15.665  0.1600  0.6324 -4.9141
 5288SOL    HW227327   1.103   3.899  15.624 -0.4777 -2.7075  2.3976
 5289SOL     OW27328   1.715   2.112   6.114  0.2638  0.1516 -0.1620
 5289SOL    HW127329   1.723   2.200   6.151  0.3848  0.2771 -0.4827
 5289SOL    HW227330   1.798   2.108   6.066  0.2177 -3.6847  0.0896
 5290SOL     OW27331   3.780   0.693  16.955  0.1780 -0.6941  0.4829
 5290SOL    HW127332   3.725   0.703  16.876  0.5177 -0.5530  0.2653
 5290SOL    HW227333   3.839   0.769  16.953 -1.8506  0.9135  0.9234
 5291SOL     OW27334   3.072   2.420  14.118 -0.2967 -0.3747 -0.2561
 5291SOL    HW127335   3.105   2.348  14.173  3.4201  0.8956 -0.7736
 5291SOL    HW227336   3.075   2.377  14.033 -0.3346 -0.8976  0.0091
 5292SOL     OW27337   2.240   4.468   7.189  0.1275  0.3630  0.0890
 5292SOL    HW127338   2.189   4.549   7.198  0.1898  0.3234  0.8419
 5292SOL    HW227339   2.193   4.430   7.115  1.7046  0.6143 -1.0397
 5293SOL     OW27340   4.549   3.746   8.733 -0.2709 -0.1991  0.5294
 5293SOL    HW127341   4.612   3.689   8.689  1.0508  1.7172 -0.0350
 5293SOL    HW227342   4.606   3.821   8.748  1.6465 -1.0565 -2.5860
 5294SOL     OW27343   1.042   4.398  10.752 -0.6227 -0.3463 -0.2087
 5294SOL    HW127344   1.032   4.427  10.842  1.4892 -0.2360 -0.0280
 5294SOL    HW227345   1.105   4.327  10.760  0.5450  1.0542  2.6377
 5295SOL     OW27346   0.485   3.705   2.889  0.0468  0.2230  0.3240
 5295SOL    HW127347   0.510   3.730   2.800 -1.0806  0.4378  0.0675
 5295SOL    HW227348   0.405   3.756   2.903  0.3602  0.7646  0.1170
 5296SOL     OW27349   1.894   2.606   6.276 -0.1312 -0.2125  0.4131
 5296SOL    HW127350   1.970   2.639   6.227  0.8907 -1.8902  0.8850
 5296SOL    HW227351   1.913   2.646   6.361 -0.2377  2.4028 -0.7825
 5297SOL     OW27352   2.650   0.715   1.366  0.1475  0.0772  0.4931
 5297SOL    HW127353   2.639   0.772   1.442 -0.5138  1.3002 -0.5385
 5297SOL    HW227354   2.745   0.710   1.359  0.2554 -1.1952  2.8273
 5298SOL     OW27355   4.087   2.355   1.965 -0.1904  0.2348 -0.2754
 5298SOL    HW127356   4.155   2.418   1.943  1.1195 -1.0660  0.0209
 5298SOL    HW227357   4.015   2.417   1.973 -0.0505  0.1825  1.3300
 5299SOL     OW27358   0.151   1.741  15.046 -0.0442 -0.6784 -0.4136
 5299SOL    HW127359   0.180   1.723  15.136 -2.5189  0.2046  0.5540
 5299SOL    HW227360   0.120   1.660  15.005  3.5754 -1.5546 -1.4152
 5300SOL     OW27361   2.504   0.554   6.335  0.0545 -0.1292 -0.3290
 5300SOL    HW127362   2.456   0.563   6.418 -0.8289 -0.2370 -0.8265
 5300SOL    HW227363   2.584   0.518   6.373 -1.5472 -2.1349  1.1694
 5301SOL     OW27364   1.181   4.252  10.034 -0.5253 -0.6112  0.5483
 5301SOL    HW127365   1.134   4.224  10.113 -1.7813  0.5668  0.2229
 5301SOL    HW227366   1.272   4.268  10.059 -0.6240  0.1279  0.4426
 5302SOL     OW27367   0.025   3.327   4.024  0.3122 -0.0790  0.0591
 5302SOL    HW127368   0.106   3.276   4.025  1.6039  2.0132  1.5637
 5302SOL    HW227369   4.702   3.252   3.987  1.3515 -0.7921  0.2388
 5303SOL     OW27370   4.629   1.073  12.070 -0.0410  0.0133 -0.2442
 5303SOL    HW127371   4.549   1.039  12.030  0.3089 -0.8183 -0.2450
 5303SOL    HW227372   4.689   1.056  11.998 -0.4376 -0.3328 -0.4998
 5304SOL     OW27373   4.248   1.541   4.392 -0.0208  0.2495 -0.1864
 5304SOL    HW127374   4.178   1.533   4.456 -0.6353 -0.7605 -0.9805
 5304SOL    HW227375   4.234   1.454   4.355  0.1881 -0.6255  1.8047
 5305SOL     OW27376   4.023   0.366  10.735  0.1207  0.0939 -0.4905
 5305SOL    HW127377   4.091   0.331  10.793 -0.3986 -0.7008 -0.3685
 5305SOL    HW227378   4.066   0.352  10.650  0.7310 -1.3007  0.0517
 5306SOL     OW27379   4.019   1.667   5.974  0.2317 -0.2082  0.2619
 5306SOL    HW127380   3.950   1.687   5.911  2.0265  1.2297 -1.2475
 5306SOL    HW227381   3.967   1.608   6.028 -0.5865  0.0773 -0.2193
 5307SOL     OW27382   0.975   3.277   7.052  0.3248  0.5351 -0.1763
 5307SOL    HW127383   0.900   3.331   7.026 -1.0092  0.6692  3.8754
 5307SOL    HW227384   1.038   3.343   7.081  0.3481 -0.1163  1.2710
 5308SOL     OW27385   0.475   2.972   2.143 -0.3310 -0.4661 -0.1943
 5308SOL    HW127386   0.411   2.970   2.214  0.7325  0.0146  0.7747
 5308SOL    HW227387   0.431   2.901   2.097 -1.8248  0.1639  0.2582
 5309SOL     OW27388   2.079   2.303   7.082  1.0171  0.4761  0.3205
 5309SOL    HW127389   2.105   2.386   7.040  0.3118 -0.3824 -1.8211
 5309SOL    HW227390   2.161   2.253   7.087  1.5347  1.0571 -2.2663
 5310SOL     OW27391   3.300   1.225   7.394  0.1447  0.0466  0.5134
 5310SOL    HW127392   3.233   1.208   7.327  1.7998 -0.9566 -0.8880
 5310SOL    HW227393   3.284   1.150   7.452 -0.6676 -1.0255 -1.0866
 5311SOL     OW27394   3.461   1.766   5.669 -0.0537 -0.0613  0.1185
 5311SOL    HW127395   3.521   1.693   5.685 -1.5633 -1.3304  0.0430
 5311SOL    HW227396   3.461   1.803   5.757  0.9531  0.2562 -0.0127
 5312SOL     OW27397   2.392   0.212   2.928  0.6728 -0.5514 -0.0773
 5312SOL    HW127398   2.472   0.215   2.980  0.2710 -2.0145  0.6242
 5312SOL    HW227399   2.346   0.289   2.962  4.0193  1.4592 -0.0871
 5313SOL     OW27400   3.238   2.966   3.187 -0.0395  0.2554  0.6099
 5313SOL    HW127401   3.158   3.019   3.194 -0.5421 -0.5148  0.6134
 5313SOL    HW227402   3.211   2.889   3.137  1.8916 -0.3670  0.5437
 5314SOL     OW27403   1.374   4.177  15.577  0.5980  0.0598  0.2033
 5314SOL    HW127404   1.469   4.161  15.571  0.2817 -2.7035  2.0500
 5314SOL    HW227405   1.379   4.269  15.553 -1.5454  0.8203  2.7037
 5315SOL     OW27406   3.955   0.371  11.798 -0.1291  0.2260  0.1978
 5315SOL    HW127407   3.872   0.333  11.825  0.2061  0.8570  2.1237
 5315SOL    HW227408   3.924   0.438  11.738 -1.2349  0.7673  1.3873
 5316SOL     OW27409   0.517   1.113  14.991 -0.2143 -0.8321  0.6093
 5316SOL    HW127410   0.537   1.078  14.904 -1.2067 -1.4077  0.6132
 5316SOL    HW227411   0.555   1.044  15.046 -1.0379 -1.3753  0.4992
 5317SOL     OW27412   3.421   1.763   8.455 -0.6059  0.5496 -0.0445
 5317SOL    HW127413   3.360   1.733   8.522 -0.6898 -1.8803 -1.2160
 5317SOL    HW227414   3.392   1.854   8.450  0.5850  0.9723  0.8023
 5318SOL     OW27415   1.370   3.438   6.057 -0.2703  0.2460  0.4537
 5318SOL    HW127416   1.279   3.412   6.044  0.4230 -1.8103 -0.2220
 5318SOL    HW227417   1.408   3.426   5.970 -2.0576 -2.6863  0.1006
 5319SOL     OW27418   4.451   0.878   4.893  0.0431 -0.1509 -0.4338
 5319SOL    HW127419   4.412   0.945   4.836 -0.7693  0.7645  1.1786
 5319SOL    HW227420   4.502   0.838   4.823  1.0631 -0.2191  0.3555
 5320SOL     OW27421   3.318   2.978   7.875  0.2667 -0.1778  0.0272
 5320SOL    HW127422   3.230   2.996   7.844  0.3073  0.3028  0.1839
 5320SOL    HW227423   3.351   3.067   7.889  0.2702 -0.0447 -0.8105
 5321SOL     OW27424   1.239   0.050   9.835 -0.0360  0.2034 -0.4507
 5321SOL    HW127425   1.294   0.032   9.759  0.0408  1.6609 -0.7428
 5321SOL    HW227426   1.276   4.711   9.898 -1.7627 -0.7683 -0.4126
 5322SOL     OW27427   0.604   0.015   2.105 -0.5272 -0.1383 -0.0535
 5322SOL    HW127428   0.653   4.670   2.059  0.1692 -0.2135  0.7963
 5322SOL    HW227429   0.582   4.703   2.192 -1.2902  1.0131  0.2230
 5323SOL     OW27430   3.642   2.083   4.655 -0.0988  0.1447 -0.1856
 5323SOL    HW127431   3.687   2.131   4.724  0.0355 -1.2032  0.6694
 5323SOL    HW227432   3.711   2.052   4.596 -0.0903  0.7207 -0.4745
 5324SOL     OW27433   3.462   1.905   4.851 -0.5520 -0.4187  0.3308
 5324SOL    HW127434   3.412   1.845   4.794 -1.0787  0.0808  0.2639
 5324SOL    HW227435   3.420   1.991   4.845  2.0275  0.7651 -0.4500
 5325SOL     OW27436   3.690   2.696   6.572  0.1574  0.0245 -0.1227
 5325SOL    HW127437   3.650   2.699   6.485  1.8023  0.8782 -0.8594
 5325SOL    HW227438   3.621   2.727   6.629 -0.3987  0.2214 -0.9035
 5326SOL     OW27439   2.190   2.681   2.380  0.2903 -0.4682 -0.2733
 5326SOL    HW127440   2.216   2.591   2.359  0.5919 -0.7222  1.2137
 5326SOL    HW227441   2.156   2.709   2.295  0.3124  0.6255  0.0856
 5327SOL     OW27442   1.246   1.946   1.247  0.2808  0.2148 -0.6114
 5327SOL    HW127443   1.300   2.007   1.298  0.2385 -1.5525  1.5699
 5327SOL    HW227444   1.299   1.930   1.169 -0.0116  0.6188 -0.8917
 5328SOL     OW27445   4.008   1.716  14.507  0.0897 -0.2432 -0.2516
 5328SOL    HW127446   3.932   1.728  14.450 -0.3633  1.2294  0.6506
 5328SOL    HW227447   4.069   1.775  14.462  0.9611  0.5116  1.9198
 5329SOL     OW27448   1.861   2.161   3.477  0.2738 -0.1707  0.0540
 5329SOL    HW127449   1.785   2.172   3.534 -1.7042 -0.7301 -2.4436
 5329SOL    HW227450   1.898   2.080   3.511 -1.3830 -0.6723  0.6393
 5330SOL     OW27451   0.756   1.404  17.290 -0.0522 -0.4511 -0.2098
 5330SOL    HW127452   0.785   1.383  17.379  0.5146 -2.0605 -0.7605
 5330SOL    HW227453   0.812   1.351  17.233  0.2322 -1.2278  0.7794
 5331SOL     OW27454   1.220   0.545   9.327  0.3896  0.2668 -0.0940
 5331SOL    HW127455   1.296   0.511   9.376  1.7991  2.6374 -0.6281
 5331SOL    HW227456   1.173   0.599   9.390  0.2866  0.2515 -0.1583
 5332SOL     OW27457   4.469   2.082   6.526 -0.2241 -0.5105 -0.2889
 5332SOL    HW127458   4.386   2.125   6.545  0.8712  0.4680  2.3693
 5332SOL    HW227459   4.441   1.997   6.558  0.0775  0.4160  2.4692
 5333SOL     OW27460   1.778   1.990   5.821  0.0897 -0.1105  0.3952
 5333SOL    HW127461   1.723   2.027   5.752  0.1866  0.8078  0.8082
 5333SOL    HW227462   1.821   2.069   5.853  0.7682 -0.4868  0.4175
 5334SOL     OW27463   2.630   0.480   4.707 -0.3526 -0.0465  0.9844
 5334SOL    HW127464   2.550   0.517   4.745  0.3287  2.1431  0.3495
 5334SOL    HW227465   2.685   0.499   4.783 -1.1179 -1.3632  1.8602
 5335SOL     OW27466   0.240   0.775   6.757  0.1469 -0.3360  0.2478
 5335SOL    HW127467   0.149   0.755   6.775 -0.1951 -1.1439 -2.4032
 5335SOL    HW227468   0.253   0.746   6.667  0.0668  1.2038 -0.2631
 5336SOL     OW27469   1.738   2.144  12.837 -0.2353 -0.4425 -0.0337
 5336SOL    HW127470   1.780   2.059  12.854  0.4154  0.2520  1.9118
 5336SOL    HW227471   1.769   2.167  12.750 -1.3733 -1.6500 -0.7545
 5337SOL     OW27472   4.409   0.237   2.740 -0.1345  0.6911  0.6852
 5337SOL    HW127473   4.496   0.276   2.731 -0.8135  1.8750 -0.6116
 5337SOL    HW227474   4.394   0.282   2.823  2.5109  0.0462  1.5109
 5338SOL     OW27475   1.511   3.446   3.199 -0.6167  0.2670 -0.3758
 5338SOL    HW127476   1.553   3.402   3.272  0.5302  0.1760 -1.0916
 5338SOL    HW227477   1.590   3.462   3.148 -0.2125  0.3566  0.2923
 5339SOL     OW27478   2.557   2.298   5.697 -0.2135 -0.1151 -0.5539
 5339SOL    HW127479   2.531   2.351   5.622  0.2297  2.3571  1.0475
 5339SOL    HW227480   2.481   2.323   5.750 -1.3854 -0.8740 -1.8872
 5340SOL     OW27481   4.487   2.138   3.760  0.2556  0.3370  0.3299
 5340SOL    HW127482   4.424   2.076   3.795  1.5088 -1.3880 -0.4321
 5340SOL    HW227483   4.519   2.080   3.691  0.6648  2.5862 -1.3840
 5341SOL     OW27484   3.242   4.428   6.796 -0.6213  0.3877  0.3400
 5341SOL    HW127485   3.271   4.342   6.767  0.7846  0.0351  2.8536
 5341SOL    HW227486   3.265   4.432   6.888  1.4490  0.0252 -0.1729
 5342SOL     OW27487   0.171   3.632   5.119 -0.4850 -0.2124  0.1075
 5342SOL    HW127488   0.082   3.634   5.156 -0.8527  0.4576 -0.8181
 5342SOL    HW227489   0.154   3.690   5.045  0.5314 -1.0525 -0.7789
 5343SOL     OW27490   4.172   4.029  14.747 -0.2309 -0.7883  0.0141
 5343SOL    HW127491   4.234   4.095  14.779  0.2248 -0.9118 -0.6078
 5343SOL    HW227492   4.088   4.070  14.766  1.0080  1.1319  1.4052
 5344SOL     OW27493   0.975   0.178   7.938 -1.1184  0.0473  0.0300
 5344SOL    HW127494   1.065   0.156   7.913 -0.7613  0.8473  0.6040
 5344SOL    HW227495   0.995   0.271   7.952 -1.2855 -0.1983  1.9825
 5345SOL     OW27496   1.641   0.526   1.731 -0.2736  0.7934  0.2550
 5345SOL    HW127497   1.721   0.566   1.765  1.0139 -0.3998 -1.3692
 5345SOL    HW227498   1.649   0.458   1.798  0.3992  1.5817  0.9735
 5346SOL     OW27499   4.121   1.372   4.142 -0.2741 -0.2606  0.3496
 5346SOL    HW127500   4.155   1.324   4.067  0.5133  0.3453  0.3243
 5346SOL    HW227501   4.129   1.313   4.216 -3.6501 -1.4150 -0.2174
 5347SOL     OW27502   0.487   1.454   0.582 -0.5367  0.5431  0.3984
 5347SOL    HW127503   0.410   1.400   0.599 -1.5210  2.4145  1.9409
 5347SOL    HW227504   0.555   1.392   0.607  2.6022  2.2612 -3.8699
 5348SOL     OW27505   3.935   4.072   8.501  0.2679  0.1804 -0.3669
 5348SOL    HW127506   3.929   4.066   8.596 -1.2343 -0.6512 -0.5113
 5348SOL    HW227507   4.017   4.027   8.481  0.8085  0.7804  0.5121
 5349SOL     OW27508   4.330   3.841  13.961 -0.4553  0.5658 -0.2336
 5349SOL    HW127509   4.298   3.895  13.888 -0.3763  0.8193 -0.0824
 5349SOL    HW227510   4.374   3.904  14.018  0.1826 -0.4565  0.4090
 5350SOL     OW27511   1.489   4.112   1.497 -0.4032 -0.2434 -0.5173
 5350SOL    HW127512   1.482   4.207   1.507  2.4949 -0.4444  3.2749
 5350SOL    HW227513   1.396   4.090   1.493 -0.7072  1.0306 -0.3447
 5351SOL     OW27514   0.654   2.114   8.550 -0.3281  0.5356 -0.5018
 5351SOL    HW127515   0.660   2.058   8.628 -1.4096 -0.2850 -1.0148
 5351SOL    HW227516   0.641   2.040   8.491  1.7995 -0.1939 -0.0815
 5352SOL     OW27517   1.123   4.565   2.755 -0.7877  0.8059 -0.1506
 5352SOL    HW127518   1.180   4.500   2.715 -1.3271  1.1055 -1.4087
 5352SOL    HW227519   1.074   4.504   2.810 -2.6488  2.0683 -0.4071
 5353SOL     OW27520   4.524   4.187   9.813  0.1016  0.0677  0.7873
 5353SOL    HW127521   4.558   4.151   9.731  0.6276  1.3991  0.4185
 5353SOL    HW227522   4.529   4.109   9.868  2.3111  0.1373  0.6952
 5354SOL     OW27523   3.009   0.712   6.456 -0.4770  0.0944 -0.4042
 5354SOL    HW127524   3.090   0.740   6.413 -0.1184  0.4122  0.4623
 5354SOL    HW227525   3.028   0.636   6.512  2.7147  0.8337 -0.4471
 5355SOL     OW27526   0.716   0.110   7.943  0.5960  0.4840  0.1538
 5355SOL    HW127527   0.691   0.168   8.015 -0.7049 -1.1565  1.0093
 5355SOL    HW227528   0.811   0.120   7.937  0.7607 -1.2400  0.0465
 5356SOL     OW27529   3.544   2.397   4.849 -0.9078  0.6997  0.9091
 5356SOL    HW127530   3.478   2.457   4.815 -0.6919  0.0692 -0.6021
 5356SOL    HW227531   3.606   2.384   4.778 -0.4502  1.5604  1.1415
 5357SOL     OW27532   2.684   1.128   0.821 -0.4176  0.1852 -0.2228
 5357SOL    HW127533   2.608   1.110   0.766  0.6976 -2.4822 -0.8985
 5357SOL    HW227534   2.731   1.183   0.759  1.6641  0.1940  1.3378
 5358SOL     OW27535   2.869   2.129  12.915  0.1507 -0.2120  0.1889
 5358SOL    HW127536   2.959   2.149  12.940  0.9088 -2.7041 -0.5272
 5358SOL    HW227537   2.837   2.204  12.865  1.6344  0.2600 -0.0505
 5359SOL     OW27538   3.075   0.557   4.347 -0.3234  0.6827 -0.0123
 5359SOL    HW127539   3.038   0.470   4.359  1.6590 -0.1295  0.3285
 5359SOL    HW227540   3.146   0.538   4.285 -1.4443 -0.6449 -0.8723
 5360SOL     OW27541   4.234   0.667   7.667  0.4221  1.1723 -0.0071
 5360SOL    HW127542   4.223   0.659   7.762  0.1066 -1.1064 -0.2247
 5360SOL    HW227543   4.218   0.761   7.664  0.2831  1.1742  0.8014
 5361SOL     OW27544   2.871   3.332   6.714  0.8362 -0.4356  0.3869
 5361SOL    HW127545   2.812   3.358   6.786  0.6421 -0.7347  0.3336
 5361SOL    HW227546   2.891   3.412   6.666  2.1568 -0.9336  0.1185
 5362SOL     OW27547   2.096   0.079   5.179  0.0004 -0.0113  0.4552
 5362SOL    HW127548   2.000   0.077   5.176 -0.0157 -1.3855  1.6016
 5362SOL    HW227549   2.110   0.152   5.240 -0.5897 -0.2447  0.8780
 5363SOL     OW27550   3.421   2.054   7.951 -0.6390 -0.3720  0.1680
 5363SOL    HW127551   3.333   2.090   7.957 -0.0485  1.6402 -3.3442
 5363SOL    HW227552   3.398   1.965   7.924 -1.4960 -0.0865 -0.0296
 5364SOL     OW27553   2.405   2.639  15.290 -0.6703  0.4188  0.0225
 5364SOL    HW127554   2.387   2.545  15.287  0.3755  0.1891  1.3136
 5364SOL    HW227555   2.456   2.653  15.370  2.5090  3.2096 -2.4699
 5365SOL     OW27556   3.923   2.435   7.808 -0.0047  0.0941  0.1559
 5365SOL    HW127557   3.962   2.450   7.894 -0.8135 -0.7523  0.6642
 5365SOL    HW227558   3.875   2.513   7.780  2.5746  1.1885 -1.2021
 5366SOL     OW27559   0.012   1.217   4.188 -0.1971 -0.1083  0.4218
 5366SOL    HW127560   0.047   1.189   4.273  2.0672  0.9702 -0.1540
 5366SOL    HW227561   4.649   1.175   4.186  0.3906 -1.1680 -2.1303
 5367SOL     OW27562   4.489   4.321   4.315  0.0431  0.0863  0.0795
 5367SOL    HW127563   4.519   4.387   4.253 -0.8034  1.1809  0.8558
 5367SOL    HW227564   4.480   4.238   4.267  0.1855 -0.7984  1.5738
 5368SOL     OW27565   0.097   0.327  15.575  0.3331  0.0080  0.0869
 5368SOL    HW127566   0.105   0.302  15.483  1.0399 -1.2668  0.5091
 5368SOL    HW227567   0.161   0.398  15.582  0.0758  0.0446  2.0892
 5369SOL     OW27568   0.228   3.070   8.934  0.5347 -0.1982  0.8132
 5369SOL    HW127569   0.234   3.076   8.838  0.5139  0.6148  0.8680
 5369SOL    HW227570   0.269   2.983   8.938  1.3853  0.2136  0.9467
 5370SOL     OW27571   3.131   1.551   2.213 -0.5296 -0.1998 -0.0433
 5370SOL    HW127572   3.145   1.646   2.211 -3.5617  0.2502  0.8491
 5370SOL    HW227573   3.204   1.520   2.267 -0.0363  1.1866  0.0880
 5371SOL     OW27574   0.825   3.635   7.653  0.0828  0.1738 -0.6726
 5371SOL    HW127575   0.779   3.575   7.711  2.5370 -0.2630  0.8404
 5371SOL    HW227576   0.814   3.724   7.685 -0.8163  0.4145 -1.6219
 5372SOL     OW27577   2.972   1.531   7.162 -0.0748  0.4268  0.3506
 5372SOL    HW127578   2.927   1.611   7.133  2.7928  1.7449 -0.4011
 5372SOL    HW227579   3.052   1.550   7.210 -0.8250  2.5778  0.7495
 5373SOL     OW27580   2.697   1.452   5.237  0.1326 -0.0848 -0.7343
 5373SOL    HW127581   2.645   1.511   5.291 -0.6926 -2.5369  1.1270
 5373SOL    HW227582   2.756   1.410   5.299 -0.5455 -1.3051 -0.9104
 5374SOL     OW27583   0.347   3.726   8.248 -0.0971 -0.1934 -0.6021
 5374SOL    HW127584   0.420   3.685   8.202  0.2467  1.6043 -1.6412
 5374SOL    HW227585   0.342   3.805   8.195  1.8826  0.2566 -0.1185
 5375SOL     OW27586   2.780   3.606   7.732 -0.0678 -0.7296  0.2871
 5375SOL    HW127587   2.728   3.649   7.800  1.6624 -0.9043  1.7377
 5375SOL    HW227588   2.729   3.625   7.653  0.1689  2.8992  0.9974
 5376SOL     OW27589   3.673   3.690   1.583 -0.3556  0.5230 -0.0206
 5376SOL    HW127590   3.578   3.681   1.596 -0.3062  1.5394  1.0595
 5376SOL    HW227591   3.685   3.761   1.520 -0.5546  1.2292  0.7299
 5377SOL     OW27592   1.783   2.120   4.593 -0.0858  0.6091 -0.2664
 5377SOL    HW127593   1.806   2.101   4.502 -0.1976  0.8812 -0.3518
 5377SOL    HW227594   1.702   2.071   4.607  0.1008  0.1447 -0.8307
 5378SOL     OW27595   1.191   2.971  15.482  0.1444 -0.8338 -0.1692
 5378SOL    HW127596   1.281   2.949  15.459  0.3005  0.3998 -0.7455
 5378SOL    HW227597   1.214   3.021  15.560 -0.1436 -0.0870 -0.5629
 5379SOL     OW27598   0.875   2.094   7.009 -0.2858 -0.0730 -0.3433
 5379SOL    HW127599   0.889   2.044   7.089  3.2779 -1.8274 -2.1094
 5379SOL    HW227600   0.885   2.179   7.052  0.0731  0.7227 -1.9840
 5380SOL     OW27601   0.115   4.675  12.574 -0.1915 -0.4557  0.4648
 5380SOL    HW127602   0.114   0.046  12.556  0.1020 -1.0325 -2.5461
 5380SOL    HW227603   0.050   4.667  12.643 -2.5303  1.8608 -1.4965
 5381SOL     OW27604   0.383   3.772   6.177 -0.0796 -0.4621 -0.7359
 5381SOL    HW127605   0.327   3.836   6.134 -1.0399 -1.3538 -0.8167
 5381SOL    HW227606   0.452   3.766   6.111  1.4689 -1.1767  0.9299
 5382SOL     OW27607   1.183   1.878  16.066 -0.4418 -0.0191 -0.0899
 5382SOL    HW127608   1.095   1.900  16.097 -0.1912  2.4113 -1.0815
 5382SOL    HW227609   1.252   1.923  16.114  0.2519  0.2031 -1.3040
 5383SOL     OW27610   2.256   4.163  17.649  0.3142  0.7643  0.1861
 5383SOL    HW127611   2.342   4.121  17.658 -0.1733 -0.5005 -1.1162
 5383SOL    HW227612   2.281   4.255  17.643  1.6598  0.4967  1.6957
 5384SOL     OW27613   1.123   2.780   1.014 -0.0024  0.3661 -0.0742
 5384SOL    HW127614   1.190   2.835   1.055 -0.2900  1.9700 -1.7696
 5384SOL    HW227615   1.048   2.796   1.072  0.4596 -3.2052  1.5189
 5385SOL     OW27616   3.429   3.218   2.868 -0.5412 -0.4448  0.2270
 5385SOL    HW127617   3.403   3.202   2.777  0.6499  1.3863 -0.4373
 5385SOL    HW227618   3.370   3.292   2.884 -1.4246 -1.6573  2.5003
 5386SOL     OW27619   3.854   1.519  17.597  0.5236  0.6789  0.1860
 5386SOL    HW127620   3.898   1.434  17.599 -0.0137  0.3851 -0.3986
 5386SOL    HW227621   3.896   1.565  17.525  0.0150 -1.1747 -1.3257
 5387SOL     OW27622   0.879   1.050   4.513  0.0594  0.3662 -0.1457
 5387SOL    HW127623   0.822   1.110   4.465  1.6150 -0.1208 -2.5587
 5387SOL    HW227624   0.864   1.073   4.605 -0.0305  0.6512 -0.2314
 5388SOL     OW27625   4.642   0.640   6.145  0.6724 -0.7469 -0.9954
 5388SOL    HW127626   4.605   0.727   6.130 -0.4102 -0.9382  0.5941
 5388SOL    HW227627   4.566   0.582   6.140  0.8327 -1.0593  0.1063
 5389SOL     OW27628   4.532   0.654  10.721  0.0810 -0.0538 -0.5276
 5389SOL    HW127629   4.487   0.726  10.676 -0.8161 -0.2471  0.0510
 5389SOL    HW227630   4.471   0.582  10.736 -0.7941  0.7895 -0.0574
 5390SOL     OW27631   4.542   0.405  16.613 -0.3687 -0.0977  0.8809
 5390SOL    HW127632   4.580   0.470  16.553  0.5539 -0.7950  0.7174
 5390SOL    HW227633   4.617   0.351  16.637  0.4049  0.4903 -0.2108
 5391SOL     OW27634   2.074   3.008   5.600  0.0133  0.1286 -0.2701
 5391SOL    HW127635   2.007   3.064   5.639 -0.2416 -0.0231 -0.4993
 5391SOL    HW227636   2.147   3.041   5.653  0.0502 -1.9307  0.9731
 5392SOL     OW27637   2.744   0.761   4.793  0.1959 -0.3168  0.1906
 5392SOL    HW127638   2.772   0.705   4.865  0.2406  1.5526  1.6096
 5392SOL    HW227639   2.830   0.799   4.772  0.0219  0.8721  1.6285
 5393SOL     OW27640   3.049   2.293   3.826  0.2192 -0.1104 -0.3187
 5393SOL    HW127641   3.062   2.253   3.912  0.2755  2.3574  0.8124
 5393SOL    HW227642   3.122   2.354   3.814 -1.7006  2.5612  1.6373
 5394SOL     OW27643   0.487   0.198   5.550  0.4629  0.0861 -0.2496
 5394SOL    HW127644   0.537   0.130   5.504  2.6299  0.4727  1.4941
 5394SOL    HW227645   0.449   0.252   5.481 -1.3225  0.1312  0.7775
 5395SOL     OW27646   4.505   3.178   2.597 -0.2725 -0.1861 -0.0282
 5395SOL    HW127647   4.529   3.245   2.660  0.8795 -1.6355  1.0957
 5395SOL    HW227648   4.509   3.227   2.515  2.8604  1.3007  1.0256
 5396SOL     OW27649   2.092   3.808   1.343  0.6797 -0.1995  0.0837
 5396SOL    HW127650   1.998   3.806   1.328  0.6838 -0.9481  0.1479
 5396SOL    HW227651   2.092   3.857   1.425  0.3663 -1.4750  0.8453
 5397SOL     OW27652   1.911   4.237   2.423  0.0100  0.2219 -0.2052
 5397SOL    HW127653   1.944   4.273   2.505 -1.5276  1.7942 -0.2729
 5397SOL    HW227654   1.989   4.257   2.372  1.3697 -1.9980  0.9865
 5398SOL     OW27655   0.944   1.277  13.075 -0.4019 -0.4242 -0.0978
 5398SOL    HW127656   0.869   1.329  13.104  0.4257  0.3226  0.7140
 5398SOL    HW227657   0.953   1.218  13.149  3.6434 -2.3989 -2.1682
 5399SOL     OW27658   0.031   4.525   9.026  0.6368  0.1692  0.3634
 5399SOL    HW127659   4.680   4.538   9.085  1.1241  1.4708  0.6977
 5399SOL    HW227660   0.090   4.484   9.089 -2.7670 -2.8288  1.5383
 5400SOL     OW27661   2.154   0.095   9.296  0.1643 -0.3280  0.3004
 5400SOL    HW127662   2.163   0.182   9.257 -3.1663  0.0495  0.3650
 5400SOL    HW227663   2.151   0.025   9.231 -1.2479 -0.2044  0.2398
 5401SOL     OW27664   4.334   0.694   8.128  0.3554  0.3578  0.3103
 5401SOL    HW127665   4.348   0.743   8.210  3.1567 -0.1280  0.1380
 5401SOL    HW227666   4.379   0.749   8.064  3.0987 -0.9291  1.1138
 5402SOL     OW27667   2.997   2.376   6.932  0.6451 -0.3533  0.3232
 5402SOL    HW127668   2.912   2.364   6.976  0.1046  0.2788 -0.5480
 5402SOL    HW227669   3.054   2.388   7.008  0.1336 -0.6885  0.7594
 5403SOL     OW27670   4.149   2.545   4.796 -0.0619 -0.0281 -0.0919
 5403SOL    HW127671   4.118   2.527   4.708  0.5878 -2.1507  0.1145
 5403SOL    HW227672   4.235   2.506   4.783  1.0164  1.4866  2.4023
 5404SOL     OW27673   2.637   3.889   9.663  0.3733 -0.0554  0.3473
 5404SOL    HW127674   2.612   3.906   9.573 -0.7467  0.1991  0.7002
 5404SOL    HW227675   2.694   3.965   9.674  1.0872 -0.5070 -0.3142
 5405SOL     OW27676   1.315   2.949   8.586 -0.9507  0.0710 -0.1963
 5405SOL    HW127677   1.323   3.028   8.532 -1.5478  0.9494  0.9860
 5405SOL    HW227678   1.305   2.985   8.675 -1.6414 -0.2421 -0.1526
 5406SOL     OW27679   0.836   0.982  15.281  0.0922  0.2313 -0.2454
 5406SOL    HW127680   0.905   1.048  15.284  0.7422 -0.4630  0.1073
 5406SOL    HW227681   0.800   1.009  15.197 -3.9777  3.1020  2.3943
 5407SOL     OW27682   4.262   2.276   5.587  0.3507 -0.0579  0.3420
 5407SOL    HW127683   4.334   2.331   5.557 -0.8025  0.2609 -1.8360
 5407SOL    HW227684   4.298   2.251   5.672  0.3346  0.3552  0.4701
 5408SOL     OW27685   2.983   0.965   1.901 -0.3764 -0.1074 -0.1538
 5408SOL    HW127686   3.028   0.900   1.846 -1.0675 -1.6955  1.1603
 5408SOL    HW227687   3.016   1.049   1.869  2.2463 -1.3263 -0.6732
 5409SOL     OW27688   2.964   2.167   8.450  0.5334 -0.2760 -0.1987
 5409SOL    HW127689   2.930   2.140   8.365 -0.4029 -2.6885  0.9257
 5409SOL    HW227690   2.953   2.262   8.443 -2.0546 -0.5873 -0.2361
 5410SOL     OW27691   2.511   4.391  12.447  0.4185  0.2098 -0.1579
 5410SOL    HW127692   2.431   4.353  12.481  0.6514 -0.9310 -0.9016
 5410SOL    HW227693   2.545   4.440  12.522  0.0451  0.7066 -0.3098
 5411SOL     OW27694   0.621   2.414   1.509  0.0371  0.0975 -0.0491
 5411SOL    HW127695   0.687   2.440   1.573 -1.8203 -1.4840  2.5018
 5411SOL    HW227696   0.646   2.474   1.439  0.6153 -0.4020 -0.2633
 5412SOL     OW27697   3.186   0.454   5.199  0.8099 -0.8138  0.3909
 5412SOL    HW127698   3.105   0.403   5.207 -1.7706  2.5819 -3.7781
 5412SOL    HW227699   3.192   0.478   5.106 -1.0413 -1.4016  0.1220
 5413SOL     OW27700   4.666   3.584   7.443  0.1493  0.2515  0.4345
 5413SOL    HW127701   4.688   3.673   7.414 -1.8440  1.1284  1.6083
 5413SOL    HW227702   0.016   3.577   7.505 -0.6629  1.4969  1.5177
 5414SOL     OW27703   4.391   1.842   6.233  0.0512  0.1498 -0.3573
 5414SOL    HW127704   4.343   1.871   6.156 -2.2076 -2.1032  0.2051
 5414SOL    HW227705   4.371   1.749   6.242 -1.1081  0.4898  0.7530
 5415SOL     OW27706   0.381   0.650   6.967 -0.0726 -0.0063  0.0684
 5415SOL    HW127707   0.306   0.591   6.979  0.8785 -1.6222 -1.8042
 5415SOL    HW227708   0.333   0.717   6.918 -2.8720 -1.8781  0.2401
 5416SOL     OW27709   1.797   0.602   6.601  0.6601 -0.6079  0.4782
 5416SOL    HW127710   1.811   0.552   6.681  0.2563 -0.9051  0.3586
 5416SOL    HW227711   1.753   0.535   6.549  0.7760  0.8010 -1.4358
 5417SOL     OW27712   3.277   0.814  10.940 -0.4588 -0.0089  0.7480
 5417SOL    HW127713   3.217   0.755  10.896  0.1772 -0.0663 -0.0334
 5417SOL    HW227714   3.264   0.783  11.029 -3.3767 -0.8026  0.0222
 5418SOL     OW27715   1.225   2.228  14.793  0.0723  0.4253  0.6922
 5418SOL    HW127716   1.277   2.269  14.862 -1.3340  0.9666  1.4260
 5418SOL    HW227717   1.136   2.259  14.810 -0.3523  0.0836 -0.9390
 5419SOL     OW27718   2.225   2.835  15.338  0.7053 -0.4719 -0.9139
 5419SOL    HW127719   2.294   2.782  15.299  1.9697  1.1022 -0.8163
 5419SOL    HW227720   2.246   2.921  15.302  0.1734 -0.0232 -0.1630
 5420SOL     OW27721   4.281   4.283   9.897  0.0612  0.2659 -0.0171
 5420SOL    HW127722   4.354   4.259   9.841  0.7105 -0.9316  1.3377
 5420SOL    HW227723   4.293   4.215   9.963 -1.7788 -0.2107 -0.1843
 5421SOL     OW27724   1.125   3.385  13.114  0.4723  0.8674  0.1769
 5421SOL    HW127725   1.125   3.470  13.158 -1.5566  0.8737  0.1491
 5421SOL    HW227726   1.036   3.389  13.080  0.1269 -0.4137  0.9623
 5422SOL     OW27727   0.087   3.653   7.129  0.6197  0.0559  0.0531
 5422SOL    HW127728   0.030   3.689   7.197 -2.4766  0.5901 -2.8307
 5422SOL    HW227729   0.047   3.566   7.120  0.2860  0.0827  1.2445
 5423SOL     OW27730   4.415   2.625   7.206  0.2239 -0.0043 -0.4806
 5423SOL    HW127731   4.474   2.570   7.155 -1.1593 -1.9890  0.0335
 5423SOL    HW227732   4.357   2.647   7.133 -0.4939 -1.4289 -0.3438
 5424SOL     OW27733   3.420   1.634  14.990  0.5504 -0.2812  0.2267
 5424SOL    HW127734   3.479   1.576  14.941  0.6796  1.1923 -1.3369
 5424SOL    HW227735   3.479   1.660  15.061 -1.4589  0.3548  1.6495
 5425SOL     OW27736   2.291   3.222   2.910 -0.0810  0.0866  0.4687
 5425SOL    HW127737   2.280   3.301   2.856 -2.0117  0.1052  0.8997
 5425SOL    HW227738   2.278   3.156   2.842  1.4443 -0.5960  0.8474
 5426SOL     OW27739   1.521   4.077   3.639  0.0061  0.0697  0.5540
 5426SOL    HW127740   1.511   4.140   3.568 -2.8543 -0.6976  0.2760
 5426SOL    HW227741   1.595   4.117   3.684  0.7834 -0.8170  0.0667
 5427SOL     OW27742   1.772   4.027  17.268 -0.3752  0.6556  0.4217
 5427SOL    HW127743   1.679   4.019  17.245 -0.3567 -1.6549  1.2038
 5427SOL    HW227744   1.756   4.058  17.357 -0.1853  0.0076  0.6741
 5428SOL     OW27745   2.660   1.694   1.832 -0.0195 -0.1539  0.0860
 5428SOL    HW127746   2.658   1.635   1.907  1.3637  0.3467  0.5095
 5428SOL    HW227747   2.643   1.780   1.871  0.2020  0.4808 -1.2319
 5429SOL     OW27748   2.248   0.168   0.683  0.5973  0.7667  0.1435
 5429SOL    HW127749   2.242   0.128   0.596 -1.7713 -0.1535  0.7535
 5429SOL    HW227750   2.315   0.111   0.721  2.2382  2.0950 -0.7417
 5430SOL     OW27751   0.429   2.720   6.561  0.3721 -0.2878 -0.3126
 5430SOL    HW127752   0.427   2.804   6.607 -1.5767 -0.6489  0.2732
 5430SOL    HW227753   0.523   2.709   6.551  0.5278  0.4184  0.3836
 5431SOL     OW27754   0.900   2.292  16.546  0.0779 -0.1575  0.2367
 5431SOL    HW127755   0.933   2.378  16.519 -0.7994 -0.7180 -2.5934
 5431SOL    HW227756   0.821   2.306  16.598  0.2707  1.8063  0.0175
 5432SOL     OW27757   2.008   3.222   0.964 -0.6154  0.5469 -0.6319
 5432SOL    HW127758   2.083   3.242   1.020 -0.9295  1.0594 -0.3912
 5432SOL    HW227759   1.942   3.193   1.027 -2.7221  1.3402 -2.4985
 5433SOL     OW27760   1.742   4.360   8.585  0.5268 -0.4030 -0.1183
 5433SOL    HW127761   1.755   4.305   8.508  0.4440  0.0114 -0.4280
 5433SOL    HW227762   1.649   4.337   8.595  0.3751  1.1626  2.1663
 5434SOL     OW27763   3.933   4.037   3.240 -0.1393 -0.2091  0.0597
 5434SOL    HW127764   3.893   4.058   3.324  0.6289 -0.0746  0.3960
 5434SOL    HW227765   3.864   3.984   3.202  1.2126 -1.8670 -0.0852
 5435SOL     OW27766   3.294   0.972   8.395  0.1250 -0.0441 -0.1318
 5435SOL    HW127767   3.297   0.932   8.308  4.2068 -1.9511  0.9007
 5435SOL    HW227768   3.332   0.896   8.439 -0.7873  0.2179  1.0849
 5436SOL     OW27769   3.816   0.662   0.189  0.2282 -0.7929  0.0490
 5436SOL    HW127770   3.835   0.598   0.257  0.3160 -2.2540 -1.3728
 5436SOL    HW227771   3.723   0.650   0.171 -0.1255 -1.4996  2.3806
 5437SOL     OW27772   0.427   1.835   6.871  0.4320 -0.6140  0.4320
 5437SOL    HW127773   0.368   1.864   6.941 -0.4444 -0.6092 -0.3003
 5437SOL    HW227774   0.491   1.907   6.874  0.2801 -0.5479  2.0328
 5438SOL     OW27775   3.835   3.411  12.062 -0.3178 -0.2299 -0.1716
 5438SOL    HW127776   3.876   3.479  12.007  2.4170 -0.0770  2.0389
 5438SOL    HW227777   3.907   3.348  12.067 -1.0992 -1.0608  0.4070
 5439SOL     OW27778   2.109   3.137   8.305  0.4768  0.3658  0.5728
 5439SOL    HW127779   2.095   3.113   8.397 -1.1173 -0.9340 -0.0035
 5439SOL    HW227780   2.023   3.175   8.288 -0.7126 -1.3483  2.7544
 5440SOL     OW27781   1.511   3.661   2.828  0.3082  0.3248  0.5882
 5440SOL    HW127782   1.444   3.657   2.759  0.7363  0.1531  0.1835
 5440SOL    HW227783   1.556   3.583   2.795 -2.1457 -0.0031 -1.9889
 5441SOL     OW27784   3.558   0.077   3.796 -0.1396  0.3970  0.9461
 5441SOL    HW127785   3.586   4.708   3.796  0.6981  0.6549  1.3653
 5441SOL    HW227786   3.613   0.110   3.726 -1.0595  0.2950  0.1719
 5442SOL     OW27787   3.269   0.453  11.536  0.4955 -0.4666  0.3728
 5442SOL    HW127788   3.306   0.502  11.462 -1.0585 -0.9713 -0.7437
 5442SOL    HW227789   3.233   0.371  11.501 -0.7168  0.2523 -0.0253
 5443SOL     OW27790   1.473   0.043   8.919  0.0577  0.6282 -0.3469
 5443SOL    HW127791   1.552   0.055   8.972 -1.2595  0.8315  1.5502
 5443SOL    HW227792   1.499   4.692   8.865  0.1682  0.1169  0.4131
 5444SOL     OW27793   0.895   3.698   9.821  0.2172  0.0225  0.6293
 5444SOL    HW127794   0.810   3.740   9.832 -1.1924 -2.0417 -2.5958
 5444SOL    HW227795   0.952   3.753   9.876  2.3129 -1.2576 -0.2582
 5445SOL     OW27796   0.164   0.421  14.313  0.0281  0.0657  0.5927
 5445SOL    HW127797   0.099   0.406  14.245 -0.9735  3.8631  0.7059
 5445SOL    HW227798   0.180   0.515  14.306  1.4048 -0.1859  0.2394
 5446SOL     OW27799   4.141   0.451   9.744 -0.2261  0.4662  0.2179
 5446SOL    HW127800   4.132   0.372   9.798  0.1331  0.9578  1.0028
 5446SOL    HW227801   4.224   0.482   9.781  0.5795 -0.4730 -0.7922
 5447SOL     OW27802   0.058   0.726   5.734  0.2308 -0.3337  0.7510
 5447SOL    HW127803   0.033   0.807   5.691  0.3008  0.0563  1.4393
 5447SOL    HW227804   0.132   0.764   5.783 -0.0113 -0.9110  1.5693
 5448SOL     OW27805   0.050   4.386  17.639  0.1456  0.3681 -0.3493
 5448SOL    HW127806   0.142   4.381  17.664  0.1072  0.2637 -0.2278
 5448SOL    HW227807   0.033   4.479  17.625  0.9781  0.7258  1.0351
 5449SOL     OW27808   2.256   0.112  10.652 -0.4812 -0.2964 -0.4279
 5449SOL    HW127809   2.319   0.183  10.666 -0.6255 -0.6263  1.7960
 5449SOL    HW227810   2.301   0.029  10.667 -1.0282 -0.8127 -1.6072
 5450SOL     OW27811   4.128   0.797   3.628 -0.5475  0.4563 -0.4443
 5450SOL    HW127812   4.034   0.804   3.642 -0.4302  2.1173 -0.4640
 5450SOL    HW227813   4.130   0.780   3.533 -0.1720  0.6341 -0.4666
 5451SOL     OW27814   2.174   3.902   5.850  0.2431 -0.3512  0.6097
 5451SOL    HW127815   2.250   3.843   5.853  1.2877  1.0251  1.0331
 5451SOL    HW227816   2.139   3.877   5.764  0.7477  0.0360  0.2910
 5452SOL     OW27817   1.329   0.363   3.301  0.4248 -0.2145  0.3515
 5452SOL    HW127818   1.356   0.450   3.273  0.8213 -1.4805 -3.1288
 5452SOL    HW227819   1.296   0.393   3.386 -0.7091 -1.2337  0.2717
 5453SOL     OW27820   4.551   0.518   3.220 -0.3323 -0.0513 -0.1069
 5453SOL    HW127821   4.525   0.431   3.191 -1.9254  1.3078 -2.8196
 5453SOL    HW227822   4.622   0.490   3.278 -1.8700  2.5811  3.0792
 5454SOL     OW27823   4.243   3.165   7.964  0.2681  0.1488 -0.1297
 5454SOL    HW127824   4.202   3.170   8.050 -0.8493  0.2394 -0.6694
 5454SOL    HW227825   4.313   3.229   7.974 -0.1139  0.4160  0.8139
 5455SOL     OW27826   1.943   1.004  11.719 -0.3782 -0.4590  0.4389
 5455SOL    HW127827   1.954   0.915  11.684  0.7495 -0.1640  0.0674
 5455SOL    HW227828   1.982   0.994  11.805  2.5592  1.1274 -0.6971
 5456SOL     OW27829   4.442   4.667   3.484 -0.3529  0.3555  0.0048
 5456SOL    HW127830   4.383   4.595   3.504 -1.6515  1.3743 -0.1475
 5456SOL    HW227831   4.387   0.014   3.447 -1.7415 -0.3359  0.7813
 5457SOL     OW27832   2.208   0.465  11.963  0.1719  0.2033 -0.7391
 5457SOL    HW127833   2.160   0.468  12.046  2.4268 -1.6985  0.6366
 5457SOL    HW227834   2.285   0.414  11.987 -0.6433 -0.0407  1.3133
 5458SOL     OW27835   0.654   2.923   3.681  0.1614  0.2203  0.1663
 5458SOL    HW127836   0.744   2.955   3.695  0.2452  0.8908 -1.9411
 5458SOL    HW227837   0.638   2.870   3.759  1.2833 -0.4328 -0.0494
 5459SOL     OW27838   4.083   4.401  17.668  0.4831 -1.0346  0.3521
 5459SOL    HW127839   4.167   4.439   0.002 -1.1723  2.0677  1.1594
 5459SOL    HW227840   4.107   4.335  17.603 -0.8429  1.0000 -2.2231
 5460SOL     OW27841   0.296   2.485   6.516 -0.0075  0.1932 -0.5809
 5460SOL    HW127842   0.243   2.496   6.594 -0.9583 -0.9812 -1.0668
 5460SOL    HW227843   0.343   2.568   6.521  0.9311 -0.2632 -1.7535
 5461SOL     OW27844   0.197   4.338   2.079 -0.0930  0.0922 -0.1089
 5461SOL    HW127845   0.275   4.284   2.092  0.0814  0.9621  2.5352
 5461SOL    HW227846   0.219   4.371   1.992  0.2281 -0.6472 -0.3110
 5462SOL     OW27847   3.609   0.534  11.544 -0.3313 -0.1372  0.0068
 5462SOL    HW127848   3.572   0.463  11.597  0.1203  1.0559  1.8967
 5462SOL    HW227849   3.544   0.604  11.551 -0.1868 -0.1176  1.1264
 5463SOL     OW27850   1.721   2.555   3.887 -0.4579  0.6109 -0.5689
 5463SOL    HW127851   1.748   2.464   3.894 -2.7530 -0.0070  0.0469
 5463SOL    HW227852   1.771   2.594   3.815  0.3760  0.4194 -0.0928
 5464SOL     OW27853   4.577   3.887  13.041  0.1963 -0.2426 -0.6309
 5464SOL    HW127854   4.590   3.959  13.103  0.5547 -0.9179  0.0729
 5464SOL    HW227855   4.665   3.885  13.003  0.1673 -2.8151 -0.5078
 5465SOL     OW27856   3.483   3.408   5.090 -0.0608 -0.0343 -0.1448
 5465SOL    HW127857   3.548   3.470   5.122 -1.7018  1.7177 -0.1857
 5465SOL    HW227858   3.416   3.418   5.158 -1.1728  1.0621 -1.4223
 5466SOL     OW27859   3.191   1.094   7.913  0.5166  0.4743 -0.2315
 5466SOL    HW127860   3.246   1.016   7.914 -0.1044  0.0693  1.4853
 5466SOL    HW227861   3.163   1.091   7.821 -1.8815 -0.5747  0.5149
 5467SOL     OW27862   0.787   4.171  16.875 -0.4861 -0.2678 -0.4099
 5467SOL    HW127863   0.877   4.185  16.848 -1.0022  1.9172 -1.0524
 5467SOL    HW227864   0.802   4.177  16.970  0.1876  0.9271 -0.5839
 5468SOL     OW27865   4.119   3.533  13.243  0.3211 -0.6419  0.9046
 5468SOL    HW127866   4.150   3.589  13.172  2.7695 -3.7776 -0.5113
 5468SOL    HW227867   4.192   3.475  13.268  0.2523 -0.1961  2.1330
 5469SOL     OW27868   0.105   2.910   3.276  0.0318 -0.1502 -0.5355
 5469SOL    HW127869   0.178   2.912   3.339  2.0395 -0.1293 -2.8805
 5469SOL    HW227870   0.057   2.831   3.303 -0.2908  0.4144  0.5613
 5470SOL     OW27871   2.573   2.966   6.729  0.0321  0.4872  0.3271
 5470SOL    HW127872   2.602   2.877   6.707 -2.8126 -0.0714 -1.1299
 5470SOL    HW227873   2.479   2.961   6.716  0.1710 -0.0404 -0.4801
 5471SOL     OW27874   4.452   3.483   5.250  0.1243 -0.0003 -0.0168
 5471SOL    HW127875   4.504   3.455   5.326 -1.6230  1.0807  1.5961
 5471SOL    HW227876   4.525   3.525   5.204 -1.7780  1.0873 -2.0316
 5472SOL     OW27877   2.028   2.363  15.897  0.7876 -0.4841  0.3864
 5472SOL    HW127878   2.065   2.443  15.934  1.4017 -1.0844  1.0754
 5472SOL    HW227879   2.105   2.307  15.905  0.5575 -0.5189  2.2665
 5473SOL     OW27880   2.384   2.611   9.873 -0.2369  0.4500  0.1817
 5473SOL    HW127881   2.349   2.663   9.801  0.2706  1.6228  0.7766
 5473SOL    HW227882   2.424   2.681   9.925 -0.4711  1.0897 -0.4970
 5474SOL     OW27883   1.732   1.995   3.840  0.3985  0.1408  0.5889
 5474SOL    HW127884   1.794   1.936   3.884  0.2153 -0.5257 -0.0472
 5474SOL    HW227885   1.706   1.937   3.769  1.2632 -0.0928  0.4585
 5475SOL     OW27886   2.510   3.336  13.291  0.0673 -0.0661 -0.5584
 5475SOL    HW127887   2.431   3.337  13.345  0.5200 -1.1735  0.1214
 5475SOL    HW227888   2.477   3.363  13.205  0.6940 -2.6917 -1.6032
 5476SOL     OW27889   3.546   0.327   8.951  0.5419 -0.3245 -0.1700
 5476SOL    HW127890   3.631   0.369   8.933 -0.0568  0.3895 -1.3359
 5476SOL    HW227891   3.544   0.337   9.046 -1.4178  2.9704 -0.5567
 5477SOL     OW27892   0.998   1.558   7.094  0.4676 -0.5193 -0.1595
 5477SOL    HW127893   0.964   1.512   7.017  0.2107  0.0293 -0.3793
 5477SOL    HW227894   1.070   1.606   7.053  0.4899  0.8942  1.5435
 5478SOL     OW27895   0.668   1.369  11.503  0.1128  0.1148 -0.0795
 5478SOL    HW127896   0.642   1.340  11.416 -0.1237 -3.0214  1.0110
 5478SOL    HW227897   0.716   1.295  11.542  2.4520  0.1558 -2.9509
 5479SOL     OW27898   1.026   2.744   7.253 -0.2636 -1.0360  0.1758
 5479SOL    HW127899   1.008   2.819   7.197  0.7379 -0.4849  0.6012
 5479SOL    HW227900   1.071   2.792   7.322 -1.2908  0.9013 -0.4871
 5480SOL     OW27901   0.959   3.354  11.118 -0.4876  0.3868 -0.0769
 5480SOL    HW127902   1.009   3.431  11.144 -1.2269  0.6904  0.4464
 5480SOL    HW227903   0.884   3.397  11.077 -2.0821 -1.0256  1.3486
 5481SOL     OW27904   1.873   2.168  10.546 -0.3256 -0.4449  0.4630
 5481SOL    HW127905   1.860   2.110  10.621 -2.6673 -0.4937  0.0010
 5481SOL    HW227906   1.800   2.166  10.485  1.3970  1.4899 -1.6575
 5482SOL     OW27907   2.607   1.571   2.069  0.2419  0.3072 -0.2755
 5482SOL    HW127908   2.584   1.663   2.073  0.6285  0.4421 -1.1222
 5482SOL    HW227909   2.528   1.540   2.112  0.4471  0.0493 -0.0837
 5483SOL     OW27910   0.184   2.512   1.104  0.2396 -0.3097 -0.0633
 5483SOL    HW127911   0.122   2.542   1.169  1.2455  1.7273 -0.0585
 5483SOL    HW227912   0.133   2.536   1.026  1.1991 -1.3025 -1.0081
 5484SOL     OW27913   2.528   3.084   1.156 -0.4092  0.2848  0.3198
 5484SOL    HW127914   2.619   3.073   1.186 -0.0533  2.1846 -0.0431
 5484SOL    HW227915   2.493   2.998   1.179 -0.7547  1.6192  4.7632
 5485SOL     OW27916   4.077   3.903  13.735 -0.4241  0.4611  0.4626
 5485SOL    HW127917   4.032   3.898  13.819 -0.3179 -0.1459  0.4857
 5485SOL    HW227918   4.002   3.901  13.675  1.1817  1.2082 -1.5982
 5486SOL     OW27919   2.996   4.408   8.214  0.2245  0.4251 -0.2428
 5486SOL    HW127920   2.958   4.407   8.302  1.9047 -0.6185  0.4763
 5486SOL    HW227921   3.080   4.447   8.239 -0.3489  0.9032  0.9559
 5487SOL     OW27922   4.059   4.097   3.867 -0.0938 -0.3529 -0.1702
 5487SOL    HW127923   4.094   4.008   3.878 -2.1452 -1.3051 -1.3205
 5487SOL    HW227924   3.986   4.095   3.929  0.3971 -0.6150  0.3961
 5488SOL     OW27925   0.732   0.473  15.837 -0.1415 -0.0681 -0.0324
 5488SOL    HW127926   0.818   0.514  15.828 -0.2726 -0.1282 -1.5539
 5488SOL    HW227927   0.703   0.491  15.747 -1.9601  4.8813  1.5469
 5489SOL     OW27928   4.347   4.640   0.978  0.3960 -0.6501 -0.3523
 5489SOL    HW127929   4.306   0.001   1.000 -0.4293 -0.8794 -1.0233
 5489SOL    HW227930   4.300   4.610   0.901 -2.3836  1.0884  0.6912
 5490SOL     OW27931   4.079   3.688   1.968  0.5080  0.0462  0.1347
 5490SOL    HW127932   4.049   3.672   2.057 -3.5624  1.1431 -1.0562
 5490SOL    HW227933   4.013   3.752   1.944  0.4626 -0.2705 -0.6133
 5491SOL     OW27934   3.139   2.583   9.150  0.0931 -0.0285 -0.5569
 5491SOL    HW127935   3.062   2.617   9.105 -0.5776  1.2567  1.5712
 5491SOL    HW227936   3.097   2.528   9.215 -1.7790  1.0380 -0.8796
 5492SOL     OW27937   0.277   0.504   1.480  0.0214  0.1110  0.2723
 5492SOL    HW127938   0.351   0.530   1.426 -0.5152  2.3528  0.6385
 5492SOL    HW227939   0.224   0.438   1.434 -0.2483  1.0009 -0.6913
 5493SOL     OW27940   0.643   1.389  10.684  0.4220 -0.5919  0.0274
 5493SOL    HW127941   0.665   1.384  10.591 -2.2964  3.4191 -0.8603
 5493SOL    HW227942   0.673   1.478  10.702  0.1591 -0.2503 -1.1967
 5494SOL     OW27943   4.477   3.435   6.114 -0.1248 -0.3261 -0.1930
 5494SOL    HW127944   4.433   3.372   6.171 -1.7517  1.3286  0.3739
 5494SOL    HW227945   4.571   3.417   6.125 -0.4303 -1.5925  0.3612
 5495SOL     OW27946   2.741   4.272   6.404 -0.4074  0.1001 -0.1579
 5495SOL    HW127947   2.740   4.244   6.496 -1.8281 -1.0905 -0.5395
 5495SOL    HW227948   2.646   4.267   6.390 -0.5597  0.7247  0.6169
 5496SOL     OW27949   0.639   1.544   3.257 -0.2958  0.6041 -0.2576
 5496SOL    HW127950   0.602   1.541   3.169 -1.9432  0.9487  0.4270
 5496SOL    HW227951   0.553   1.547   3.297 -1.4377 -0.4082 -2.5995
 5497SOL     OW27952   2.352   0.860   4.831 -0.3908 -0.1890 -0.3273
 5497SOL    HW127953   2.292   0.875   4.758  0.0160 -1.6548 -0.9630
 5497SOL    HW227954   2.411   0.797   4.788  1.0892  0.7535  0.3285
 5498SOL     OW27955   4.228   3.373   4.271  0.3326 -0.4571 -0.3068
 5498SOL    HW127956   4.291   3.436   4.306  1.2575 -1.7032  0.2595
 5498SOL    HW227957   4.234   3.385   4.176  1.4172 -0.9117 -0.2904
 5499SOL     OW27958   1.458   1.838   9.648  0.1823 -0.1623 -0.2755
 5499SOL    HW127959   1.442   1.859   9.556 -1.3363  0.3497  0.1132
 5499SOL    HW227960   1.370   1.856   9.681  1.0750  2.8289  0.4833
 5500SOL     OW27961   4.704   0.781   2.826  0.0591  0.3730 -0.2617
 5500SOL    HW127962   4.639   0.795   2.757 -0.3547 -2.1376 -0.3833
 5500SOL    HW227963   0.044   0.721   2.786 -0.4007 -1.3653  1.5949
 5501SOL     OW27964   0.104   3.915   8.951 -0.6167 -0.8151  0.1882
 5501SOL    HW127965   0.031   3.857   8.972  0.4674 -1.2334  2.7252
 5501SOL    HW227966   0.071   3.952   8.868 -0.8755 -1.7683 -0.1307
 5502SOL     OW27967   0.884   3.996  12.013 -0.0313  0.1267 -0.2022
 5502SOL    HW127968   0.846   4.032  12.094  2.5244 -0.0583  1.0711
 5502SOL    HW227969   0.972   4.035  12.014  0.0540 -0.0522 -0.8180
 5503SOL     OW27970   3.724   3.210   2.763 -0.3727 -0.7248  0.6803
 5503SOL    HW127971   3.642   3.206   2.814 -1.5203  0.3238 -1.0958
 5503SOL    HW227972   3.722   3.300   2.732 -1.4750 -0.8617  0.3578
 5504SOL     OW27973   2.220   2.315   4.960 -0.3095 -0.0639  0.1626
 5504SOL    HW127974   2.225   2.229   5.003 -0.4433  1.3294  2.9911
 5504SOL    HW227975   2.247   2.365   5.037 -1.0309  3.5790 -1.9809
 5505SOL     OW27976   3.945   4.186   7.980  0.4842 -0.0512 -0.2039
 5505SOL    HW127977   3.858   4.206   7.946 -0.0923  1.9122  2.4911
 5505SOL    HW227978   3.913   4.174   8.069  1.1226  1.3648  0.2146
 5506SOL     OW27979   2.062   2.215   2.226  0.0662 -0.1589 -0.5689
 5506SOL    HW127980   2.000   2.148   2.252  1.2973 -1.9898 -2.3333
 5506SOL    HW227981   2.009   2.289   2.196 -0.1510  0.0563  0.3548
 5507SOL     OW27982   0.742   0.387   0.991 -0.4789  0.2929 -0.3422
 5507SOL    HW127983   0.836   0.379   0.979 -0.6914 -2.8593  0.1492
 5507SOL    HW227984   0.715   0.317   0.932  1.3065 -2.2323  1.8202
 5508SOL     OW27985   1.019   0.995   3.571 -0.2276 -0.0172  0.2098
 5508SOL    HW127986   0.956   1.008   3.641  0.9030  3.1900  0.6209
 5508SOL    HW227987   1.024   0.901   3.557  0.7182  0.4996 -2.8652
 5509SOL     OW27988   1.338   4.710   7.180  0.3558 -0.2845  0.1914
 5509SOL    HW127989   1.272   4.644   7.160  0.1120  0.3235 -1.0115
 5509SOL    HW227990   1.292   0.051   7.235 -0.8715 -0.8525 -0.1776
 5510SOL     OW27991   1.641   3.670  16.624 -0.0790 -0.0083  0.1772
 5510SOL    HW127992   1.549   3.666  16.651 -0.1235 -0.5944 -0.0631
 5510SOL    HW227993   1.669   3.761  16.635  2.3807 -0.7053 -0.1830
 5511SOL     OW27994   3.345   4.494   4.397  0.4169 -0.2403 -0.4085
 5511SOL    HW127995   3.378   4.479   4.309  0.6351 -0.4018 -0.2992
 5511SOL    HW227996   3.256   4.462   4.386 -0.3786  1.8704 -0.1262
 5512SOL     OW27997   3.499   2.225  14.166 -0.0413 -0.2185 -0.0045
 5512SOL    HW127998   3.490   2.137  14.131 -2.2450 -0.1824  0.4055
 5512SOL    HW227999   3.540   2.196  14.248  2.0788 -1.1439 -1.3970
 5513SOL     OW28000   2.479   3.587   6.495 -0.0899  0.0118 -0.0911
 5513SOL    HW128001   2.400   3.619   6.450 -0.6810 -4.4477 -2.1676
 5513SOL    HW228002   2.531   3.574   6.417 -1.6448 -0.9098 -0.9775
 5514SOL     OW28003   1.011   2.684   3.416  0.0741 -0.1181  0.1529
 5514SOL    HW128004   1.026   2.731   3.498  0.1326 -0.7951  0.5361
 5514SOL    HW228005   0.937   2.628   3.438 -0.1568 -1.7055 -4.6535
 5515SOL     OW28006   0.685   3.951   5.777 -0.1648  0.1682 -0.8838
 5515SOL    HW128007   0.746   4.021   5.801 -2.9313  1.9205  1.0371
 5515SOL    HW228008   0.695   3.962   5.683 -2.7201  1.3981 -0.9962
 5516SOL     OW28009   4.128   2.592   8.263 -0.4305  0.1004  0.5191
 5516SOL    HW128010   4.057   2.635   8.311 -0.1116  0.2327  0.8764
 5516SOL    HW228011   4.133   2.514   8.318 -2.3634 -1.7851 -2.0106
 5517SOL     OW28012   2.572   1.477   8.761 -0.6468  0.2953  0.1834
 5517SOL    HW128013   2.553   1.501   8.671 -0.1589 -1.3610 -0.3673
 5517SOL    HW228014   2.498   1.506   8.815 -1.0598  0.5881 -0.5463
 5518SOL     OW28015   0.232   3.289  11.580  0.1483  0.3579  0.1345
 5518SOL    HW128016   0.256   3.210  11.629  0.9107  0.0793 -0.6770
 5518SOL    HW228017   0.235   3.365  11.637 -2.1142  1.0007 -0.6300
 5519SOL     OW28018   0.864   4.698   6.698  0.1731 -0.0315  0.0116
 5519SOL    HW128019   0.847   4.681   6.791 -0.5198 -1.9601 -0.4774
 5519SOL    HW228020   0.878   4.615   6.654 -3.7365 -0.3236 -0.6486
 5520SOL     OW28021   0.279   1.768   5.227 -0.4339 -0.0438  0.1446
 5520SOL    HW128022   0.292   1.862   5.221  1.9029 -0.4520 -1.0435
 5520SOL    HW228023   0.219   1.757   5.153 -1.7653 -0.7427  1.3094
 5521SOL     OW28024   3.599   2.758  10.059 -0.2275  0.4633  0.3630
 5521SOL    HW128025   3.512   2.796  10.071 -1.9837 -3.4486  0.0561
 5521SOL    HW228026   3.593   2.711   9.976  1.1763  1.2294 -0.1737
 5522SOL     OW28027   1.969   3.322  17.370  0.6636  0.5213  0.4961
 5522SOL    HW128028   1.881   3.331  17.332  1.5763 -1.2922 -2.0529
 5522SOL    HW228029   2.021   3.364  17.301 -0.6917  0.8744 -0.3256
 5523SOL     OW28030   4.162   2.403   2.852 -0.6263 -0.0699  0.1008
 5523SOL    HW128031   4.196   2.447   2.774  2.0994 -1.4583  0.5039
 5523SOL    HW228032   4.241   2.404   2.905  0.3243  0.5497 -1.3243
 5524SOL     OW28033   1.126   1.701  10.081  0.3611  0.0892 -0.4978
 5524SOL    HW128034   1.152   1.610  10.101 -1.0280 -0.1454  0.2367
 5524SOL    HW228035   1.032   1.693  10.098  0.5398  1.6110  1.1697
 5525SOL     OW28036   0.252   3.090   7.994 -1.0038  0.2869  0.5698
 5525SOL    HW128037   0.226   3.048   7.912 -0.2828  1.9545 -0.5097
 5525SOL    HW228038   0.168   3.111   8.034 -0.4503 -1.0957  2.4620
 5526SOL     OW28039   0.213   4.011  12.478 -0.4612 -0.0175 -0.1751
 5526SOL    HW128040   0.167   3.983  12.557 -0.8959 -0.3938 -0.5647
 5526SOL    HW228041   0.275   4.073  12.518  0.2826  0.1753 -1.5986
 5527SOL     OW28042   4.042   0.988   2.119  0.6150  0.4654  0.5412
 5527SOL    HW128043   3.989   0.927   2.171 -0.6570  0.1919 -1.0736
 5527SOL    HW228044   3.983   1.043   2.067 -1.0765 -1.4014  0.4800
 5528SOL     OW28045   2.269   4.507  11.152 -0.1118 -0.0883  0.0184
 5528SOL    HW128046   2.301   4.440  11.213  0.3440  0.1026 -0.0187
 5528SOL    HW228047   2.325   4.577  11.184  0.8433 -0.8672  0.0652
 5529SOL     OW28048   4.263   4.026  11.752 -0.1978  0.5973  0.5416
 5529SOL    HW128049   4.253   3.931  11.740 -4.4201  0.9294  1.5967
 5529SOL    HW228050   4.354   4.034  11.779 -0.2431  2.1137  0.2464
 5530SOL     OW28051   2.397   3.435   8.454 -0.0992  0.1528  0.5138
 5530SOL    HW128052   2.319   3.445   8.400  0.5958  2.9034  0.0131
 5530SOL    HW228053   2.362   3.463   8.539  0.4177  2.0976  0.0776
 5531SOL     OW28054   4.284   0.786   4.300 -0.1664  0.3185  0.0749
 5531SOL    HW128055   4.248   0.697   4.300  2.0844 -0.5913 -0.3848
 5531SOL    HW228056   4.324   0.785   4.213 -1.3804  1.5732 -0.4942
 5532SOL     OW28057   0.447   4.150   7.947 -0.6311  0.0192  0.1191
 5532SOL    HW128058   0.496   4.196   8.016 -1.0981 -0.8448  1.0209
 5532SOL    HW228059   0.505   4.159   7.872 -0.3977  0.3679  0.3406
 5533SOL     OW28060   3.424   4.001   5.214 -0.2357  0.1478  0.4669
 5533SOL    HW128061   3.375   4.072   5.173  0.2782  0.1485 -0.1569
 5533SOL    HW228062   3.515   4.030   5.213 -0.2848  0.3049  0.6730
 5534SOL     OW28063   1.920   4.185  15.032 -0.5350 -0.0534  0.3671
 5534SOL    HW128064   1.928   4.273  15.069  1.1070  0.3696 -1.0128
 5534SOL    HW228065   1.874   4.213  14.953 -1.6623 -1.6699  0.4559
 5535SOL     OW28066   0.499   2.583   4.887 -0.1008  0.5712 -0.2320
 5535SOL    HW128067   0.426   2.621   4.838  0.0498 -0.0951 -0.9736
 5535SOL    HW228068   0.460   2.544   4.965  0.9549 -0.3446 -0.1574
 5536SOL     OW28069   3.522   0.535  13.605 -0.5628 -0.0731 -0.1593
 5536SOL    HW128070   3.437   0.494  13.617 -0.8550  0.1098 -1.5657
 5536SOL    HW228071   3.524   0.606  13.669 -1.6189  0.1051 -0.3269
 5537SOL     OW28072   1.518   1.835  15.320  0.3702  0.0857 -0.3333
 5537SOL    HW128073   1.606   1.871  15.317  0.9252 -1.0127  3.0412
 5537SOL    HW228074   1.520   1.815  15.413 -1.9813 -0.0236 -0.3001
 5538SOL     OW28075   4.170   2.823  13.974 -0.3315 -0.4528  0.5876
 5538SOL    HW128076   4.088   2.850  13.933  0.8170  0.5134 -1.0590
 5538SOL    HW228077   4.227   2.804  13.900  1.2218 -0.4236  1.7721
 5539SOL     OW28078   3.847   0.764   2.778  0.3836  0.4494 -0.0244
 5539SOL    HW128079   3.779   0.802   2.722  0.1170  0.9616  0.6452
 5539SOL    HW228080   3.808   0.676   2.785  0.0269  0.4569 -1.9703
 5540SOL     OW28081   0.516   3.561   3.137 -0.1598  0.5540  0.1585
 5540SOL    HW128082   0.601   3.523   3.114  0.8150  2.5093  0.5144
 5540SOL    HW228083   0.505   3.612   3.058  0.8302  0.5998  0.0532
 5541SOL     OW28084   4.166   3.176   3.091  0.0560 -0.2653  1.1060
 5541SOL    HW128085   4.129   3.161   3.178  0.5569  1.5371  1.6259
 5541SOL    HW228086   4.094   3.181   3.029  0.4786  0.8399  0.7044
 5542SOL     OW28087   2.235   0.505   8.469 -0.1759 -0.3023 -0.6512
 5542SOL    HW128088   2.240   0.523   8.563  0.1862 -0.3078 -0.6684
 5542SOL    HW228089   2.196   0.589   8.445 -0.3483  1.0874  4.4867
 5543SOL     OW28090   0.212   0.082   9.520 -0.2034 -0.0070  1.1236
 5543SOL    HW128091   0.229   0.128   9.603 -1.4155  2.6394 -0.0865
 5543SOL    HW228092   0.272   0.007   9.520 -1.0673 -0.6752 -1.8656
 5544SOL     OW28093   0.272   0.868  17.485  0.0165 -0.2240  0.4268
 5544SOL    HW128094   0.325   0.895  17.410 -2.4271  0.9487 -0.8740
 5544SOL    HW228095   0.239   0.954  17.512 -3.2384 -1.3167 -0.0072
 5545SOL     OW28096   0.590   3.957   7.083 -0.0005  0.2775 -0.0017
 5545SOL    HW128097   0.603   4.037   7.133 -0.0450 -0.0768  0.5831
 5545SOL    HW228098   0.551   3.906   7.154 -1.1596  0.5041 -0.4761
 5546SOL     OW28099   0.862   0.841   2.997  0.1914 -0.1417 -0.5159
 5546SOL    HW128100   0.846   0.887   3.079 -1.1445 -1.1962 -0.1952
 5546SOL    HW228101   0.797   0.883   2.940 -1.0214 -1.4931 -0.1149
 5547SOL     OW28102   0.672   3.571  16.355  0.3002 -0.0186 -0.4034
 5547SOL    HW128103   0.700   3.597  16.267 -0.5482 -0.9760 -0.9656
 5547SOL    HW228104   0.658   3.660  16.387  0.1568 -0.2191  0.0781
 5548SOL     OW28105   3.642   0.457   6.149 -0.3415 -0.3522  0.0686
 5548SOL    HW128106   3.627   0.498   6.234  0.7389 -0.6550  0.3933
 5548SOL    HW228107   3.582   0.507   6.093 -0.1309  0.6822  0.7606
 5549SOL     OW28108   0.404   0.425   6.270  0.3336  0.2624 -0.0991
 5549SOL    HW128109   0.327   0.467   6.310  0.6215 -1.6677  2.4893
 5549SOL    HW228110   0.412   0.480   6.192 -0.5128 -2.5011 -2.1305
 5550SOL     OW28111   2.854   2.869   8.818  0.0334 -0.6185 -0.3426
 5550SOL    HW128112   2.940   2.841   8.788 -0.2559  0.6141 -2.2563
 5550SOL    HW228113   2.836   2.939   8.756  1.4558 -0.7788 -0.9251
 5551SOL     OW28114   4.490   2.673  15.059  0.8660  0.0423 -0.8803
 5551SOL    HW128115   4.430   2.601  15.078  1.7885  0.2113  2.7396
 5551SOL    HW228116   4.533   2.685  15.143  0.9517 -1.1724 -0.7403
 5552SOL     OW28117   0.819   4.691   5.621 -0.3101  0.3538  0.0342
 5552SOL    HW128118   0.787   4.629   5.557  0.3458  0.9228 -0.8399
 5552SOL    HW228119   0.910   4.662   5.632  0.2181  1.5560 -1.1819
 5553SOL     OW28120   1.484   2.604   3.599 -0.0764 -0.1871  0.2464
 5553SOL    HW128121   1.437   2.567   3.674  2.0902 -1.5732  0.9080
 5553SOL    HW228122   1.477   2.698   3.616 -0.2394  0.0080 -0.9202
 5554SOL     OW28123   2.172   0.886   4.630  0.8689  0.5313  0.2700
 5554SOL    HW128124   2.135   0.801   4.605 -3.8561  2.1924  1.5708
 5554SOL    HW228125   2.173   0.923   4.542  0.9805 -1.8203 -0.7113
 5555SOL     OW28126   1.900   0.671   7.646  0.2714 -0.9441 -0.2851
 5555SOL    HW128127   1.903   0.652   7.740  3.4800  0.1567 -0.1642
 5555SOL    HW228128   1.992   0.651   7.631 -0.3995 -2.8124 -1.8133
 5556SOL     OW28129   0.163   0.015   9.239  0.0467 -0.6356 -0.3242
 5556SOL    HW128130   0.177   0.038   9.331  2.7674  0.2936 -0.9408
 5556SOL    HW228131   0.200   4.652   9.222  2.5017  0.3043  0.1522
 5557SOL     OW28132   4.384   4.618   2.907 -0.4354 -0.4861 -0.3204
 5557SOL    HW128133   4.412   4.592   2.819 -1.4820 -1.1990 -0.4438
 5557SOL    HW228134   4.298   4.656   2.886 -0.0947  0.8426  0.7310
 5558SOL     OW28135   0.416   3.593   8.928 -0.0607 -0.1511  0.3888
 5558SOL    HW128136   0.397   3.501   8.942 -2.2068  0.8148  3.6232
 5558SOL    HW228137   0.479   3.598   8.856 -0.4957 -2.1904 -0.1302
 5559SOL     OW28138   2.780   2.573   8.485 -0.1486  0.4243  0.3718
 5559SOL    HW128139   2.794   2.540   8.396  0.1599  0.9478  0.2254
 5559SOL    HW228140   2.849   2.640   8.483  1.3512 -1.1241 -0.1018
 5560SOL     OW28141   4.597   1.068  14.609  0.3074 -0.1283  0.2500
 5560SOL    HW128142   4.681   1.061  14.653  1.2114 -0.9758 -1.6109
 5560SOL    HW228143   4.553   0.997  14.655  1.9877 -0.6713  1.0210
 5561SOL     OW28144   0.160   2.192   3.994  0.0854  0.1634  0.7502
 5561SOL    HW128145   0.108   2.157   3.922  0.1660  0.4020  0.5773
 5561SOL    HW228146   0.178   2.112   4.043  1.4605  0.1087  0.1593
 5562SOL     OW28147   2.128   1.588   4.331  0.8667 -0.3775 -0.9064
 5562SOL    HW128148   2.044   1.594   4.286  1.5249 -0.8294 -2.2071
 5562SOL    HW228149   2.174   1.519   4.283  1.4501 -0.5739 -0.0609
 5563SOL     OW28150   1.223   2.545   3.338  0.0017  0.6544  0.2101
 5563SOL    HW128151   1.146   2.602   3.336  0.1510  0.8908  1.0666
 5563SOL    HW228152   1.286   2.607   3.376 -1.4996  1.7587  0.8750
 5564SOL     OW28153   1.508   1.895   3.032  0.0004 -0.4192 -0.2739
 5564SOL    HW128154   1.558   1.826   2.990  1.9085  1.0049 -0.3588
 5564SOL    HW228155   1.446   1.849   3.089  0.6192 -2.7452 -1.5069
 5565SOL     OW28156   1.494   3.513   4.026 -0.5187 -0.1530 -0.4916
 5565SOL    HW128157   1.532   3.434   4.065  1.3761  0.3534 -1.3371
 5565SOL    HW228158   1.503   3.502   3.931  0.0355  0.1458 -0.4717
 5566SOL     OW28159   2.637   2.177   7.862 -0.2652  0.1792 -0.2885
 5566SOL    HW128160   2.685   2.095   7.872 -2.4202 -0.9563  1.0150
 5566SOL    HW228161   2.701   2.244   7.888 -1.1181  0.9799 -0.2340
 5567SOL     OW28162   0.404   4.406   2.858 -0.3547  0.4268  0.1148
 5567SOL    HW128163   0.323   4.355   2.854  0.4066 -0.9001  1.5381
 5567SOL    HW228164   0.381   4.465   2.930  1.1211 -0.4061  1.2812
 5568SOL     OW28165   0.645   2.695   2.133  0.1375 -0.0081  0.1134
 5568SOL    HW128166   0.689   2.746   2.201  1.9420  0.2999 -1.2788
 5568SOL    HW228167   0.552   2.714   2.124  0.5986  2.7738  1.2790
 5569SOL     OW28168   2.896   1.455  16.963 -0.3301  0.2697  0.2639
 5569SOL    HW128169   2.963   1.439  17.030  1.1226  1.1995 -0.9549
 5569SOL    HW228170   2.931   1.400  16.892  2.5302 -0.3084  2.1435
 5570SOL     OW28171   1.981   1.527   2.752 -0.5633  0.0777 -0.2807
 5570SOL    HW128172   1.969   1.433   2.761 -2.5584  0.2735 -0.7432
 5570SOL    HW228173   1.996   1.564   2.839 -3.2364 -0.8072  0.5576
 5571SOL     OW28174   0.304   3.029   4.667 -0.0879 -0.3879  0.7916
 5571SOL    HW128175   0.252   2.995   4.740 -3.1982  0.2442 -1.0893
 5571SOL    HW228176   0.256   2.998   4.590 -0.9767  0.8215  0.8470
 5572SOL     OW28177   4.150   1.395  10.538  0.2092 -0.3023 -0.6234
 5572SOL    HW128178   4.230   1.397  10.591 -0.8123  0.3585  0.8845
 5572SOL    HW228179   4.121   1.486  10.528 -0.1221 -0.5860 -2.2586
 5573SOL     OW28180   0.977   3.212   3.566 -0.3065 -0.0685  0.1427
 5573SOL    HW128181   0.976   3.292   3.618 -1.7370 -0.3875  0.6055
 5573SOL    HW228182   0.939   3.148   3.625 -1.2588 -0.3543 -0.7830
 5574SOL     OW28183   0.685   1.478   4.546  0.0228  0.1945 -0.1748
 5574SOL    HW128184   0.724   1.557   4.583 -0.9362 -0.6728  2.6911
 5574SOL    HW228185   0.648   1.459   4.633 -1.0267 -0.8743 -0.8691
 5575SOL     OW28186   3.901   2.397   7.413  0.6570 -0.0141  0.2354
 5575SOL    HW128187   3.877   2.311   7.378  0.3146  0.0844  0.2300
 5575SOL    HW228188   3.967   2.377   7.479  1.6794 -0.2424 -0.8404
 5576SOL     OW28189   2.343   3.261   3.418  0.5502  0.5601  0.3747
 5576SOL    HW128190   2.266   3.309   3.387 -0.3366  0.8061  2.9809
 5576SOL    HW228191   2.360   3.215   3.335  0.2102  0.7971  0.1738
 5577SOL     OW28192   3.050   0.154   6.701  0.7870  0.0162  0.5142
 5577SOL    HW128193   3.096   0.092   6.758  0.1065 -2.0135 -1.1365
 5577SOL    HW228194   3.019   0.214   6.768 -0.0915 -0.1412  0.2468
 5578SOL     OW28195   0.287   0.607   3.078 -0.2611  0.2095  0.8383
 5578SOL    HW128196   0.223   0.536   3.077 -1.7393  1.5795 -0.2285
 5578SOL    HW228197   0.336   0.596   3.160  0.6594  0.5675  0.3370
 5579SOL     OW28198   3.545   0.151   8.182  0.9169  0.0146 -0.5989
 5579SOL    HW128199   3.496   0.134   8.263  0.5076 -1.6464 -1.1876
 5579SOL    HW228200   3.627   0.194   8.207  0.0366  1.1433  0.3475
 5580SOL     OW28201   1.965   1.762  13.792 -0.1431 -0.3027  1.0001
 5580SOL    HW128202   2.036   1.772  13.856  0.8019 -0.5394 -0.0162
 5580SOL    HW228203   1.893   1.737  13.850  0.1719 -2.4568  0.4806
 5581SOL     OW28204   1.882   0.508   4.731 -0.3091 -0.4957  0.0625
 5581SOL    HW128205   1.899   0.425   4.776 -1.4948 -0.6707  0.1760
 5581SOL    HW228206   1.859   0.558   4.809  0.8755 -1.1645  0.8455
 5582SOL     OW28207   1.991   0.596  11.647  0.1016 -0.3974 -0.1913
 5582SOL    HW128208   1.933   0.608  11.572 -1.8990 -1.9281  1.0881
 5582SOL    HW228209   1.936   0.618  11.722 -0.1730 -2.7720  0.3273
 5583SOL     OW28210   2.708   0.755   5.848  0.4029 -0.4324  0.3073
 5583SOL    HW128211   2.656   0.783   5.924 -0.1117  0.0994 -0.2453
 5583SOL    HW228212   2.794   0.776   5.885 -0.2580  0.1522  1.5288
 5584SOL     OW28213   3.641   1.766   9.187  0.0311  0.3703 -0.3176
 5584SOL    HW128214   3.671   1.835   9.246 -0.6749  0.0829  0.3760
 5584SOL    HW228215   3.600   1.818   9.119  3.3063  0.3202 -2.3348
 5585SOL     OW28216   1.958   0.614   5.901  0.1281 -0.4086 -0.3005
 5585SOL    HW128217   1.893   0.683   5.914 -0.6148 -1.4151  1.3536
 5585SOL    HW228218   2.019   0.624   5.974 -0.1129  0.3525 -0.2045
 5586SOL     OW28219   2.664   4.377   2.875  0.6116 -0.2171 -0.1698
 5586SOL    HW128220   2.596   4.367   2.808 -0.1706 -0.1707  0.6088
 5586SOL    HW228221   2.741   4.370   2.819 -0.8577 -3.5224 -1.7827
 5587SOL     OW28222   3.308   1.499  15.720  0.0692  0.4659  0.7204
 5587SOL    HW128223   3.313   1.451  15.637 -1.3523 -0.5119  1.2000
 5587SOL    HW228224   3.239   1.450  15.765 -0.0697  0.1612  0.1805
 5588SOL     OW28225   0.071   3.307   0.403  0.7819  0.2880  0.3574
 5588SOL    HW128226   0.012   3.318   0.329  2.6435  2.1446 -0.8479
 5588SOL    HW228227   0.104   3.396   0.419  0.4044  0.3330  0.8982
 5589SOL     OW28228   2.474   2.820   8.851  0.1746 -0.1225  0.1603
 5589SOL    HW128229   2.504   2.772   8.774 -0.0712  2.3699 -1.4972
 5589SOL    HW228230   2.522   2.778   8.922 -0.6984 -2.9048 -0.8964
 5590SOL     OW28231   2.815   0.982   6.867  0.3779  0.4021  0.2454
 5590SOL    HW128232   2.762   0.902   6.868  2.0938 -0.7321  0.2778
 5590SOL    HW228233   2.746   1.047   6.850 -0.6000 -0.4640  0.9111
 5591SOL     OW28234   2.990   1.570   4.261  0.1665  0.0564  0.4409
 5591SOL    HW128235   2.982   1.492   4.207  2.7250  0.5760 -0.6979
 5591SOL    HW228236   2.939   1.549   4.339  0.0049  0.6333  0.4905
 5592SOL     OW28237   2.416   4.541  17.329  0.1451 -0.0622 -0.3168
 5592SOL    HW128238   2.416   4.446  17.324 -1.2828  0.0187 -1.7460
 5592SOL    HW228239   2.384   4.561  17.417  2.4778  0.2528  0.4662
 5593SOL     OW28240   1.792   1.675   4.938  0.2675 -1.0644  0.5753
 5593SOL    HW128241   1.782   1.646   5.028  0.1170  1.1026  1.2381
 5593SOL    HW228242   1.884   1.702   4.942  1.0086 -3.4851  0.4019
 5594SOL     OW28243   0.535   4.490   9.133  0.5267 -0.2679  0.5032
 5594SOL    HW128244   0.543   4.469   9.226  2.1786 -2.2293 -0.0819
 5594SOL    HW228245   0.456   4.545   9.124  0.9785  0.1161 -1.0211
 5595SOL     OW28246   3.715   2.622   3.257 -0.0024 -0.5987 -1.1670
 5595SOL    HW128247   3.712   2.563   3.181  1.3145 -0.0382 -1.6587
 5595SOL    HW228248   3.647   2.586   3.315  1.8750 -0.1348  1.3090
 5596SOL     OW28249   0.517   2.625   9.075  0.2631 -0.1614  0.5724
 5596SOL    HW128250   0.566   2.587   9.148 -1.1703 -1.6207  0.7928
 5596SOL    HW228251   0.531   2.559   9.007  1.7380 -0.3597  1.0819
 5597SOL     OW28252   2.286   0.300  16.505  0.8898 -0.0542  0.3231
 5597SOL    HW128253   2.216   0.314  16.442  0.4920 -1.7659  0.3749
 5597SOL    HW228254   2.245   0.332  16.586 -0.3201 -0.4231 -0.1440
 5598SOL     OW28255   3.075   3.736  13.170 -0.1444 -0.6175  0.4274
 5598SOL    HW128256   3.151   3.678  13.177 -0.6322 -1.0271  2.3753
 5598SOL    HW228257   3.099   3.803  13.234  1.9244 -0.1765 -0.8032
 5599SOL     OW28258   1.506   1.891  11.130 -0.0760  0.3101  0.5902
 5599SOL    HW128259   1.432   1.910  11.072  0.0412  1.3999  0.7920
 5599SOL    HW228260   1.491   1.805  11.170  1.2251  0.1924  0.8020
 5600SOL     OW28261   0.277   2.019  17.139  0.3547  0.7793 -0.6465
 5600SOL    HW128262   0.194   1.974  17.155  0.4510  0.9367  0.2703
 5600SOL    HW228263   0.330   1.993  17.215  0.6213 -0.3473 -1.2124
 5601SOL     OW28264   4.682   2.288   3.545 -0.3717 -0.1369 -0.3837
 5601SOL    HW128265   4.706   2.244   3.626 -0.5977  1.4018  0.5286
 5601SOL    HW228266   4.588   2.280   3.564 -0.1055 -1.7653  0.2550
 5602SOL     OW28267   1.282   4.181  11.261  0.1128 -0.0051 -0.3108
 5602SOL    HW128268   1.371   4.188  11.227  0.1887  2.6457  0.4514
 5602SOL    HW228269   1.248   4.259  11.218  0.6432  0.5681  0.3219
 5603SOL     OW28270   3.930   4.032  10.928  0.3140 -0.4871  0.8291
 5603SOL    HW128271   3.867   4.002  10.862  1.3906  0.6317 -0.7096
 5603SOL    HW228272   3.988   3.956  10.931 -0.7418 -1.3706 -1.0350
 5604SOL     OW28273   1.682   1.167   7.051 -0.2736 -0.2337 -0.4822
 5604SOL    HW128274   1.771   1.154   7.083 -0.8886 -1.5403  0.6560
 5604SOL    HW228275   1.703   1.206   6.965 -0.1480  1.5636  0.3583
 5605SOL     OW28276   3.719   1.621   8.886  0.3724  0.8825 -0.0268
 5605SOL    HW128277   3.681   1.589   8.968 -0.9854  0.0471 -0.9708
 5605SOL    HW228278   3.686   1.711   8.889 -0.6385  0.5742 -1.8314
 5606SOL     OW28279   3.146   2.187   7.761  0.1916 -0.0956 -0.1740
 5606SOL    HW128280   3.142   2.228   7.847  0.9933 -2.7550  1.1209
 5606SOL    HW228281   3.081   2.118   7.773 -0.0955 -0.1100 -1.6982
 5607SOL     OW28282   3.509   1.521   1.258  0.3753  0.0303 -0.1257
 5607SOL    HW128283   3.419   1.521   1.226  0.1988 -1.7457  0.3574
 5607SOL    HW228284   3.532   1.607   1.224  2.3401  0.6888  2.9086
 5608SOL     OW28285   0.147   1.632   8.494 -0.3082  0.1730  0.6422
 5608SOL    HW128286   0.197   1.615   8.574 -0.7459 -3.2362  0.1533
 5608SOL    HW228287   0.184   1.715   8.461 -0.3823  0.6374  1.7252
 5609SOL     OW28288   4.677   3.363  12.378  0.1688 -0.6613  0.2990
 5609SOL    HW128289   0.017   3.426  12.343  1.3785 -1.0479  1.7954
 5609SOL    HW228290   4.634   3.335  12.296  3.5156  0.3829 -1.7910
 5610SOL     OW28291   2.528   4.681   9.506  0.4654 -0.0528 -0.0690
 5610SOL    HW128292   2.443   4.654   9.471 -0.7077  1.9847  1.1852
 5610SOL    HW228293   2.577   4.655   9.429  2.1868  1.6886  0.4357
 5611SOL     OW28294   2.575   3.818  13.462 -0.5250  0.0724 -0.3926
 5611SOL    HW128295   2.528   3.779  13.388 -0.0273 -0.0812 -0.6293
 5611SOL    HW228296   2.652   3.760  13.463 -0.7600 -0.1768  2.7210
 5612SOL     OW28297   1.764   2.383   6.200  0.2532 -0.4059  0.2661
 5612SOL    HW128298   1.799   2.467   6.231 -0.4209  0.2442 -0.7188
 5612SOL    HW228299   1.674   2.406   6.178  0.6038  1.1070  0.3944
 5613SOL     OW28300   1.626   3.987   7.214  0.1693 -0.0550 -0.2784
 5613SOL    HW128301   1.682   3.927   7.263  1.3458 -0.6842 -2.4090
 5613SOL    HW228302   1.574   4.007   7.293 -0.2461 -0.4916 -0.4356
 5614SOL     OW28303   4.429   1.596   0.737 -0.5942  0.4594  0.0325
 5614SOL    HW128304   4.467   1.659   0.675  1.8506  0.0389  1.1161
 5614SOL    HW228305   4.354   1.649   0.761 -0.6055 -0.0499  1.1235
 5615SOL     OW28306   3.482   1.914   3.346 -0.0762 -0.2764 -0.8162
 5615SOL    HW128307   3.559   1.921   3.289 -1.3939 -2.3577 -2.8221
 5615SOL    HW228308   3.418   1.980   3.320  1.1489  2.0753  2.0535
 5616SOL     OW28309   3.535   4.128   4.749  0.4718 -0.4253  0.1830
 5616SOL    HW128310   3.477   4.082   4.809 -0.7503  0.9199  0.0222
 5616SOL    HW228311   3.611   4.144   4.804  1.0013  0.9932 -0.9690
 5617SOL     OW28312   4.153   0.533   8.254 -0.1526 -0.0627 -0.2677
 5617SOL    HW128313   4.195   0.549   8.339  0.0762  0.2719 -0.4425
 5617SOL    HW228314   4.222   0.574   8.201  0.2794  0.8703  1.0207
 5618SOL     OW28315   3.681   2.383  11.843  0.3524 -0.0327 -0.0182
 5618SOL    HW128316   3.688   2.301  11.892 -2.2216 -1.1459 -1.5572
 5618SOL    HW228317   3.704   2.448  11.910  0.6481  0.0407 -0.1884
 5619SOL     OW28318   2.967   1.935  15.017  0.4067  0.1194  0.6160
 5619SOL    HW128319   3.028   2.001  14.986  0.6115 -0.3228  0.0855
 5619SOL    HW228320   3.001   1.918  15.105 -1.2668 -0.4194  1.1804
 5620SOL     OW28321   2.986   2.751   8.476 -0.0377  0.8755  0.5724
 5620SOL    HW128322   3.013   2.756   8.567 -1.7132 -2.8749  1.2665
 5620SOL    HW228323   2.996   2.841   8.445 -1.7696  0.6502 -0.6354
 5621SOL     OW28324   1.969   2.796  17.063  0.0958  0.3279 -0.3653
 5621SOL    HW128325   1.905   2.843  17.118  1.1475  0.6372  0.5964
 5621SOL    HW228326   2.036   2.864  17.056  0.4873 -0.0746 -0.4664
 5622SOL     OW28327   3.953   2.591   5.724 -0.1169 -0.3685 -0.1745
 5622SOL    HW128328   4.038   2.562   5.755 -0.2476 -1.3790 -0.7440
 5622SOL    HW228329   3.920   2.646   5.795 -0.8649 -3.2357  1.7104
 5623SOL     OW28330   4.677   2.282   9.099 -0.2650  0.1323  0.2597
 5623SOL    HW128331   4.720   2.347   9.155 -0.0582  0.7236 -0.5939
 5623SOL    HW228332   4.619   2.335   9.045 -2.2244 -1.2402  1.0131
 5624SOL     OW28333   0.494   2.505   6.239  0.1781 -0.2155  0.1422
 5624SOL    HW128334   0.436   2.460   6.300  1.4351 -1.1454  0.6542
 5624SOL    HW228335   0.472   2.460   6.158 -0.3274  0.9165 -0.3557
 5625SOL     OW28336   2.059   2.986   4.355 -0.2891  0.5921  0.7117
 5625SOL    HW128337   2.020   2.905   4.388  0.7806 -0.1539  0.1663
 5625SOL    HW228338   1.996   3.005   4.286 -0.6359 -1.9743  0.3083
 5626SOL     OW28339   1.695   2.464   0.100 -0.2176  0.1910  0.0272
 5626SOL    HW128340   1.657   2.421   0.176 -0.9646  0.9112  0.0575
 5626SOL    HW228341   1.786   2.487   0.118  0.2285 -2.2764  0.9045
 5627SOL     OW28342   1.997   2.931   7.638 -0.4080  0.1768  0.5566
 5627SOL    HW128343   1.939   2.855   7.633 -1.4858  1.0820 -0.5736
 5627SOL    HW228344   2.055   2.907   7.566 -0.9040  1.8920 -0.4017
 5628SOL     OW28345   1.281   0.778  16.871 -0.2351  0.0897 -0.4733
 5628SOL    HW128346   1.343   0.757  16.801  1.4580 -1.4229  1.4976
 5628SOL    HW228347   1.305   0.715  16.939  0.6184  0.0389 -0.8180
 5629SOL     OW28348   3.450   4.495  15.941  0.1595  0.1208  0.2849
 5629SOL    HW128349   3.534   4.491  15.987  0.9129 -2.0074 -1.2999
 5629SOL    HW228350   3.471   4.519  15.851 -3.7789 -3.2045 -1.4835
 5630SOL     OW28351   4.444   2.445   8.929  0.1635 -0.1683 -0.3166
 5630SOL    HW128352   4.387   2.493   8.989  0.8205  2.3709 -1.7252
 5630SOL    HW228353   4.394   2.421   8.852 -0.5748  0.2645  0.0280
 5631SOL     OW28354   0.456   4.639   9.741 -0.3551 -0.1192 -0.0520
 5631SOL    HW128355   0.398   4.563   9.735  1.3515 -1.3996 -0.0464
 5631SOL    HW228356   0.446   4.666   9.650  0.4080 -1.3652 -0.5064
 5632SOL     OW28357   2.888   2.394   3.611 -1.0144  0.0181  0.7935
 5632SOL    HW128358   2.952   2.339   3.656  1.9211  2.2571 -0.7172
 5632SOL    HW228359   2.807   2.365   3.653 -0.6808  0.0105  1.4248
 5633SOL     OW28360   1.806   2.017   1.729  0.2027  0.2666  0.4886
 5633SOL    HW128361   1.730   2.060   1.769 -1.2507  0.6766 -2.6489
 5633SOL    HW228362   1.798   2.037   1.636 -0.4898 -0.0011  0.4838
 5634SOL     OW28363   1.017   3.987   1.319  0.3363  0.1193 -0.3131
 5634SOL    HW128364   0.975   4.044   1.255  0.5184  1.3644  0.6654
 5634SOL    HW228365   1.044   3.908   1.273  0.4548  0.0657 -0.1516
 5635SOL     OW28366   2.309   1.631  14.276 -0.2280 -0.2589 -0.1022
 5635SOL    HW128367   2.237   1.667  14.328  0.8040 -0.4231  1.4481
 5635SOL    HW228368   2.376   1.694  14.302  0.5622 -0.3432 -1.9314
 5636SOL     OW28369   0.249   3.167   7.141  0.0042 -0.1311 -0.1353
 5636SOL    HW128370   0.222   3.230   7.073  2.0307  1.7420  0.7973
 5636SOL    HW228371   0.176   3.108   7.156 -0.8871  1.6054  2.3481
 5637SOL     OW28372   4.002   2.207   2.983  0.2362 -0.1781 -0.2745
 5637SOL    HW128373   4.054   2.267   2.930 -0.4818  0.6197 -0.0860
 5637SOL    HW228374   4.054   2.202   3.063  1.4730 -0.7741 -1.1324
 5638SOL     OW28375   4.643   0.403  14.507  0.7096  0.1689 -1.0213
 5638SOL    HW128376   4.672   0.401  14.598  1.1653  0.2526 -1.1641
 5638SOL    HW228377   4.716   0.435  14.454  2.4561 -1.5370  0.3368
 5639SOL     OW28378   3.474   2.802   7.053 -0.3049 -0.4221  0.4416
 5639SOL    HW128379   3.545   2.862   7.079  0.5372 -0.1842 -2.4389
 5639SOL    HW228380   3.406   2.867   7.036 -0.6983 -0.8309  0.4734
 5640SOL     OW28381   3.274   4.565   8.798 -0.1353  0.2274  0.3111
 5640SOL    HW128382   3.201   4.584   8.738 -1.4068 -2.4404  1.0426
 5640SOL    HW228383   3.297   4.475   8.779 -0.3105  0.5688 -1.5801
 5641SOL     OW28384   1.780   2.673  17.428  0.2331 -0.1303  0.0669
 5641SOL    HW128385   1.726   2.729  17.483  2.2380  1.6687  0.2337
 5641SOL    HW228386   1.718   2.617  17.382  1.3210 -2.0233  0.8888
 5642SOL     OW28387   0.025   3.880   1.013 -0.0396  0.8065  0.7547
 5642SOL    HW128388   0.045   3.812   0.949 -2.7745  1.3551 -0.6878
 5642SOL    HW228389   4.671   3.846   1.059  3.4866 -4.4973  2.6378
 5643SOL     OW28390   1.712   4.209   3.227 -0.1311  0.5768 -0.4691
 5643SOL    HW128391   1.693   4.218   3.134  2.8068 -0.6260 -1.1910
 5643SOL    HW228392   1.692   4.118   3.249 -2.8899  1.3439  0.1752
 5644SOL     OW28393   3.251   3.710   5.650 -0.4785 -0.0934  0.0868
 5644SOL    HW128394   3.166   3.746   5.624  0.8463  3.2699  0.2954
 5644SOL    HW228395   3.298   3.722   5.567  0.5513 -2.3945  0.3410
 5645SOL     OW28396   0.388   0.219   1.430  0.1121  0.2261  0.4439
 5645SOL    HW128397   0.318   0.267   1.386 -0.5457 -0.0070  1.2497
 5645SOL    HW228398   0.399   0.144   1.371 -2.6676 -0.4045  0.7273
 5646SOL     OW28399   3.163   1.821   5.906 -0.4444  0.4128 -0.1723
 5646SOL    HW128400   3.235   1.832   5.969  0.3515 -0.9337 -0.8411
 5646SOL    HW228401   3.124   1.739   5.935 -0.0139  0.4569  0.5274
 5647SOL     OW28402   4.041   2.816   6.987 -0.1207 -0.0555 -0.0915
 5647SOL    HW128403   4.071   2.744   6.931 -1.0671  0.0808 -0.7687
 5647SOL    HW228404   3.956   2.832   6.947 -0.7870 -0.2007  1.2662
 5648SOL     OW28405   3.682   4.486   6.002 -0.3854  0.6965 -0.0339
 5648SOL    HW128406   3.719   4.569   5.973  1.2992  1.0946  3.1966
 5648SOL    HW228407   3.598   4.485   5.955 -0.6547 -0.2127  0.4641
 5649SOL     OW28408   4.683   3.151   0.753  0.1139  0.3244  0.1600
 5649SOL    HW128409   4.618   3.203   0.801 -0.1242  1.4784 -1.3885
 5649SOL    HW228410   4.675   3.184   0.663 -0.0147  0.6946  0.3063
 5650SOL     OW28411   0.391   2.831  11.423 -0.1624  0.2562 -0.0474
 5650SOL    HW128412   0.440   2.806  11.502  0.3361 -3.0815 -1.4012
 5650SOL    HW228413   0.370   2.745  11.384  2.2772 -0.3213 -0.0763
 5651SOL     OW28414   3.758   2.605   3.594  0.0442 -0.3416 -0.1130
 5651SOL    HW128415   3.746   2.520   3.551 -0.4417 -0.3402  0.0103
 5651SOL    HW228416   3.722   2.577   3.678  0.0189 -0.2177 -0.0824
 5652SOL     OW28417   4.344   1.058   7.244 -0.4175 -0.2888  0.9278
 5652SOL    HW128418   4.262   1.072   7.291 -1.8551  2.2524 -2.3393
 5652SOL    HW228419   4.388   0.995   7.301 -0.3540 -0.6952  0.4310
 5653SOL     OW28420   4.173   3.202  13.541 -0.3801 -0.0303  0.3141
 5653SOL    HW128421   4.229   3.248  13.479 -2.4972  1.0288 -0.8292
 5653SOL    HW228422   4.086   3.230  13.511 -0.1489  0.2552 -0.0961
 5654SOL     OW28423   1.529   0.905  12.226 -0.3123  0.5768  0.5889
 5654SOL    HW128424   1.456   0.965  12.245 -1.3149 -0.0786 -1.2741
 5654SOL    HW228425   1.497   0.822  12.261 -1.8465  0.3475 -1.3847
 5655SOL     OW28426   0.273   3.728   1.684 -0.6063  0.0797 -0.2446
 5655SOL    HW128427   0.227   3.793   1.630  1.9553  2.3580  0.2708
 5655SOL    HW228428   0.277   3.647   1.634  0.5341  0.5841 -0.9812
 5656SOL     OW28429   0.448   2.867  12.319 -0.2735  0.3559 -0.5703
 5656SOL    HW128430   0.376   2.820  12.360 -0.3868  0.8583 -0.1896
 5656SOL    HW228431   0.473   2.942  12.375  0.0378  0.6761 -1.1411
 5657SOL     OW28432   1.243   2.269   6.755 -0.2516 -0.3257  0.4825
 5657SOL    HW128433   1.205   2.324   6.824  0.8142 -0.3720  1.0975
 5657SOL    HW228434   1.166   2.252   6.701  3.2000 -0.0593 -4.4762
 5658SOL     OW28435   3.945   1.254   7.498 -0.3510 -0.3300 -0.0458
 5658SOL    HW128436   3.924   1.347   7.495  0.8872 -0.0494  0.0124
 5658SOL    HW228437   3.913   1.220   7.582 -2.6149  2.2483  0.1224
 5659SOL     OW28438   2.398   3.635  12.640  0.3360 -0.4934  0.1716
 5659SOL    HW128439   2.452   3.563  12.671 -0.3529 -0.4102  1.5705
 5659SOL    HW228440   2.443   3.646  12.556  2.1597 -0.8048  1.1150
 5660SOL     OW28441   2.966   2.582   3.211 -0.1981 -0.2022  0.0582
 5660SOL    HW128442   2.990   2.497   3.247  1.4278  0.2087 -0.0567
 5660SOL    HW228443   2.877   2.590   3.246  0.0459 -0.3683  0.7258
 5661SOL     OW28444   1.443   1.453   3.561  0.0242 -0.4314 -0.7914
 5661SOL    HW128445   1.357   1.414   3.569  0.0060 -0.2716 -0.2292
 5661SOL    HW228446   1.425   1.536   3.517  0.3368 -0.7967 -1.6050
 5662SOL     OW28447   4.375   4.527   5.750 -0.3304  0.1096 -0.0561
 5662SOL    HW128448   4.374   4.451   5.809  2.3552  0.4970  0.4683
 5662SOL    HW228449   4.354   4.597   5.812  3.6858  0.4173  0.9813
 5663SOL     OW28450   2.383   4.705   4.102  0.0849 -0.1280 -0.2043
 5663SOL    HW128451   2.423   0.064   4.130 -1.9634  0.8497 -0.1228
 5663SOL    HW228452   2.349   4.669   4.183  0.1712 -0.0969 -0.1544
 5664SOL     OW28453   3.150   2.386   4.692  0.5634  0.0378 -0.2248
 5664SOL    HW128454   3.099   2.450   4.642  0.4660  0.5492  0.5325
 5664SOL    HW228455   3.137   2.407   4.784 -0.3081 -1.0536 -0.0876
 5665SOL     OW28456   1.572   3.175   3.937 -0.5925 -0.3841  0.1240
 5665SOL    HW128457   1.575   3.199   4.029 -3.5240 -3.6685  1.0930
 5665SOL    HW228458   1.542   3.255   3.894  0.3349  0.0871  0.3766
 5666SOL     OW28459   0.570   4.669   4.731  0.3306  0.1914  0.0764
 5666SOL    HW128460   0.493   0.003   4.733  0.5442  0.4199  1.8492
 5666SOL    HW228461   0.621   0.005   4.677 -1.1081  0.0555 -1.4335
 5667SOL     OW28462   3.218   2.685  15.349  0.2508 -0.1546  0.4187
 5667SOL    HW128463   3.238   2.623  15.419 -1.5449  0.9848  1.9402
 5667SOL    HW228464   3.156   2.639  15.292 -0.9053 -0.0543  1.6089
 5668SOL     OW28465   4.176   2.340   0.890  0.1811  0.1615 -0.1115
 5668SOL    HW128466   4.242   2.339   0.821 -0.8745  0.5679 -1.1338
 5668SOL    HW228467   4.128   2.261   0.867 -1.2569  0.6373  1.2538
 5669SOL     OW28468   3.425   2.121   9.193 -0.0593 -0.0165 -0.4236
 5669SOL    HW128469   3.404   2.211   9.169  0.5043  0.7036  1.6883
 5669SOL    HW228470   3.488   2.133   9.265 -0.9612  2.0535  0.0228
 5670SOL     OW28471   2.576   4.722   7.959  0.3845 -0.4352  0.0023
 5670SOL    HW128472   2.593   0.013   7.866 -2.4955 -1.5547 -0.6868
 5670SOL    HW228473   2.597   0.083   8.000 -0.5498  0.3586 -1.1697
 5671SOL     OW28474   0.051   1.876   7.301  0.4841 -0.2676 -0.5284
 5671SOL    HW128475   0.064   1.956   7.353  2.4784 -0.4324 -0.7877
 5671SOL    HW228476   4.692   1.899   7.257  0.4944 -0.6057 -0.7214
 5672SOL     OW28477   3.987   1.291  15.210  0.1274  0.1634  0.2435
 5672SOL    HW128478   3.960   1.287  15.302  0.0645  3.7798  0.3885
 5672SOL    HW228479   3.968   1.384  15.202  1.7144  0.2344 -2.9421
 5673SOL     OW28480   1.303   3.755   8.365 -0.4847  0.4587  0.5013
 5673SOL    HW128481   1.315   3.794   8.452  0.2366  0.5479  0.3639
 5673SOL    HW228482   1.234   3.810   8.328 -0.0366  0.2322 -0.6836
 5674SOL     OW28483   3.987   2.981   2.451 -0.1748  0.3265  0.6721
 5674SOL    HW128484   4.008   3.055   2.508  0.5731  0.5479  0.1162
 5674SOL    HW228485   3.893   2.998   2.436  0.1344  0.2124 -1.4266
 5675SOL     OW28486   0.604   1.978   8.773 -0.3039 -0.4020 -0.6924
 5675SOL    HW128487   0.517   2.018   8.775  1.2695  3.1419 -4.2860
 5675SOL    HW228488   0.585   1.910   8.838 -1.0174  0.2179 -0.2499
 5676SOL     OW28489   4.208   4.504   1.875  0.2197  0.0516 -0.2137
 5676SOL    HW128490   4.267   4.577   1.892  2.0229 -1.0507 -1.8480
 5676SOL    HW228491   4.140   4.512   1.943  0.6105  0.3944  0.1360
 5677SOL     OW28492   4.258   0.423   4.539 -0.4398 -0.2692 -0.0948
 5677SOL    HW128493   4.294   0.498   4.585 -0.4066 -1.5643  1.9758
 5677SOL    HW228494   4.174   0.414   4.584 -0.1297  0.2183  0.5662
 5678SOL     OW28495   0.413   2.358   5.709  0.3722  0.3683 -0.0063
 5678SOL    HW128496   0.401   2.439   5.660  1.7124  2.0453  2.4709
 5678SOL    HW228497   0.374   2.300   5.643 -1.4999  1.6703 -0.0462
 5679SOL     OW28498   3.352   1.342  11.783  0.0636 -0.1647  0.0664
 5679SOL    HW128499   3.351   1.259  11.735 -0.3844 -1.0105  1.5327
 5679SOL    HW228500   3.278   1.313  11.837 -0.3386  2.2863  0.8228
 5680SOL     OW28501   0.363   2.116   2.769  0.0490  0.1698  0.1773
 5680SOL    HW128502   0.454   2.125   2.797  0.4135  0.2590 -1.0104
 5680SOL    HW228503   0.358   2.020   2.767 -1.3517  0.2663 -0.8825
 5681SOL     OW28504   2.056   0.204  17.257  0.0351  0.7624 -0.1884
 5681SOL    HW128505   2.110   0.199  17.178  1.3666 -0.6579  0.8161
 5681SOL    HW228506   2.109   0.150  17.315 -0.9417  1.6042  1.5023
 5682SOL     OW28507   3.512   2.220   6.022  0.0751 -0.2648  0.4337
 5682SOL    HW128508   3.464   2.228   5.939  1.5262  1.3090 -0.2635
 5682SOL    HW228509   3.586   2.274   5.993  0.6830 -0.0643  2.3726
 5683SOL     OW28510   1.644   0.884  13.194 -0.0622 -0.3503  0.2494
 5683SOL    HW128511   1.577   0.949  13.174 -0.5098 -1.0073 -0.3843
 5683SOL    HW228512   1.724   0.934  13.210 -0.2977  0.2029 -0.2883
 5684SOL     OW28513   2.604   1.260   9.670  0.0005 -0.0664  0.3465
 5684SOL    HW128514   2.583   1.197   9.601  3.4433 -0.2306 -0.5268
 5684SOL    HW228515   2.562   1.223   9.748 -2.8430  0.3030 -1.0149
 5685SOL     OW28516   4.252   0.342  11.149 -0.2903 -0.0098  0.0658
 5685SOL    HW128517   4.253   0.272  11.215 -5.5839  1.0993  1.3373
 5685SOL    HW228518   4.273   0.277  11.081  0.3874  1.0387 -0.7266
 5686SOL     OW28519   1.523   2.752   4.676  0.7807  0.4689  0.1444
 5686SOL    HW128520   1.513   2.754   4.581 -0.2636 -2.0691  0.2004
 5686SOL    HW228521   1.604   2.706   4.697 -0.6764 -1.2864  1.8869
 5687SOL     OW28522   2.014   2.610   2.655  0.0882 -0.0708  0.1345
 5687SOL    HW128523   1.956   2.592   2.581  1.0410 -0.0144 -0.6201
 5687SOL    HW228524   2.102   2.602   2.618 -0.3625  0.0676 -0.9679
 5688SOL     OW28525   0.953   1.981   7.376  0.2354  0.0458  0.1011
 5688SOL    HW128526   0.938   1.897   7.335 -1.5692  0.4570 -0.0525
 5688SOL    HW228527   0.870   2.028   7.369 -0.1852 -0.8745 -0.9571
 5689SOL     OW28528   0.538   0.875   8.816 -0.4447  0.5644  1.0381
 5689SOL    HW128529   0.558   0.968   8.811  2.0078 -0.1252 -2.1029
 5689SOL    HW228530   0.624   0.838   8.834 -0.8822 -0.9867  0.0198
 5690SOL     OW28531   2.245   4.163   3.661  0.1849 -0.1026 -0.1487
 5690SOL    HW128532   2.198   4.245   3.648 -0.3421 -0.2644  0.7569
 5690SOL    HW228533   2.301   4.167   3.583 -2.4791 -0.0872 -2.0640
 5691SOL     OW28534   4.065   4.438   3.339 -0.0582 -0.0205 -0.0408
 5691SOL    HW128535   4.117   4.464   3.415  0.6720  0.2726 -0.6379
 5691SOL    HW228536   4.076   4.343   3.345  0.0057 -0.1412 -2.0665
 5692SOL     OW28537   2.301   2.352  10.692  0.3124 -0.2644 -0.6810
 5692SOL    HW128538   2.253   2.287  10.744 -0.6440 -1.2223 -2.7493
 5692SOL    HW228539   2.264   2.435  10.722  0.7732 -0.0724 -0.6435
 5693SOL     OW28540   2.148   1.147   2.318 -0.2147  0.4074  0.1902
 5693SOL    HW128541   2.118   1.227   2.274  0.8716  0.0234 -1.2117
 5693SOL    HW228542   2.212   1.192   2.373  0.1433 -1.2947  1.1571
 5694SOL     OW28543   2.620   3.859   7.685 -0.7349 -0.1906  0.1215
 5694SOL    HW128544   2.575   3.784   7.646  0.2735 -0.8238  0.1690
 5694SOL    HW228545   2.580   3.850   7.772  1.6187 -1.1090  1.0898
 5695SOL     OW28546   1.560   3.238   4.454 -0.0070 -0.6033  0.0827
 5695SOL    HW128547   1.566   3.158   4.507  0.9572  0.0525  0.9561
 5695SOL    HW228548   1.653   3.257   4.453 -0.3081  0.8704  0.4668
 5696SOL     OW28549   1.920   4.403   8.336  0.4920  0.2733 -0.2208
 5696SOL    HW128550   1.856   4.469   8.310 -0.3046 -0.8261 -1.1121
 5696SOL    HW228551   2.004   4.449   8.338  0.8179 -0.4486  2.0624
 5697SOL     OW28552   0.938   1.661  17.660 -0.1289  0.2860  0.2784
 5697SOL    HW128553   0.915   1.640  17.569  0.1494 -0.4175  0.3681
 5697SOL    HW228554   0.874   1.604   0.009 -0.7791  0.2502 -0.7207
 5698SOL     OW28555   1.322   1.076   6.442 -0.1902 -0.6532 -0.5873
 5698SOL    HW128556   1.363   1.109   6.362 -2.1634 -0.2284 -1.4356
 5698SOL    HW228557   1.248   1.020   6.418  0.4265 -1.0684 -1.5164
 5699SOL     OW28558   2.669   1.717   5.793  0.1789  0.1188 -0.2929
 5699SOL    HW128559   2.679   1.635   5.842 -0.7736 -0.5999 -1.2984
 5699SOL    HW228560   2.731   1.710   5.721  1.3653 -2.0538  0.9086
 5700SOL     OW28561   4.188   0.853  17.537 -0.0347  0.0342 -0.1277
 5700SOL    HW128562   4.098   0.841  17.567 -0.2428 -0.5475 -0.9822
 5700SOL    HW228563   4.190   0.949  17.530  0.8879  0.0089 -0.2418
 5701SOL     OW28564   3.533   3.684   4.033  0.7443  0.1683  0.3956
 5701SOL    HW128565   3.551   3.733   4.114  0.0695  1.3505 -0.1705
 5701SOL    HW228566   3.623   3.661   4.008  1.1246 -0.6484  2.5012
 5702SOL     OW28567   0.409   0.158   6.554 -0.4437  0.2517 -0.4929
 5702SOL    HW128568   0.332   0.139   6.607 -0.4660 -2.5272 -1.5104
 5702SOL    HW228569   0.453   0.211   6.620  1.3682  1.1140 -2.4121
 5703SOL     OW28570   3.987   1.938   1.017 -0.2180  0.0986  0.5854
 5703SOL    HW128571   3.975   1.856   0.970 -0.9830  0.9369 -0.6601
 5703SOL    HW228572   4.070   1.927   1.065  0.3876 -0.8564 -0.6939
 5704SOL     OW28573   2.785   3.163   8.976 -0.4784 -0.5853  0.1142
 5704SOL    HW128574   2.791   3.115   9.058  0.3663 -0.5360  0.0848
 5704SOL    HW228575   2.875   3.194   8.960 -1.3606  0.9834 -1.8279
 5705SOL     OW28576   4.008   0.371  11.436  0.2241  0.2491 -0.2468
 5705SOL    HW128577   3.994   0.447  11.380 -3.9093 -0.6246 -0.3753
 5705SOL    HW228578   4.063   0.414  11.502 -0.2175 -0.1265  0.3635
 5706SOL     OW28579   3.560   3.180  10.949  0.4157 -0.3976  0.4618
 5706SOL    HW128580   3.574   3.109  11.011 -0.3302  0.3666  1.5134
 5706SOL    HW228581   3.466   3.190  10.963  0.2161  0.5277 -1.4960
 5707SOL     OW28582   2.336   3.965   4.145 -0.0624  0.4124  0.3879
 5707SOL    HW128583   2.363   4.024   4.216  0.9773 -2.7822  2.6387
 5707SOL    HW228584   2.252   4.005   4.124  0.0230 -1.0137 -2.5432
 5708SOL     OW28585   3.808   3.511  15.659  0.0621 -0.1330  0.6723
 5708SOL    HW128586   3.811   3.588  15.602  0.2084  0.3274  1.3133
 5708SOL    HW228587   3.852   3.442  15.609  0.0499  0.4837 -0.2074
 5709SOL     OW28588   4.637   3.118   4.414  0.4099  0.1315  0.6476
 5709SOL    HW128589   4.689   3.121   4.334 -0.7196  1.0063 -0.0519
 5709SOL    HW228590   4.586   3.041   4.390  0.0775  0.2740  0.8995
 5710SOL     OW28591   4.107   3.132   5.316  0.1275 -0.3545  0.0254
 5710SOL    HW128592   4.109   3.227   5.304  0.8619 -0.2716  0.8501
 5710SOL    HW228593   4.163   3.121   5.393 -1.3628 -0.8436  1.0434
 5711SOL     OW28594   2.507   1.085   2.339  0.7429 -0.3808 -0.7295
 5711SOL    HW128595   2.452   1.164   2.342  0.9402 -0.2126 -1.5545
 5711SOL    HW228596   2.575   1.116   2.280  1.0426 -0.0935 -0.2345
 5712SOL     OW28597   3.833   1.859   8.165 -0.6457 -0.3240 -0.4185
 5712SOL    HW128598   3.783   1.900   8.094 -0.7246  0.2691 -0.0163
 5712SOL    HW228599   3.781   1.896   8.236 -0.2557  0.9772 -0.8151
 5713SOL     OW28600   2.095   0.347  15.437 -0.3379 -0.3022  0.3937
 5713SOL    HW128601   2.188   0.330  15.429 -0.3736 -0.3464  0.0804
 5713SOL    HW228602   2.075   0.265  15.482 -2.4984  1.0696  1.9729
 5714SOL     OW28603   2.807   0.496   3.453 -0.2157 -0.1088 -0.3079
 5714SOL    HW128604   2.829   0.587   3.434 -0.1428  0.2599  1.5122
 5714SOL    HW228605   2.890   0.448   3.452 -0.0315  0.2591 -2.0632
 5715SOL     OW28606   0.163   4.316   6.822  0.4405 -0.0890 -0.0341
 5715SOL    HW128607   0.083   4.295   6.774  0.1906 -2.0326  1.2320
 5715SOL    HW228608   0.148   4.292   6.913 -0.5255 -0.4468 -0.2827
 5716SOL     OW28609   3.387   4.656   4.607  0.1356 -0.0577 -0.1759
 5716SOL    HW128610   3.344   0.007   4.563  0.0547  0.6727  1.1294
 5716SOL    HW228611   3.369   4.580   4.553  0.3108  0.2937 -0.7320
 5717SOL     OW28612   4.476   1.308  14.582 -0.3940 -0.1932 -0.2816
 5717SOL    HW128613   4.518   1.222  14.590 -2.7398 -1.3500 -0.3138
 5717SOL    HW228614   4.547   1.372  14.589 -2.1539  1.6336  0.8291
 5718SOL     OW28615   0.147   2.950   1.114  0.4627 -0.2382 -0.3987
 5718SOL    HW128616   0.113   3.030   1.154  1.5395  0.0242 -0.0151
 5718SOL    HW228617   0.076   2.937   1.051  1.0493  2.0675 -1.5615
 5719SOL     OW28618   0.653   2.868   1.402  0.4196 -0.2735  0.0928
 5719SOL    HW128619   0.592   2.940   1.412 -2.1045 -2.3814 -0.0734
 5719SOL    HW228620   0.666   2.872   1.307  3.2523 -0.4201  0.4707
 5720SOL     OW28621   3.289   3.374   4.507 -0.6297  0.8368  0.1107
 5720SOL    HW128622   3.288   3.404   4.598  0.7057 -0.4286  0.5296
 5720SOL    HW228623   3.271   3.280   4.510  0.0808  0.6225 -2.1327
 5721SOL     OW28624   1.716   0.142  10.483  0.0711  0.1276 -0.4967
 5721SOL    HW128625   1.674   0.226  10.462  1.1860  0.6059 -0.8483
 5721SOL    HW228626   1.662   0.122  10.559  1.5755 -0.5194  0.4126
 5722SOL     OW28627   1.319   1.763   3.753  0.5380 -0.0261  0.4223
 5722SOL    HW128628   1.295   1.829   3.818  0.0436  1.2572 -1.0436
 5722SOL    HW228629   1.313   1.681   3.802  0.6319 -0.3278 -0.0689
 5723SOL     OW28630   1.821   1.825   8.393  0.0207  0.0384  0.0440
 5723SOL    HW128631   1.904   1.783   8.414  0.1044 -0.1005 -0.5492
 5723SOL    HW228632   1.759   1.766   8.436  0.2569  0.3391  0.7848
 5724SOL     OW28633   1.842   1.966   1.143 -0.2610 -0.4653  0.0596
 5724SOL    HW128634   1.885   1.913   1.076  0.5806  1.3796 -0.8557
 5724SOL    HW228635   1.913   2.026   1.166 -0.4239 -0.0274 -0.5780
 5725SOL     OW28636   0.932   3.210   2.193  0.6418 -0.4794  0.1634
 5725SOL    HW128637   0.867   3.140   2.189  0.0259  0.1849 -1.1411
 5725SOL    HW228638   1.005   3.180   2.139  0.2259 -0.0289 -0.6471
 5726SOL     OW28639   1.334   2.406   5.395 -0.3171 -0.1301  0.8380
 5726SOL    HW128640   1.371   2.342   5.334  0.3048  0.8815  0.1495
 5726SOL    HW228641   1.411   2.426   5.449  0.6457  1.4914 -1.1291
 5727SOL     OW28642   3.601   0.565   3.519  0.0052  0.4215 -0.4598
 5727SOL    HW128643   3.588   0.581   3.425  2.8756  0.2970 -0.8862
 5727SOL    HW228644   3.690   0.600   3.518 -0.2758  1.1783  1.7890
 5728SOL     OW28645   3.888   1.003  13.947 -0.0571 -0.0045 -0.3851
 5728SOL    HW128646   3.872   0.952  14.026  1.7870  1.5859  1.0275
 5728SOL    HW228647   3.885   0.940  13.876 -1.4276 -1.4521  0.9546
 5729SOL     OW28648   0.569   0.345   3.661 -0.7823 -0.2379  0.2904
 5729SOL    HW128649   0.497   0.283   3.644 -0.2244 -1.3578  1.9632
 5729SOL    HW228650   0.521   0.427   3.648  2.3136  1.2030 -1.9665
 5730SOL     OW28651   2.490   3.498  13.570 -0.1216 -0.0187 -0.0730
 5730SOL    HW128652   2.454   3.461  13.651  1.0473 -0.2999  0.3243
 5730SOL    HW228653   2.517   3.576  13.619  0.9673  0.1218 -0.9146
 5731SOL     OW28654   1.142   2.670   8.936  0.1918  0.2092  0.5401
 5731SOL    HW128655   1.109   2.718   9.012 -1.1869 -1.2478  0.8685
 5731SOL    HW228656   1.237   2.670   8.936  0.1856  1.7276 -0.4427
 5732SOL     OW28657   1.412   3.346   5.350  0.3263 -0.0784  0.0650
 5732SOL    HW128658   1.435   3.382   5.264 -0.0618  0.5360  0.2209
 5732SOL    HW228659   1.379   3.261   5.321 -0.1927  0.7274 -1.7022
 5733SOL     OW28660   0.606   4.545  10.979 -0.5725  0.2027 -0.9380
 5733SOL    HW128661   0.556   4.575  11.055 -0.0836 -4.9896  1.4331
 5733SOL    HW228662   0.617   4.626  10.928  1.5167  2.1411  2.5775
 5734SOL     OW28663   3.396   1.140   8.670 -0.0451 -0.1435  0.0835
 5734SOL    HW128664   3.421   1.225   8.706  1.4361 -0.7668  0.5358
 5734SOL    HW228665   3.412   1.081   8.744 -0.9300 -1.0881 -0.4857
 5735SOL     OW28666   3.771   0.011  11.529 -0.1800 -0.0096  0.4066
 5735SOL    HW128667   3.768   0.106  11.524  0.8291 -0.0267 -0.6804
 5735SOL    HW228668   3.767   4.710  11.622 -1.9811  0.8801  0.5534
 5736SOL     OW28669   1.138   3.679  13.546  0.0146 -0.1527 -0.3356
 5736SOL    HW128670   1.053   3.682  13.590  0.2116 -0.3461  0.0510
 5736SOL    HW228671   1.191   3.618  13.598 -2.7785 -1.0298  1.5053
 5737SOL     OW28672   1.886   3.013   2.001 -0.2935  0.0310  0.6018
 5737SOL    HW128673   1.894   2.937   2.058 -0.6612 -1.2387 -1.0402
 5737SOL    HW228674   1.952   2.992   1.935  0.0891  2.2702  0.2657
 5738SOL     OW28675   0.248   0.434  12.075 -0.6021  0.3046 -0.0796
 5738SOL    HW128676   0.245   0.510  12.017 -0.5175  0.8030  0.5669
 5738SOL    HW228677   0.234   0.363  12.013  1.8759 -0.2097 -0.0394
 5739SOL     OW28678   4.540   2.520  11.958 -0.2715  0.3276 -0.2292
 5739SOL    HW128679   4.527   2.434  11.917  1.2026  0.1075 -0.2333
 5739SOL    HW228680   4.460   2.554  11.917 -1.3694 -2.0056  0.0159
 5740SOL     OW28681   2.745   2.362   5.997 -0.5824 -0.3678  0.3827
 5740SOL    HW128682   2.815   2.379   6.060 -2.5148  1.7073  1.9217
 5740SOL    HW228683   2.785   2.398   5.917 -0.8407  1.6754  1.1917
 5741SOL     OW28684   0.065   4.704  13.415 -0.5721  0.1488 -0.4598
 5741SOL    HW128685   0.157   4.723  13.396 -1.3228  0.3003 -4.0456
 5741SOL    HW228686   0.040   0.055  13.469 -1.4646 -0.4082 -0.1016
 5742SOL     OW28687   2.279   0.942   7.521 -0.3263  0.5022 -0.3751
 5742SOL    HW128688   2.354   0.998   7.536 -1.1670  1.4377  0.3627
 5742SOL    HW228689   2.309   0.852   7.535 -3.2225 -0.3767  0.2808
 5743SOL     OW28690   3.506   0.580   6.867  0.2281  0.1790  0.2020
 5743SOL    HW128691   3.504   0.625   6.951 -1.8786 -1.9303  1.2843
 5743SOL    HW228692   3.530   0.656   6.814 -1.6176 -0.2043 -1.2157
 5744SOL     OW28693   3.977   0.284   2.731 -0.4020  0.2534 -0.0283
 5744SOL    HW128694   4.040   0.261   2.799 -0.9379  0.5094  0.5608
 5744SOL    HW228695   3.997   0.212   2.671  1.9065 -0.2142  1.3261
 5745SOL     OW28696   1.489   3.123   9.013  0.3781  0.5385 -0.4166
 5745SOL    HW128697   1.425   3.194   9.018 -1.0481 -0.7800 -0.1198
 5745SOL    HW228698   1.502   3.111   9.107 -1.6795 -0.9920 -0.3346
 5746SOL     OW28699   2.344   1.848   4.104  0.1244 -0.5058 -0.5087
 5746SOL    HW128700   2.380   1.903   4.035  0.6134  0.8532  0.8292
 5746SOL    HW228701   2.266   1.817   4.058 -1.6370  0.7781  1.5789
 5747SOL     OW28702   3.965   0.391  12.907  0.1443 -0.1002 -0.6645
 5747SOL    HW128703   4.057   0.365  12.916  0.0117 -0.6185 -0.8113
 5747SOL    HW228704   3.935   0.405  12.997  1.6347 -2.4098  0.1856
 5748SOL     OW28705   0.992   4.418   4.737  0.3246  0.0263 -0.3940
 5748SOL    HW128706   0.902   4.416   4.704 -0.7818  1.0457  2.6129
 5748SOL    HW228707   0.999   4.325   4.756  0.1444  0.7764  3.2756
 5749SOL     OW28708   3.571   1.974   1.185 -0.0023 -0.5360 -0.0626
 5749SOL    HW128709   3.517   2.036   1.135  0.1361 -0.2937  0.0857
 5749SOL    HW228710   3.526   1.982   1.269 -1.0916 -3.5750 -0.3821
 5750SOL     OW28711   1.901   0.938  13.290  0.5801 -0.4338  0.6698
 5750SOL    HW128712   1.917   0.880  13.364  1.5156  0.8686  1.4816
 5750SOL    HW228713   1.968   0.901  13.232  0.8087  1.1277 -0.0571
 5751SOL     OW28714   4.715   0.231  12.111 -0.1682 -0.0437 -0.2264
 5751SOL    HW128715   4.711   0.159  12.175  1.4519  0.5283  0.5135
 5751SOL    HW228716   0.082   0.217  12.080 -0.2381  1.0892 -0.9242
 5752SOL     OW28717   3.325   1.624  11.164 -0.2828  0.0097  0.0687
 5752SOL    HW128718   3.299   1.655  11.251 -1.7202  1.7911 -0.9989
 5752SOL    HW228719   3.416   1.653  11.158  0.2301 -1.6144 -0.0796
 5753SOL     OW28720   4.252   2.176   6.181 -0.0833 -0.0526 -0.2964
 5753SOL    HW128721   4.164   2.183   6.218  0.2182  0.2300  0.3585
 5753SOL    HW228722   4.253   2.086   6.150 -0.2442  0.2781 -1.2788
 5754SOL     OW28723   4.361   1.916   7.796 -0.1454  0.3512 -0.0166
 5754SOL    HW128724   4.280   1.883   7.834  0.2485 -1.1557 -0.4736
 5754SOL    HW228725   4.352   1.939   7.703  0.2984  0.2266 -0.0900
 5755SOL     OW28726   3.617   4.621   8.900 -0.1218 -0.2100  0.4437
 5755SOL    HW128727   3.560   4.555   8.941  0.7948  0.4434  2.7769
 5755SOL    HW228728   3.559   4.670   8.842 -1.1944  0.7732  2.3463
 5756SOL     OW28729   2.007   3.566   7.457  0.3289  0.2924 -0.2927
 5756SOL    HW128730   1.985   3.479   7.490  1.6043 -0.7910 -2.2571
 5756SOL    HW228731   1.920   3.604   7.469  0.1867 -0.9209  2.3883
 5757SOL     OW28732   2.325   3.170   0.980  0.1015  0.7577  0.0049
 5757SOL    HW128733   2.374   3.145   1.058  1.7842 -0.1610 -1.3581
 5757SOL    HW228734   2.311   3.264   0.993  2.2772  0.9759  0.7798
 5758SOL     OW28735   0.987   2.309   5.021  0.6349 -0.4062 -0.2216
 5758SOL    HW128736   0.900   2.338   5.050  0.2743 -1.1819 -0.5453
 5758SOL    HW228737   1.045   2.333   5.094 -0.8382 -0.2067  0.8860
 5759SOL     OW28738   0.380   3.185   2.932  0.0062 -0.6523  0.1167
 5759SOL    HW128739   0.453   3.151   2.881 -1.0487  0.2824 -2.0136
 5759SOL    HW228740   0.341   3.103   2.962 -1.8639  0.5103  0.8797
 5760SOL     OW28741   0.983   3.920   5.278  0.6094  0.5269 -0.2489
 5760SOL    HW128742   0.960   3.997   5.331 -0.2622 -1.0893  1.7139
 5760SOL    HW228743   1.070   3.945   5.246 -0.2291  2.0583 -1.3265
 5761SOL     OW28744   4.491   2.622   6.347 -0.3882  0.1624  0.9477
 5761SOL    HW128745   4.475   2.529   6.360  2.3458 -0.6777 -1.4871
 5761SOL    HW228746   4.527   2.664   6.425 -0.4059  0.9553  0.5332
 5762SOL     OW28747   3.203   2.596  13.840  0.2913  0.8907  0.3904
 5762SOL    HW128748   3.120   2.598  13.792  1.1981 -3.8158 -1.3726
 5762SOL    HW228749   3.177   2.640  13.921 -3.3949  2.8447 -1.8208
 5763SOL     OW28750   3.494   0.023  15.442 -0.3220 -0.3741 -0.7389
 5763SOL    HW128751   3.556   0.079  15.394  0.1652  0.3058  0.6876
 5763SOL    HW228752   3.544   4.664  15.450 -1.2721 -0.9538 -0.8062
 5764SOL     OW28753   4.149   0.629  10.498  0.1822  0.3581  0.1111
 5764SOL    HW128754   4.167   0.536  10.484 -0.2971  0.2815  0.0035
 5764SOL    HW228755   4.231   0.671  10.473  0.7952  1.2963  3.6775
 5765SOL     OW28756   4.312   0.755   8.660  0.4052  0.2308  0.0055
 5765SOL    HW128757   4.258   0.789   8.731 -0.3150 -0.8602 -0.0166
 5765SOL    HW228758   4.374   0.828   8.653  0.6188  0.1430  1.0899
 5766SOL     OW28759   1.079   1.893   4.155 -0.0695 -0.6634  0.0187
 5766SOL    HW128760   0.998   1.942   4.170 -0.1888 -0.8675  0.0391
 5766SOL    HW228761   1.111   1.907   4.245  2.3514 -0.9592 -0.7995
 5767SOL     OW28762   3.557   0.990   9.664  0.0165 -0.1877  0.2036
 5767SOL    HW128763   3.600   0.916   9.706  0.9240  0.4250  0.3566
 5767SOL    HW228764   3.466   0.960   9.664 -0.6761  1.8812  3.1771
 5768SOL     OW28765   2.904   1.389   8.015 -0.0276 -0.5060 -0.5898
 5768SOL    HW128766   2.999   1.379   8.009 -0.0382 -0.6707 -0.4871
 5768SOL    HW228767   2.886   1.323   8.082 -0.0300  1.2509  1.1343
 5769SOL     OW28768   4.439   2.134   0.411  0.4014  0.0927 -0.2006
 5769SOL    HW128769   4.348   2.147   0.384  0.0679 -0.8358  0.4832
 5769SOL    HW228770   4.458   2.214   0.459  2.4373 -0.9103  0.6854
 5770SOL     OW28771   2.185   3.599   7.023  0.6492  0.2333  0.3222
 5770SOL    HW128772   2.133   3.564   6.950  0.3713  0.9656  0.1697
 5770SOL    HW228773   2.204   3.525   7.080 -0.2853  0.0374  0.3726
 5771SOL     OW28774   2.187   2.746   7.770 -0.3292  0.2420  0.2635
 5771SOL    HW128775   2.231   2.684   7.712  1.6683  1.3571  0.6009
 5771SOL    HW228776   2.221   2.832   7.744 -0.1994 -0.1414 -0.8428
 5772SOL     OW28777   1.507   4.303   8.239 -0.0552  0.2279 -0.0661
 5772SOL    HW128778   1.485   4.388   8.200  3.8845  0.4587 -1.8115
 5772SOL    HW228779   1.508   4.248   8.160 -3.1213  0.4916 -0.3128
 5773SOL     OW28780   0.674   2.398   3.396  0.4042  0.1617  0.1627
 5773SOL    HW128781   0.624   2.466   3.442 -1.0039 -1.9283  1.7276
 5773SOL    HW228782   0.759   2.398   3.438  0.4589  2.8568  0.0321
 5774SOL     OW28783   1.094   3.601   5.191  0.3022  0.1619  0.1799
 5774SOL    HW128784   1.120   3.515   5.223  0.6441 -0.1857 -1.0109
 5774SOL    HW228785   1.045   3.638   5.264  0.7190 -0.2344  0.6547
 5775SOL     OW28786   0.161   1.170  12.226  0.2796  0.0667  0.1149
 5775SOL    HW128787   0.189   1.249  12.272 -1.3385  0.8104 -0.1691
 5775SOL    HW228788   0.163   1.190  12.132 -0.6017 -2.3179 -0.4086
 5776SOL     OW28789   0.192   0.865  12.110  0.4585 -0.9416  0.1988
 5776SOL    HW128790   0.101   0.881  12.088  1.0891  0.2870 -1.5762
 5776SOL    HW228791   0.218   0.833  12.023 -1.1694  0.7586 -0.9092
 5777SOL     OW28792   3.243   4.254   3.791 -0.2435  0.3759  0.0885
 5777SOL    HW128793   3.265   4.243   3.883  1.5319  1.8591 -0.1541
 5777SOL    HW228794   3.153   4.222   3.792  0.5665 -1.9123 -0.6964
 5778SOL     OW28795   1.952   1.361  16.182  0.0869 -0.4195  0.1380
 5778SOL    HW128796   2.044   1.351  16.204 -0.0212 -0.3697  0.6259
 5778SOL    HW228797   1.942   1.441  16.130 -2.4423 -0.7547  0.0927
 5779SOL     OW28798   1.412   3.564   7.237  0.1609 -0.2287 -0.0302
 5779SOL    HW128799   1.366   3.480   7.232 -0.7036  0.2317  0.1429
 5779SOL    HW228800   1.357   3.612   7.174  0.7019 -1.1224 -1.1706
 5780SOL     OW28801   0.556   4.208  13.490 -0.5942 -0.2470  0.7536
 5780SOL    HW128802   0.572   4.297  13.461 -0.0422 -0.5730  0.0518
 5780SOL    HW228803   0.471   4.216  13.533 -1.6756  4.0854 -2.3204
 5781SOL     OW28804   4.068   3.833   2.441 -0.0426 -0.4398 -0.4191
 5781SOL    HW128805   4.040   3.752   2.399  1.7014 -1.7465  0.9467
 5781SOL    HW228806   4.069   3.889   2.363 -0.4051 -3.4373 -2.5550
 5782SOL     OW28807   1.826   4.687  16.111 -0.5847  0.2029 -0.8044
 5782SOL    HW128808   1.885   4.611  16.106 -1.8782 -0.8322 -0.3101
 5782SOL    HW228809   1.880   0.020  16.167  0.7414  0.6971 -2.5736
 5783SOL     OW28810   2.884   4.554  14.282 -0.4467 -0.2732  0.4714
 5783SOL    HW128811   2.855   4.613  14.212 -0.0597 -0.3740  0.2231
 5783SOL    HW228812   2.960   4.511  14.244 -0.8862 -1.5060  0.9754
 5784SOL     OW28813   1.156   3.290   8.851  0.4110 -0.1256  0.1700
 5784SOL    HW128814   1.113   3.352   8.910 -0.7355  0.3765 -1.1969
 5784SOL    HW228815   1.151   3.209   8.900 -0.1665  0.6052  1.3128
 5785SOL     OW28816   1.928   2.334  11.390 -0.2771 -0.3175  0.4563
 5785SOL    HW128817   1.879   2.252  11.389 -0.8955  0.1364 -3.1369
 5785SOL    HW228818   1.870   2.402  11.358  1.4114 -0.0792 -2.0737
 5786SOL     OW28819   3.852   3.687  16.944  0.0074 -0.1437 -0.1921
 5786SOL    HW128820   3.796   3.611  16.930  1.4563 -0.8644 -2.0853
 5786SOL    HW228821   3.795   3.736  17.003  0.1555  1.2802 -1.2285
 5787SOL     OW28822   3.219   3.363   9.249  0.0428 -0.2479 -0.1346
 5787SOL    HW128823   3.212   3.394   9.159  1.0213 -1.1553 -0.5216
 5787SOL    HW228824   3.144   3.305   9.260 -2.6096  2.7752 -2.0320
 5788SOL     OW28825   1.367   1.974   2.809  0.2566 -0.1803  0.3019
 5788SOL    HW128826   1.384   1.946   2.899 -0.6541  0.5141  0.6930
 5788SOL    HW228827   1.300   2.041   2.824  0.5292 -0.1231  1.2581
 5789SOL     OW28828   2.792   1.487   4.449  0.0318 -0.4785  0.3286
 5789SOL    HW128829   2.746   1.571   4.442  0.8287 -0.0891 -0.1690
 5789SOL    HW228830   2.807   1.476   4.543 -0.4778 -0.3482  0.4254
 5790SOL     OW28831   0.374   2.042  13.950  0.3545 -0.9097  0.0244
 5790SOL    HW128832   0.285   2.010  13.931 -0.7540  1.8100  0.7331
 5790SOL    HW228833   0.387   2.129  13.913 -1.4925  0.2647  2.1049
 5791SOL     OW28834   1.485   1.426  17.561  0.4282 -0.4063  0.3234
 5791SOL    HW128835   1.436   1.363  17.613  1.2120 -0.5333  0.9145
 5791SOL    HW228836   1.412   1.476  17.525  1.6173  0.9556 -0.2466
 5792SOL     OW28837   1.703   3.229   2.942 -0.1248 -0.1194  0.0285
 5792SOL    HW128838   1.756   3.304   2.971  1.0645 -1.1748  0.5685
 5792SOL    HW228839   1.638   3.213   3.010  1.3998  0.4182  1.6370
 5793SOL     OW28840   3.867   2.305  13.793 -0.2622 -0.5525 -0.1206
 5793SOL    HW128841   3.778   2.339  13.794  0.2736  0.8830 -1.2369
 5793SOL    HW228842   3.843   2.219  13.761 -0.1421  0.0231 -1.7504
 5794SOL     OW28843   2.949   1.798   4.852  0.5386 -0.2115 -0.2475
 5794SOL    HW128844   2.964   1.705   4.871 -0.2991 -0.1480  0.7088
 5794SOL    HW228845   3.015   1.825   4.789 -1.0368  0.4384 -1.6145
 5795SOL     OW28846   2.089   3.968  17.518 -0.1362 -0.0467 -0.1487
 5795SOL    HW128847   2.110   3.960  17.425  2.9118 -0.9890  0.6087
 5795SOL    HW228848   2.130   4.052  17.538  0.1074  0.0920 -1.2232
 5796SOL     OW28849   4.559   3.870   4.309 -0.2619  0.7693  0.3516
 5796SOL    HW128850   4.577   3.777   4.324 -0.4689  0.3241 -2.1057
 5796SOL    HW228851   4.605   3.909   4.383  0.1071 -0.1357  0.6044
 5797SOL     OW28852   0.948   1.728   0.315  0.4181  0.4698  0.2152
 5797SOL    HW128853   1.033   1.734   0.271  0.2475  0.3474 -0.1244
 5797SOL    HW228854   0.903   1.773   0.244 -0.6270  1.6221  1.6225
 5798SOL     OW28855   4.426   2.009  16.879 -0.1177 -0.5457  0.4056
 5798SOL    HW128856   4.348   2.038  16.927 -1.0678 -3.1663  0.4516
 5798SOL    HW228857   4.500   2.025  16.937 -1.0992  0.1222  1.4847
 5799SOL     OW28858   1.509   0.379   7.349  0.6624  0.2977 -0.0202
 5799SOL    HW128859   1.417   0.394   7.371  0.2857 -1.2078 -0.6092
 5799SOL    HW228860   1.551   0.462   7.372  1.6176  1.2408 -5.2440
 5800SOL     OW28861   3.156   3.207   8.980 -0.4063  0.1985 -0.5339
 5800SOL    HW128862   3.160   3.186   8.887  1.5515 -0.6424 -0.2548
 5800SOL    HW228863   3.091   3.278   8.980 -2.6457 -1.8646  0.1467
 5801SOL     OW28864   1.131   1.460  17.486 -0.0833  0.3751 -0.3033
 5801SOL    HW128865   1.055   1.430  17.535  0.6468 -0.0956  0.5338
 5801SOL    HW228866   1.184   1.382  17.500 -1.3603 -0.3710  0.3824
 5802SOL     OW28867   4.156   4.239   6.652  0.2623 -0.7111 -0.2817
 5802SOL    HW128868   4.209   4.170   6.691  1.1969  0.5917  0.7264
 5802SOL    HW228869   4.089   4.194   6.600 -0.7666 -0.4578  0.8046
 5803SOL     OW28870   4.488   4.245   5.282 -0.8553  0.5537  0.3852
 5803SOL    HW128871   4.403   4.201   5.292 -0.4072 -0.6037 -0.8291
 5803SOL    HW228872   4.461   4.334   5.306  0.5285  1.7191 -2.4611
 5804SOL     OW28873   1.609   1.333   4.285  0.0437  0.2681  0.2588
 5804SOL    HW128874   1.655   1.262   4.240  1.5682  0.8214  0.9441
 5804SOL    HW228875   1.619   1.290   4.369  1.0146  1.0463  0.5379
 5805SOL     OW28876   3.979   1.657   9.393 -0.6794 -0.1357  0.1632
 5805SOL    HW128877   3.942   1.587   9.339  2.1001 -1.5832  0.1262
 5805SOL    HW228878   3.971   1.616   9.480 -0.7518  0.3722  0.3938
 5806SOL     OW28879   3.948   3.791   8.168 -0.1347 -0.1642  0.2115
 5806SOL    HW128880   3.877   3.845   8.201  0.1033 -0.3106  0.9518
 5806SOL    HW228881   4.013   3.838   8.220 -0.5832  1.2791 -0.5243
 5807SOL     OW28882   4.176   0.628   3.870  1.1419  0.0155  0.8787
 5807SOL    HW128883   4.160   0.534   3.872 -3.5426  0.7979  1.7369
 5807SOL    HW228884   4.193   0.650   3.778 -3.1119  0.4610  0.2030
 5808SOL     OW28885   2.963   4.363   8.910 -0.3274 -0.2710  0.3634
 5808SOL    HW128886   2.974   4.295   8.977  0.1701 -0.7096 -0.1710
 5808SOL    HW228887   3.027   4.430   8.934  1.2617 -1.4549 -0.6225
 5809SOL     OW28888   0.920   2.140   3.448 -0.3877  0.2627 -0.2251
 5809SOL    HW128889   0.880   2.155   3.362 -2.5661 -3.2628  0.1669
 5809SOL    HW228890   0.945   2.229   3.474  1.1363 -0.5258  1.0339
 5810SOL     OW28891   3.467   3.789   2.730  0.7304 -0.4892  0.3215
 5810SOL    HW128892   3.463   3.844   2.652  0.8948 -2.0642 -0.7926
 5810SOL    HW228893   3.394   3.730   2.714  0.4225 -0.1989  0.6539
 5811SOL     OW28894   4.682   1.502   2.334 -0.2627 -0.0839  0.3233
 5811SOL    HW128895   4.710   1.416   2.304  2.1756  0.8324 -0.0292
 5811SOL    HW228896   4.622   1.529   2.265  0.7037  0.1529 -0.4314
 5812SOL     OW28897   3.663   0.718   1.737  0.0751 -0.4163 -0.1139
 5812SOL    HW128898   3.695   0.805   1.714  0.0613 -0.3057  0.2768
 5812SOL    HW228899   3.743   0.677   1.770  1.3025  1.0931 -1.2404
 5813SOL     OW28900   0.539   1.225   8.142 -0.0145 -0.2128 -0.1053
 5813SOL    HW128901   0.554   1.132   8.156 -1.0858 -0.3745  0.0102
 5813SOL    HW228902   0.508   1.249   8.230 -0.9015  1.0255 -0.7489
 5814SOL     OW28903   3.680   1.355   4.218  0.5699  0.1352 -0.3242
 5814SOL    HW128904   3.588   1.368   4.238  0.7713  0.5476  0.3496
 5814SOL    HW228905   3.681   1.377   4.125  0.2413 -2.7219 -1.0049
 5815SOL     OW28906   2.008   3.810   9.030  0.3431  0.6795 -0.3567
 5815SOL    HW128907   1.927   3.852   9.060 -0.3827 -1.2214  0.3309
 5815SOL    HW228908   2.021   3.740   9.094  2.0658  0.9419 -0.4133
 5816SOL     OW28909   0.944   3.699   3.879  0.8998 -0.1383  0.3547
 5816SOL    HW128910   0.889   3.773   3.853 -1.0677 -1.1494  1.6484
 5816SOL    HW228911   0.889   3.643   3.933  0.1214  0.0944 -0.2039
 5817SOL     OW28912   3.852   4.701   6.606 -0.6735 -0.0501 -0.1324
 5817SOL    HW128913   3.861   0.042   6.676  0.5939 -1.8453  1.3572
 5817SOL    HW228914   3.908   4.627   6.630 -0.3770 -0.1231 -1.0468
 5818SOL     OW28915   2.086   4.273  11.902 -0.2817 -0.2103 -0.5849
 5818SOL    HW128916   1.991   4.271  11.919 -0.5239 -0.4380 -1.9890
 5818SOL    HW228917   2.094   4.273  11.807 -0.4380  1.4746 -0.5962
 5819SOL     OW28918   3.668   2.909   4.642 -0.4711  0.2982 -0.9830
 5819SOL    HW128919   3.755   2.934   4.671 -0.1806 -0.2918 -1.3435
 5819SOL    HW228920   3.670   2.932   4.549 -0.4933  2.6575 -0.3986
 5820SOL     OW28921   2.212   3.419   8.266 -0.0987 -0.2653  0.1517
 5820SOL    HW128922   2.195   3.327   8.246  0.3542 -0.1622 -0.7160
 5820SOL    HW228923   2.171   3.437   8.350 -0.8469  2.4147 -0.7810
 5821SOL     OW28924   2.994   3.430  12.651  1.0095 -0.0897 -0.5118
 5821SOL    HW128925   2.998   3.337  12.672  0.3175  0.5862  2.7318
 5821SOL    HW228926   3.047   3.479  12.715 -3.4173  0.6666  2.6042
 5822SOL     OW28927   0.234   4.048   1.107  0.0875 -0.5167 -0.7493
 5822SOL    HW128928   0.172   3.979   1.084 -0.0302 -1.0362  1.0822
 5822SOL    HW228929   0.177   4.103   1.161  0.0039 -1.4936  0.1424
 5823SOL     OW28930   0.998   3.905   3.153 -0.0146  0.2192 -0.1471
 5823SOL    HW128931   1.024   3.896   3.061 -1.0751  0.0831 -0.4293
 5823SOL    HW228932   1.066   3.850   3.191  0.1587  0.3082 -0.3274
 5824SOL     OW28933   4.144   2.525  10.071  0.3111 -0.5617  0.2987
 5824SOL    HW128934   4.174   2.502  10.159  0.6644 -0.1609  0.2836
 5824SOL    HW228935   4.146   2.434  10.041 -1.9588 -1.2071  2.1704
 5825SOL     OW28936   0.329   2.285   9.487  0.2102  0.0060  1.0381
 5825SOL    HW128937   0.245   2.240   9.490 -1.1222  2.3689 -1.1248
 5825SOL    HW228938   0.371   2.259   9.569 -0.0122 -0.4575  1.0037
 5826SOL     OW28939   3.351   4.233  13.020 -0.0065  0.9027  0.3307
 5826SOL    HW128940   3.382   4.143  13.013 -0.8441  0.6115  0.4143
 5826SOL    HW228941   3.361   4.268  12.932 -1.2323 -0.3352 -0.2933
 5827SOL     OW28942   0.052   0.995  12.756  0.3782 -0.5977 -0.6005
 5827SOL    HW128943   0.071   1.087  12.742  0.6965 -0.1646  2.5104
 5827SOL    HW228944   0.035   0.989  12.851 -0.0600 -2.1267 -0.7637
 5828SOL     OW28945   2.307   3.916   2.484 -0.5813 -0.0422  0.1960
 5828SOL    HW128946   2.217   3.890   2.503  0.1044 -3.0592 -0.7211
 5828SOL    HW228947   2.332   3.840   2.431 -1.1750 -1.3081  1.7401
 5829SOL     OW28948   3.591   3.040   8.158 -0.0676 -0.5107 -0.0190
 5829SOL    HW128949   3.638   3.112   8.200  1.4633  1.2128 -4.6610
 5829SOL    HW228950   3.516   3.089   8.125  1.8757  1.7321 -1.0734
 5830SOL     OW28951   4.489   0.867   8.009 -0.9810 -0.2435  0.2885
 5830SOL    HW128952   4.493   0.947   7.956  0.8494  0.6994  1.8813
 5830SOL    HW228953   4.536   0.899   8.086 -0.1218 -1.3078  0.2046
 5831SOL     OW28954   3.171   4.688   6.846 -0.1165  0.1671  0.4442
 5831SOL    HW128955   3.206   4.601   6.824  1.8938  1.8296 -2.9092
 5831SOL    HW228956   3.230   4.713   6.918  0.4780 -0.0683  0.0382
 5832SOL     OW28957   0.285   2.258   7.036 -0.3696 -0.5771  0.1018
 5832SOL    HW128958   0.370   2.301   7.049 -1.1048  1.2054 -1.0745
 5832SOL    HW228959   0.297   2.230   6.945 -1.2017  1.0781 -0.5036
 5833SOL     OW28960   3.263   1.801  14.407  0.4336 -0.5067 -0.5929
 5833SOL    HW128961   3.186   1.771  14.359  1.3170  0.8713 -2.8625
 5833SOL    HW228962   3.325   1.829  14.339  1.0007  1.7387  0.8448
 5834SOL     OW28963   3.541   4.415   5.524 -0.1236 -0.3848 -0.1992
 5834SOL    HW128964   3.544   4.408   5.619  0.2105 -1.5147 -0.2909
 5834SOL    HW228965   3.595   4.492   5.508 -1.4227  0.7248  0.7933
 5835SOL     OW28966   4.356   2.873   5.573 -0.1255  0.2002  0.1411
 5835SOL    HW128967   4.436   2.871   5.521  0.0717  1.2994  0.4061
 5835SOL    HW228968   4.348   2.967   5.590  0.1686  0.1067  0.8243
 5836SOL     OW28969   0.265   1.661   2.971 -0.2480  0.6597 -0.3008
 5836SOL    HW128970   0.183   1.628   2.934  1.6907 -3.7305 -0.6170
 5836SOL    HW228971   0.236   1.648   3.061 -1.7293 -1.0775 -1.0254
 5837SOL     OW28972   4.075   3.189   2.669  0.0508 -0.1546  0.1269
 5837SOL    HW128973   4.112   3.275   2.649 -2.6676  1.4148  1.7838
 5837SOL    HW228974   4.147   3.133   2.700 -0.5114 -1.0403 -0.1579
 5838SOL     OW28975   4.620   4.017   8.424 -0.6889 -0.5980  0.2560
 5838SOL    HW128976   4.675   3.939   8.429  1.2442  0.8644  1.3954
 5838SOL    HW228977   4.548   3.986   8.368 -1.1399  0.7407  0.0988
 5839SOL     OW28978   4.057   3.069   9.420 -0.1340 -0.3065 -0.5439
 5839SOL    HW128979   4.020   2.982   9.436 -0.1079 -0.6445 -2.4287
 5839SOL    HW228980   4.149   3.052   9.440 -1.4172 -2.8029  3.2261
 5840SOL     OW28981   3.087   0.272   7.262 -0.4943  0.5853  1.0161
 5840SOL    HW128982   2.996   0.249   7.245 -0.4085  0.5295  0.6402
 5840SOL    HW228983   3.099   0.239   7.352 -0.6217 -1.3305  0.3446
 5841SOL     OW28984   2.852   2.787  10.926 -1.4039  0.0223  0.4176
 5841SOL    HW128985   2.763   2.759  10.948 -1.6186  0.5949  0.2660
 5841SOL    HW228986   2.877   2.824  11.011 -0.1574  0.5741 -0.1932
 5842SOL     OW28987   1.514   4.574   8.720 -0.8239  0.0482  0.0431
 5842SOL    HW128988   1.501   4.479   8.726  0.6649  0.0850  4.0718
 5842SOL    HW228989   1.606   4.590   8.697 -0.7102  0.0024  0.4643
 5843SOL     OW28990   4.652   0.814   4.694 -0.4035  0.3334 -0.0427
 5843SOL    HW128991   4.667   0.753   4.766 -1.1361 -1.5136 -1.4454
 5843SOL    HW228992   4.620   0.748   4.632 -2.6838  2.2554 -0.9233
 5844SOL     OW28993   1.582   4.427   2.388 -0.1405  0.1071 -0.7553
 5844SOL    HW128994   1.557   4.337   2.368  0.5787 -0.5674  1.3730
 5844SOL    HW228995   1.625   4.409   2.472 -0.5785 -0.6502 -0.6999
 5845SOL     OW28996   1.908   1.672  11.420 -0.4317  0.3708  0.4487
 5845SOL    HW128997   1.893   1.615  11.344  0.7615 -1.0532  1.2611
 5845SOL    HW228998   1.834   1.732  11.411  1.0991  2.2841  0.6433
 5846SOL     OW28999   1.169   1.427  10.028  0.7166  0.5319 -0.7335
 5846SOL    HW129000   1.220   1.389  10.100  0.3850 -0.0282 -0.7942
 5846SOL    HW229001   1.083   1.386  10.035  1.1918 -0.1510  1.1086
 5847SOL     OW29002   0.964   0.788   4.536 -0.4444 -1.0322 -0.1434
 5847SOL    HW129003   0.967   0.784   4.440 -0.1658  2.7742 -0.3011
 5847SOL    HW229004   0.943   0.881   4.547 -1.0653 -0.9432 -2.0623
 5848SOL     OW29005   3.119   2.301   8.006  0.0658 -0.6994 -0.0976
 5848SOL    HW129006   3.186   2.369   8.006  0.9495 -1.5722  0.2361
 5848SOL    HW229007   3.137   2.266   8.093 -0.6132 -1.0806 -0.1101
 5849SOL     OW29008   3.632   0.040   0.351 -0.7244 -0.2938  0.3318
 5849SOL    HW129009   3.595   0.066   0.266  3.3287  3.5295 -0.2821
 5849SOL    HW229010   3.567   4.698   0.379 -1.3486  1.1238  2.2055
 5850SOL     OW29011   1.834   3.638  17.354 -0.0771 -0.3704 -0.2083
 5850SOL    HW129012   1.771   3.566  17.363 -0.2476 -0.3598 -1.2999
 5850SOL    HW229013   1.886   3.628  17.433  3.4444  1.8007 -2.2837
 5851SOL     OW29014   2.986   0.392   9.820  0.1563  0.4638 -0.1163
 5851SOL    HW129015   2.945   0.305   9.812  2.0551 -0.2740 -1.8333
 5851SOL    HW229016   2.923   0.429   9.881 -0.7180 -1.6054  0.2550
 5852SOL     OW29017   2.864   2.641   6.334  0.4705 -0.3008 -0.2453
 5852SOL    HW129018   2.891   2.568   6.389  2.5553  1.1170  0.5838
 5852SOL    HW229019   2.867   2.711   6.399  2.7094 -0.1443 -0.5483
 5853SOL     OW29020   3.477   0.129   0.138  0.3722  0.6518 -0.4099
 5853SOL    HW129021   3.468   0.216   0.100 -3.6096  0.3103 -0.3170
 5853SOL    HW229022   3.423   0.132   0.217 -0.5659 -0.5162 -1.0027
 5854SOL     OW29023   1.801   1.948   5.341 -0.0122 -0.3360 -0.2036
 5854SOL    HW129024   1.757   1.947   5.256  1.4129  1.8672 -0.9628
 5854SOL    HW229025   1.850   2.029   5.330 -0.5326  0.2319  1.6325
 5855SOL     OW29026   1.807   2.097  11.349 -1.2535  0.1844 -0.6474
 5855SOL    HW129027   1.785   2.003  11.350 -1.1773  0.1447 -2.4039
 5855SOL    HW229028   1.786   2.118  11.258  1.7570 -0.7453 -1.5589
 5856SOL     OW29029   3.297   2.127   1.972  0.7642  0.2184  0.6099
 5856SOL    HW129030   3.310   2.035   1.995  1.3988  0.3304  0.6830
 5856SOL    HW229031   3.352   2.138   1.894  0.9922 -1.4172  0.5323
 5857SOL     OW29032   2.991   1.735   8.091  0.1374 -0.1555 -0.0820
 5857SOL    HW129033   3.033   1.656   8.124 -0.8945  0.0392  1.6770
 5857SOL    HW229034   2.905   1.744   8.133  1.2722 -0.1353  2.2061
 5858SOL     OW29035   3.660   0.706   5.406 -0.7064  0.3216 -0.8813
 5858SOL    HW129036   3.753   0.696   5.386 -0.8814 -0.8326 -1.1102
 5858SOL    HW229037   3.626   0.620   5.382 -1.1561 -0.1076  1.2506
 5859SOL     OW29038   3.759   2.898   3.441 -0.4495  0.1269 -0.2635
 5859SOL    HW129039   3.837   2.895   3.386 -1.6321  0.4373 -1.9467
 5859SOL    HW229040   3.740   2.804   3.447 -0.0788 -0.0355 -1.8101
 5860SOL     OW29041   1.714   4.252  14.821  0.6563  0.4366  1.0763
 5860SOL    HW129042   1.647   4.255  14.752  1.3842  2.0603  0.4444
 5860SOL    HW229043   1.801   4.255  14.783 -0.0456  0.8080 -0.4987
 5861SOL     OW29044   2.299   0.786   2.565  0.6351 -0.1248  0.2831
 5861SOL    HW129045   2.277   0.844   2.492 -0.1692 -2.2928 -1.2130
 5861SOL    HW229046   2.383   0.821   2.594  0.7328  0.4733 -0.7233
 5862SOL     OW29047   3.504   1.963  16.794  0.0182 -0.3286 -0.1311
 5862SOL    HW129048   3.428   1.948  16.737 -1.3466 -0.0570  1.6028
 5862SOL    HW229049   3.548   1.882  16.771 -1.5892 -0.7469 -1.7743
 5863SOL     OW29050   0.704   3.124   2.519 -0.2899  0.3190 -0.1594
 5863SOL    HW129051   0.799   3.117   2.529 -0.4629 -2.3529 -0.3959
 5863SOL    HW229052   0.677   3.204   2.476 -0.6885  1.0463  1.4418
 5864SOL     OW29053   2.267   2.409   8.061 -0.1401 -0.7403  0.0780
 5864SOL    HW129054   2.314   2.338   8.105 -0.0751 -1.3821 -1.0286
 5864SOL    HW229055   2.317   2.484   8.094  1.6041 -1.9247  0.1368
 5865SOL     OW29056   4.705   4.442   8.636  0.1965 -0.1512  0.3036
 5865SOL    HW129057   4.628   4.464   8.688  0.9094  0.0240  1.2791
 5865SOL    HW229058   4.664   4.442   8.549  0.1594 -0.5372  0.3223
 5866SOL     OW29059   3.340   2.122   4.310 -0.2242  0.2484  0.4860
 5866SOL    HW129060   3.378   2.087   4.391  0.3740 -0.2342 -0.0003
 5866SOL    HW229061   3.251   2.140   4.340 -0.9321  0.5665 -1.8110
 5867SOL     OW29062   2.259   2.916  11.604  0.1557 -0.5658  0.2050
 5867SOL    HW129063   2.251   2.833  11.558  1.1713 -1.9953  2.6128
 5867SOL    HW229064   2.271   2.896  11.697 -0.5636  2.6278  0.9947
 5868SOL     OW29065   4.684   2.664   0.988  0.1429 -0.1096 -0.0792
 5868SOL    HW129066   4.594   2.631   0.980  0.3345 -0.5325 -0.5038
 5868SOL    HW229067   4.680   2.747   0.939  1.0641  1.1533  1.9895
 5869SOL     OW29068   1.844   1.075   0.728  0.3447  0.0739 -0.2568
 5869SOL    HW129069   1.870   1.166   0.714 -0.1318  0.3331  0.5431
 5869SOL    HW229070   1.781   1.082   0.800 -0.2356 -2.6032 -0.4845
 5870SOL     OW29071   2.977   0.963   7.087 -0.2948 -0.3888 -0.1097
 5870SOL    HW129072   2.937   0.999   7.008 -1.5426  0.1065  0.7555
 5870SOL    HW229073   2.915   1.000   7.149  1.7214  0.1197  1.6091
 5871SOL     OW29074   1.232   3.395   3.942  0.2764  0.3136  0.3699
 5871SOL    HW129075   1.221   3.309   3.981  1.1049  0.7072  1.4703
 5871SOL    HW229076   1.221   3.454   4.016 -1.2073 -1.4293  1.5345
 5872SOL     OW29077   0.403   2.962   8.187 -0.6765 -0.2009  0.2841
 5872SOL    HW129078   0.366   3.023   8.124 -0.8350  1.4655  1.9699
 5872SOL    HW229079   0.344   2.889   8.170 -1.9643  0.8140  0.4148
 5873SOL     OW29080   0.372   1.364   7.704 -0.2543  0.4343 -0.0233
 5873SOL    HW129081   0.442   1.328   7.758  0.8640  1.2482 -0.9351
 5873SOL    HW229082   0.423   1.438   7.670 -1.7699  1.1695 -0.7239
 5874SOL     OW29083   3.072   1.520   4.894 -0.3081 -0.0402  0.0214
 5874SOL    HW129084   3.156   1.493   4.931 -0.5818 -3.4177 -1.9172
 5874SOL    HW229085   3.015   1.521   4.971 -0.6812 -1.7950 -0.2408
 5875SOL     OW29086   3.882   4.313   5.494  0.0402 -0.1858  0.3872
 5875SOL    HW129087   3.895   4.393   5.443  2.6224 -0.1576  1.0986
 5875SOL    HW229088   3.913   4.253   5.425  2.4147 -0.1384  1.4165
 5876SOL     OW29089   4.456   4.443   8.119  0.5974 -0.0597  0.4347
 5876SOL    HW129090   4.374   4.452   8.070  0.2818 -1.1858  0.7606
 5876SOL    HW229091   4.484   4.531   8.145  1.2752 -0.5913  1.4974
 5877SOL     OW29092   2.081   3.922  14.243  0.5252 -0.2156 -0.1781
 5877SOL    HW129093   2.170   3.903  14.275 -0.1412 -0.5606  1.4770
 5877SOL    HW229094   2.014   3.858  14.268 -0.1420  0.8793  0.8234
 5878SOL     OW29095   2.690   3.473   2.976 -0.4849 -0.0591  0.0537
 5878SOL    HW129096   2.632   3.544   3.002 -0.2592 -0.1526  0.8218
 5878SOL    HW229097   2.642   3.432   2.904  2.2877 -2.9395 -0.1605
 5879SOL     OW29098   3.724   1.723  17.299  0.0932  0.2473  0.4271
 5879SOL    HW129099   3.680   1.639  17.313  2.3404 -1.3517 -2.2065
 5879SOL    HW229100   3.812   1.715  17.335  0.3840  2.2901  0.1615
 5880SOL     OW29101   1.618   2.463  16.686  0.4200 -0.0707 -0.1104
 5880SOL    HW129102   1.555   2.394  16.705  0.2266  0.2430  0.3803
 5880SOL    HW229103   1.602   2.471  16.592  0.2559 -4.2865 -0.4164
 5881SOL     OW29104   3.016   3.059   6.475 -0.7039 -0.3820 -0.5344
 5881SOL    HW129105   3.025   3.118   6.400 -0.2898  0.4330  0.1478
 5881SOL    HW229106   3.068   3.094   6.548 -0.5921 -0.8819 -0.3731
 5882SOL     OW29107   3.239   2.223  11.049  0.0426 -0.0964  0.2059
 5882SOL    HW129108   3.199   2.159  10.991  1.0548 -1.5084  1.0433
 5882SOL    HW229109   3.258   2.294  10.988  0.9741  0.0560  0.6769
 5883SOL     OW29110   2.520   1.381   4.691 -0.1597  0.4573 -0.0906
 5883SOL    HW129111   2.535   1.292   4.722 -1.6727  0.0604 -0.5068
 5883SOL    HW229112   2.456   1.367   4.622  0.7344 -2.3041 -0.3460
 5884SOL     OW29113   2.445   0.256   2.549  0.2211 -0.0718 -0.4223
 5884SOL    HW129114   2.524   0.300   2.519  0.3028 -0.0488 -0.1693
 5884SOL    HW229115   2.378   0.296   2.493  2.1895  1.1165 -1.9078
 5885SOL     OW29116   4.229   1.176  17.558  0.3627  0.1038  0.3279
 5885SOL    HW129117   4.283   1.119  17.503 -0.0466  0.8475 -0.8535
 5885SOL    HW229118   4.287   1.247  17.584 -1.1672  1.7504 -0.7620
 5886SOL     OW29119   3.109   2.747  15.793  0.2776 -0.4995 -0.4893
 5886SOL    HW129120   3.054   2.679  15.755 -0.1608  0.8327 -2.2581
 5886SOL    HW229121   3.125   2.722  15.884 -0.2936  1.2860  0.0968
 5887SOL     OW29122   4.580   0.666  13.081  0.3592  0.5669 -0.5401
 5887SOL    HW129123   4.613   0.579  13.056  1.1622 -0.3473  3.6002
 5887SOL    HW229124   4.501   0.660  13.029  0.9186 -0.4394 -1.2795
 5888SOL     OW29125   4.643   3.392   6.744  0.4736  0.8010  0.0809
 5888SOL    HW129126   4.568   3.451   6.756  0.1068  0.0903  1.2845
 5888SOL    HW229127   4.619   3.353   6.660 -1.0727  0.2519  0.7714
 5889SOL     OW29128   1.989   4.239   7.838 -0.1905  0.2167  0.3987
 5889SOL    HW129129   2.066   4.183   7.855  0.8482  1.6878  0.5565
 5889SOL    HW229130   2.023   4.329   7.843  1.6480 -0.3789 -1.1924
 5890SOL     OW29131   0.486   3.439   5.349 -0.1659 -0.0670 -0.0988
 5890SOL    HW129132   0.562   3.427   5.292 -1.1013 -3.5211 -0.6419
 5890SOL    HW229133   0.471   3.533   5.335  2.4855  0.8113  3.1567
 5891SOL     OW29134   4.480   3.227  13.701  0.6721 -0.4091 -0.0693
 5891SOL    HW129135   4.512   3.249  13.613 -0.1507 -0.8271 -0.4686
 5891SOL    HW229136   4.421   3.300  13.721  1.6268  0.5982 -0.9211
 5892SOL     OW29137   3.002   2.543  17.275  0.4527 -0.3150  0.4556
 5892SOL    HW129138   3.083   2.545  17.326 -0.5418 -2.1971  2.0908
 5892SOL    HW229139   3.027   2.557  17.183 -0.4050  0.7820  0.3872
 5893SOL     OW29140   0.109   3.379   9.494  0.0111  0.4424  0.6934
 5893SOL    HW129141   0.134   3.469   9.515 -2.8885  1.1011  1.2850
 5893SOL    HW229142   0.169   3.364   9.421  0.4202  1.6647  0.7677
 5894SOL     OW29143   1.637   0.241   5.332 -0.2552 -0.8997  0.3942
 5894SOL    HW129144   1.699   0.313   5.319 -0.4432 -0.8315 -0.1365
 5894SOL    HW229145   1.584   0.287   5.398 -0.6369 -0.2809 -0.3422
 5895SOL     OW29146   3.672   2.729   8.452 -0.3153 -0.3498  0.3913
 5895SOL    HW129147   3.629   2.790   8.393 -0.4892  0.1571  1.0454
 5895SOL    HW229148   3.594   2.697   8.497 -3.0583  2.4606 -2.3542
 5896SOL     OW29149   0.614   3.799  16.500  0.3728  0.4267 -0.0812
 5896SOL    HW129150   0.675   3.855  16.548 -0.6929 -0.3239  2.1669
 5896SOL    HW229151   0.529   3.818  16.540 -0.1306  0.4991 -1.1876
 5897SOL     OW29152   4.328   4.587   2.294 -0.2686  0.0642  0.1767
 5897SOL    HW129153   4.383   4.512   2.318  0.6697  0.7689  0.2377
 5897SOL    HW229154   4.323   4.630   2.379 -1.6582  1.7766 -0.7637
 5898SOL     OW29155   4.024   4.695   9.806 -0.2644  0.3840 -0.2987
 5898SOL    HW129156   4.033   4.609   9.847  0.2316  0.5828  0.0028
 5898SOL    HW229157   3.982   4.680   9.721 -1.1993 -0.6789  0.3569
 5899SOL     OW29158   2.894   2.020   7.212 -0.4195 -0.8566 -0.2694
 5899SOL    HW129159   2.845   1.942   7.239 -0.5025  0.1068  2.3155
 5899SOL    HW229160   2.924   2.041   7.300 -1.5976  1.6936 -0.4773
 5900SOL     OW29161   3.955   4.469   0.217 -0.6133 -0.2909 -0.4782
 5900SOL    HW129162   3.981   4.453   0.126 -1.6534 -1.6296 -0.5442
 5900SOL    HW229163   3.864   4.483   0.191 -0.4011  2.2018  0.1047
 5901SOL     OW29164   2.789   1.418   4.724 -0.0418 -0.7487  0.4415
 5901SOL    HW129165   2.787   1.470   4.804  0.1727 -0.2975  0.1556
 5901SOL    HW229166   2.698   1.392   4.710 -0.3272  0.9376 -0.9152
 5902SOL     OW29167   0.936   2.788   2.273 -0.8467 -0.4546  0.1707
 5902SOL    HW129168   0.956   2.716   2.213 -0.8495 -1.0052  0.8290
 5902SOL    HW229169   1.011   2.796   2.333 -0.8635  2.0042 -0.1490
 5903SOL     OW29170   4.336   0.430   5.792 -0.1365 -0.0624 -0.3965
 5903SOL    HW129171   4.403   0.491   5.823 -2.1214  1.5222  0.7144
 5903SOL    HW229172   4.392   0.359   5.759  3.3188  2.6821 -0.4521
 5904SOL     OW29173   0.505   3.030   6.662  0.6281 -0.5175 -0.0568
 5904SOL    HW129174   0.456   2.993   6.736 -1.3031  3.0249  0.4392
 5904SOL    HW229175   0.543   3.106   6.707 -2.4145 -0.5801  2.5812
 5905SOL     OW29176   2.241   0.651  16.593 -0.0673  0.2487  0.3226
 5905SOL    HW129177   2.269   0.741  16.580 -2.4771  0.8633 -0.6210
 5905SOL    HW229178   2.156   0.659  16.636  0.0884  1.0765  0.4722
 5906SOL     OW29179   1.920   3.447  11.642 -0.7690 -0.1810  0.0717
 5906SOL    HW129180   1.944   3.374  11.585 -1.6112 -1.6443  1.5539
 5906SOL    HW229181   1.864   3.507  11.593 -0.1469 -2.1744 -3.0952
 5907SOL     OW29182   0.641   4.714   1.237  0.3932 -0.2107 -0.1743
 5907SOL    HW129183   0.552   0.023   1.218  1.0733  1.0079 -1.2987
 5907SOL    HW229184   0.661   4.655   1.164 -2.6860 -0.8733 -0.4858
 5908SOL     OW29185   0.902   0.037   8.238  0.1436  0.0627  0.6506
 5908SOL    HW129186   0.883   4.688   8.298  0.5987 -2.2385 -1.9525
 5908SOL    HW229187   0.834   0.095   8.270 -0.0292  1.3818 -2.0953
 5909SOL     OW29188   0.753   3.696  16.814 -0.7349  0.2094  0.2764
 5909SOL    HW129189   0.799   3.764  16.765  0.7137 -2.2880 -1.8666
 5909SOL    HW229190   0.676   3.743  16.846  0.7743  2.8166  0.0595
 5910SOL     OW29191   1.315   0.210  10.638  0.0676 -0.0975  0.3662
 5910SOL    HW129192   1.401   0.175  10.661  1.2144  2.4092 -0.0319
 5910SOL    HW229193   1.297   0.255  10.720  1.5651 -0.4903  0.9180
 5911SOL     OW29194   3.155   2.874   8.233  0.0745  0.1443  0.3851
 5911SOL    HW129195   3.150   2.964   8.266  3.5609 -0.0266  1.3708
 5911SOL    HW229196   3.126   2.888   8.142  3.7723 -0.4752 -0.9097
 5912SOL     OW29197   1.939   3.571  16.638  0.1345 -0.8458 -0.2924
 5912SOL    HW129198   1.850   3.598  16.619  0.3425 -2.1117 -3.0920
 5912SOL    HW229199   1.951   3.520  16.558  0.3286  2.6994 -2.5013
 5913SOL     OW29200   3.368   3.474   7.360 -0.5096  0.1941 -0.4309
 5913SOL    HW129201   3.358   3.400   7.420  0.2378  1.2825  1.0467
 5913SOL    HW229202   3.430   3.432   7.299 -1.4583  0.4268 -1.5466
 5914SOL     OW29203   3.278   0.178  15.464  0.1247 -0.0488 -0.8434
 5914SOL    HW129204   3.354   0.123  15.447  1.2100  0.0264  3.6220
 5914SOL    HW229205   3.251   0.146  15.550  1.0821  2.3310  0.3326
 5915SOL     OW29206   1.608   2.001  10.422 -0.2756 -0.2058  0.2914
 5915SOL    HW129207   1.651   2.022  10.339  1.7466  0.3443  1.4594
 5915SOL    HW229208   1.519   2.032  10.406  0.8802  2.5159 -0.7943
 5916SOL     OW29209   3.790   4.257  10.519 -0.0024 -0.4316  0.1681
 5916SOL    HW129210   3.808   4.188  10.454  0.2989  0.4767 -0.7063
 5916SOL    HW229211   3.745   4.209  10.588  0.0768 -2.0149 -0.8832
 5917SOL     OW29212   2.106   3.567   0.724  0.5114 -0.7878  0.1364
 5917SOL    HW129213   2.089   3.589   0.632  1.6632  0.0292  0.1131
 5917SOL    HW229214   2.063   3.640   0.768 -0.4521 -1.5065  0.3853
 5918SOL     OW29215   4.612   3.047   8.906 -0.1055 -0.2581  0.6650
 5918SOL    HW129216   4.701   3.051   8.869 -0.6175 -1.5486 -0.7488
 5918SOL    HW229217   4.628   3.093   8.988  1.2435  0.0296  0.2459
 5919SOL     OW29218   3.637   2.466   9.558 -0.4338 -0.2567  0.6252
 5919SOL    HW129219   3.602   2.517   9.631 -0.8646 -0.0041  0.2384
 5919SOL    HW229220   3.711   2.421   9.599 -0.6688 -1.6533 -0.4969
 5920SOL     OW29221   0.031   4.481   9.505 -0.4904  0.3526  0.1642
 5920SOL    HW129222   0.023   4.558   9.449  0.9755  1.0820  0.9350
 5920SOL    HW229223   0.032   4.416   9.436  1.1648 -0.7898  1.2653
 5921SOL     OW29224   0.409   3.968  11.218 -0.2452  0.3080 -0.1752
 5921SOL    HW129225   0.488   3.918  11.199 -0.0639  0.9568 -1.1193
 5921SOL    HW229226   0.425   4.044  11.273 -0.5573 -0.0816  0.4511
 5922SOL     OW29227   3.203   0.829   6.304  0.3216  0.4005  0.5454
 5922SOL    HW129228   3.160   0.874   6.232  1.8497  2.0225  0.6376
 5922SOL    HW229229   3.190   0.887   6.379 -0.1964  0.4641  0.4043
 5923SOL     OW29230   3.339   2.530   3.060  0.3609 -0.6765  0.1581
 5923SOL    HW129231   3.263   2.472   3.062 -0.4643  0.5038  2.1958
 5923SOL    HW229232   3.386   2.495   2.985 -1.1743 -0.3793 -0.9559
 5924SOL     OW29233   3.252   0.585   8.719 -1.0677 -0.0249 -0.0911
 5924SOL    HW129234   3.274   0.492   8.728 -1.6653  0.1145  3.0839
 5924SOL    HW229235   3.272   0.606   8.811 -0.3684  0.4346 -0.3463
 5925SOL     OW29236   1.327   2.243   6.247 -0.1918 -0.5001  1.0883
 5925SOL    HW129237   1.259   2.295   6.203 -0.6889 -1.0287  1.2260
 5925SOL    HW229238   1.263   2.184   6.287 -0.9728 -0.2309  0.2574
 5926SOL     OW29239   0.463   2.466   7.060 -0.2201 -0.3789  0.3282
 5926SOL    HW129240   0.541   2.487   7.111 -0.0162  3.5745 -1.5431
 5926SOL    HW229241   0.492   2.508   6.979 -0.6068 -0.6277  0.0583
 5927SOL     OW29242   3.219   1.985  14.620 -0.1698 -0.3102 -0.3003
 5927SOL    HW129243   3.220   1.917  14.552  0.7886  0.5458 -1.1328
 5927SOL    HW229244   3.271   1.937  14.685 -1.5937 -0.4992  0.6929
 5928SOL     OW29245   2.417   1.864   8.810 -0.1469  0.1177 -0.0523
 5928SOL    HW129246   2.336   1.844   8.857  0.2242  1.0173  0.9968
 5928SOL    HW229247   2.468   1.789   8.839 -2.1986 -1.5117 -0.6257
 5929SOL     OW29248   2.550   2.137   4.634  0.9832  0.3079 -0.7477
 5929SOL    HW129249   2.528   2.215   4.686  0.1061 -0.4084 -0.0498
 5929SOL    HW229250   2.476   2.078   4.649 -0.2047  1.5503 -1.7980
 5930SOL     OW29251   1.045   2.123   6.607  0.0163  0.9968 -0.0637
 5930SOL    HW129252   1.015   2.173   6.532  0.0532  0.7143 -0.2671
 5930SOL    HW229253   0.974   2.061   6.623  1.7532 -1.1353 -0.5544
 5931SOL     OW29254   4.056   2.815   4.968  0.3440 -0.5926  0.2713
 5931SOL    HW129255   4.060   2.837   5.062 -2.2528 -2.1853  0.7589
 5931SOL    HW229256   4.141   2.844   4.936 -0.7220  0.8859 -1.2709
 5932SOL     OW29257   0.145   3.132   9.367 -0.3861 -0.4284 -0.1307
 5932SOL    HW129258   0.230   3.172   9.346 -1.0300  0.4707 -0.9857
 5932SOL    HW229259   0.130   3.159   9.457 -1.7962 -2.8233  0.3519
 5933SOL     OW29260   4.531   4.274  13.634  0.7352  0.5549 -0.0726
 5933SOL    HW129261   4.527   4.368  13.653 -2.0592  0.0498  1.8540
 5933SOL    HW229262   4.513   4.232  13.717 -0.6907  0.9438 -0.1817
 5934SOL     OW29263   1.059   4.679   8.559  0.3491 -0.1823  0.4748
 5934SOL    HW129264   1.152   4.688   8.577  1.1089 -2.4922 -2.3384
 5934SOL    HW229265   1.031   0.046   8.580  2.2629  0.5375 -0.0400
 5935SOL     OW29266   1.592   1.983   6.646 -0.0006 -0.0451  0.5882
 5935SOL    HW129267   1.564   2.042   6.716 -1.0830 -1.0746  1.0169
 5935SOL    HW229268   1.520   1.997   6.585 -0.8113 -0.4779  1.4340
 5936SOL     OW29269   1.440   4.187   9.727 -0.2532  0.5766  0.2658
 5936SOL    HW129270   1.383   4.262   9.709  2.2514  2.2403 -0.9056
 5936SOL    HW229271   1.487   4.174   9.644 -0.6915 -1.1695  0.2995
 5937SOL     OW29272   2.728   1.061   6.509 -0.3851 -0.0618 -0.9881
 5937SOL    HW129273   2.688   1.076   6.423  0.7379 -0.5867 -1.5909
 5937SOL    HW229274   2.811   1.107   6.505 -0.4972  0.1004 -1.3875
 5938SOL     OW29275   0.778   3.454   3.027  0.0127 -0.2062 -0.0387
 5938SOL    HW129276   0.817   3.538   3.003  1.5585 -0.8001  0.4204
 5938SOL    HW229277   0.739   3.426   2.944  0.8206  1.0182 -0.8207
 5939SOL     OW29278   0.940   0.153  15.284 -0.2464 -0.3039  0.3499
 5939SOL    HW129279   0.880   0.127  15.354 -0.9294 -0.2855 -0.2290
 5939SOL    HW229280   0.905   0.239  15.262  1.2366 -0.0207 -0.9248
 5940SOL     OW29281   4.319   1.995   0.966  0.4885  0.0651 -0.2586
 5940SOL    HW129282   4.335   2.089   0.972 -0.4627  0.2698 -0.9217
 5940SOL    HW229283   4.306   1.979   0.872 -1.5630  0.6359 -0.0771
 5941SOL     OW29284   2.713   1.122   1.101 -0.1978  0.0032  0.4317
 5941SOL    HW129285   2.808   1.119   1.084  0.0708  0.7827  1.8479
 5941SOL    HW229286   2.683   1.129   1.010  0.8151 -0.2740  0.0718
 5942SOL     OW29287   4.679   1.400  12.557 -0.0278 -1.0229  0.2965
 5942SOL    HW129288   4.704   1.476  12.610  0.4495 -0.5120 -0.6597
 5942SOL    HW229289   4.645   1.429  12.472 -0.1015 -1.5453  0.1511
 5943SOL     OW29290   3.688   1.230   3.164  0.1149  0.2445  0.3406
 5943SOL    HW129291   3.629   1.156   3.175 -1.5545  1.0472 -3.0481
 5943SOL    HW229292   3.746   1.222   3.240  1.6466 -1.0506 -0.9466
 5944SOL     OW29293   3.246   4.326   9.552  0.5033  0.1047 -0.2050
 5944SOL    HW129294   3.315   4.379   9.592  0.3477 -0.6167  1.0118
 5944SOL    HW229295   3.225   4.383   9.479  3.0319 -2.0650 -2.6283
 5945SOL     OW29296   3.997   0.865   1.641 -0.4983  1.0618 -0.0107
 5945SOL    HW129297   3.998   0.817   1.724 -2.0136  0.8605 -0.1094
 5945SOL    HW229298   3.904   0.887   1.637 -0.8396 -0.1539  1.2011
 5946SOL     OW29299   4.259   2.926   6.654  0.7718 -0.0871  0.7176
 5946SOL    HW129300   4.228   2.969   6.574  1.2144  1.4792  1.3851
 5946SOL    HW229301   4.231   2.835   6.652 -0.6404  0.3439  1.2011
 5947SOL     OW29302   2.675   1.869   6.075 -0.9727 -0.1513 -0.2455
 5947SOL    HW129303   2.676   1.954   6.032  0.3513  1.1591  2.3628
 5947SOL    HW229304   2.653   1.810   6.003  1.1911 -0.3279 -0.7492
 5948SOL     OW29305   3.184   1.183   8.506  0.5874  0.3366 -0.6021
 5948SOL    HW129306   3.210   1.115   8.444  1.3414  0.0949 -0.0244
 5948SOL    HW229307   3.247   1.160   8.574  2.2037  2.5625 -1.3485
 5949SOL     OW29308   1.370   2.226   8.910  0.2457 -0.3437 -0.2886
 5949SOL    HW129309   1.328   2.281   8.976  0.8017  2.5380 -2.3319
 5949SOL    HW229310   1.340   2.138   8.931 -0.2376 -0.0325  0.3068
 5950SOL     OW29311   3.511   3.651  16.811 -0.6561  0.1064  0.1677
 5950SOL    HW129312   3.423   3.634  16.845 -1.7664  0.3044 -2.6328
 5950SOL    HW229313   3.540   3.716  16.875 -1.3011  1.2529 -0.7047
 5951SOL     OW29314   2.877   2.255  10.304 -0.4822 -0.3438  0.5142
 5951SOL    HW129315   2.823   2.326  10.340  0.5838 -0.5738  2.5963
 5951SOL    HW229316   2.961   2.286  10.337 -1.0797  1.3976  0.3986
 5952SOL     OW29317   2.712   2.355   4.354 -0.1489  0.2729  0.3889
 5952SOL    HW129318   2.706   2.340   4.260  2.0823 -0.9613  0.4445
 5952SOL    HW229319   2.756   2.276   4.386  1.0060  1.4043  1.6043
 5953SOL     OW29320   1.442   1.053   2.945  0.2415 -0.2491  0.7050
 5953SOL    HW129321   1.460   0.983   3.009  0.6750 -1.6331 -0.9205
 5953SOL    HW229322   1.353   1.087   2.951  1.0982  2.2548 -0.7856
 5954SOL     OW29323   4.563   0.690  16.202  0.1295  0.0238 -0.0650
 5954SOL    HW129324   4.575   0.646  16.118 -1.7207 -1.8074  0.6268
 5954SOL    HW229325   4.537   0.778  16.176  0.0934 -0.3120 -1.1643
 5955SOL     OW29326   0.572   2.084  12.286  0.1973  0.0973  0.3993
 5955SOL    HW129327   0.639   2.049  12.345  1.2612  0.8725 -0.3589
 5955SOL    HW229328   0.613   2.084  12.199  0.8703  0.6907  0.7208
 5956SOL     OW29329   0.724   3.852   4.425  0.2978 -0.5361  0.1453
 5956SOL    HW129330   0.685   3.791   4.362  0.0800  0.0302 -0.2584
 5956SOL    HW229331   0.700   3.810   4.508  1.3429  0.8812  1.1548
 5957SOL     OW29332   0.552   0.401   7.643  0.1523 -0.2618 -0.0601
 5957SOL    HW129333   0.590   0.437   7.563 -1.9281  2.2539  0.0491
 5957SOL    HW229334   0.619   0.437   7.702  0.3396 -1.1580  0.2665
 5958SOL     OW29335   3.071   4.028   5.223  0.1485  0.1113  0.2925
 5958SOL    HW129336   3.045   4.117   5.244 -1.0851  0.2116 -1.6986
 5958SOL    HW229337   3.146   4.031   5.282  1.1876  0.8787 -1.0530
 5959SOL     OW29338   0.264   4.641   5.517 -0.4057 -0.1046 -0.3303
 5959SOL    HW129339   0.351   4.626   5.478 -0.2484 -1.6780  0.6389
 5959SOL    HW229340   0.221   4.630   5.432 -1.7601 -2.0780  0.6274
 5960SOL     OW29341   2.234   2.549   3.672  0.3669  0.5041 -0.0955
 5960SOL    HW129342   2.264   2.545   3.581  1.9688 -0.4787  0.4766
 5960SOL    HW229343   2.312   2.585   3.715 -1.4198  2.3309  1.6146
 5961SOL     OW29344   4.398   1.978  11.752  0.6788 -0.1383 -0.2747
 5961SOL    HW129345   4.392   1.885  11.731 -0.8637 -0.3439  1.1396
 5961SOL    HW229346   4.322   2.026  11.719  1.4050  0.5860 -0.8881
 5962SOL     OW29347   2.653   4.318   8.315  0.4769 -0.1135 -0.0554
 5962SOL    HW129348   2.575   4.296   8.366 -1.9040 -1.3395 -4.2021
 5962SOL    HW229349   2.627   4.388   8.254 -1.3285 -0.5380  0.2069
 5963SOL     OW29350   0.357   4.624   8.255 -0.3399  0.4496 -0.1920
 5963SOL    HW129351   0.388   4.668   8.176 -0.9060  1.5902  0.2247
 5963SOL    HW229352   0.421   4.553   8.265 -1.5604 -0.5673  0.4481
 5964SOL     OW29353   3.271   0.151   3.790  0.0115  1.0760 -0.0793
 5964SOL    HW129354   3.245   0.060   3.807  1.9394  0.5567  0.1515
 5964SOL    HW229355   3.365   0.141   3.770  0.0022 -0.8400  0.8020
 5965SOL     OW29356   2.981   3.404   8.979 -0.2195  0.3305  0.2250
 5965SOL    HW129357   2.886   3.403   8.968 -0.3145  0.3699  1.0150
 5965SOL    HW229358   3.007   3.490   8.948  2.3206 -0.0744  1.2585
 5966SOL     OW29359   0.325   3.961   8.107 -0.1420  0.3091 -0.1069
 5966SOL    HW129360   0.340   4.021   8.034  1.2569 -1.7327 -1.4805
 5966SOL    HW229361   0.307   4.017   8.182 -1.8194 -0.8409  0.3506
 5967SOL     OW29362   4.618   1.603   4.309 -0.6644 -0.4529  0.4335
 5967SOL    HW129363   4.536   1.578   4.267 -0.0949 -1.3432 -0.1523
 5967SOL    HW229364   4.630   1.690   4.269 -1.4083 -0.6007 -0.1108
 5968SOL     OW29365   1.162   1.677   7.422 -0.2432 -0.3532  0.0697
 5968SOL    HW129366   1.230   1.652   7.484 -0.2260  0.5848  0.4301
 5968SOL    HW229367   1.157   1.600   7.365  2.3246 -0.6718  0.2790
 5969SOL     OW29368   0.351   0.483   8.552 -0.3558 -0.9851 -0.6724
 5969SOL    HW129369   0.300   0.561   8.531  0.7513  0.7157  2.8290
 5969SOL    HW229370   0.388   0.510   8.637 -0.0638 -0.1301 -1.0701
 5970SOL     OW29371   1.755   2.537   4.934  0.3796 -0.1441 -0.0078
 5970SOL    HW129372   1.700   2.470   4.895 -0.1668  0.1291  0.2891
 5970SOL    HW229373   1.797   2.495   5.009 -2.1105 -3.3655 -0.4231
 5971SOL     OW29374   2.980   4.224   2.794  0.3226  0.2616  0.2932
 5971SOL    HW129375   3.046   4.166   2.756  1.9502  2.3417 -0.0760
 5971SOL    HW229376   2.939   4.261   2.715  0.6387  1.7495  0.8321
 5972SOL     OW29377   3.368   0.370  16.995  0.4111 -0.4127  0.2441
 5972SOL    HW129378   3.362   0.296  16.934 -0.0863  0.2135 -0.4764
 5972SOL    HW229379   3.406   0.438  16.940 -2.0507 -0.0490 -1.0189
 5973SOL     OW29380   4.158   2.453   7.643 -0.3239 -0.1274 -0.2241
 5973SOL    HW129381   4.079   2.459   7.697  0.3822  0.9791  0.6902
 5973SOL    HW229382   4.159   2.538   7.598 -0.9778 -0.1179 -0.2131
 5974SOL     OW29383   4.112   2.055  13.609 -0.3084 -0.1675  0.3948
 5974SOL    HW129384   4.127   2.024  13.698  0.2883  1.4745  0.8659
 5974SOL    HW229385   4.088   1.973  13.567  0.2539 -0.2483  0.2273
 5975SOL     OW29386   1.748   3.732   1.201 -0.1675 -0.8041 -0.1371
 5975SOL    HW129387   1.717   3.675   1.271  0.2462 -1.3510 -0.4051
 5975SOL    HW229388   1.696   3.809   1.227  0.7253 -0.9200  1.9825
 5976SOL     OW29389   4.709   0.681   4.912 -0.2370  0.8764 -0.1925
 5976SOL    HW129390   0.051   0.617   4.942 -0.4454 -0.0702 -1.7484
 5976SOL    HW229391   4.627   0.646   4.947 -0.7045  0.8623 -1.2891
 5977SOL     OW29392   1.543   2.752   2.940  0.4331  0.1356  0.1564
 5977SOL    HW129393   1.484   2.684   2.973 -0.9930  2.2454  1.9813
 5977SOL    HW229394   1.632   2.721   2.954  0.2054 -0.9870 -0.9101
 5978SOL     OW29395   1.770   2.788   5.081 -0.0574 -0.4458 -0.1009
 5978SOL    HW129396   1.734   2.717   5.028 -1.0296 -0.3648  0.4566
 5978SOL    HW229397   1.743   2.866   5.032 -1.6997 -0.3488  0.9712
 5979SOL     OW29398   1.798   0.299   7.498 -0.1838  0.0176 -0.5374
 5979SOL    HW129399   1.763   0.384   7.523  0.0792  0.5899 -2.1103
 5979SOL    HW229400   1.731   0.246   7.456 -0.6418  0.7937 -0.7744
 5980SOL     OW29401   0.147   2.804   2.401 -0.4303  0.4525 -0.3917
 5980SOL    HW129402   0.072   2.789   2.343  0.8580 -1.7212 -1.5218
 5980SOL    HW229403   0.136   2.732   2.463  1.1218  1.1813  0.7329
 5981SOL     OW29404   3.956   3.179   8.954 -0.3704  0.2284 -0.1788
 5981SOL    HW129405   4.040   3.217   8.930 -1.3602  1.7196 -1.2775
 5981SOL    HW229406   3.937   3.218   9.040 -2.2187  2.1093 -1.4470
 5982SOL     OW29407   4.084   1.480   7.638 -0.8548  0.0732  0.4769
 5982SOL    HW129408   3.996   1.482   7.600 -0.6210  1.7092  0.0154
 5982SOL    HW229409   4.132   1.523   7.566 -0.6393 -1.3801 -0.2573
 5983SOL     OW29410   3.748   2.807   2.174 -0.2656 -0.6379 -0.2312
 5983SOL    HW129411   3.805   2.751   2.226 -1.2370 -2.3926 -1.0803
 5983SOL    HW229412   3.678   2.748   2.146  0.7546 -0.6289 -2.7336
 5984SOL     OW29413   2.606   2.716  11.036 -0.3381 -0.6712 -0.0000
 5984SOL    HW129414   2.623   2.713  11.131  0.4986 -0.7851 -0.1520
 5984SOL    HW229415   2.605   2.625  11.007 -2.6845 -1.4836  2.6211
 5985SOL     OW29416   2.491   2.843  15.924 -0.1535  0.0983 -0.3802
 5985SOL    HW129417   2.491   2.798  16.009 -4.0803 -1.3156 -1.1313
 5985SOL    HW229418   2.571   2.895  15.931  0.0869 -0.3449  0.1509
 5986SOL     OW29419   2.104   0.126   6.199  0.3005 -0.4019  0.0646
 5986SOL    HW129420   2.078   0.151   6.288  2.9060  2.0073  0.1477
 5986SOL    HW229421   2.024   0.126   6.148  1.6865 -0.4911 -2.1010
 5987SOL     OW29422   2.761   2.347   7.107 -0.1487  0.4656 -0.4557
 5987SOL    HW129423   2.715   2.291   7.044 -0.2052 -0.2255  0.1970
 5987SOL    HW229424   2.773   2.278   7.173  1.0626  0.0625 -1.1088
 5988SOL     OW29425   1.863   2.878   3.435  0.6918 -0.3799 -0.1410
 5988SOL    HW129426   1.918   2.809   3.472  0.6284  0.9377  2.3826
 5988SOL    HW229427   1.892   2.884   3.344 -0.8522 -4.2526 -0.8744
 5989SOL     OW29428   0.650   1.178   3.957 -0.4312  0.2534  0.0235
 5989SOL    HW129429   0.583   1.110   3.959 -1.9734  1.7114 -1.2794
 5989SOL    HW229430   0.589   1.252   3.952  0.1035  0.6145 -0.9967
 5990SOL     OW29431   0.258   1.100   8.870  0.6001 -0.4845 -0.0474
 5990SOL    HW129432   0.299   1.031   8.922  1.7533  1.6072  1.8220
 5990SOL    HW229433   0.209   1.146   8.938 -1.1224  1.8558 -2.8289
 5991SOL     OW29434   4.415   0.866   2.940 -0.3928  0.6024  0.2487
 5991SOL    HW129435   4.325   0.844   2.916 -0.5382  1.2151  0.2338
 5991SOL    HW229436   4.476   0.792   2.936 -0.4351  0.6012 -0.3285
 5992SOL     OW29437   1.860   3.735   2.810 -0.2501  0.3051  0.4316
 5992SOL    HW129438   1.879   3.727   2.717  1.4610 -0.0752  0.8079
 5992SOL    HW229439   1.926   3.800   2.835 -0.8222  1.8272 -1.9700
 5993SOL     OW29440   1.449   0.636   8.378  0.0502  0.1621 -0.0180
 5993SOL    HW129441   1.517   0.582   8.418 -0.6454 -0.0175  0.9233
 5993SOL    HW229442   1.459   0.584   8.298  1.7492 -1.5753  1.3381
 5994SOL     OW29443   0.855   1.733  16.578  0.4054  0.2336  0.2061
 5994SOL    HW129444   0.760   1.735  16.576  0.4065  0.7988  0.9240
 5994SOL    HW229445   0.871   1.827  16.577 -1.7436  0.5895  0.1572
 5995SOL     OW29446   0.478   1.540  14.447  0.3029 -0.2764  0.1329
 5995SOL    HW129447   0.417   1.609  14.420  0.0757  0.3805  2.3002
 5995SOL    HW229448   0.456   1.473  14.381 -0.5148 -0.2863  0.4070
 5996SOL     OW29449   4.714   0.350   3.368  0.4235 -0.2376  0.3610
 5996SOL    HW129450   4.676   0.336   3.454 -1.5301  2.3208 -0.0824
 5996SOL    HW229451   4.686   0.274   3.317 -2.5090  0.4732  0.9126
 5997SOL     OW29452   1.670   1.772   4.702  0.8161  0.0637  0.1372
 5997SOL    HW129453   1.605   1.842   4.718  1.1800  0.3337  0.4461
 5997SOL    HW229454   1.710   1.745   4.785  0.4616  0.6499  0.5030
 5998SOL     OW29455   4.096   1.392  10.105  0.0080 -0.3074 -0.1288
 5998SOL    HW129456   4.105   1.487  10.100  0.1679 -0.1852  2.5204
 5998SOL    HW229457   4.073   1.374  10.196 -2.6320 -1.1998 -0.9581
 5999SOL     OW29458   1.916   4.207   5.591  0.6354 -0.3094  0.1527
 5999SOL    HW129459   1.926   4.115   5.614  0.9037 -0.0703  0.9618
 5999SOL    HW229460   1.930   4.197   5.496 -0.0010  1.0858 -0.0944
 6000SOL     OW29461   4.098   4.632   8.662  0.6518 -0.0418 -0.1720
 6000SOL    HW129462   4.028   4.663   8.604 -0.0843 -3.6817 -1.2338
 6000SOL    HW229463   4.050   4.630   8.745  1.4865 -2.0540  0.2573
 6001SOL     OW29464   4.030   0.660  10.810 -0.6649 -0.2579  1.1912
 6001SOL    HW129465   3.990   0.577  10.784  1.3930 -0.9639  0.2615
 6001SOL    HW229466   4.125   0.647  10.805 -0.6563  1.0053 -1.6825
 6002SOL     OW29467   4.518   4.545  13.672 -0.0179 -0.1678 -0.3051
 6002SOL    HW129468   4.479   4.601  13.604  0.9692 -1.2890 -1.8045
 6002SOL    HW229469   4.469   4.572  13.750  1.0754  0.2886  0.2255
 6003SOL     OW29470   1.064   2.425  11.668 -0.4692 -0.3581 -0.9337
 6003SOL    HW129471   1.130   2.363  11.635  0.1881 -1.4445  2.4346
 6003SOL    HW229472   0.987   2.369  11.661  0.2538 -1.3506 -0.9685
 6004SOL     OW29473   4.370   2.652  11.094  0.2479 -0.2549 -0.3799
 6004SOL    HW129474   4.431   2.725  11.102  0.8244 -0.7833  0.0181
 6004SOL    HW229475   4.373   2.622  11.003 -4.4498  0.7304 -0.8825
 6005SOL     OW29476   4.306   4.393  14.072  0.0907 -0.1632  0.0333
 6005SOL    HW129477   4.289   4.317  14.016  0.6986  1.2313 -2.0326
 6005SOL    HW229478   4.311   4.466  14.010  1.1904 -0.4601 -0.2379
 6006SOL     OW29479   1.548   0.353   6.958  0.2365  0.0600 -0.0576
 6006SOL    HW129480   1.474   0.300   6.928  1.3172 -1.3807 -0.2110
 6006SOL    HW229481   1.512   0.395   7.036  1.5117 -1.1610  1.1903
 6007SOL     OW29482   4.709   0.195   8.504  0.0456 -0.5722 -0.0789
 6007SOL    HW129483   0.014   0.155   8.587 -1.8081 -0.8790  0.3946
 6007SOL    HW229484   0.065   0.166   8.459  0.4799  0.7602 -0.1573
 6008SOL     OW29485   1.812   2.257   7.015  0.0388  0.3877 -0.5268
 6008SOL    HW129486   1.903   2.267   7.045  0.5987  1.7471 -2.7171
 6008SOL    HW229487   1.767   2.314   7.077  0.8665  1.2718 -0.7367
 6009SOL     OW29488   4.083   4.062   7.223  0.6757  0.2624  0.1741
 6009SOL    HW129489   4.050   4.071   7.133  0.5542  1.2129  0.3175
 6009SOL    HW229490   4.072   4.152   7.253  0.2633  0.1524  0.3472
 6010SOL     OW29491   4.289   3.004  17.038 -0.1192  0.3135  0.3395
 6010SOL    HW129492   4.295   2.970  17.127  0.0178 -0.2480  0.1181
 6010SOL    HW229493   4.318   3.095  17.044 -2.4435  0.9485  2.0893
 6011SOL     OW29494   1.998   2.131   4.217  0.7777 -0.0741  0.1664
 6011SOL    HW129495   2.024   2.057   4.272  2.7706 -0.4454 -1.2952
 6011SOL    HW229496   2.087   2.162   4.202  0.2362  0.8776 -0.9861
 6012SOL     OW29497   3.703   2.711   9.201 -0.0209  0.0690  0.4760
 6012SOL    HW129498   3.640   2.783   9.198 -1.3351 -1.0429  1.5705
 6012SOL    HW229499   3.773   2.752   9.252  1.4816 -1.4477 -0.3741
 6013SOL     OW29500   3.454   3.841   7.018 -0.0599 -0.2581 -0.1320
 6013SOL    HW129501   3.420   3.840   7.108 -0.2262  0.0124 -0.1932
 6013SOL    HW229502   3.493   3.929   7.010 -0.0296 -0.5385 -2.9084
 6014SOL     OW29503   3.458   0.408  13.974  0.0420  0.1547 -0.5204
 6014SOL    HW129504   3.490   0.318  13.974  0.2460  0.2140  0.8385
 6014SOL    HW229505   3.468   0.431  14.067 -1.9421  0.4241 -0.3622
 6015SOL     OW29506   1.147   0.728   7.243  0.3951  1.0277 -0.6832
 6015SOL    HW129507   1.148   0.646   7.193  1.1995 -0.1332  1.2155
 6015SOL    HW229508   1.178   0.787   7.175  2.8672 -1.1322 -1.4479
 6016SOL     OW29509   3.627   4.413   4.316 -0.5169  0.4735  0.2052
 6016SOL    HW129510   3.683   4.480   4.355  1.0327 -0.9424  0.4170
 6016SOL    HW229511   3.588   4.377   4.396  1.3037 -0.9534  0.4322
 6017SOL     OW29512   2.291   3.930   3.802 -0.0943  0.1245  0.5430
 6017SOL    HW129513   2.367   3.942   3.859  0.0191 -0.2272  0.4632
 6017SOL    HW229514   2.276   4.017   3.764  2.1314  1.5819  2.9516
 6018SOL     OW29515   2.074   3.848   7.778  0.2291  0.0300 -0.0079
 6018SOL    HW129516   2.011   3.898   7.727  0.4116  1.3087  1.0487
 6018SOL    HW229517   2.016   3.773   7.792 -0.8763  0.5319 -1.8572
 6019SOL     OW29518   2.604   4.338   7.943  0.3052  0.4920  0.1344
 6019SOL    HW129519   2.643   4.290   7.870 -1.9462  0.7583 -1.2407
 6019SOL    HW229520   2.591   4.257   7.991 -1.7952  1.1433  0.6618
 6020SOL     OW29521   2.288   3.202  11.649 -0.0819 -0.5408  0.1888
 6020SOL    HW129522   2.260   3.111  11.644 -0.6430 -0.2687 -1.3806
 6020SOL    HW229523   2.299   3.209  11.744  1.2001 -1.3021  0.0984
 6021SOL     OW29524   1.398   1.567   0.320  0.3647 -0.1364 -0.3537
 6021SOL    HW129525   1.489   1.592   0.302  0.9306 -1.4042  0.6980
 6021SOL    HW229526   1.378   1.610   0.403 -1.6263 -0.5161 -0.6353
 6022SOL     OW29527   1.413   3.562   1.065  0.2116 -0.1764  0.0407
 6022SOL    HW129528   1.338   3.504   1.054 -0.3293  0.7413 -1.1077
 6022SOL    HW229529   1.441   3.564   0.973  0.1382  0.5489  0.0341
 6023SOL     OW29530   3.623   3.713   6.702  0.1424  0.3671  0.4033
 6023SOL    HW129531   3.705   3.688   6.660  1.2971  0.4790  2.5547
 6023SOL    HW229532   3.606   3.794   6.654  1.7629  2.0145  2.6408
 6024SOL     OW29533   2.218   3.918  17.254  0.5106 -0.3100  0.0071
 6024SOL    HW129534   2.142   3.943  17.202  0.0097  1.3548  1.5433
 6024SOL    HW229535   2.195   3.829  17.280 -1.0533 -0.3741 -1.6418
 6025SOL     OW29536   2.844   0.926  11.662  0.1539 -0.0455  0.3139
 6025SOL    HW129537   2.757   0.947  11.627  1.0807  1.6426 -0.9812
 6025SOL    HW229538   2.829   0.854  11.723 -1.1347 -0.9763 -1.0950
 6026SOL     OW29539   4.490   1.488   7.307 -0.6289 -0.2148 -0.4657
 6026SOL    HW129540   4.546   1.455   7.237  1.0018 -0.5638  0.9878
 6026SOL    HW229541   4.543   1.562   7.335 -1.4378 -0.7149  2.4094
 6027SOL     OW29542   2.052   3.896   4.356 -0.0055  0.5489  0.2447
 6027SOL    HW129543   1.999   3.960   4.404 -0.2762  0.0818  0.5788
 6027SOL    HW229544   2.093   3.961   4.300  0.2752 -2.7601 -3.3849
 6028SOL     OW29545   1.921   3.300   2.656 -0.2898 -0.1716  0.0991
 6028SOL    HW129546   1.904   3.322   2.564 -1.9968 -0.2482  0.3883
 6028SOL    HW229547   1.911   3.205   2.652 -2.3497  0.0070  0.7832
 6029SOL     OW29548   3.168   3.370  17.367  0.1316 -0.0900  0.0967
 6029SOL    HW129549   3.153   3.451  17.319 -2.8348 -0.8079 -0.1747
 6029SOL    HW229550   3.144   3.392  17.457  0.3983  2.7870 -0.5367
 6030SOL     OW29551   4.563   2.359   6.731 -0.0705  0.5496 -0.2525
 6030SOL    HW129552   4.537   2.268   6.717  3.3044 -0.4390 -0.1184
 6030SOL    HW229553   4.632   2.344   6.795 -0.0715 -0.1129 -0.4051
 6031SOL     OW29554   2.763   0.480   3.164  0.2920 -0.6211  0.2398
 6031SOL    HW129555   2.718   0.521   3.237  2.2113  1.1934  0.4183
 6031SOL    HW229556   2.706   0.404   3.154  0.6002 -0.7932 -0.2490
 6032SOL     OW29557   3.405   1.475   3.720  0.7408 -0.0649 -0.1644
 6032SOL    HW129558   3.353   1.437   3.790 -0.1869  2.2251  0.4045
 6032SOL    HW229559   3.367   1.434   3.642 -0.0164 -1.0397  0.7299
 6033SOL     OW29560   0.423   3.512   7.262  0.5154 -0.1393  0.5149
 6033SOL    HW129561   0.419   3.570   7.338 -0.2301  2.6069 -1.6538
 6033SOL    HW229562   0.335   3.496   7.228  0.0943 -1.2513  2.1263
 6034SOL     OW29563   0.657   1.856   2.498  0.9266  0.2088  0.2786
 6034SOL    HW129564   0.616   1.774   2.469  0.6757  0.6168 -0.5144
 6034SOL    HW229565   0.698   1.838   2.582 -0.7483 -1.8217  0.6578
 6035SOL     OW29566   1.939   2.719   4.405 -0.1482  0.0613  0.1784
 6035SOL    HW129567   1.886   2.653   4.448 -0.8956  1.8098  1.9546
 6035SOL    HW229568   2.023   2.681   4.431  1.0285  1.1866 -1.9231
 6036SOL     OW29569   1.481   1.654  14.077 -0.5164  0.1627  0.1769
 6036SOL    HW129570   1.521   1.646  14.163 -1.1933  2.3341  0.6806
 6036SOL    HW229571   1.524   1.577  14.038 -0.4349 -0.1352  0.8607
 6037SOL     OW29572   3.675   3.877   2.419  0.0977 -0.2558  0.0091
 6037SOL    HW129573   3.729   3.954   2.400 -2.1536  1.3510  0.1376
 6037SOL    HW229574   3.586   3.905   2.443 -1.0485 -1.7347 -2.4715
 6038SOL     OW29575   0.919   2.989  15.408  0.2507 -0.1179 -0.6093
 6038SOL    HW129576   0.890   3.080  15.406  3.3397  0.8816  0.1573
 6038SOL    HW229577   1.014   2.983  15.409  0.3127  1.3758  1.3683
 6039SOL     OW29578   1.524   4.375   2.890 -0.9008  0.4460 -0.0760
 6039SOL    HW129579   1.437   4.336   2.900 -0.9800  1.3896  2.9856
 6039SOL    HW229580   1.563   4.320   2.958 -2.4495  1.4569  1.6188
 6040SOL     OW29581   3.486   2.195  16.929  0.5819  0.7143  0.0707
 6040SOL    HW129582   3.511   2.121  16.874  0.5410 -0.2365  1.3416
 6040SOL    HW229583   3.570   2.238  16.940  1.1521 -1.2085  3.1322
 6041SOL     OW29584   1.806   1.664   8.729  0.3371 -0.4572 -0.0524
 6041SOL    HW129585   1.730   1.684   8.784 -0.0266 -1.6607 -0.1143
 6041SOL    HW229586   1.768   1.623   8.652 -0.4645 -0.2388  0.2210
 6042SOL     OW29587   1.816   0.428   7.102  0.1106  0.0452 -0.0735
 6042SOL    HW129588   1.753   0.421   7.031  0.8242  3.1502 -0.9994
 6042SOL    HW229589   1.785   0.510   7.141 -1.4458  0.3951 -2.0735
 6043SOL     OW29590   1.831   2.600   5.564  0.4311 -0.1118  0.0785
 6043SOL    HW129591   1.745   2.562   5.548 -0.1901  2.2443 -2.2497
 6043SOL    HW229592   1.807   2.648   5.643 -0.2598 -0.8092  0.2894
 6044SOL     OW29593   4.633   1.743   3.250 -0.0807 -0.2454  0.0706
 6044SOL    HW129594   4.541   1.764   3.235  0.4770  1.5794 -0.8271
 6044SOL    HW229595   4.654   1.689   3.174 -0.2617 -0.9651  0.5402
 6045SOL     OW29596   0.809   3.367   5.445  0.0794  0.6702 -0.5894
 6045SOL    HW129597   0.775   3.359   5.356 -1.0722 -0.9524 -0.0027
 6045SOL    HW229598   0.747   3.427   5.488  1.1828  0.6843  0.9816
 6046SOL     OW29599   3.178   1.310   4.277 -0.0812 -0.0591  0.6186
 6046SOL    HW129600   3.090   1.308   4.239  0.0175  0.6283  0.3558
 6046SOL    HW229601   3.179   1.227   4.325  2.4552 -0.1767  0.3804
 6047SOL     OW29602   1.676   3.832   3.609 -0.2891  0.5727 -0.5701
 6047SOL    HW129603   1.621   3.788   3.544 -2.0041  2.0893 -0.1462
 6047SOL    HW229604   1.632   3.917   3.601 -1.0062  0.5287  3.0547
 6048SOL     OW29605   4.609   1.086  11.166  0.5882  0.2293  0.3132
 6048SOL    HW129606   4.703   1.103  11.167  0.6043  0.1702 -0.4094
 6048SOL    HW229607   4.600   1.029  11.090 -1.8220  0.4831  0.3983
 6049SOL     OW29608   3.000   3.402  15.917  0.5408 -0.1897 -0.0329
 6049SOL    HW129609   3.090   3.396  15.885  0.6110  3.4161 -0.5202
 6049SOL    HW229610   2.965   3.355  15.841  1.6221 -1.0010 -0.0220
 6050SOL     OW29611   3.519   0.907   0.855 -0.3761  0.0760  0.5489
 6050SOL    HW129612   3.431   0.870   0.858 -0.3414  0.0569  1.4020
 6050SOL    HW229613   3.571   0.847   0.908  1.7091  0.6229 -0.9242
 6051SOL     OW29614   2.017   0.103   1.743 -0.2134  0.0744 -0.5409
 6051SOL    HW129615   1.927   0.133   1.757 -0.0476  0.2934  0.0645
 6051SOL    HW229616   2.066   0.162   1.800  0.5411 -1.6103  0.5382
 6052SOL     OW29617   2.736   0.285   9.177  0.2712 -0.4332 -0.3072
 6052SOL    HW129618   2.723   0.223   9.250  0.2873  0.6968  0.6511
 6052SOL    HW229619   2.796   0.346   9.220  1.1122  0.8888 -3.3940
 6053SOL     OW29620   4.430   0.254   8.247  0.2345 -0.1048  0.1072
 6053SOL    HW129621   4.405   0.222   8.160  0.2066  0.0865  0.0450
 6053SOL    HW229622   4.463   0.343   8.233 -0.4015  0.3810  1.8106
 6054SOL     OW29623   4.105   1.668   3.322  0.2520 -0.2787  0.0626
 6054SOL    HW129624   4.187   1.669   3.272  0.9773 -2.5218  1.2342
 6054SOL    HW229625   4.065   1.743   3.277  0.4354  1.8036  3.4005
 6055SOL     OW29626   1.071   3.413  15.387  0.3202 -0.2178 -0.2387
 6055SOL    HW129627   1.078   3.508  15.392 -0.0713 -0.1874 -0.2531
 6055SOL    HW229628   1.163   3.391  15.402  1.0293  2.2771 -0.8606
 6056SOL     OW29629   1.412   3.115   5.200  0.0140  0.2457  0.0780
 6056SOL    HW129630   1.403   3.166   5.120 -0.2856  3.5032  2.2244
 6056SOL    HW229631   1.464   3.043   5.165  1.7143  0.7697  1.5001
 6057SOL     OW29632   0.289   1.191   3.806  0.0476 -0.1243  0.5607
 6057SOL    HW129633   0.296   1.101   3.840  1.6436 -0.4668 -0.6980
 6057SOL    HW229634   0.289   1.172   3.712 -0.1559 -0.7621  0.6828
 6058SOL     OW29635   3.531   2.243   3.082 -0.0144 -0.0142  0.1126
 6058SOL    HW129636   3.553   2.155   3.050 -2.9497 -0.2341 -1.4024
 6058SOL    HW229637   3.615   2.289   3.078 -0.3738  0.7464  1.3106
 6059SOL     OW29638   3.610   2.617   5.213 -0.2341  0.4390  0.4968
 6059SOL    HW129639   3.670   2.664   5.154  0.4414 -0.0845  0.7712
 6059SOL    HW229640   3.600   2.531   5.171  0.5236  0.8531 -0.5469
 6060SOL     OW29641   3.042   3.538  17.179 -0.2917 -0.0241  0.2069
 6060SOL    HW129642   3.022   3.591  17.101 -1.3866 -0.3636  0.2568
 6060SOL    HW229643   2.978   3.471  17.154  2.0998 -2.5901  0.9657
 6061SOL     OW29644   2.806   0.586   8.051  0.0449 -0.0713 -0.6659
 6061SOL    HW129645   2.819   0.492   8.065 -0.3688  0.1174  0.8836
 6061SOL    HW229646   2.716   0.606   8.074 -0.2348 -1.3461 -0.6729
 6062SOL     OW29647   2.842   3.044   5.259  0.0852  0.0914 -0.5769
 6062SOL    HW129648   2.837   3.030   5.354  1.1707 -2.5537 -0.9325
 6062SOL    HW229649   2.926   3.006   5.237  0.3586  0.3660 -0.0113
 6063SOL     OW29650   3.918   1.922   9.457  0.2782  0.0809  0.0085
 6063SOL    HW129651   3.996   1.973   9.434 -1.3087  2.2680 -0.4979
 6063SOL    HW229652   3.952   1.834   9.438  1.2076  0.6990 -1.2220
 6064SOL     OW29653   4.242   2.117  12.919 -0.1459  0.0057 -0.2370
 6064SOL    HW129654   4.330   2.144  12.893 -0.2356  1.8150  1.3260
 6064SOL    HW229655   4.248   2.118  13.014 -0.2640 -2.9650 -0.2037
 6065SOL     OW29656   0.488   4.254   8.457  0.3591 -0.1891  0.2589
 6065SOL    HW129657   0.444   4.287   8.536 -1.9935  0.1270 -1.1793
 6065SOL    HW229658   0.549   4.187   8.487  0.1638 -0.4809 -0.0000
 6066SOL     OW29659   4.453   0.633   5.611 -0.3916  0.3320 -0.0454
 6066SOL    HW129660   4.405   0.706   5.649  0.7301  0.0313  1.9533
 6066SOL    HW229661   4.526   0.625   5.673 -0.0542  1.2477 -0.3111
 6067SOL     OW29662   2.518   2.686   5.993  0.2269 -0.7704 -0.2758
 6067SOL    HW129663   2.433   2.652   5.964 -0.2524 -0.3938  0.6936
 6067SOL    HW229664   2.562   2.603   6.013  0.9413 -0.2118  0.4417
 6068SOL     OW29665   2.010   4.366  10.094 -0.0034 -0.5004  0.0036
 6068SOL    HW129666   1.951   4.290  10.100  1.7005 -1.9066 -0.9162
 6068SOL    HW229667   2.027   4.389  10.185  1.0359  1.1077 -0.6136
 6069SOL     OW29668   1.738   2.545  11.678  0.3224  0.0713 -0.2868
 6069SOL    HW129669   1.724   2.636  11.705  1.1133  0.0087  0.3670
 6069SOL    HW229670   1.660   2.526  11.627 -0.1651  1.9084 -0.2330
 6070SOL     OW29671   0.879   2.107  10.985 -0.1276  0.2089 -0.1000
 6070SOL    HW129672   0.877   2.031  10.928  0.5044  1.0333 -1.2292
 6070SOL    HW229673   0.802   2.097  11.041 -1.1819 -0.8607 -1.7614
 6071SOL     OW29674   2.617   3.029   2.165  0.0891 -0.5466 -0.5611
 6071SOL    HW129675   2.679   3.027   2.238 -0.6488 -1.8782  0.0353
 6071SOL    HW229676   2.607   2.939   2.136 -1.2486 -0.6072  0.0735
 6072SOL     OW29677   3.098   4.164   3.223 -0.2937  0.2327 -0.0081
 6072SOL    HW129678   3.085   4.221   3.147 -0.2977  1.5219  0.9574
 6072SOL    HW229679   3.011   4.126   3.231  0.2395 -0.6030  1.9085
 6073SOL     OW29680   4.552   2.856  11.090 -0.0645 -0.0863  0.1199
 6073SOL    HW129681   4.594   2.859  11.176  1.0280 -0.3401 -0.4032
 6073SOL    HW229682   4.616   2.911  11.045  0.9893  0.0533  1.7656
 6074SOL     OW29683   4.501   3.701   3.597  0.0310  0.3370 -0.0844
 6074SOL    HW129684   4.561   3.696   3.523  1.6823  0.0784  1.2529
 6074SOL    HW229685   4.536   3.775   3.648  0.5816 -0.9794  1.4359
 6075SOL     OW29686   2.597   4.439   5.670 -0.1853  0.0547  0.1670
 6075SOL    HW129687   2.588   4.521   5.621 -2.0251  0.4220  1.1425
 6075SOL    HW229688   2.514   4.441   5.718  0.0272 -1.6625  0.5970
 6076SOL     OW29689   4.508   0.375   9.271  0.1068  0.0596  0.2134
 6076SOL    HW129690   4.574   0.337   9.328  0.3730  0.4942  0.1989
 6076SOL    HW229691   4.564   0.427   9.213 -0.0055  0.5497  0.5368
 6077SOL     OW29692   0.519   1.132  11.916 -0.2499 -0.2310  0.4326
 6077SOL    HW129693   0.462   1.068  11.874  0.0470  2.3455 -3.9834
 6077SOL    HW229694   0.556   1.165  11.834 -1.6607  0.7877  0.1986
 6078SOL     OW29695   0.742   2.579   9.639 -0.7723  0.0061  0.0798
 6078SOL    HW129696   0.771   2.626   9.717  0.9588  0.0447 -0.5964
 6078SOL    HW229697   0.684   2.512   9.678 -0.7419  0.3394  0.6991
 6079SOL     OW29698   0.902   1.284   8.172 -0.3249 -0.4460 -0.0445
 6079SOL    HW129699   0.830   1.262   8.231 -0.5797 -3.0549 -1.2876
 6079SOL    HW229700   0.957   1.328   8.236 -2.8627  0.8023  1.2825
 6080SOL     OW29701   0.531   0.286   7.003  0.7652  0.0226 -0.8131
 6080SOL    HW129702   0.441   0.290   7.035  1.3846 -0.6295  1.0381
 6080SOL    HW229703   0.535   0.355   6.937 -0.8610  0.3882 -0.5151
 6081SOL     OW29704   4.664   4.217   8.876  0.4574 -0.0484  0.5650
 6081SOL    HW129705   4.592   4.274   8.847  1.1369  0.0882 -0.8653
 6081SOL    HW229706   0.016   4.271   8.850 -0.2955  0.8567  0.2571
 6082SOL     OW29707   1.270   0.555  13.145  0.6757  0.3795  0.0443
 6082SOL    HW129708   1.231   0.533  13.229  1.3100 -1.0514 -0.0327
 6082SOL    HW229709   1.193   0.582  13.095  2.4310  0.3757 -2.6952
 6083SOL     OW29710   2.571   0.875   1.108 -0.3546 -0.0674  0.0025
 6083SOL    HW129711   2.588   0.842   1.197 -2.9320 -3.5301 -0.7992
 6083SOL    HW229712   2.617   0.959   1.105  2.0289 -1.3011  1.9480
 6084SOL     OW29713   3.193   3.890  13.375  0.5217  0.4901 -0.2376
 6084SOL    HW129714   3.239   3.930  13.449  0.4789  0.4570 -0.1928
 6084SOL    HW229715   3.168   3.972  13.334 -1.9299 -0.2820 -0.2614
 6085SOL     OW29716   3.963   2.522   9.366  0.4110 -0.5331 -0.0422
 6085SOL    HW129717   3.899   2.452   9.372  1.6696 -1.8094 -1.3056
 6085SOL    HW229718   3.988   2.511   9.274  0.6876 -1.4439  0.1372
 6086SOL     OW29719   3.483   2.405   2.859  0.3001  0.0555 -0.2861
 6086SOL    HW129720   3.564   2.379   2.815  2.0615  0.3915  2.8142
 6086SOL    HW229721   3.486   2.341   2.929  1.2450  0.2716 -0.1299
 6087SOL     OW29722   1.325   1.112   4.316 -0.1280  0.2664 -0.3363
 6087SOL    HW129723   1.268   1.060   4.373 -0.1251  1.8710  1.1499
 6087SOL    HW229724   1.314   1.068   4.232  3.6974 -0.4575 -0.4403
 6088SOL     OW29725   4.357   2.500  11.585 -0.2365  0.2005  0.2687
 6088SOL    HW129726   4.419   2.572  11.569  1.2881 -1.0262  0.5932
 6088SOL    HW229727   4.334   2.481  11.494  1.8042  1.6410 -0.5568
 6089SOL     OW29728   1.916   4.048   5.190 -0.6035  0.5377 -0.5419
 6089SOL    HW129729   1.821   4.056   5.184 -0.8602 -1.5827  0.5020
 6089SOL    HW229730   1.937   4.141   5.193 -2.9898  1.0596 -0.5119
 6090SOL     OW29731   3.723   4.464   6.322 -0.3795  0.0617 -0.2444
 6090SOL    HW129732   3.645   4.520   6.321  1.2343  2.3148  2.5165
 6090SOL    HW229733   3.728   4.445   6.228 -0.1893  2.3531 -0.6984
 6091SOL     OW29734   1.084   0.517   4.150  0.0188  0.1062 -0.6729
 6091SOL    HW129735   0.999   0.506   4.108 -1.0056 -1.2904  1.7707
 6091SOL    HW229736   1.056   0.528   4.241 -2.7846 -0.4336 -1.4852
 6092SOL     OW29737   1.803   0.920   3.093  0.3714  0.1916 -0.3457
 6092SOL    HW129738   1.892   0.955   3.101 -0.0460  1.8678 -3.0987
 6092SOL    HW229739   1.809   0.831   3.129  0.5399 -0.0630 -1.0060
 6093SOL     OW29740   2.388   4.611   3.118 -0.0992  0.2494 -0.3382
 6093SOL    HW129741   2.314   4.552   3.105  1.9280 -1.5069 -3.8606
 6093SOL    HW229742   2.398   4.618   3.213  2.2486 -0.0046 -0.5567
 6094SOL     OW29743   4.282   1.429   0.339  0.1709  0.0309 -0.0102
 6094SOL    HW129744   4.235   1.388   0.266 -1.9686  2.2516  0.1113
 6094SOL    HW229745   4.313   1.350   0.384 -1.8048  0.0072  1.3290
 6095SOL     OW29746   2.016   4.295   2.939  0.0769 -0.3094  0.4224
 6095SOL    HW129747   1.936   4.346   2.927  0.3746 -0.4383 -2.0605
 6095SOL    HW229748   1.996   4.219   2.993 -2.0501  0.7805  1.2002
 6096SOL     OW29749   1.226   4.565   4.821 -0.2063 -0.1384  0.8712
 6096SOL    HW129750   1.145   4.516   4.809 -0.3869  0.2386  0.5453
 6096SOL    HW229751   1.233   4.567   4.916 -1.0841  0.1877  0.9309
 6097SOL     OW29752   0.912   2.280  13.034 -0.3904  0.3171 -0.3711
 6097SOL    HW129753   0.868   2.346  12.980 -0.7882  1.2410  1.0752
 6097SOL    HW229754   0.926   2.210  12.971 -0.0958  0.3684 -0.3623
 6098SOL     OW29755   1.936   4.155   4.427  0.4595 -0.0934  0.1620
 6098SOL    HW129756   1.913   4.159   4.520 -0.9318 -0.0495 -0.1881
 6098SOL    HW229757   1.896   4.232   4.388  0.0823  1.1433  2.9903
 6099SOL     OW29758   4.406   3.565   4.303 -0.2593 -0.2236  0.7251
 6099SOL    HW129759   4.479   3.505   4.316 -0.8049 -1.5652 -2.4086
 6099SOL    HW229760   4.455   3.628   4.250 -2.8798  0.9102 -0.3555
 6100SOL     OW29761   3.712   1.776  12.604 -0.4518 -0.5230 -0.6048
 6100SOL    HW129762   3.677   1.734  12.525 -1.3141  0.1542 -0.5857
 6100SOL    HW229763   3.646   1.845  12.614  0.2420  0.2315 -1.1466
 6101SOL     OW29764   1.543   1.728   0.031 -0.1004 -0.1859  0.5960
 6101SOL    HW129765   1.590   1.715  17.642  0.4925  1.5991  0.6527
 6101SOL    HW229766   1.453   1.698   0.018  0.1808 -0.0697 -1.6842
 6102SOL     OW29767   2.504   1.084   4.751 -0.2447 -0.4176  0.2274
 6102SOL    HW129768   2.434   1.031   4.789 -0.9486  0.1156 -0.3390
 6102SOL    HW229769   2.562   1.083   4.827  1.0672 -0.1269 -0.7535
 6103SOL     OW29770   2.454   2.461  15.974 -0.5768  0.2389  0.2045
 6103SOL    HW129771   2.538   2.455  15.929 -0.1839 -0.4801  1.0257
 6103SOL    HW229772   2.460   2.545  16.019  1.9914  0.4099 -0.4680
 6104SOL     OW29773   3.128   1.195   0.843  0.6003 -0.4305  1.2065
 6104SOL    HW129774   3.105   1.267   0.901 -0.4057 -0.5574  0.9627
 6104SOL    HW229775   3.221   1.180   0.862  0.3779 -2.6596  0.5163
 6105SOL     OW29776   0.083   0.104   4.846 -0.0472 -0.9128  0.2522
 6105SOL    HW129777   0.021   0.038   4.814 -1.8686  0.2604  1.3464
 6105SOL    HW229778   0.142   0.107   4.770  1.5838 -1.0656  1.5276
 6106SOL     OW29779   1.687   0.933   4.987  0.2564  0.1608  0.2500
 6106SOL    HW129780   1.622   1.002   4.992 -2.5805 -2.5551  0.4827
 6106SOL    HW229781   1.749   0.967   5.052  0.7616 -1.7022  0.7289
 6107SOL     OW29782   1.279   3.327  15.592  0.3655  0.6115  0.0132
 6107SOL    HW129783   1.351   3.386  15.568 -0.4853  1.3583 -0.7217
 6107SOL    HW229784   1.331   3.255  15.556 -1.2751 -0.1302 -0.8727
 6108SOL     OW29785   0.468   0.312   1.062 -0.0676 -0.4837  0.2611
 6108SOL    HW129786   0.424   0.245   1.010 -0.3713  1.4507 -1.9415
 6108SOL    HW229787   0.553   0.312   1.019 -1.3632 -0.6675 -2.2719
 6109SOL     OW29788   2.309   3.853  13.582  0.2874 -0.0165  0.2892
 6109SOL    HW129789   2.310   3.897  13.497  2.1888 -0.7193 -0.0521
 6109SOL    HW229790   2.236   3.902  13.619 -1.1790 -1.0101 -1.3162
 6110SOL     OW29791   3.494   4.184  10.422 -0.0165  0.0863 -0.4022
 6110SOL    HW129792   3.497   4.211  10.514  0.9752  2.2491 -1.0617
 6110SOL    HW229793   3.546   4.253  10.382 -1.4476  0.9110 -0.8608
 6111SOL     OW29794   1.212   3.592   4.422 -0.4863  0.4837  0.0783
 6111SOL    HW129795   1.292   3.617   4.469  0.2640 -1.0197 -0.4070
 6111SOL    HW229796   1.156   3.575   4.497 -0.5592 -0.8240 -0.2732
 6112SOL     OW29797   0.652   2.699  12.179  0.1797  0.3784 -0.4016
 6112SOL    HW129798   0.595   2.770  12.207 -0.9686 -1.0374  0.8352
 6112SOL    HW229799   0.612   2.613  12.190  1.0487  0.0719  0.3993
 6113SOL     OW29800   0.992   0.442   6.181 -0.5021  0.0419  0.7160
 6113SOL    HW129801   0.914   0.465   6.231 -1.9061 -1.0924 -0.9434
 6113SOL    HW229802   0.946   0.388   6.117  3.0057  0.0222 -1.8242
 6114SOL     OW29803   4.448   3.683  14.409  0.2033 -0.0072  0.0333
 6114SOL    HW129804   4.531   3.714  14.371 -0.5626  1.0331 -0.7642
 6114SOL    HW229805   4.393   3.669  14.332  0.1516 -0.2026  0.1036
 6115SOL     OW29806   1.110   4.531   5.091  0.5163  0.0612 -0.1878
 6115SOL    HW129807   1.186   4.527   5.149 -1.1231 -0.0402  1.9265
 6115SOL    HW229808   1.101   4.437   5.072 -1.1528  0.2128 -0.1371
 6116SOL     OW29809   0.390   0.922   0.773 -0.6251  0.2406  0.1699
 6116SOL    HW129810   0.477   0.955   0.797  0.3296 -1.7054 -0.6240
 6116SOL    HW229811   0.372   0.988   0.706 -0.1665 -0.0547 -0.2404
 6117SOL     OW29812   3.554   4.516   2.659 -0.0643  0.0124 -0.0374
 6117SOL    HW129813   3.483   4.534   2.719 -1.3581 -2.7688 -0.7249
 6117SOL    HW229814   3.614   4.475   2.721  1.5660 -0.3899 -1.8871
 6118SOL     OW29815   4.038   0.815   5.012  0.1588 -0.0429  0.9556
 6118SOL    HW129816   4.022   0.729   5.050  1.5371 -0.5927  0.3127
 6118SOL    HW229817   4.014   0.872   5.085 -1.3104  1.3641 -0.6015
 6119SOL     OW29818   3.683   2.182  12.491  0.3307 -0.0812 -0.5773
 6119SOL    HW129819   3.731   2.215  12.567  1.0207 -0.4950 -0.8358
 6119SOL    HW229820   3.602   2.233  12.496 -0.6805 -1.7594 -0.0563
 6120SOL     OW29821   3.276   2.810   9.115  0.0697  0.2758 -0.1115
 6120SOL    HW129822   3.215   2.738   9.133 -0.6327  0.5526 -1.4196
 6120SOL    HW229823   3.222   2.883   9.145  1.4182  0.6288  1.4825
 6121SOL     OW29824   0.932   2.750   4.925  0.1742  0.3109 -0.6427
 6121SOL    HW129825   0.970   2.668   4.895 -0.0898 -0.1331  0.2238
 6121SOL    HW229826   0.953   2.804   4.848 -2.4823 -0.2932 -1.7998
 6122SOL     OW29827   2.226   2.604  16.963 -0.3384  0.5335 -0.4023
 6122SOL    HW129828   2.253   2.681  16.912 -0.1065 -0.7437 -2.2023
 6122SOL    HW229829   2.296   2.541  16.946 -0.1096 -0.2194  3.3795
 6123SOL     OW29830   0.153   1.137  15.385  0.0963 -0.1360 -0.7346
 6123SOL    HW129831   0.177   1.089  15.305  2.0988 -2.3155  1.1912
 6123SOL    HW229832   0.205   1.215  15.369 -1.4721  1.7755  3.5180
 6124SOL     OW29833   0.542   1.968   7.161  0.1087 -0.3255 -0.0651
 6124SOL    HW129834   0.590   1.888   7.139  0.3005 -0.5888  1.2940
 6124SOL    HW229835   0.455   1.930   7.177  0.0250  1.0861  2.8651
 6125SOL     OW29836   1.633   4.343   5.159 -0.5541 -0.3881  0.1681
 6125SOL    HW129837   1.709   4.401   5.159 -0.8449 -0.0063 -0.5501
 6125SOL    HW229838   1.560   4.405   5.148  0.2134  1.0280  2.9589
 6126SOL     OW29839   0.507   4.670  11.235 -0.8955 -0.1695  0.0331
 6126SOL    HW129840   0.485   4.700  11.323  0.3064 -0.5431  0.4522
 6126SOL    HW229841   0.565   4.600  11.264  0.6968 -0.0517 -2.7795
 6127SOL     OW29842   0.538   3.090   7.766 -0.0342 -0.3112  0.0987
 6127SOL    HW129843   0.493   3.031   7.705 -0.4569 -0.5004  0.5992
 6127SOL    HW229844   0.490   3.171   7.746  0.4531  0.1031  0.5882
 6128SOL     OW29845   0.528   2.588   4.359  0.0220 -0.6485  0.1531
 6128SOL    HW129846   0.499   2.657   4.419 -2.8740 -1.1869 -0.6577
 6128SOL    HW229847   0.601   2.557   4.414 -0.1205 -0.2015  0.5929
 6129SOL     OW29848   0.770   3.576   1.276  0.3216  0.1329 -0.1275
 6129SOL    HW129849   0.773   3.512   1.204 -0.7318 -2.5006  2.1794
 6129SOL    HW229850   0.761   3.656   1.224  0.9899  0.4301  0.2109
 6130SOL     OW29851   3.410   1.699   5.408  0.4667 -0.5447  0.8627
 6130SOL    HW129852   3.436   1.607   5.420  0.7083 -0.4327  1.2294
 6130SOL    HW229853   3.420   1.735   5.497 -3.1393 -0.2247  1.1030
 6131SOL     OW29854   3.488   1.713  14.663  0.3999 -0.4459  0.1079
 6131SOL    HW129855   3.482   1.626  14.704  1.6320 -0.6773 -0.2044
 6131SOL    HW229856   3.564   1.705  14.606  1.6813 -0.5397  1.8026
 6132SOL     OW29857   1.005   0.748  11.380 -0.6799 -0.4943 -0.0604
 6132SOL    HW129858   1.002   0.843  11.397  1.8016 -0.3198 -0.6555
 6132SOL    HW229859   1.069   0.732  11.449  1.9873 -1.5325 -2.7403
 6133SOL     OW29860   2.019   2.854   2.799 -0.2223  0.5028 -0.7154
 6133SOL    HW129861   1.932   2.867   2.838  0.3568  2.4353 -0.0649
 6133SOL    HW229862   2.018   2.759   2.786 -1.1605  0.1711  1.7270
 6134SOL     OW29863   3.804   1.853   6.383 -0.0898 -0.2335  0.1486
 6134SOL    HW129864   3.892   1.875   6.413 -0.5957  0.4760  1.0696
 6134SOL    HW229865   3.818   1.867   6.289 -1.3126  0.5833  0.0794
 6135SOL     OW29866   0.658   1.721   7.423 -0.1391 -0.6597  0.2222
 6135SOL    HW129867   0.715   1.650   7.395 -0.3378 -0.9599  0.5756
 6135SOL    HW229868   0.577   1.676   7.398  0.7314 -1.0775 -1.8189
 6136SOL     OW29869   0.738   1.409  13.191  0.1165 -0.7397 -0.2817
 6136SOL    HW129870   0.642   1.409  13.190  0.1049  0.5035  1.2323
 6136SOL    HW229871   0.748   1.408  13.286  1.9659 -1.5081 -0.4782
 6137SOL     OW29872   2.119   1.764   5.264  0.0454 -0.2461  0.1779
 6137SOL    HW129873   2.093   1.854   5.283  0.8240  0.2406 -1.0582
 6137SOL    HW229874   2.078   1.761   5.178  1.0598 -1.5148 -0.2643
 6138SOL     OW29875   0.138   3.573   5.593  0.3309 -0.2963  0.3821
 6138SOL    HW129876   0.182   3.604   5.672  1.8233  1.4346 -1.1368
 6138SOL    HW229877   0.201   3.583   5.522 -0.2730 -2.5763 -0.4906
 6139SOL     OW29878   3.198   2.223  12.472 -0.1173  0.2640 -0.1989
 6139SOL    HW129879   3.182   2.150  12.531  4.2567 -0.2436  0.3238
 6139SOL    HW229880   3.186   2.176  12.389  0.4015  0.4555 -0.3847
 6140SOL     OW29881   1.434   2.543   0.044  0.1278 -0.2494 -0.1653
 6140SOL    HW129882   1.522   2.505   0.055 -0.2499 -1.0038  0.2288
 6140SOL    HW229883   1.431   2.618   0.104 -0.6402  0.8413 -1.5722
 6141SOL     OW29884   1.720   1.790   7.141 -0.2062 -0.4186  0.3907
 6141SOL    HW129885   1.677   1.799   7.226  1.0199 -1.1718  1.1005
 6141SOL    HW229886   1.672   1.862   7.101 -0.2572  0.3227  1.7910
 6142SOL     OW29887   4.158   2.328   7.969 -0.3759 -0.4942 -0.0725
 6142SOL    HW129888   4.206   2.275   8.032 -0.8600  0.2777  0.9631
 6142SOL    HW229889   4.220   2.342   7.898 -0.8054 -2.1721 -0.7679
 6143SOL     OW29890   1.047   4.203   9.798 -0.0015  0.1453  0.1098
 6143SOL    HW129891   1.107   4.251   9.741  1.0539 -0.4222  0.7306
 6143SOL    HW229892   1.099   4.201   9.878  0.9777  0.4632 -0.5157
 6144SOL     OW29893   1.266   0.162  17.067 -0.4355 -0.6447 -0.4709
 6144SOL    HW129894   1.334   0.175  17.133  1.0701 -1.8565 -1.7962
 6144SOL    HW229895   1.215   0.084  17.090  1.5614 -1.8695 -0.2202
 6145SOL     OW29896   0.898   2.066   2.038  0.0601  0.2354 -0.4735
 6145SOL    HW129897   0.869   2.102   1.954  0.0780  0.5958 -0.3251
 6145SOL    HW229898   0.863   2.141   2.086  0.4836 -0.4154  0.8494
 6146SOL     OW29899   2.712   2.099   2.205  0.3155 -0.2252 -0.3704
 6146SOL    HW129900   2.789   2.135   2.161  0.2299 -1.8909 -1.8789
 6146SOL    HW229901   2.669   2.170   2.253  1.6679 -0.1817  0.7825
 6147SOL     OW29902   2.285   0.478   3.281  0.1828  0.0344  0.2872
 6147SOL    HW129903   2.252   0.447   3.365 -0.4959 -1.9612 -0.7349
 6147SOL    HW229904   2.211   0.440   3.235 -0.5573  0.0091  1.5027
 6148SOL     OW29905   3.445   3.105   3.694 -0.3354 -0.6943  0.2551
 6148SOL    HW129906   3.476   3.015   3.710  0.0159 -0.6460 -0.1593
 6148SOL    HW229907   3.368   3.087   3.641 -0.8500  2.3257 -0.0218
 6149SOL     OW29908   3.043   4.452   8.667 -0.5180  0.0092  0.1785
 6149SOL    HW129909   2.973   4.470   8.605 -1.0522 -0.4272  0.6487
 6149SOL    HW229910   2.989   4.410   8.733 -2.6993 -0.4843 -1.9335
 6150SOL     OW29911   0.314   2.101   6.689 -0.7284 -0.3957 -0.2610
 6150SOL    HW129912   0.371   2.177   6.683 -0.3782 -0.7242 -1.0736
 6150SOL    HW229913   0.253   2.119   6.618  0.9736  1.7854 -1.1600
 6151SOL     OW29914   0.909   2.977   4.496 -0.0323  0.5300  0.3689
 6151SOL    HW129915   0.831   2.931   4.465 -0.6344  0.9929  1.2215
 6151SOL    HW229916   0.884   3.002   4.585 -1.2519 -1.4515  0.5839
 6152SOL     OW29917   3.338   0.983  15.110 -0.2095  0.5141  0.3145
 6152SOL    HW129918   3.414   0.993  15.168 -0.1383 -1.8999  0.6574
 6152SOL    HW229919   3.255   0.972  15.157 -0.4434 -0.8268 -0.4423
 6153SOL     OW29920   2.624   1.449   5.863  0.2114  0.0253  0.4860
 6153SOL    HW129921   2.535   1.426   5.836  1.0533  0.3273 -2.5688
 6153SOL    HW229922   2.672   1.406   5.792  0.3737 -1.3638  1.4539
 6154SOL     OW29923   4.506   2.240   8.120 -0.7372 -0.0079  0.5328
 6154SOL    HW129924   4.568   2.171   8.142  0.1751  0.7430  0.3048
 6154SOL    HW229925   4.420   2.197   8.125 -0.6489 -0.3258 -0.8600
 6155SOL     OW29926   2.601   1.220  11.304 -0.0193  0.2559 -0.0594
 6155SOL    HW129927   2.516   1.190  11.338 -0.0627 -1.1653 -1.4324
 6155SOL    HW229928   2.634   1.275  11.376  1.0246 -1.5562  0.8618
 6156SOL     OW29929   3.429   0.853   1.842  0.6394  0.1447 -0.1079
 6156SOL    HW129930   3.466   0.921   1.787 -1.0286 -0.6873 -2.2338
 6156SOL    HW229931   3.488   0.785   1.811  0.5422  0.6993 -1.4859
 6157SOL     OW29932   2.990   2.600  12.199  0.2517 -0.2791  0.4652
 6157SOL    HW129933   2.895   2.615  12.196  0.4340  0.8795  0.3662
 6157SOL    HW229934   2.982   2.506  12.214 -0.6592 -0.5536 -1.6875
 6158SOL     OW29935   1.181   1.294   2.111 -0.3287 -0.2309  0.5652
 6158SOL    HW129936   1.188   1.298   2.016 -1.6007 -0.0470  0.4808
 6158SOL    HW229937   1.147   1.208   2.138 -1.5285  0.0899  0.0686
 6159SOL     OW29938   3.772   0.194   5.694  0.2133  0.4229  0.3315
 6159SOL    HW129939   3.864   0.202   5.719  0.4748  1.4003 -0.9506
 6159SOL    HW229940   3.740   0.284   5.705 -0.0108  0.6307 -2.0807
 6160SOL     OW29941   0.942   4.359   4.322 -0.0549  0.9367 -0.4726
 6160SOL    HW129942   0.878   4.289   4.336  1.3883 -0.7311 -2.2644
 6160SOL    HW229943   1.001   4.362   4.397 -0.7935  1.6825  0.0805
 6161SOL     OW29944   3.088   1.047   9.029  0.0584  0.0401 -0.2741
 6161SOL    HW129945   3.078   1.089   8.943  2.3882  2.2756  0.5721
 6161SOL    HW229946   3.070   0.955   9.007 -1.5674  0.3626 -0.3226
 6162SOL     OW29947   3.486   1.415   1.503  0.1640 -0.0657  0.1351
 6162SOL    HW129948   3.525   1.449   1.422 -0.6746 -1.8336 -1.0124
 6162SOL    HW229949   3.399   1.419   1.463  0.0535 -0.9401  0.2889
 6163SOL     OW29950   0.669   2.375   2.716  0.4672 -0.5149 -0.0828
 6163SOL    HW129951   0.685   2.438   2.646 -1.4809 -0.0298 -0.0980
 6163SOL    HW229952   0.574   2.371   2.705  0.4971 -1.0969 -0.1159
 6164SOL     OW29953   1.176   4.500  13.941 -0.2556 -0.3034  0.0378
 6164SOL    HW129954   1.160   4.406  13.952  0.6033 -0.3484  0.8949
 6164SOL    HW229955   1.238   4.512  14.013 -1.1659 -2.4029  1.1631
 6165SOL     OW29956   1.981   0.272   4.878 -0.0751 -0.3684 -0.5309
 6165SOL    HW129957   1.893   0.254   4.910  0.4941 -0.8366  0.7714
 6165SOL    HW229958   2.011   0.182   4.867 -0.5149 -0.2704 -2.5556
 6166SOL     OW29959   3.472   2.185  12.810 -0.5453 -0.0978  0.1702
 6166SOL    HW129960   3.433   2.135  12.882  1.1153  0.8546  1.7282
 6166SOL    HW229961   3.460   2.124  12.737  1.0317 -0.8406  0.5242
 6167SOL     OW29962   3.658   2.711  14.047  0.6063 -0.1463 -0.3482
 6167SOL    HW129963   3.626   2.677  14.130 -0.8330 -1.1202 -1.3044
 6167SOL    HW229964   3.585   2.771  14.029 -0.9371 -1.5335  1.2924
 6168SOL     OW29965   3.876   0.601   3.492  0.1022  0.2492  0.2193
 6168SOL    HW129966   3.921   0.666   3.438 -0.1552  0.3546  0.1328
 6168SOL    HW229967   3.913   0.520   3.455  0.8927  0.2353  1.0314
 6169SOL     OW29968   4.544   3.850   1.211 -0.2845  0.0120 -0.2663
 6169SOL    HW129969   4.515   3.941   1.198  0.8030  0.5212  0.8408
 6169SOL    HW229970   4.458   3.809   1.219 -0.0228 -0.5774 -0.4908
 6170SOL     OW29971   2.746   1.918   7.890  0.1702 -0.4260  0.1219
 6170SOL    HW129972   2.651   1.910   7.898  0.2936 -0.4145  1.4655
 6170SOL    HW229973   2.772   1.833   7.854  1.4901 -0.4004  1.0565
 6171SOL     OW29974   3.942   2.769   8.390 -0.3876  0.1860  0.2676
 6171SOL    HW129975   3.850   2.756   8.413 -0.4825  1.5298  0.6078
 6171SOL    HW229976   3.929   2.827   8.315 -2.6187  2.5454  2.5150
 6172SOL     OW29977   4.057   1.679   7.078  0.6723  0.5948 -0.3617
 6172SOL    HW129978   4.006   1.759   7.085 -1.9237 -1.0066 -0.7625
 6172SOL    HW229979   4.122   1.692   7.147  1.5891 -1.9704 -0.7295
 6173SOL     OW29980   1.060   3.467  14.299 -0.1858  0.1851  0.9137
 6173SOL    HW129981   1.132   3.457  14.362  0.6526  1.0199  0.0920
 6173SOL    HW229982   1.002   3.510  14.362  2.4194  5.6859 -0.3887
 6174SOL     OW29983   0.937   1.124  10.259 -0.7339 -0.1581  0.2884
 6174SOL    HW129984   1.019   1.076  10.246 -1.1202 -0.7937  0.1974
 6174SOL    HW229985   0.952   1.198  10.201 -2.1082 -0.1485 -0.0555
 6175SOL     OW29986   2.095   1.258   5.469  0.4208 -0.3607 -0.5330
 6175SOL    HW129987   2.105   1.339   5.418  0.2613  0.9887  1.5684
 6175SOL    HW229988   2.185   1.239   5.493 -0.5919 -2.5332  1.5865
 6176SOL     OW29989   1.237   3.921   4.664 -0.1969 -0.2215 -0.0417
 6176SOL    HW129990   1.257   3.950   4.575  0.4961 -1.6252 -0.3403
 6176SOL    HW229991   1.160   3.866   4.652 -0.2906  0.9369 -4.8116
 6177SOL     OW29992   2.345   0.797   5.113 -0.0042  0.7067  0.1825
 6177SOL    HW129993   2.394   0.811   5.032  1.0063  0.5256  0.7624
 6177SOL    HW229994   2.384   0.869   5.163 -0.2591 -0.1636  1.6298
 6178SOL     OW29995   4.014   4.692  13.419  0.1779  0.7111  0.2719
 6178SOL    HW129996   3.920   4.705  13.407 -0.3652 -3.0465  0.5023
 6178SOL    HW229997   4.027   0.030  13.492 -1.4286 -0.0551  1.2119
 6179SOL     OW29998   1.109   0.575   5.781  0.3100  0.2831  0.1633
 6179SOL    HW129999   1.191   0.588   5.735  0.9508 -0.1145  1.1722
 6179SOL    HW230000   1.153   0.555   5.864 -1.9033  1.4355  1.6332
 6180SOL     OW30001   1.305   3.455   7.878  0.2563 -0.3599  0.5824
 6180SOL    HW130002   1.312   3.517   7.951 -2.3286  0.9767 -0.3164
 6180SOL    HW230003   1.256   3.511   7.817  2.6926 -1.2302 -2.1835
 6181SOL     OW30004   0.463   0.954   3.951  0.0932  0.2465  0.1044
 6181SOL    HW130005   0.505   0.873   3.982  1.9393  2.2136  2.7547
 6181SOL    HW230006   0.387   0.949   4.009 -0.4144 -0.6231 -0.6373
 6182SOL     OW30007   3.011   4.492   7.677 -0.0262 -0.3914  0.5569
 6182SOL    HW130008   2.945   4.486   7.607  0.0436  0.2203  0.4415
 6182SOL    HW230009   2.954   4.507   7.753  1.8592 -1.5673  2.1862
 6183SOL     OW30010   2.811   0.474   9.995  0.0018  0.5644  0.2162
 6183SOL    HW130011   2.776   0.386  10.002  0.5559  0.1259 -2.3420
 6183SOL    HW230012   2.732   0.512   9.956 -0.2524  1.0609  1.2113
 6184SOL     OW30013   3.582   1.670   2.697 -0.9142 -0.0567  0.0832
 6184SOL    HW130014   3.614   1.688   2.786  0.8147 -3.2696  0.1149
 6184SOL    HW230015   3.494   1.642   2.724 -0.1594 -2.7841 -0.2174
 6185SOL     OW30016   2.862   3.330   8.202  0.1406  0.6978 -0.4095
 6185SOL    HW130017   2.878   3.405   8.144 -1.4102  0.9884 -0.4415
 6185SOL    HW230018   2.777   3.305   8.168 -1.2057  1.3373  2.5174
 6186SOL     OW30019   3.810   4.553  10.066 -0.4174 -0.5304 -0.4470
 6186SOL    HW130020   3.775   4.610   9.997  0.8280 -0.1742 -0.7878
 6186SOL    HW230021   3.856   4.490  10.010  0.2681  0.3497 -0.8752
 6187SOL     OW30022   3.377   1.399  16.031 -0.6831 -0.1467 -0.3149
 6187SOL    HW130023   3.383   1.433  15.942  1.8885 -2.1457 -0.9201
 6187SOL    HW230024   3.432   1.320  16.030 -1.0726 -0.4322  1.0937
 6188SOL     OW30025   0.229   0.809   3.486  0.2394  0.0108 -0.2881
 6188SOL    HW130026   0.299   0.834   3.547 -1.1976 -0.9111  1.7468
 6188SOL    HW230027   0.168   0.882   3.502 -0.8925 -0.7970 -0.9146
 6189SOL     OW30028   1.225   3.429   8.603 -0.5317 -0.6935 -0.5413
 6189SOL    HW130029   1.158   3.412   8.537 -0.7912 -0.9208 -0.2201
 6189SOL    HW230030   1.195   3.366   8.668  0.3222 -1.4839 -0.9142
 6190SOL     OW30031   2.738   0.128   6.009 -0.1502  0.2884 -0.1801
 6190SOL    HW130032   2.708   0.177   6.086 -2.2681  0.8175 -1.3404
 6190SOL    HW230033   2.806   0.067   6.039 -0.5547  0.2551  0.6935
 6191SOL     OW30034   0.266   4.119   5.902 -0.1921  0.2181 -0.1193
 6191SOL    HW130035   0.310   4.054   5.846  0.4024 -1.3164  2.1238
 6191SOL    HW230036   0.261   4.073   5.986 -0.4345 -1.7558 -1.2015
 6192SOL     OW30037   1.452   2.336   9.410 -0.3270  0.0715 -0.2295
 6192SOL    HW130038   1.505   2.301   9.338 -0.1640  0.3421 -0.2411
 6192SOL    HW230039   1.515   2.338   9.482 -1.0921  1.5117  0.4048
 6193SOL     OW30040   0.057   2.399  12.765 -0.4419  0.2053  0.1188
 6193SOL    HW130041   0.116   2.346  12.819  1.2672  1.0231 -0.9429
 6193SOL    HW230042   0.080   2.374  12.676 -2.3611  0.9555 -0.5786
 6194SOL     OW30043   0.653   4.282   6.032  0.3690  0.0167  0.2979
 6194SOL    HW130044   0.563   4.305   6.055  0.2280 -0.7672  0.5084
 6194SOL    HW230045   0.673   4.328   5.950 -2.7569 -0.3443 -0.6915
 6195SOL     OW30046   1.527   1.542   7.384 -0.1803  0.6364 -0.0741
 6195SOL    HW130047   1.470   1.566   7.312 -0.4963  1.7893  0.5586
 6195SOL    HW230048   1.602   1.505   7.337 -2.2738 -0.9641 -2.1465
 6196SOL     OW30049   1.732   0.170   4.954  0.2174  0.3194  0.6793
 6196SOL    HW130050   1.667   0.239   4.946  0.4803  0.5804  0.7892
 6196SOL    HW230051   1.676   0.093   4.959 -0.4055  0.8180  1.3739
 6197SOL     OW30052   0.123   1.870   1.278  0.3326 -0.5971 -0.0835
 6197SOL    HW130053   0.039   1.855   1.321  0.3258 -1.8984 -0.5661
 6197SOL    HW230054   0.140   1.791   1.226 -1.0588 -0.9717  0.0444
 6198SOL     OW30055   4.402   0.910  16.609  0.0594  0.0400 -0.3400
 6198SOL    HW130056   4.380   0.908  16.516  1.7476  0.4673 -0.7480
 6198SOL    HW230057   4.324   0.866  16.642 -0.2885  0.2686 -0.8463
 6199SOL     OW30058   2.316   0.897   2.299  0.6644 -0.1889  0.0055
 6199SOL    HW130059   2.245   0.961   2.300 -0.9740 -2.0047 -0.0068
 6199SOL    HW230060   2.383   0.958   2.330  1.1279 -0.8382  0.2925
 6200SOL     OW30061   0.844   1.021  11.362 -0.0203 -0.1769  0.1526
 6200SOL    HW130062   0.939   1.020  11.378  0.0500  0.2033 -0.2311
 6200SOL    HW230063   0.834   1.088  11.294  2.5731 -0.2924 -0.3454
 6201SOL     OW30064   1.517   3.299  13.482 -0.5426 -0.0668  0.6431
 6201SOL    HW130065   1.562   3.231  13.432 -1.1638  0.4405 -0.6084
 6201SOL    HW230066   1.452   3.249  13.531 -0.0083 -0.1964  1.2143
 6202SOL     OW30067   4.498   2.738   1.708  0.0125 -0.1996 -0.6698
 6202SOL    HW130068   4.531   2.767   1.623  2.9080  0.5932  0.7372
 6202SOL    HW230069   4.436   2.807   1.731  3.6821  2.9361 -0.2302
 6203SOL     OW30070   4.215   0.292  11.667 -0.4734 -0.5939 -0.3050
 6203SOL    HW130071   4.122   0.298  11.688 -0.2385 -0.6951  0.7809
 6203SOL    HW230072   4.250   0.364  11.720 -0.1969  0.5354 -2.0589
 6204SOL     OW30073   2.614   4.596  14.575  0.6163 -0.1688  0.2771
 6204SOL    HW130074   2.607   4.523  14.636  2.4717 -2.2090 -1.9577
 6204SOL    HW230075   2.685   4.653  14.603 -0.4221  1.1935  0.1417
 6205SOL     OW30076   1.729   0.480   5.778 -0.1305  0.2297 -0.2675
 6205SOL    HW130077   1.682   0.455   5.858  2.0638  1.1574  1.3363
 6205SOL    HW230078   1.802   0.529   5.816 -1.7947  2.2175  0.3868
 6206SOL     OW30079   0.494   4.267  16.501 -0.4029 -0.0300 -0.0690
 6206SOL    HW130080   0.513   4.287  16.592  0.1071 -1.3262  0.1072
 6206SOL    HW230081   0.566   4.206  16.486  0.5436  0.7186  1.4396
 6207SOL     OW30082   0.071   4.215   8.464 -0.9764  0.0242 -0.0719
 6207SOL    HW130083   0.020   4.297   8.465  1.3009  1.4398 -0.9744
 6207SOL    HW230084   0.005   4.152   8.433 -0.4042 -0.1245 -0.9708
 6208SOL     OW30085   4.719   0.980  12.332  0.1503  0.1088 -0.1090
 6208SOL    HW130086   0.053   1.042  12.286  0.5257  0.2552  0.5471
 6208SOL    HW230087   4.654   0.967  12.263 -1.0132 -1.8452  1.3442
 6209SOL     OW30088   3.638   2.222   8.670  0.6005  0.3301  0.1739
 6209SOL    HW130089   3.603   2.231   8.759  0.9857 -0.9224  0.4501
 6209SOL    HW230090   3.570   2.272   8.626  0.7858 -0.6390 -1.1965
 6210SOL     OW30091   1.296   3.281   9.129 -0.1152 -0.8526 -0.2330
 6210SOL    HW130092   1.344   3.344   9.184  1.0977 -1.4749 -0.6005
 6210SOL    HW230093   1.207   3.318   9.129  0.1770 -0.1464  0.0658
 6211SOL     OW30094   2.738   2.758   0.147  0.1468  0.1784  0.4129
 6211SOL    HW130095   2.670   2.693   0.166 -1.0445  1.2737 -0.1552
 6211SOL    HW230096   2.682   2.835   0.158  0.6577  0.7734 -1.2439
 6212SOL     OW30097   0.489   0.192   5.822 -0.2763  0.4826 -0.0258
 6212SOL    HW130098   0.568   0.244   5.804  2.1706 -3.2895 -0.3296
 6212SOL    HW230099   0.471   0.175   5.730 -0.9978 -1.4660  0.4835
 6213SOL     OW30100   2.206   4.275  16.285 -0.3508  0.9665  0.5167
 6213SOL    HW130101   2.194   4.212  16.213  0.7828 -1.5017  2.5042
 6213SOL    HW230102   2.116   4.297  16.312 -0.8428  1.1495 -1.2470
 6214SOL     OW30103   0.668   2.430  11.802  0.9984  0.2021  0.1839
 6214SOL    HW130104   0.680   2.522  11.823 -2.6592  1.4957 -3.5017
 6214SOL    HW230105   0.594   2.402  11.856 -0.5011  0.1822 -1.9022
 6215SOL     OW30106   3.452   2.866   5.300  0.5236  0.2413 -0.4155
 6215SOL    HW130107   3.533   2.898   5.341  1.1958  0.0566 -1.5993
 6215SOL    HW230108   3.465   2.771   5.297 -0.3247  0.0298  2.3607
 6216SOL     OW30109   3.028   4.569   3.885  0.0101  0.5031  0.0027
 6216SOL    HW130110   3.025   4.520   3.968  1.1548  0.2483 -0.1033
 6216SOL    HW230111   2.955   4.630   3.892 -1.7578 -1.6801  0.9722
 6217SOL     OW30112   4.529   3.629   1.880  0.4195  0.0573 -0.7012
 6217SOL    HW130113   4.550   3.595   1.793  1.4648 -1.0568 -0.0107
 6217SOL    HW230114   4.456   3.683   1.848 -0.9070 -0.1981  1.9170
 6218SOL     OW30115   0.198   3.609  12.773 -0.0062 -0.4190 -0.0582
 6218SOL    HW130116   0.122   3.578  12.724 -1.3071  2.1779  0.3355
 6218SOL    HW230117   0.260   3.607  12.700  0.3377 -1.2844  0.2517
 6219SOL     OW30118   0.555   1.316   5.624 -0.4371  0.1884 -0.3991
 6219SOL    HW130119   0.619   1.372   5.667  1.7808 -2.3497 -0.4151
 6219SOL    HW230120   0.580   1.317   5.532  2.3641 -1.1997  0.3391
 6220SOL     OW30121   4.321   0.164   8.848  0.1579  0.4310  0.0652
 6220SOL    HW130122   4.394   0.106   8.824 -0.7158 -0.6882  0.1491
 6220SOL    HW230123   4.324   0.159   8.944  3.3393 -0.2180 -0.0626
 6221SOL     OW30124   3.236   4.318   8.502  0.3180 -0.3561  0.2993
 6221SOL    HW130125   3.221   4.262   8.578 -0.5688 -1.7315 -0.8838
 6221SOL    HW230126   3.203   4.403   8.532  0.6723 -0.3727  0.7318
 6222SOL     OW30127   2.459   4.064   8.897 -0.0077 -0.2192 -0.1936
 6222SOL    HW130128   2.380   4.066   8.951 -0.8399 -1.6935 -1.3638
 6222SOL    HW230129   2.432   4.007   8.825  0.3916 -0.7310  0.0629
 6223SOL     OW30130   1.451   0.551  16.102  0.3716  0.2567 -0.3514
 6223SOL    HW130131   1.474   0.575  16.192 -0.0160  1.4579 -0.5688
 6223SOL    HW230132   1.521   0.598  16.056 -1.1061  2.1492 -0.7051
 6224SOL     OW30133   0.342   3.959   5.228  0.3023 -0.4071  0.4867
 6224SOL    HW130134   0.333   4.047   5.265  0.4390  0.1475 -0.7822
 6224SOL    HW230135   0.269   3.967   5.167  0.2289  0.5147  0.6843
 6225SOL     OW30136   3.536   2.915   9.123 -0.5361  0.4329 -0.6476
 6225SOL    HW130137   3.518   3.001   9.160  0.0908 -0.6068  2.0437
 6225SOL    HW230138   3.451   2.872   9.131 -0.5865  1.5468  4.9633
 6226SOL     OW30139   0.049   1.399   3.584  0.2065  0.3783  0.5395
 6226SOL    HW130140   0.097   1.368   3.508  0.9026  0.8993  0.7645
 6226SOL    HW230141   0.037   1.490   3.555  0.2201  0.5500  1.0767
 6227SOL     OW30142   2.147   4.530   8.257 -0.6128  0.2859 -0.3005
 6227SOL    HW130143   2.226   4.583   8.269 -1.4416  1.9371 -2.1210
 6227SOL    HW230144   2.171   4.480   8.180 -2.0314  2.3512 -2.0706
 6228SOL     OW30145   0.231   0.575   5.286 -0.6144  0.1368  0.1743
 6228SOL    HW130146   0.213   0.668   5.270  3.8433  1.1412  1.1275
 6228SOL    HW230147   0.237   0.583   5.381 -1.7768 -1.7818  0.4103
 6229SOL     OW30148   2.108   1.836   3.308  0.0097 -0.4105  0.1016
 6229SOL    HW130149   2.177   1.771   3.320  0.4480  0.1199  0.4296
 6229SOL    HW230150   2.141   1.878   3.229  1.0357 -1.0820  0.1813
 6230SOL     OW30151   2.863   1.604   6.456 -0.2561  0.2429 -0.2797
 6230SOL    HW130152   2.947   1.649   6.452 -0.0839 -0.2051 -1.4055
 6230SOL    HW230153   2.797   1.671   6.438 -1.4453 -1.0114 -0.6300
 6231SOL     OW30154   4.172   2.192   3.184  0.6979  0.1266  0.5679
 6231SOL    HW130155   4.248   2.213   3.131 -0.3045 -2.1692 -1.7910
 6231SOL    HW230156   4.205   2.160   3.268  1.9592  1.0881  0.4344
 6232SOL     OW30157   1.505   3.835   7.800  0.1989  0.1267  0.4473
 6232SOL    HW130158   1.510   3.821   7.895 -0.6971 -0.3001  0.4266
 6232SOL    HW230159   1.417   3.869   7.784  0.3797  0.2766 -0.2231
 6233SOL     OW30160   4.077   3.265  17.270 -0.0074  0.4545 -0.2990
 6233SOL    HW130161   4.068   3.295  17.180 -0.8652 -0.3019 -0.4781
 6233SOL    HW230162   4.074   3.172  17.245 -0.7702  1.0493 -2.3756
 6234SOL     OW30163   2.093   3.499   2.766 -0.1832  0.4394  0.1647
 6234SOL    HW130164   2.033   3.426   2.759 -0.8250  1.3087 -3.4496
 6234SOL    HW230165   2.162   3.476   2.703 -1.4804 -0.0598 -1.0511
 6235SOL     OW30166   4.144   0.356   9.119  0.0473 -0.0222  0.0048
 6235SOL    HW130167   4.090   0.415   9.172 -2.4466 -0.4888 -2.0347
 6235SOL    HW230168   4.076   0.302   9.079  0.7789 -1.4486  0.6720
 6236SOL     OW30169   4.566   2.317   3.932  0.4500  0.1912 -0.4784
 6236SOL    HW130170   4.610   2.281   4.009 -2.0580  0.1188  0.9300
 6236SOL    HW230171   4.546   2.234   3.888  1.5426  0.3744 -1.3337
 6237SOL     OW30172   4.113   0.434  16.479  0.3816  0.3733  0.0656
 6237SOL    HW130173   4.130   0.372  16.550 -1.4076  0.4773  0.5786
 6237SOL    HW230174   4.196   0.483  16.485  0.8208 -0.4325  0.5359
 6238SOL     OW30175   0.701   4.500  12.926 -0.1881 -0.5299 -0.3033
 6238SOL    HW130176   0.626   4.546  12.965 -0.2809  1.3380 -2.6700
 6238SOL    HW230177   0.760   4.574  12.910  0.7405 -1.0895  0.5595
 6239SOL     OW30178   0.799   4.160   8.389 -0.2336 -0.6191  0.0301
 6239SOL    HW130179   0.784   4.105   8.312 -0.8729  0.1193 -0.3673
 6239SOL    HW230180   0.883   4.199   8.367  1.4447 -3.5636  1.1858
 6240SOL     OW30181   2.859   1.962   5.040 -0.8102  0.3106 -0.9293
 6240SOL    HW130182   2.863   1.901   5.113  1.5675  0.7665 -0.6784
 6240SOL    HW230183   2.878   1.913   4.960  2.6775  0.9756 -0.5099
 6241SOL     OW30184   2.118   4.295  12.171 -0.2902  0.2945  0.3998
 6241SOL    HW130185   2.109   4.200  12.168 -2.9202  0.4669  3.5552
 6241SOL    HW230186   2.118   4.312  12.077  0.8777  1.0041  0.5162
 6242SOL     OW30187   4.096   1.897  12.186 -0.0687  0.2155  0.0665
 6242SOL    HW130188   4.033   1.892  12.257 -1.4703  1.7001 -1.0756
 6242SOL    HW230189   4.031   1.906  12.116  0.1163  1.7668  0.1071
 6243SOL     OW30190   2.021   1.539   3.425 -0.2007  0.4015 -0.5668
 6243SOL    HW130191   2.032   1.633   3.414  1.6951  0.3330  0.6533
 6243SOL    HW230192   1.967   1.514   3.500 -1.4427 -0.9508 -1.9062
 6244SOL     OW30193   2.530   1.231  16.036  0.2448  0.6644  0.1151
 6244SOL    HW130194   2.513   1.230  15.942  0.5985  0.4698  0.0556
 6244SOL    HW230195   2.450   1.182  16.056 -0.5755  0.8911 -2.5473
 6245SOL     OW30196   3.108   4.527   6.534  0.0252  0.5554  0.8413
 6245SOL    HW130197   3.112   4.623   6.532 -0.3289  0.5524 -0.1950
 6245SOL    HW230198   3.133   4.514   6.625 -0.0657 -1.1674  0.6168
 6246SOL     OW30199   4.247   3.849   7.995  0.7127 -0.0341  0.1327
 6246SOL    HW130200   4.172   3.855   8.053  0.5535  1.1609 -0.2158
 6246SOL    HW230201   4.310   3.806   8.054 -0.3014  0.9849  1.9450
 6247SOL     OW30202   3.377   1.784  12.775 -0.4625 -0.6456  0.1171
 6247SOL    HW130203   3.404   1.871  12.743 -1.2385 -0.0128  1.1765
 6247SOL    HW230204   3.376   1.805  12.868 -1.6171  1.3599 -0.3509
 6248SOL     OW30205   2.707   1.583   3.241  0.6097 -0.2359  0.0532
 6248SOL    HW130206   2.619   1.555   3.264  1.7607 -0.8062  3.7812
 6248SOL    HW230207   2.732   1.640   3.314  1.2478 -1.4751  0.8073
 6249SOL     OW30208   1.308   1.393   8.843 -0.5218  0.3770  0.3211
 6249SOL    HW130209   1.404   1.391   8.835 -0.2903 -0.3206  3.2836
 6249SOL    HW230210   1.291   1.448   8.920 -0.9642  1.4464 -0.5427
 6250SOL     OW30211   4.327   2.600  14.148  0.4228 -0.3398  0.1514
 6250SOL    HW130212   4.367   2.639  14.225  0.0906  0.7975 -0.2505
 6250SOL    HW230213   4.409   2.583  14.102  0.2540 -0.0296 -0.2578
 6251SOL     OW30214   3.477   2.235   1.084 -0.3879 -0.5988 -0.1108
 6251SOL    HW130215   3.531   2.301   1.128 -0.3625  0.3855 -1.6571
 6251SOL    HW230216   3.393   2.259   1.124  0.1692  2.3795 -0.7222
 6252SOL     OW30217   3.948   3.140   4.326  0.0962 -0.2418 -0.5074
 6252SOL    HW130218   3.865   3.143   4.375 -1.2148  0.6162 -2.7705
 6252SOL    HW230219   3.972   3.052   4.354 -3.4932 -1.2116 -0.5045
 6253SOL     OW30220   0.247   4.157   6.600  0.0307 -0.0136  0.5144
 6253SOL    HW130221   0.253   4.112   6.684  0.5546  0.1617  0.5739
 6253SOL    HW230222   0.238   4.247   6.631 -0.0012  0.0898  0.2126
 6254SOL     OW30223   4.265   3.228  10.249  0.2935 -0.4264  0.9422
 6254SOL    HW130224   4.297   3.158  10.305  1.4022 -3.2275 -3.1707
 6254SOL    HW230225   4.217   3.181  10.181  1.2909  2.4068 -1.7125
 6255SOL     OW30226   1.903   2.214   2.483 -0.5943  0.2294 -0.0733
 6255SOL    HW130227   1.993   2.230   2.512 -0.5754 -0.0205  0.0016
 6255SOL    HW230228   1.914   2.133   2.433 -1.3331 -0.5628  1.0461
 6256SOL     OW30229   0.737   0.727  11.291  0.5549 -0.1309  0.3233
 6256SOL    HW130230   0.746   0.635  11.268  0.1669 -0.4583  1.4954
 6256SOL    HW230231   0.830   0.744  11.307  0.4936  0.9559 -0.4288
 6257SOL     OW30232   4.329   4.008   8.967  0.0590  0.5270 -0.2399
 6257SOL    HW130233   4.364   4.064   9.035  1.2085  2.1394 -2.1752
 6257SOL    HW230234   4.351   4.058   8.889 -1.0907 -1.4081 -1.8128
 6258SOL     OW30235   0.931   3.667  11.849  0.6622 -0.6821  0.1567
 6258SOL    HW130236   0.982   3.731  11.800 -0.4011 -0.3814 -0.5505
 6258SOL    HW230237   0.962   3.594  11.796  0.6668  0.7367 -1.7892
 6259SOL     OW30238   0.916   0.655   1.097  0.6125  0.2793 -0.2432
 6259SOL    HW130239   0.876   0.696   1.173 -2.5038 -1.9060 -0.6971
 6259SOL    HW230240   0.851   0.696   1.040 -1.1391 -4.3036 -1.5356
 6260SOL     OW30241   0.695   3.371   8.358 -0.2995  0.3557  0.5391
 6260SOL    HW130242   0.714   3.345   8.448 -3.4515 -1.1858  0.7635
 6260SOL    HW230243   0.650   3.294   8.324 -0.1263 -0.1292  1.4018
 6261SOL     OW30244   1.896   4.442   4.656  0.8686 -0.0479  0.9720
 6261SOL    HW130245   1.903   4.353   4.692 -0.4347 -0.5064  0.0907
 6261SOL    HW230246   1.966   4.480   4.710 -0.1505  1.0241  1.5144
 6262SOL     OW30247   2.133   0.394   3.507 -0.4687  0.5650  0.3550
 6262SOL    HW130248   2.154   0.300   3.504 -1.8056  0.1929  3.0185
 6262SOL    HW230249   2.038   0.397   3.511 -0.5450  0.2070 -1.0199
 6263SOL     OW30250   0.819   0.836   7.034  0.1292  0.1803  0.1090
 6263SOL    HW130251   0.869   0.805   7.110  0.4358  2.0647  0.6613
 6263SOL    HW230252   0.845   0.768   6.972  0.9252 -1.3739  2.1225
 6264SOL     OW30253   2.099   0.472  11.002 -0.1617  0.0318  0.4192
 6264SOL    HW130254   2.082   0.389  10.958 -2.5259 -0.6510  2.6338
 6264SOL    HW230255   2.193   0.476  10.986 -0.3526  0.5810 -0.5601
 6265SOL     OW30256   3.600   0.064   8.672  0.8419  0.2878  0.2804
 6265SOL    HW130257   3.629   0.140   8.723  0.4762  0.2031  0.6141
 6265SOL    HW230258   3.692   0.039   8.659  0.7359 -0.3018  0.6571
 6266SOL     OW30259   0.051   1.254   2.303  0.1980 -0.3091 -0.2825
 6266SOL    HW130260   0.133   1.227   2.345 -0.9452  0.7500  2.5805
 6266SOL    HW230261   4.717   1.188   2.342 -1.0722  1.7783  1.3512
 6267SOL     OW30262   2.374   1.353   5.227  0.0237  0.1527  0.3401
 6267SOL    HW130263   2.344   1.439   5.198 -0.8912  0.4438  2.1722
 6267SOL    HW230264   2.414   1.372   5.312  0.6294 -0.5654  0.2286
 6268SOL     OW30265   0.160   3.382   6.948 -0.0963  0.3318  0.2495
 6268SOL    HW130266   0.116   3.340   6.874 -0.2176  3.3307 -1.3872
 6268SOL    HW230267   0.076   3.401   6.991  0.1095 -1.0661  1.2409
 6269SOL     OW30268   0.645   0.554   5.347  0.6915 -0.4290 -0.3981
 6269SOL    HW130269   0.580   0.486   5.367  1.0386 -0.7334 -0.2961
 6269SOL    HW230270   0.645   0.548   5.251 -0.4675 -1.8636 -0.3132
 6270SOL     OW30271   3.618   1.316   8.998 -0.2039 -0.0607  0.4421
 6270SOL    HW130272   3.682   1.260   9.043 -0.4769 -1.1851 -0.5921
 6270SOL    HW230273   3.536   1.307   9.045 -0.3340 -0.1177  0.1996
 6271SOL     OW30274   3.430   2.199   3.963  0.5029 -0.0139 -0.4084
 6271SOL    HW130275   3.429   2.266   4.032 -0.0428 -1.3437  0.8623
 6271SOL    HW230276   3.471   2.253   3.895 -1.1933  1.5551 -0.2045
 6272SOL     OW30277   3.917   4.238   2.168  0.3747 -0.0449  0.1084
 6272SOL    HW130278   3.971   4.315   2.184 -0.2689  0.7015 -1.2507
 6272SOL    HW230279   3.972   4.186   2.109  0.1238 -2.5424  2.0877
 6273SOL     OW30280   0.271   0.078  13.243 -0.2748 -0.1244 -0.6593
 6273SOL    HW130281   0.203   0.107  13.182  0.3659  0.9797 -0.8405
 6273SOL    HW230282   0.337   0.145  13.226 -0.6030  0.4105  0.1497
 6274SOL     OW30283   3.583   2.211   0.453 -0.1471  0.2040 -0.3581
 6274SOL    HW130284   3.632   2.138   0.491 -1.7398 -0.9463 -0.5042
 6274SOL    HW230285   3.546   2.185   0.369 -0.0398  0.3925 -0.4635
 6275SOL     OW30286   0.176   1.320  13.306 -0.3126  0.3949  0.1435
 6275SOL    HW130287   0.116   1.337  13.379 -0.7467  0.9165 -0.3387
 6275SOL    HW230288   0.170   1.410  13.275  1.2956  0.0014 -1.3380
 6276SOL     OW30289   2.779   3.661   6.142  0.3278 -0.2393  0.1737
 6276SOL    HW130290   2.824   3.739   6.173 -2.2208  1.4092 -0.2496
 6276SOL    HW230291   2.688   3.664   6.174  0.8921  1.0809  1.6737
 6277SOL     OW30292   2.131   2.211   5.918 -0.3975 -0.4127 -0.4146
 6277SOL    HW130293   2.040   2.212   5.888 -0.4548 -2.9538 -0.3110
 6277SOL    HW230294   2.121   2.269   5.994 -1.0061 -0.6272 -0.3307
 6278SOL     OW30295   0.751   2.794  13.972 -0.3331  0.3017  0.1393
 6278SOL    HW130296   0.690   2.797  13.899 -1.2237 -1.5411  0.7983
 6278SOL    HW230297   0.830   2.828  13.931  1.6539 -0.6210  3.1462
 6279SOL     OW30298   4.113   0.366   8.059  0.6763 -0.2793 -0.9099
 6279SOL    HW130299   4.197   0.326   8.040  1.5801  0.5830  1.2962
 6279SOL    HW230300   4.114   0.389   8.152 -1.0268  2.5976 -1.5891
 6280SOL     OW30301   0.273   2.006   3.029  0.2625  0.5477 -0.0834
 6280SOL    HW130302   0.186   2.011   3.067  0.4807  0.4167  0.4373
 6280SOL    HW230303   0.293   2.094   2.998  0.8902  0.4918  0.1399
 6281SOL     OW30304   0.246   1.707   3.265 -0.4576  0.3317 -0.1896
 6281SOL    HW130305   0.332   1.732   3.233  0.7206  0.0742  2.7331
 6281SOL    HW230306   0.222   1.795   3.292 -0.1866 -0.1499  1.6722
 6282SOL     OW30307   4.304   3.092   8.443  0.4226 -0.2111 -0.0985
 6282SOL    HW130308   4.368   3.059   8.506  0.0416 -2.9120 -1.1239
 6282SOL    HW230309   4.225   3.075   8.495  0.2543 -3.7361 -1.5610
 6283SOL     OW30310   2.780   3.781   3.639  0.2574 -0.1886  0.0701
 6283SOL    HW130311   2.687   3.794   3.622  0.0207 -0.4026  1.2486
 6283SOL    HW230312   2.771   3.748   3.728 -1.0888  0.2099  0.0717
 6284SOL     OW30313   3.310   2.696   5.857  0.0245 -0.4257 -0.6334
 6284SOL    HW130314   3.239   2.753   5.828  3.1164  2.8508 -1.7609
 6284SOL    HW230315   3.278   2.616   5.815 -0.6804 -0.5613  0.1568
 6285SOL     OW30316   2.346   4.595  10.700 -0.8211 -0.0269  0.0888
 6285SOL    HW130317   2.355   4.514  10.750  2.7721 -0.0988 -0.6689
 6285SOL    HW230318   2.366   4.659  10.769 -0.3357  0.5394 -0.5741
 6286SOL     OW30319   0.649   0.764   4.012  0.6307  0.1242  1.0406
 6286SOL    HW130320   0.690   0.750   4.098  1.3144 -2.2749  0.3244
 6286SOL    HW230321   0.711   0.714   3.959  0.0926 -0.1325  0.6520
 6287SOL     OW30322   1.206   1.964  14.711 -0.4725  0.0874  0.8871
 6287SOL    HW130323   1.204   1.940  14.803  0.1227 -1.0498  0.6000
 6287SOL    HW230324   1.218   2.057  14.727  0.4846 -0.1738  1.6218
 6288SOL     OW30325   0.914   1.755   8.603 -0.2984  0.2018 -0.3569
 6288SOL    HW130326   0.908   1.675   8.655 -0.4036  0.8583  0.6519
 6288SOL    HW230327   0.996   1.791   8.637 -0.3255 -0.9449  0.9581
 6289SOL     OW30328   3.461   2.487   1.780  0.2005 -0.2909  0.2918
 6289SOL    HW130329   3.417   2.510   1.699  0.8041  2.2219  0.6841
 6289SOL    HW230330   3.456   2.391   1.776 -1.1693 -0.2877  1.9113
 6290SOL     OW30331   2.119   2.209  17.234  0.3398  0.9244 -0.1405
 6290SOL    HW130332   2.064   2.148  17.184  2.8356 -0.1419 -1.6028
 6290SOL    HW230333   2.112   2.161  17.317  2.3178 -1.1285 -1.1620
 6291SOL     OW30334   1.379   2.673   6.156  0.6923  1.0112  0.1294
 6291SOL    HW130335   1.464   2.701   6.188  0.3333  1.9984  0.2112
 6291SOL    HW230336   1.405   2.595   6.106 -3.2195  0.0346 -0.4262
 6292SOL     OW30337   4.219   3.690   7.524  0.0101  0.0431 -0.0811
 6292SOL    HW130338   4.278   3.712   7.596 -0.1593 -0.9147  0.3459
 6292SOL    HW230339   4.260   3.609   7.494 -0.8669 -1.0766  1.8409
 6293SOL     OW30340   4.566   2.994   8.226  0.4529  0.0977 -0.3042
 6293SOL    HW130341   4.561   2.910   8.272 -1.9785  0.4758  0.1384
 6293SOL    HW230342   4.480   3.030   8.248 -0.7081 -2.5792 -0.3631
 6294SOL     OW30343   2.025   3.202   2.178 -0.0421 -0.1346  0.2716
 6294SOL    HW130344   1.948   3.150   2.156 -0.4288  1.3840 -1.9403
 6294SOL    HW230345   2.095   3.138   2.171  0.0684  0.4352 -3.8426
 6295SOL     OW30346   4.572   1.283   0.687 -0.3226  0.1172  0.7626
 6295SOL    HW130347   4.619   1.219   0.634  0.9439  0.2533  1.7194
 6295SOL    HW230348   4.614   1.365   0.661 -0.4599  0.5375  1.8467
 6296SOL     OW30349   0.146   2.360   3.366  0.0070  0.0778 -0.4058
 6296SOL    HW130350   0.082   2.331   3.431  1.4973  0.6548  1.3193
 6296SOL    HW230351   0.095   2.363   3.285  0.9079  0.9874 -0.9396
 6297SOL     OW30352   0.961   4.289  12.675 -0.0367 -0.1743 -0.5801
 6297SOL    HW130353   1.025   4.266  12.607  0.2896 -0.4071 -0.1979
 6297SOL    HW230354   0.914   4.362  12.636  0.4589 -0.1850 -1.2053
 6298SOL     OW30355   3.773   4.699   1.986  0.2109 -0.2739 -0.3829
 6298SOL    HW130356   3.700   4.699   1.925 -0.0738  0.0323 -0.0439
 6298SOL    HW230357   3.787   4.604   1.984 -0.6546 -0.4577  2.0058
 6299SOL     OW30358   2.813   2.704  12.868 -0.0395 -0.2126  0.1569
 6299SOL    HW130359   2.880   2.767  12.842 -0.3402  0.7597  1.7504
 6299SOL    HW230360   2.801   2.725  12.961  2.7272  3.4893 -0.3415
 6300SOL     OW30361   3.469   2.702  15.176  0.4428  0.0913 -0.2214
 6300SOL    HW130362   3.393   2.722  15.230 -0.0352  2.6894 -1.8646
 6300SOL    HW230363   3.481   2.613  15.208  1.1301  0.2780  0.0468
 6301SOL     OW30364   1.020   3.286   8.480 -0.5901  0.5756  0.1505
 6301SOL    HW130365   0.975   3.277   8.564  0.1889  1.6651  0.6716
 6301SOL    HW230366   0.939   3.279   8.429 -0.8786 -1.0115  0.8117
 6302SOL     OW30367   2.206   0.869   7.890  0.4985  0.1523 -0.0145
 6302SOL    HW130368   2.300   0.858   7.871  0.5851 -2.7621  2.1217
 6302SOL    HW230369   2.171   0.904   7.808  0.6911  0.5710  0.0814
 6303SOL     OW30370   0.038   4.037   3.660  0.3626 -0.0998  0.3931
 6303SOL    HW130371   4.714   3.967   3.706 -0.8109  0.4711  0.0536
 6303SOL    HW230372   4.684   4.094   3.667 -0.7690 -1.2895 -2.1367
 6304SOL     OW30373   2.769   3.840   7.056 -0.2457  0.0365  0.0184
 6304SOL    HW130374   2.792   3.933   7.053 -0.0740  0.0543  1.4385
 6304SOL    HW230375   2.816   3.805   6.980  1.6267  0.0283  1.1641
 6305SOL     OW30376   0.460   2.794   4.172 -0.1567 -0.1114  0.0132
 6305SOL    HW130377   0.509   2.722   4.214 -0.0396  0.8683  1.5616
 6305SOL    HW230378   0.502   2.803   4.086 -1.6121 -0.1194 -0.6908
 6306SOL     OW30379   4.545   2.859   7.601  0.3784  0.0401 -0.0655
 6306SOL    HW130380   4.537   2.954   7.614 -0.0570  0.2664 -1.9537
 6306SOL    HW230381   4.553   2.821   7.688  0.1934 -0.1362 -0.1267
 6307SOL     OW30382   0.848   0.026  13.336  0.0431 -0.0485 -0.0124
 6307SOL    HW130383   0.875   0.070  13.417  1.5020 -0.3769 -0.3191
 6307SOL    HW230384   0.877   4.658  13.342  1.3526  0.3606  0.1121
 6308SOL     OW30385   1.183   1.760   7.025 -0.2160  0.5709 -0.3562
 6308SOL    HW130386   1.137   1.837   7.059  1.9901  1.2758  0.9681
 6308SOL    HW230387   1.227   1.803   6.952 -2.2425  2.3755 -0.5314
 6309SOL     OW30388   1.842   2.762  13.115 -0.0709  0.3042 -0.7673
 6309SOL    HW130389   1.933   2.784  13.094  0.9106 -0.3189  2.9552
 6309SOL    HW230390   1.824   2.676  13.075 -0.4923 -0.5354  1.2440
 6310SOL     OW30391   4.041   3.785   4.764  0.2733  0.6786 -0.6287
 6310SOL    HW130392   4.099   3.726   4.813 -0.7898  0.2137  0.0641
 6310SOL    HW230393   4.016   3.723   4.695  1.9309 -3.2621  2.3289
 6311SOL     OW30394   3.010   0.894   4.675 -0.1107 -0.2919 -0.4124
 6311SOL    HW130395   3.052   0.870   4.592  0.8476  0.9903 -0.2972
 6311SOL    HW230396   3.074   0.874   4.743 -0.5349  1.6307  0.5678
 6312SOL     OW30397   2.628   3.725  16.569 -0.0361  0.8109 -0.5163
 6312SOL    HW130398   2.599   3.781  16.497 -1.2174 -1.5750 -1.9011
 6312SOL    HW230399   2.549   3.721  16.623  0.2663  2.2754  0.0339
 6313SOL     OW30400   2.531   1.753   2.370 -0.3917 -0.4623  0.1449
 6313SOL    HW130401   2.521   1.848   2.368 -0.4480 -0.4531  1.0158
 6313SOL    HW230402   2.542   1.746   2.275 -2.8229  2.1590 -0.3376
 6314SOL     OW30403   2.583   1.907   3.242  0.2584  0.0517 -0.4114
 6314SOL    HW130404   2.578   1.826   3.192  2.5557 -0.3534  0.0365
 6314SOL    HW230405   2.652   1.954   3.195 -0.0057 -1.3470 -2.1940
 6315SOL     OW30406   3.245   1.953   6.869 -0.1700  0.0331  0.2907
 6315SOL    HW130407   3.216   1.999   6.949  0.9054  2.2651 -0.6165
 6315SOL    HW230408   3.165   1.928   6.822 -0.3993 -0.9679  1.1885
 6316SOL     OW30409   4.013   1.138   1.777  0.1643 -0.0961  0.9760
 6316SOL    HW130410   4.083   1.077   1.802  0.6504 -1.1152 -2.8126
 6316SOL    HW230411   3.969   1.092   1.705  1.5042  0.2607 -0.0617
 6317SOL     OW30412   3.373   1.891  14.851 -0.3917  0.3829 -0.4666
 6317SOL    HW130413   3.432   1.865  14.780  0.8864 -0.4583  0.8952
 6317SOL    HW230414   3.365   1.808  14.898  2.4977 -0.4619 -1.4158
 6318SOL     OW30415   1.685   4.402   2.658 -1.0231 -0.3870  0.1192
 6318SOL    HW130416   1.732   4.486   2.658  2.5727 -2.4225  0.4745
 6318SOL    HW230417   1.620   4.400   2.729 -0.2529  0.7888  0.8692
 6319SOL     OW30418   1.962   1.878   3.519  0.0047 -0.4702 -0.1980
 6319SOL    HW130419   2.032   1.864   3.583 -1.4890  1.0530  1.7793
 6319SOL    HW230420   2.023   1.855   3.449  0.3204  0.7419 -0.3210
 6320SOL     OW30421   3.942   0.672   7.434  0.3292  0.0652  0.3291
 6320SOL    HW130422   3.924   0.757   7.476  3.6990  0.3837  1.0646
 6320SOL    HW230423   3.967   0.628   7.515 -2.1851 -0.4232  0.8417
 6321SOL     OW30424   1.598   3.289   4.180  0.2579 -0.3794 -0.1151
 6321SOL    HW130425   1.692   3.307   4.192 -0.0756  0.1851  1.7443
 6321SOL    HW230426   1.562   3.284   4.269  0.6831 -0.3934  0.0603
 6322SOL     OW30427   2.930   3.975   3.764  0.2670 -0.2399  0.3187
 6322SOL    HW130428   2.875   4.018   3.699  0.9737  1.2757  0.7154
 6322SOL    HW230429   2.919   3.881   3.748 -0.6051 -0.6534  3.2481
 6323SOL     OW30430   2.668   1.942   8.633 -0.1605  0.0743 -0.0363
 6323SOL    HW130431   2.664   1.857   8.677  3.1843  0.9256  1.9363
 6323SOL    HW230432   2.743   1.939   8.573  0.6287  2.8327  0.8199
 6324SOL     OW30433   1.844   1.772   4.482  0.3904  0.0694  0.1663
 6324SOL    HW130434   1.778   1.786   4.550  2.3725  1.1112  1.8855
 6324SOL    HW230435   1.875   1.685   4.510 -0.5539 -0.6818 -1.1252
 6325SOL     OW30436   1.737   1.081   4.163 -0.3169  0.0356  0.0640
 6325SOL    HW130437   1.692   1.075   4.247  1.2902 -2.1155  0.7856
 6325SOL    HW230438   1.828   1.096   4.190 -0.8976 -1.1032  2.6688
 6326SOL     OW30439   2.201   0.624  15.713  0.0512  0.0889  0.4382
 6326SOL    HW130440   2.206   0.539  15.756 -3.9842 -1.0535 -1.4044
 6326SOL    HW230441   2.252   0.611  15.633  0.2084 -0.6053  0.6580
 6327SOL     OW30442   2.313   1.020   6.941 -0.0039 -0.1421 -0.1415
 6327SOL    HW130443   2.262   1.092   6.906  1.0344 -0.9727 -3.3352
 6327SOL    HW230444   2.337   0.976   6.860  0.2581 -1.6825  0.7548
 6328SOL     OW30445   0.363   1.046   9.461 -0.4530 -0.0536  0.4916
 6328SOL    HW130446   0.437   1.055   9.401 -0.5225 -3.0013 -0.0295
 6328SOL    HW230447   0.296   1.038   9.393  0.2882  0.8563 -0.3574
 6329SOL     OW30448   1.176   2.777   2.411  0.5874  0.6973 -0.0869
 6329SOL    HW130449   1.210   2.857   2.370 -1.2862  0.0461 -2.9213
 6329SOL    HW230450   1.196   2.797   2.502  0.0892  2.0774 -0.2779
 6330SOL     OW30451   3.844   1.230   1.958  0.2532 -0.0045  0.4734
 6330SOL    HW130452   3.927   1.214   1.914  0.5006  0.9155  0.6101
 6330SOL    HW230453   3.789   1.153   1.946 -0.4593  0.7986 -1.4481
 6331SOL     OW30454   4.698   1.910   9.335  0.0372  0.0123 -0.7586
 6331SOL    HW130455   0.070   1.909   9.317 -0.4558 -1.5412 -3.1947
 6331SOL    HW230456   4.681   1.868   9.419  2.2020  0.3289 -0.1461
 6332SOL     OW30457   4.481   3.769   5.826  0.1800  0.5285 -0.1107
 6332SOL    HW130458   4.491   3.685   5.781  0.7528 -0.3533  1.6614
 6332SOL    HW230459   4.504   3.828   5.754  0.0411  1.2899  0.4658
 6333SOL     OW30460   1.463   2.990  17.686 -0.5942 -0.3138  0.1176
 6333SOL    HW130461   1.511   2.983   0.075  3.6305  0.5570 -2.2519
 6333SOL    HW230462   1.390   2.934   0.016  0.0777 -0.9062  0.7797
 6334SOL     OW30463   1.241   1.312   5.479  0.1936 -0.0060  0.2562
 6334SOL    HW130464   1.262   1.283   5.568  0.8585  0.1952  0.1591
 6334SOL    HW230465   1.148   1.288   5.475  0.6532 -1.6026 -1.1952
 6335SOL     OW30466   2.364   3.098  14.723 -0.2884  0.1815 -0.2119
 6335SOL    HW130467   2.410   3.024  14.685  2.7608  1.9307  0.1131
 6335SOL    HW230468   2.325   3.145  14.650  0.3040 -1.0106 -1.2942
 6336SOL     OW30469   3.412   4.672   5.295  0.0600 -0.4090  0.4113
 6336SOL    HW130470   3.338   0.010   5.298 -0.4354 -0.9523 -0.7533
 6336SOL    HW230471   3.449   4.688   5.382 -0.5154  0.1243  0.5605
 6337SOL     OW30472   1.412   2.833   5.369  0.8175 -0.2765  0.4190
 6337SOL    HW130473   1.447   2.855   5.455  2.5228  0.0679 -0.3711
 6337SOL    HW230474   1.336   2.890   5.361  0.5721 -1.1100 -3.4990
 6338SOL     OW30475   0.703   0.695   0.905  0.2210  0.4650  0.0528
 6338SOL    HW130476   0.726   0.719   0.816  0.5535  1.8313  0.5053
 6338SOL    HW230477   0.686   0.601   0.900  0.4113  0.4651 -0.5490
 6339SOL     OW30478   3.388   0.655  12.186 -0.8809 -0.4885  0.3980
 6339SOL    HW130479   3.345   0.582  12.232 -0.4775 -0.3064  1.0655
 6339SOL    HW230480   3.315   0.717  12.196 -0.0158  0.6395 -0.3348
 6340SOL     OW30481   0.888   0.306   7.673  0.3875  0.9749 -0.0843
 6340SOL    HW130482   0.900   0.262   7.757 -0.5873  1.5503  0.3648
 6340SOL    HW230483   0.856   0.394   7.695 -1.1365  0.4331 -0.0856
 6341SOL     OW30484   4.568   4.221  17.034  0.5786 -0.2767 -0.2689
 6341SOL    HW130485   4.550   4.195  17.125  1.5936 -0.0140  0.0030
 6341SOL    HW230486   4.661   4.242  17.026  0.6832  0.4039  2.5406
 6342SOL     OW30487   2.269   0.912  11.962  0.0062  0.2424  0.1389
 6342SOL    HW130488   2.216   0.840  11.928 -0.6458  1.2993 -1.0934
 6342SOL    HW230489   2.354   0.874  11.985  0.0800  0.8855  0.9521
 6343SOL     OW30490   3.547   3.613   7.803  0.1515 -0.0944  0.1208
 6343SOL    HW130491   3.589   3.527   7.811  1.7371  0.7056  0.5018
 6343SOL    HW230492   3.632   3.656   7.791 -0.3700  1.0188  0.4520
 6344SOL     OW30493   3.257   2.522   3.840  0.9691 -0.3213  0.4536
 6344SOL    HW130494   3.277   2.615   3.835 -0.6069  0.0245  0.5328
 6344SOL    HW230495   3.186   2.518   3.904 -0.3550 -1.8931 -1.0720
 6345SOL     OW30496   2.508   4.586  13.858  0.0042  0.7944 -0.2370
 6345SOL    HW130497   2.565   4.662  13.864  1.5199 -0.3175 -0.3332
 6345SOL    HW230498   2.496   4.578  13.953 -2.4313  2.8848 -0.3884
 6346SOL     OW30499   1.802   4.163  13.151  0.2275 -0.2818  0.4793
 6346SOL    HW130500   1.823   4.072  13.171 -0.0568 -0.3930  0.2661
 6346SOL    HW230501   1.877   4.193  13.098 -1.2785  4.0178  0.7711
 6347SOL     OW30502   0.735   3.892  17.635  0.6025 -0.3832  0.2959
 6347SOL    HW130503   0.658   3.947  17.622  1.2011  0.9123  2.2511
 6347SOL    HW230504   0.688   3.809  17.631  0.6565 -0.4219  0.4736
 6348SOL     OW30505   2.692   0.672   7.379 -0.3402 -0.2271 -0.4004
 6348SOL    HW130506   2.766   0.624   7.416 -0.3249 -0.2678 -0.4826
 6348SOL    HW230507   2.652   0.598   7.333 -0.4072 -1.0400  0.9635
 6349SOL     OW30508   1.775   0.043  11.789 -0.2566  0.2922  0.3547
 6349SOL    HW130509   1.796   0.129  11.825  0.1255 -0.8815  2.9188
 6349SOL    HW230510   1.808   4.706  11.855  2.0773 -0.5229 -1.5390
 6350SOL     OW30511   4.577   4.464   9.901 -0.1452 -0.2472  0.4328
 6350SOL    HW130512   4.663   4.442   9.937  0.4444  1.3159 -0.0238
 6350SOL    HW230513   4.540   4.378   9.882 -1.1734 -0.1098  1.7875
 6351SOL     OW30514   4.049   3.581   1.015  0.2037 -0.7454  0.0731
 6351SOL    HW130515   4.018   3.554   1.101  0.5455 -0.1930  0.3685
 6351SOL    HW230516   4.001   3.524   0.955 -0.5860  2.0909 -2.0066
 6352SOL     OW30517   3.809   3.805   4.367  0.4912 -0.1979  0.1647
 6352SOL    HW130518   3.780   3.734   4.310 -0.4276 -1.1736  1.8480
 6352SOL    HW230519   3.729   3.811   4.419 -0.0145  1.1999 -0.7711
 6353SOL     OW30520   1.437   2.651   8.008  0.0072 -0.4971  0.1080
 6353SOL    HW130521   1.516   2.632   8.059  1.3673  1.3815 -1.3034
 6353SOL    HW230522   1.447   2.746   8.004  0.3709 -0.5677 -0.6908
 6354SOL     OW30523   0.702   1.691   2.094  0.2548  0.5144 -0.1720
 6354SOL    HW130524   0.655   1.614   2.061  1.1804 -0.9042  1.7986
 6354SOL    HW230525   0.751   1.658   2.170 -1.0110 -0.0157  0.4220
 6355SOL     OW30526   3.991   1.071  15.504  0.4468  0.0678 -0.2428
 6355SOL    HW130527   3.905   1.031  15.511  1.2135 -1.3232  1.3301
 6355SOL    HW230528   3.971   1.160  15.475 -0.0611 -0.4548 -1.4932
 6356SOL     OW30529   3.988   3.842  14.863  0.0236  0.2757  0.7675
 6356SOL    HW130530   3.944   3.773  14.913 -0.1475 -1.4762 -1.7900
 6356SOL    HW230531   3.975   3.914  14.924  3.5048  0.6537  1.0549
 6357SOL     OW30532   0.767   3.309   4.234  0.3285  0.0195 -0.0812
 6357SOL    HW130533   0.854   3.270   4.233 -0.3482 -1.4999  1.6393
 6357SOL    HW230534   0.749   3.290   4.142  1.0460  2.6181 -0.7839
 6358SOL     OW30535   2.006   0.793  16.704  0.7912 -0.5776 -1.0772
 6358SOL    HW130536   1.974   0.712  16.745  0.6317 -0.2172 -0.4928
 6358SOL    HW230537   1.964   0.783  16.619  2.5331  1.0909 -2.1385
 6359SOL     OW30538   1.025   3.081   7.267  0.1510  0.4801 -0.3509
 6359SOL    HW130539   1.002   3.171   7.244 -1.1618 -0.0411 -1.0329
 6359SOL    HW230540   0.983   3.021   7.206 -0.6038  0.7653 -0.1045
 6360SOL     OW30541   1.587   4.370   0.316 -0.8853 -0.4794 -0.2320
 6360SOL    HW130542   1.574   4.330   0.230  0.2057  1.2068 -1.1682
 6360SOL    HW230543   1.649   4.442   0.308 -0.0763 -1.1653 -0.0966
 6361SOL     OW30544   3.912   0.648  11.329 -0.1699 -0.4318 -0.0517
 6361SOL    HW130545   3.827   0.605  11.326 -0.1276 -0.7591  3.0313
 6361SOL    HW230546   3.954   0.644  11.243 -1.8997  1.0790 -0.9419
 6362SOL     OW30547   4.530   1.740   7.955  0.0239  0.4913 -0.3232
 6362SOL    HW130548   4.482   1.809   7.910  0.1352 -0.0420 -1.2695
 6362SOL    HW230549   4.455   1.696   7.994  0.1466 -1.2256 -1.9640
 6363SOL     OW30550   0.588   3.128   4.370  0.0674  0.6326 -0.1552
 6363SOL    HW130551   0.649   3.193   4.334 -0.2692  1.3933  0.6493
 6363SOL    HW230552   0.563   3.164   4.455  2.2971  4.2838 -1.0428
 6364SOL     OW30553   1.214   0.430   7.201  0.5569  0.0992 -0.7068
 6364SOL    HW130554   1.246   0.342   7.225  1.4891  0.9426  1.1388
 6364SOL    HW230555   1.120   0.418   7.207  0.6885 -0.1875  0.7624
 6365SOL     OW30556   1.488   4.631   2.711  0.7263 -0.0594 -0.1831
 6365SOL    HW130557   1.499   4.574   2.787 -0.6842  2.1921  1.6713
 6365SOL    HW230558   1.538   4.583   2.644  0.6954  0.2263 -0.4091
 6366SOL     OW30559   1.842   1.033   5.710 -0.3339  0.2737  0.2466
 6366SOL    HW130560   1.850   1.126   5.731  0.9636  0.1207  0.4536
 6366SOL    HW230561   1.860   1.023   5.803  0.1722  1.2545  0.2578
 6367SOL     OW30562   3.321   4.228   3.525  0.4200 -0.1705 -0.2314
 6367SOL    HW130563   3.236   4.183   3.526 -0.2501  1.1395  0.7457
 6367SOL    HW230564   3.306   4.260   3.614  0.8281 -1.6596  0.3739
 6368SOL     OW30565   1.169   1.073  10.162 -0.1780  0.2739  0.5375
 6368SOL    HW130566   1.237   1.140  10.166 -1.0365  1.0499  2.3759
 6368SOL    HW230567   1.180   1.043  10.072  1.8029 -0.0200  0.8775
 6369SOL     OW30568   4.621   1.066  16.879 -0.3272 -0.1257  0.1371
 6369SOL    HW130569   4.632   0.972  16.891 -0.3713 -0.2700 -0.9276
 6369SOL    HW230570   4.690   1.068  16.813 -2.4052  1.7536 -1.9664
 6370SOL     OW30571   3.791   1.578  12.794  0.5246 -0.2595 -0.1885
 6370SOL    HW130572   3.812   1.601  12.704 -2.5379  1.3342 -0.4963
 6370SOL    HW230573   3.695   1.579  12.787  0.4716 -2.4959  0.2983
 6371SOL     OW30574   1.321   2.301   0.989  0.5121 -0.2116  0.4588
 6371SOL    HW130575   1.413   2.326   0.992  0.7706 -1.1451 -0.0347
 6371SOL    HW230576   1.327   2.208   0.967  2.2069 -0.2452  1.0569
 6372SOL     OW30577   1.641   1.521   0.634  0.4823  0.2988  0.0920
 6372SOL    HW130578   1.577   1.553   0.697  0.9424 -0.2893  0.8654
 6372SOL    HW230579   1.653   1.607   0.595 -0.9713  0.8361  0.8328
 6373SOL     OW30580   1.279   2.463   8.211 -0.3201  0.3100 -0.3660
 6373SOL    HW130581   1.296   2.535   8.150  1.2257 -0.3676 -0.7543
 6373SOL    HW230582   1.366   2.435   8.240  0.5162  0.6592 -2.4982
 6374SOL     OW30583   4.105   1.676  10.135 -0.1473 -0.2507  0.3786
 6374SOL    HW130584   4.036   1.697  10.072 -0.6364  1.6669  1.5614
 6374SOL    HW230585   4.049   1.694  10.211 -0.8205  1.1541 -0.4526
 6375SOL     OW30586   3.635   3.964  15.725 -0.5411 -0.1611 -0.3597
 6375SOL    HW130587   3.674   4.003  15.803  0.3341  2.0596 -1.8884
 6375SOL    HW230588   3.681   3.887  15.693  0.1782  0.7267 -1.4902
 6376SOL     OW30589   4.691   0.298   4.374 -0.7143  0.1476 -0.5398
 6376SOL    HW130590   0.021   0.248   4.311 -0.6557 -0.5050  0.0307
 6376SOL    HW230591   4.691   0.242   4.451 -1.4988  0.8527 -0.0264
 6377SOL     OW30592   1.971   4.567   1.792 -0.3248 -0.2298  0.1757
 6377SOL    HW130593   1.997   4.649   1.749  1.1935 -0.0451  1.4717
 6377SOL    HW230594   1.876   4.579   1.792 -0.6714 -3.0740 -0.0525
 6378SOL     OW30595   4.329   3.140   5.563 -0.6241 -0.2642  0.3823
 6378SOL    HW130596   4.416   3.166   5.592 -0.1118 -0.7184 -0.7203
 6378SOL    HW230597   4.279   3.171   5.638  1.2214  3.2692  0.1194
 6379SOL     OW30598   3.991   1.503   4.877 -0.4840 -0.0229  0.6013
 6379SOL    HW130599   3.972   1.533   4.966  4.2920  0.8201  1.3370
 6379SOL    HW230600   3.940   1.422   4.869  0.9256 -0.7613 -0.9552
 6380SOL     OW30601   4.376   4.413   4.579  0.2849 -0.2541 -0.6589
 6380SOL    HW130602   4.337   4.499   4.595  3.3718  0.9038  0.6027
 6380SOL    HW230603   4.450   4.442   4.526 -0.3335  0.7965 -0.9574
 6381SOL     OW30604   0.713   1.201   2.601 -0.3288  0.1111  0.1489
 6381SOL    HW130605   0.704   1.274   2.661  0.9820 -0.7028  1.3455
 6381SOL    HW230606   0.638   1.148   2.627 -1.3994  1.8213  0.5447
 6382SOL     OW30607   1.311   3.279  16.021  0.7349  0.2270  0.2158
 6382SOL    HW130608   1.246   3.223  15.978  1.9143  1.0792 -2.6537
 6382SOL    HW230609   1.373   3.210  16.045  1.7690  0.2592 -2.3471
 6383SOL     OW30610   1.384   2.801  17.268  0.4111  0.6398 -0.4972
 6383SOL    HW130611   1.313   2.746  17.303  2.0339  0.0046  1.8238
 6383SOL    HW230612   1.433   2.787  17.349 -3.0792 -2.5561  1.0913
 6384SOL     OW30613   2.396   2.105   3.163 -0.6407 -0.4997  0.3472
 6384SOL    HW130614   2.336   2.047   3.116 -3.3241  2.1856  0.4689
 6384SOL    HW230615   2.477   2.054   3.169  0.2114  1.1469  2.9259
 6385SOL     OW30616   1.441   2.209   5.265 -0.2294  0.1772 -0.2591
 6385SOL    HW130617   1.472   2.155   5.338  2.8088  1.0762 -0.8868
 6385SOL    HW230618   1.501   2.191   5.193 -0.5914 -1.1363 -0.2379
 6386SOL     OW30619   0.385   3.427   0.689  0.1625  0.3339 -0.3354
 6386SOL    HW130620   0.370   3.357   0.752  0.4343 -0.9642 -1.7072
 6386SOL    HW230621   0.318   3.406   0.625  0.3957 -2.8078  0.4653
 6387SOL     OW30622   4.079   2.154  12.504  0.2120  0.3150 -0.1891
 6387SOL    HW130623   4.067   2.147  12.599 -0.4382 -1.7238 -0.4212
 6387SOL    HW230624   4.104   2.246  12.495 -1.1006  0.5711 -1.2533
 6388SOL     OW30625   4.679   3.104   2.963  0.8405 -0.2304  0.3745
 6388SOL    HW130626   0.003   3.111   2.879 -2.5308  0.9167 -1.4092
 6388SOL    HW230627   4.707   3.178   3.016 -0.0754  0.2902  0.1229
 6389SOL     OW30628   0.911   0.908   2.555 -0.8727  0.5668  0.3783
 6389SOL    HW130629   0.950   0.995   2.544  1.4925 -0.6175 -0.7198
 6389SOL    HW230630   0.839   0.928   2.615 -0.1913  1.1571  1.0228
 6390SOL     OW30631   3.655   0.428  15.189  0.5780  0.6603 -0.5285
 6390SOL    HW130632   3.586   0.459  15.130 -0.2657 -0.0418  0.0949
 6390SOL    HW230633   3.682   0.512  15.227  0.9790 -0.2134  1.0644
 6391SOL     OW30634   2.154   4.485   4.753 -0.7372 -0.2317  0.1656
 6391SOL    HW130635   2.227   4.483   4.691 -0.5490  1.0826  0.3465
 6391SOL    HW230636   2.162   4.396   4.787  0.2268 -0.7477 -1.3957
 6392SOL     OW30637   4.386   0.589  11.437  0.1751 -0.1333 -0.8384
 6392SOL    HW130638   4.411   0.500  11.411 -0.0658 -0.2020 -0.8313
 6392SOL    HW230639   4.461   0.627  11.391 -0.6261  2.7197  0.2031
 6393SOL     OW30640   2.279   1.507   0.476  0.7290 -0.1170 -0.0136
 6393SOL    HW130641   2.351   1.476   0.530  0.5828  1.1371  0.9026
 6393SOL    HW230642   2.215   1.537   0.540 -0.6012 -0.4809 -1.1659
 6394SOL     OW30643   4.475   3.427   8.849 -0.2436  0.1456 -0.3365
 6394SOL    HW130644   4.475   3.376   8.931  3.0135  1.6711  0.6107
 6394SOL    HW230645   4.551   3.388   8.805 -2.0534 -1.9671 -1.5501
 6395SOL     OW30646   2.933   4.523   1.033  0.2275 -0.0393 -0.4505
 6395SOL    HW130647   2.885   4.507   0.952 -0.4836  1.4205 -0.3170
 6395SOL    HW230648   2.965   4.613   1.024  1.0680 -0.5463 -2.4809
 6396SOL     OW30649   0.847   2.868  14.581 -0.1005 -0.3629 -0.5709
 6396SOL    HW130650   0.778   2.915  14.534  1.3098  1.1542 -1.1287
 6396SOL    HW230651   0.794   2.806  14.630 -0.2902  0.1533 -0.1241
 6397SOL     OW30652   3.841   1.683  17.050 -0.0750 -0.1033 -0.0682
 6397SOL    HW130653   3.812   1.748  16.987  0.3256  0.5343  0.4125
 6397SOL    HW230654   3.793   1.707  17.129 -0.0077 -0.2820  0.0283
 6398SOL     OW30655   1.524   0.847   7.453 -0.0058 -0.2695 -0.0383
 6398SOL    HW130656   1.547   0.921   7.509  1.8665  0.9899 -2.5067
 6398SOL    HW230657   1.586   0.862   7.383 -0.9159  1.7946 -0.3979
 6399SOL     OW30658   3.498   4.330  10.688 -0.2548 -0.0544  0.2335
 6399SOL    HW130659   3.521   4.343  10.780 -0.6370  3.3329 -0.1310
 6399SOL    HW230660   3.413   4.290  10.707  0.1216 -1.1848 -0.4547
 6400SOL     OW30661   0.120   0.300   6.078 -0.2696 -0.2344 -0.1577
 6400SOL    HW130662   0.178   0.225   6.067  0.0049  0.5321 -3.9710
 6400SOL    HW230663   0.113   0.322   5.985  1.5881  0.3387 -0.1657
 6401SOL     OW30664   4.290   3.695   2.510 -0.3397 -0.3519  0.3218
 6401SOL    HW130665   4.319   3.757   2.578  1.1609 -1.7717  0.9803
 6401SOL    HW230666   4.207   3.736   2.486 -0.3575 -0.2851  0.4945
 6402SOL     OW30667   3.927   0.159   6.817  0.2505 -0.1328 -0.0745
 6402SOL    HW130668   3.872   0.131   6.890  0.0851  1.0143  0.2510
 6402SOL    HW230669   4.013   0.150   6.858  0.5610 -2.8317 -1.3315
 6403SOL     OW30670   2.417   3.482  15.545  1.0399 -0.0443  0.2710
 6403SOL    HW130671   2.412   3.519  15.456 -0.2501  0.4562  0.5537
 6403SOL    HW230672   2.423   3.391  15.516 -1.1608  0.5693 -2.1577
 6404SOL     OW30673   2.108   2.460  12.195  0.1458  0.2638  0.1955
 6404SOL    HW130674   2.093   2.512  12.116 -1.1776  2.0429  1.6354
 6404SOL    HW230675   2.081   2.376  12.159 -0.0060  0.9406 -1.2731
 6405SOL     OW30676   1.916   1.823   5.552  0.3499  0.4156  0.2954
 6405SOL    HW130677   1.953   1.877   5.622  0.6259  0.3649  0.1853
 6405SOL    HW230678   1.875   1.885   5.491 -0.4701  0.1971  0.6182
 6406SOL     OW30679   1.742   1.113   8.872  0.7173  0.1098  0.2123
 6406SOL    HW130680   1.802   1.131   8.945  0.1656  0.8658  0.4891
 6406SOL    HW230681   1.730   1.019   8.886 -0.6661 -0.1169 -2.4844
 6407SOL     OW30682   0.425   2.398  15.485 -0.4469  0.6980  0.4189
 6407SOL    HW130683   0.418   2.462  15.556 -1.3659 -0.1801  1.1143
 6407SOL    HW230684   0.516   2.369  15.496 -0.4961  0.2333 -0.4303
 6408SOL     OW30685   0.095   1.820  16.272  0.0222  0.3901  0.4733
 6408SOL    HW130686   0.038   1.745  16.259 -2.3073  2.0137  1.3629
 6408SOL    HW230687   0.034   1.892  16.290 -0.6959 -0.1713  0.2560
 6409SOL     OW30688   2.766   3.294   3.173  0.6512 -0.0267  0.1319
 6409SOL    HW130689   2.742   3.204   3.152  1.9791 -0.8254  2.1253
 6409SOL    HW230690   2.711   3.352   3.119 -1.0594 -1.3177  0.4865
 6410SOL     OW30691   1.475   3.047   0.275  0.0841  0.3569  0.3457
 6410SOL    HW130692   1.545   3.061   0.339  0.2192  0.6609  0.1353
 6410SOL    HW230693   1.441   3.136   0.283 -1.7210 -0.1978 -1.2000
 6411SOL     OW30694   0.225   1.705   3.893  0.4495  0.4072 -0.2951
 6411SOL    HW130695   0.148   1.712   3.950  1.1226  0.7919  0.5686
 6411SOL    HW230696   0.248   1.612   3.893  0.6629  0.4591 -0.1737
 6412SOL     OW30697   2.000   4.182   6.758 -0.4795 -0.1370  0.1987
 6412SOL    HW130698   1.945   4.105   6.774 -1.2896  0.2598 -0.7416
 6412SOL    HW230699   1.949   4.235   6.698  2.7647  1.0650 -1.4980
 6413SOL     OW30700   0.049   3.677   3.452 -0.5205  0.2453 -0.2637
 6413SOL    HW130701   0.011   3.607   3.399 -0.3090  0.7986 -1.1402
 6413SOL    HW230702   0.099   3.726   3.387 -0.3270 -0.1396 -0.4049
 6414SOL     OW30703   2.882   0.707   0.506  0.0992 -0.0291  0.1380
 6414SOL    HW130704   2.898   0.660   0.424  0.9747 -0.4548  0.5479
 6414SOL    HW230705   2.971   0.724   0.537  1.7755 -0.9565 -4.1219
 6415SOL     OW30706   4.144   1.666   1.884  0.4779 -0.2331  0.5063
 6415SOL    HW130707   4.095   1.584   1.876 -1.4065  0.9325  0.0954
 6415SOL    HW230708   4.083   1.730   1.846 -0.2898 -1.3038 -0.0443
 6416SOL     OW30709   2.020   1.028  10.796  0.7549 -1.0700 -0.5147
 6416SOL    HW130710   2.082   1.083  10.748 -0.4614  0.2093 -0.6439
 6416SOL    HW230711   2.027   1.061  10.885 -2.2562 -0.6829 -0.4007
 6417SOL     OW30712   1.558   0.616  13.203 -0.0586 -0.1131 -0.1838
 6417SOL    HW130713   1.479   0.596  13.153 -0.0661 -0.7245  0.0713
 6417SOL    HW230714   1.590   0.695  13.160  0.6151 -0.0324  0.4550
 6418SOL     OW30715   4.575   3.984   6.246 -0.1556  0.1411 -0.0862
 6418SOL    HW130716   4.550   3.917   6.183 -0.3607  1.9770 -1.9474
 6418SOL    HW230717   4.511   4.052   6.225 -0.3908  0.0464  0.3180
 6419SOL     OW30718   4.080   3.557   3.438 -0.1116  0.6241 -0.1550
 6419SOL    HW130719   4.023   3.600   3.374 -1.2472  0.5801  0.8366
 6419SOL    HW230720   4.169   3.580   3.411  1.1914 -1.7564  2.0478
 6420SOL     OW30721   2.025   2.534  16.722  0.2532  0.6413 -0.1279
 6420SOL    HW130722   1.988   2.450  16.695  1.1215  0.3371 -0.3821
 6420SOL    HW230723   2.119   2.524  16.707 -0.4765 -3.4251 -2.0549
 6421SOL     OW30724   3.133   1.212  15.336 -1.2510  0.0930  1.0733
 6421SOL    HW130725   3.083   1.228  15.256 -2.4834 -2.0133  1.4145
 6421SOL    HW230726   3.155   1.120  15.322  1.0219  1.2460 -2.7886
 6422SOL     OW30727   1.764   2.352   2.660  0.2165  0.0335  0.9079
 6422SOL    HW130728   1.798   2.424   2.606 -1.6490  0.5432  0.4430
 6422SOL    HW230729   1.810   2.283   2.612  0.2413  0.8842 -0.2827
 6423SOL     OW30730   0.791   2.570   8.488  0.8779 -0.5862  0.1652
 6423SOL    HW130731   0.797   2.598   8.579 -1.1387  0.1870  0.0739
 6423SOL    HW230732   0.697   2.580   8.473  1.1843 -2.1907 -3.0800
 6424SOL     OW30733   3.724   1.609   7.013  0.3397  0.1194 -0.3765
 6424SOL    HW130734   3.696   1.519   7.032 -1.1084  0.4331 -0.9632
 6424SOL    HW230735   3.818   1.609   7.029  0.1660  0.4268  0.5937
 6425SOL     OW30736   1.023   2.662   6.772 -0.0252  0.0232 -0.1747
 6425SOL    HW130737   1.029   2.734   6.709 -0.7214 -1.7856 -2.3118
 6425SOL    HW230738   1.112   2.628   6.780 -1.0305 -2.6343 -0.1041
 6426SOL     OW30739   2.492   1.441   3.271 -0.5016 -0.1803  0.0972
 6426SOL    HW130740   2.411   1.412   3.313 -0.4843 -0.1702  0.1379
 6426SOL    HW230741   2.498   1.366   3.212  2.1994 -0.1469  0.3428
 6427SOL     OW30742   3.357   3.201   8.164 -0.0710 -0.5544 -0.2507
 6427SOL    HW130743   3.272   3.175   8.198  1.0667  0.1351  3.1331
 6427SOL    HW230744   3.368   3.271   8.229  1.7342 -0.4401 -0.6774
 6428SOL     OW30745   0.420   1.283   6.899  0.4858 -0.3818 -0.4290
 6428SOL    HW130746   0.372   1.211   6.857  0.7932 -0.6702 -0.2808
 6428SOL    HW230747   0.387   1.364   6.859 -0.5116 -1.4384 -1.7418
 6429SOL     OW30748   0.152   3.318   3.670  0.1266 -0.1677 -0.1848
 6429SOL    HW130749   0.152   3.259   3.594 -0.3475  0.4426 -0.6553
 6429SOL    HW230750   0.069   3.362   3.653  0.9468  1.1114 -0.8576
 6430SOL     OW30751   0.843   4.429   7.138 -0.0714 -0.3521  0.3862
 6430SOL    HW130752   0.796   4.513   7.142 -1.7405 -1.1421 -2.7930
 6430SOL    HW230753   0.819   4.391   7.222 -0.2281 -3.6254 -1.1423
 6431SOL     OW30754   1.593   0.711   6.856  0.1458 -0.0536 -0.2016
 6431SOL    HW130755   1.505   0.677   6.868  0.8741 -2.4483 -1.6459
 6431SOL    HW230756   1.613   0.698   6.763  1.9307 -0.6544  0.2564
 6432SOL     OW30757   1.101   2.338   5.282 -0.2130  0.3823 -0.0811
 6432SOL    HW130758   1.036   2.392   5.325  1.5938  3.1204 -0.8140
 6432SOL    HW230759   1.182   2.359   5.329 -0.0297  0.9034 -0.6275
 6433SOL     OW30760   0.171   4.265  13.792 -0.2605  0.3061  0.0476
 6433SOL    HW130761   0.237   4.329  13.764 -0.4625  1.0132  1.2262
 6433SOL    HW230762   0.107   4.290  13.725 -1.5634 -0.2826  1.0554
 6434SOL     OW30763   2.219   3.079  17.377  0.1565  0.5501  0.1446
 6434SOL    HW130764   2.126   3.068  17.358  0.6374  0.3341 -2.1059
 6434SOL    HW230765   2.265   3.032  17.308  0.7400 -0.5619  1.2849
 6435SOL     OW30766   4.221   2.870  14.301  0.3716 -0.1230  0.3154
 6435SOL    HW130767   4.303   2.824  14.320  0.7066 -0.1153 -1.1134
 6435SOL    HW230768   4.228   2.941  14.365 -0.9120 -0.2924  0.6400
 6436SOL     OW30769   1.166   1.341   7.956  0.1335  0.2981 -0.1516
 6436SOL    HW130770   1.082   1.327   8.000  2.2361 -3.1414  2.7773
 6436SOL    HW230771   1.146   1.331   7.863 -0.2208  1.4435 -0.1971
 6437SOL     OW30772   3.724   2.265  17.366  0.6184  0.0450  0.4391
 6437SOL    HW130773   3.742   2.281  17.459 -0.3572 -0.8526  0.7936
 6437SOL    HW230774   3.649   2.323  17.357 -0.7563 -1.8464 -0.4223
 6438SOL     OW30775   3.773   1.926   8.907  0.3960 -0.3432  0.3228
 6438SOL    HW130776   3.808   2.006   8.867 -0.8409 -0.0361 -0.1672
 6438SOL    HW230777   3.677   1.931   8.912  0.3147 -0.3093 -1.2353
 6439SOL     OW30778   2.384   3.759   7.512 -0.0248 -0.2001  0.0603
 6439SOL    HW130779   2.397   3.823   7.441 -1.7163 -1.0263 -1.0010
 6439SOL    HW230780   2.305   3.798   7.550  0.6160  0.8684  0.2850
 6440SOL     OW30781   0.963   3.505   3.483  0.3157  0.7016  0.1691
 6440SOL    HW130782   0.912   3.476   3.407 -0.9050  1.4328  0.7061
 6440SOL    HW230783   0.969   3.422   3.529 -0.0235  0.5575 -0.0420
 6441SOL     OW30784   1.252   1.315   1.768  0.3314  0.6540  0.0648
 6441SOL    HW130785   1.184   1.253   1.740 -0.2161  1.3228 -0.0685
 6441SOL    HW230786   1.339   1.280   1.749  0.6531  0.2094  2.2871
 6442SOL     OW30787   4.083   4.684   3.740  0.0107  0.5305  0.3946
 6442SOL    HW130788   4.152   0.013   3.781  2.5116 -2.2604 -0.3325
 6442SOL    HW230789   4.010   0.018   3.764  0.7789  2.0181 -0.8184
 6443SOL     OW30790   2.707   3.536   8.895 -0.3756  0.2897  0.0149
 6443SOL    HW130791   2.729   3.617   8.941 -0.6879  0.6005 -0.3749
 6443SOL    HW230792   2.639   3.502   8.953  0.4057 -1.8194 -0.3080
 6444SOL     OW30793   2.686   3.099  13.173 -0.2954 -0.2506 -0.0948
 6444SOL    HW130794   2.741   3.167  13.212 -0.0099  0.3533 -1.5837
 6444SOL    HW230795   2.603   3.119  13.217 -0.9584 -1.3330 -0.8481
 6445SOL     OW30796   3.370   3.428  10.785  0.0048  0.2195 -0.1902
 6445SOL    HW130797   3.356   3.376  10.864 -0.7755  0.9143  0.1392
 6445SOL    HW230798   3.395   3.505  10.835  0.3590  1.6017 -2.5036
 6446SOL     OW30799   4.293   3.300  13.320 -0.5755 -0.0214  0.7245
 6446SOL    HW130800   4.380   3.295  13.281 -1.2394  0.2239 -0.8259
 6446SOL    HW230801   4.246   3.238  13.263 -0.5524  0.5136  0.1167
 6447SOL     OW30802   1.994   0.946  16.954 -0.1961  0.4274 -0.5167
 6447SOL    HW130803   2.049   0.939  17.032  0.7549  2.6782 -0.9886
 6447SOL    HW230804   2.027   0.867  16.910  0.1841  1.8632 -2.8234
 6448SOL     OW30805   4.211   0.097   6.912  0.1029  0.1755  0.4435
 6448SOL    HW130806   4.259   0.017   6.936  0.4427  0.8716  2.0966
 6448SOL    HW230807   4.207   0.130   7.001 -3.5285 -1.0886  0.7552
 6449SOL     OW30808   2.971   0.310   4.377 -0.0144 -0.0381 -1.1858
 6449SOL    HW130809   2.954   0.245   4.309 -0.0344 -1.2655 -0.0234
 6449SOL    HW230810   2.996   0.262   4.456  1.4184  0.2209 -1.4750
 6450SOL     OW30811   4.208   1.526  14.301 -0.3169  0.1595 -0.2428
 6450SOL    HW130812   4.134   1.586  14.315 -1.1179 -0.4256 -1.9554
 6450SOL    HW230813   4.195   1.486  14.215  2.8243 -0.8616 -0.2218
 6451SOL     OW30814   0.322   2.293   9.211  0.4240 -0.1700 -0.2708
 6451SOL    HW130815   0.345   2.384   9.232 -0.0461  0.2638 -1.6340
 6451SOL    HW230816   0.315   2.263   9.302 -4.1685 -1.4262 -1.0537
 6452SOL     OW30817   2.799   2.833   9.794 -0.4680 -0.1167  0.2633
 6452SOL    HW130818   2.892   2.812   9.783 -0.7819 -1.4002 -0.0016
 6452SOL    HW230819   2.763   2.874   9.716 -0.0785  0.7489  0.5387
 6453SOL     OW30820   3.744   1.807   1.874 -0.5530  1.0253 -0.0425
 6453SOL    HW130821   3.649   1.801   1.873 -0.6586  2.6637  0.6585
 6453SOL    HW230822   3.762   1.871   1.805 -0.0773  2.2815  1.2366
 6454SOL     OW30823   1.876   2.849   3.162 -0.3647  0.0022 -0.2521
 6454SOL    HW130824   1.805   2.787   3.143  0.5503 -1.4669  1.1260
 6454SOL    HW230825   1.873   2.910   3.088  0.9430  1.8986  1.2807
 6455SOL     OW30826   4.674   1.495   2.605  0.5684  0.1780 -0.1496
 6455SOL    HW130827   4.682   1.590   2.612  1.4727  0.1198 -0.3726
 6455SOL    HW230828   4.667   1.499   2.509 -3.1223 -0.6615  0.0812
 6456SOL     OW30829   1.007   3.443   0.999  0.3515  0.6809 -0.6785
 6456SOL    HW130830   0.966   3.362   0.967  1.4720  0.1669 -0.7911
 6456SOL    HW230831   1.093   3.414   1.027 -0.7417 -0.0134  1.9077
 6457SOL     OW30832   1.591   2.094   8.865  0.0939 -0.2214 -0.4506
 6457SOL    HW130833   1.645   2.064   8.938 -1.5565 -1.3183  0.3293
 6457SOL    HW230834   1.525   2.148   8.908 -0.7111 -3.4446  2.3645
 6458SOL     OW30835   1.838   3.975   3.298 -0.2854 -0.3747  0.0811
 6458SOL    HW130836   1.829   3.995   3.391 -1.6741 -0.6910  0.0297
 6458SOL    HW230837   1.793   3.890   3.296  0.5165 -0.8001  0.3631
 6459SOL     OW30838   4.602   3.702   5.126  0.6406  0.0227 -0.1889
 6459SOL    HW130839   4.627   3.771   5.187  0.8471 -0.4260  0.2329
 6459SOL    HW230840   4.531   3.746   5.079  1.5638 -0.5291 -2.1139
 6460SOL     OW30841   0.233   4.648  12.097 -0.6910 -0.3015  0.0724
 6460SOL    HW130842   0.189   4.597  12.029 -0.7363 -0.6515  0.3651
 6460SOL    HW230843   0.321   4.642  12.060  0.3503 -0.8359  2.6211
 6461SOL     OW30844   1.633   1.507   9.119 -0.3707  0.0491 -0.5078
 6461SOL    HW130845   1.727   1.487   9.116  0.1915  2.9663 -2.0750
 6461SOL    HW230846   1.631   1.511   9.214  2.4257  1.6360 -0.5210
 6462SOL     OW30847   1.544   3.874  16.377 -0.5768  0.2627 -0.1128
 6462SOL    HW130848   1.531   3.924  16.296 -1.0125 -0.0311 -0.2222
 6462SOL    HW230849   1.520   3.784  16.356 -1.4666  0.2751  0.8296
 6463SOL     OW30850   3.885   2.881   4.362  0.1345  0.1407 -0.0807
 6463SOL    HW130851   3.890   2.792   4.398  1.5748  0.9295  1.7392
 6463SOL    HW230852   3.792   2.882   4.339  0.5987 -1.0666 -2.0211
 6464SOL     OW30853   4.477   4.513  17.232 -0.1788  0.0228  0.5738
 6464SOL    HW130854   4.563   4.523  17.191  0.4500  0.3781  1.9909
 6464SOL    HW230855   4.431   4.498  17.149  0.5823 -0.5754  0.2635
 6465SOL     OW30856   2.225   1.675   1.952  0.7714  0.5645 -0.3072
 6465SOL    HW130857   2.148   1.710   1.908  1.2006  1.3530 -0.4402
 6465SOL    HW230858   2.268   1.632   1.879  0.4807 -0.9997  0.4488
 6466SOL     OW30859   2.558   1.261  15.748  0.2267 -0.4769  0.3198
 6466SOL    HW130860   2.557   1.168  15.724 -1.7274  0.3132 -2.6214
 6466SOL    HW230861   2.463   1.275  15.754  0.0896 -0.7642 -1.0180
 6467SOL     OW30862   3.161   4.682  17.336  0.2769 -0.0101 -0.7775
 6467SOL    HW130863   3.081   4.719  17.300  0.5242 -0.8329 -2.1648
 6467SOL    HW230864   3.231   4.713  17.279 -0.0353 -0.1176 -1.2143
 6468SOL     OW30865   1.316   4.133   4.350  0.3743  0.4652 -0.0339
 6468SOL    HW130866   1.240   4.096   4.306 -0.3172  1.5937  0.2087
 6468SOL    HW230867   1.340   4.199   4.284 -1.4454  0.5798 -0.5860
 6469SOL     OW30868   0.751   2.040   3.895 -0.4893  0.7670 -0.0589
 6469SOL    HW130869   0.740   2.003   3.982  0.8165 -0.6978 -0.5305
 6469SOL    HW230870   0.846   2.044   3.887 -0.3882 -0.5734  0.5177
 6470SOL     OW30871   1.102   1.740   3.391  0.1512  0.4165  0.4666
 6470SOL    HW130872   1.035   1.714   3.455  1.8025  3.5578  3.4307
 6470SOL    HW230873   1.059   1.713   3.310 -1.1273  0.2214  1.2035
 6471SOL     OW30874   0.128   1.749   2.242  0.2484 -0.0545 -0.1062
 6471SOL    HW130875   0.142   1.708   2.157  0.2882 -1.3643  0.5286
 6471SOL    HW230876   0.053   1.698   2.273 -0.6405  0.9647 -0.5919
 6472SOL     OW30877   2.126   3.540   1.480  0.1992 -0.1980  0.3381
 6472SOL    HW130878   2.197   3.476   1.473 -0.8609 -1.2624 -0.8711
 6472SOL    HW230879   2.090   3.548   1.391 -0.5438  2.4954  0.8800
 6473SOL     OW30880   0.836   3.459   6.524 -0.1507  0.0579  0.6502
 6473SOL    HW130881   0.761   3.448   6.582 -0.4153 -1.8442 -0.0552
 6473SOL    HW230882   0.824   3.552   6.504 -1.7134  0.2217  2.3838
 6474SOL     OW30883   1.597   0.388  16.388  0.0694 -0.1236  0.3581
 6474SOL    HW130884   1.600   0.294  16.406  0.9010 -0.1079  0.3029
 6474SOL    HW230885   1.575   0.432  16.470  2.2402 -0.8190  1.3214
 6475SOL     OW30886   3.513   3.321   6.595 -0.0685  0.1807 -0.3730
 6475SOL    HW130887   3.588   3.297   6.649  0.0943  2.7252  0.5143
 6475SOL    HW230888   3.466   3.237   6.599 -0.4498  0.3940 -0.3558
 6476SOL     OW30889   4.235   1.954   6.022 -0.1721  0.5538  0.2279
 6476SOL    HW130890   4.288   1.975   5.945  2.1885  1.8918  2.1818
 6476SOL    HW230891   4.144   1.956   5.992 -0.5056  0.9608  1.2682
 6477SOL     OW30892   2.446   1.506  13.525  0.6979  0.3334  0.4451
 6477SOL    HW130893   2.393   1.430  13.546  0.6955 -0.6081 -3.0552
 6477SOL    HW230894   2.386   1.581  13.521  0.5753  0.0342 -3.1245
 6478SOL     OW30895   0.194   4.220   0.659 -0.1891  0.5274  0.4774
 6478SOL    HW130896   0.189   4.142   0.603  4.6062 -1.0280  2.2879
 6478SOL    HW230897   0.123   4.207   0.722 -0.3752  1.5596  0.4884
 6479SOL     OW30898   2.959   0.710  11.952 -0.2774 -0.0908 -0.6523
 6479SOL    HW130899   2.880   0.753  11.920  0.1269  0.9720 -0.2525
 6479SOL    HW230900   2.963   0.636  11.892  0.7348 -0.0997 -0.5700
 6480SOL     OW30901   0.113   0.650   7.353 -0.0553  0.3769  0.2416
 6480SOL    HW130902   0.208   0.651   7.341  0.0431  1.5845  1.0738
 6480SOL    HW230903   0.077   0.564   7.331  2.7649 -0.5135 -0.9092
 6481SOL     OW30904   0.471   0.316   5.279 -0.1276  0.2640 -0.0285
 6481SOL    HW130905   0.543   0.264   5.242 -1.6913  0.0031 -2.7316
 6481SOL    HW230906   0.407   0.322   5.208 -0.6227 -0.5424  0.3421
 6482SOL     OW30907   0.636   4.296  13.867 -0.4824  0.1615 -0.3528
 6482SOL    HW130908   0.654   4.379  13.823  1.7867 -1.2917 -2.2261
 6482SOL    HW230909   0.666   4.239  13.795 -0.5398  0.5976 -0.7228
 6483SOL     OW30910   2.083   2.431   4.025  0.2876  0.4657 -0.1708
 6483SOL    HW130911   1.993   2.407   4.003  0.8701 -0.7628 -1.2148
 6483SOL    HW230912   2.125   2.379   3.957 -2.6852 -0.3270 -1.3810
 6484SOL     OW30913   3.630   1.437   5.226 -0.3660 -0.5183  0.5876
 6484SOL    HW130914   3.679   1.519   5.224 -1.2478  0.0091  0.8808
 6484SOL    HW230915   3.691   1.389   5.282  0.9459  1.4072  0.7991
 6485SOL     OW30916   0.995   4.589   3.040 -0.0133  0.0310 -0.0696
 6485SOL    HW130917   0.927   4.524   3.026 -0.9651  1.1210 -0.4871
 6485SOL    HW230918   0.939   4.640   3.098  0.1537  0.2105 -0.0638
 6486SOL     OW30919   3.375   3.251  17.563  0.5641  0.2007  0.4560
 6486SOL    HW130920   3.409   3.228  17.649  0.8093 -1.9329 -0.1996
 6486SOL    HW230921   3.290   3.284  17.591 -0.4777  0.6268 -3.1295
 6487SOL     OW30922   2.845   3.985   8.752 -0.3167  0.0041  0.2022
 6487SOL    HW130923   2.902   3.937   8.692  2.1298  1.1734  1.6252
 6487SOL    HW230924   2.829   4.066   8.703 -1.8085  0.6517  1.7684
 6488SOL     OW30925   0.720   2.484  12.963 -0.1456  0.1318  0.3880
 6488SOL    HW130926   0.696   2.572  12.932 -0.1034  0.7810  2.1877
 6488SOL    HW230927   0.773   2.502  13.041  0.0201  0.2755  0.2442
 6489SOL     OW30928   2.205   4.676   5.575  0.7960  0.3856  0.3512
 6489SOL    HW130929   2.213   0.045   5.602 -0.5517  0.4424  0.5421
 6489SOL    HW230930   2.138   4.649   5.638  2.7254 -0.0894  2.2258
 6490SOL     OW30931   3.813   2.649   7.418  0.0244 -0.2949 -0.0262
 6490SOL    HW130932   3.867   2.681   7.346  0.0622 -1.9358 -0.7086
 6490SOL    HW230933   3.846   2.561   7.433  0.9614 -0.2653 -1.9267
 6491SOL     OW30934   0.381   3.898   6.576  0.0431  0.6015  0.0853
 6491SOL    HW130935   0.433   3.977   6.590 -1.1516  1.0598  1.8262
 6491SOL    HW230936   0.395   3.866   6.665 -2.1606 -1.1709 -0.2139
 6492SOL     OW30937   2.056   2.606  11.960 -0.0240 -0.1753  0.0730
 6492SOL    HW130938   2.110   2.543  11.912  2.4835  0.7678  1.6106
 6492SOL    HW230939   2.010   2.644  11.886  1.2131 -0.7046 -0.9747
 6493SOL     OW30940   3.674   2.141  11.938  0.3343 -0.0130 -0.0721
 6493SOL    HW130941   3.614   2.138  11.864  1.5575  0.1461 -1.0795
 6493SOL    HW230942   3.619   2.113  12.011  0.2107  1.4276  0.3746
 6494SOL     OW30943   4.038   0.871   7.223  0.4311 -0.1536 -0.0506
 6494SOL    HW130944   4.050   0.780   7.249  1.8230  0.3792  1.1788
 6494SOL    HW230945   4.065   0.925   7.298  0.1958  1.8237 -1.3897
 6495SOL     OW30946   3.981   0.722   4.302  0.0562  0.3850  0.1447
 6495SOL    HW130947   3.946   0.738   4.214 -2.4231  0.3199  1.1229
 6495SOL    HW230948   4.069   0.707   4.269 -0.3171 -0.9884 -0.2406
 6496SOL     OW30949   2.411   3.250  10.442  0.5214 -0.2510  0.0780
 6496SOL    HW130950   2.440   3.203  10.364 -1.3332 -0.5123 -0.4587
 6496SOL    HW230951   2.464   3.329  10.451  0.3736 -0.0918 -0.4612
 6497SOL     OW30952   2.835   0.627   3.942  0.1329  0.2033 -0.1657
 6497SOL    HW130953   2.770   0.696   3.929 -0.6261 -0.2321  1.3588
 6497SOL    HW230954   2.919   0.668   3.921 -1.1849  3.1432  0.2343
 6498SOL     OW30955   0.062   3.578  12.175 -0.2219  0.1021 -0.4113
 6498SOL    HW130956   0.152   3.611  12.183  0.0489 -0.3501 -1.6247
 6498SOL    HW230957   0.052   3.603  12.083  0.5643  0.3869 -0.4175
 6499SOL     OW30958   3.365   2.178   3.285 -0.2723 -0.5639 -0.5046
 6499SOL    HW130959   3.284   2.219   3.254  0.4134  0.9494 -0.2718
 6499SOL    HW230960   3.405   2.181   3.198  0.6815  0.3103 -0.0228
 6500SOL     OW30961   2.899   2.308  11.538 -0.5260  0.9717 -0.0697
 6500SOL    HW130962   2.930   2.385  11.491 -2.1637  0.4909 -1.9307
 6500SOL    HW230963   2.804   2.318  11.540 -0.7819 -1.1024 -2.6512
 6501SOL     OW30964   3.448   2.340   4.202  0.4479  0.0891  0.4234
 6501SOL    HW130965   3.397   2.379   4.273 -0.2055  2.4657 -1.3463
 6501SOL    HW230966   3.420   2.252   4.228 -0.6059  0.3052  0.0299
 6502SOL     OW30967   4.209   2.024   6.818 -0.0117 -0.5827 -0.4792
 6502SOL    HW130968   4.274   2.086   6.852 -0.7836 -0.6141  1.0272
 6502SOL    HW230969   4.264   1.960   6.773  1.1740 -0.0657  0.2223
 6503SOL     OW30970   1.546   1.358   2.656  0.1749  0.0308  0.0596
 6503SOL    HW130971   1.551   1.303   2.578  0.7818 -1.3053  1.0532
 6503SOL    HW230972   1.451   1.355   2.673  0.4376 -0.4805  1.4279
 6504SOL     OW30973   3.369   3.440   4.073 -0.2538  0.9318  0.0230
 6504SOL    HW130974   3.278   3.470   4.080 -1.0487 -1.1872 -1.2997
 6504SOL    HW230975   3.411   3.522   4.099  1.7100  0.0847 -0.5030
 6505SOL     OW30976   0.795   4.232   3.427  0.2835  0.5268  0.1151
 6505SOL    HW130977   0.835   4.230   3.340  0.3563 -4.0084  0.2558
 6505SOL    HW230978   0.809   4.140   3.451 -2.0020  0.3404  0.7144
 6506SOL     OW30979   1.962   1.209   6.408 -0.6496  0.2558 -0.5539
 6506SOL    HW130980   2.025   1.207   6.336 -0.3430  1.7191 -0.3097
 6506SOL    HW230981   1.902   1.140   6.379  0.0789 -0.9645  0.8150
 6507SOL     OW30982   3.110   3.380  10.671  0.5236 -0.0995  0.1398
 6507SOL    HW130983   3.105   3.389  10.767  0.8092  0.3261  0.1164
 6507SOL    HW230984   3.198   3.417  10.664  1.0418 -1.0160  1.7941
 6508SOL     OW30985   1.456   1.367   8.419  0.1538 -0.1388 -0.5922
 6508SOL    HW130986   1.517   1.354   8.491 -0.6123  1.2375  0.3021
 6508SOL    HW230987   1.389   1.299   8.428  1.3635 -0.9819  1.9028
 6509SOL     OW30988   1.236   1.480   3.118  0.5073  0.0159 -0.1622
 6509SOL    HW130989   1.321   1.436   3.123  1.9881  3.0416  1.6168
 6509SOL    HW230990   1.181   1.407   3.148 -1.1381  1.2964 -0.0539
 6510SOL     OW30991   1.013   3.896   4.420 -0.6447 -0.6875  0.4362
 6510SOL    HW130992   1.015   3.824   4.483  1.3326 -1.3347 -0.3911
 6510SOL    HW230993   0.934   3.874   4.370 -2.0877  2.3693  1.3212
 6511SOL     OW30994   0.758   3.015   8.699 -0.3245 -0.1296 -0.8427
 6511SOL    HW130995   0.783   3.020   8.607 -2.1398 -1.0217 -1.3846
 6511SOL    HW230996   0.815   3.078   8.745  1.7180 -2.0173 -0.7949
 6512SOL     OW30997   2.306   1.122  16.147 -0.8552  0.0425 -0.3419
 6512SOL    HW130998   2.295   1.084  16.234 -0.2981 -1.9079 -1.1125
 6512SOL    HW230999   2.262   1.207  16.150  1.1931  1.0835 -0.1837
 6513SOL     OW31000   0.822   3.404  16.008  0.4674 -0.1070  0.4585
 6513SOL    HW131001   0.764   3.350  16.062 -2.4974  0.6514 -1.9767
 6513SOL    HW231002   0.811   3.493  16.040 -2.6989  0.2606 -1.6819
 6514SOL     OW31003   1.100   2.882  12.295  0.5457 -0.0172 -0.6199
 6514SOL    HW131004   1.108   2.978  12.296  1.3045 -0.0937  2.3186
 6514SOL    HW231005   1.145   2.843  12.370  0.6741 -1.2103 -1.3176
 6515SOL     OW31006   4.080   0.591   7.914  0.4855 -0.1828 -0.0275
 6515SOL    HW131007   4.088   0.663   7.977  0.0464  0.1909 -0.3968
 6515SOL    HW231008   4.094   0.517   7.972  1.7041 -0.5280 -0.7458
 6516SOL     OW31009   3.370   3.006   4.263  0.5180 -0.2688 -0.4820
 6516SOL    HW131010   3.433   3.061   4.216  0.9230  0.2571  0.6757
 6516SOL    HW231011   3.339   2.949   4.192  1.9052 -0.6463 -0.7973
 6517SOL     OW31012   2.841   4.502  17.428  0.1843 -0.1433 -0.4471
 6517SOL    HW131013   2.915   4.450  17.461  1.1931  0.4810 -1.7284
 6517SOL    HW231014   2.767   4.475  17.482 -0.1032 -1.4072 -1.5044
 6518SOL     OW31015   2.020   1.686   0.388 -0.0724  0.0134  0.5017
 6518SOL    HW131016   1.933   1.684   0.429  1.7241  1.2503  4.3926
 6518SOL    HW231017   2.078   1.648   0.454 -0.9566 -2.0244  0.1020
 6519SOL     OW31018   0.671   3.863   8.390 -0.2093 -0.4340 -0.3216
 6519SOL    HW131019   0.687   3.911   8.309  1.0314 -0.5749 -0.1635
 6519SOL    HW231020   0.664   3.774   8.354 -1.4197 -1.2192  1.7841
 6520SOL     OW31021   2.142   2.215   0.958 -0.0073 -0.4366 -0.7179
 6520SOL    HW131022   2.143   2.157   0.882 -0.3771  0.0772 -1.1120
 6520SOL    HW231023   2.091   2.287   0.921  1.4585  0.5642 -0.7714
 6521SOL     OW31024   1.962   0.357   8.109 -0.6199  0.2452  1.3654
 6521SOL    HW131025   2.033   0.364   8.045  0.2202  0.7542  2.3509
 6521SOL    HW231026   1.966   0.265   8.133 -2.3535 -0.1974 -0.0279
 6522SOL     OW31027   0.213   2.397   8.008  0.8621  0.3627 -0.3013
 6522SOL    HW131028   0.168   2.434   8.084  2.0087  1.5879 -0.1995
 6522SOL    HW231029   0.144   2.372   7.947 -0.3861 -2.4267  2.3033
 6523SOL     OW31030   0.447   1.608   7.272  0.2722  0.1706  0.8782
 6523SOL    HW131031   0.448   1.515   7.293  2.4549 -0.5500 -2.5704
 6523SOL    HW231032   0.355   1.634   7.286  0.9662  2.4676  1.1585
 6524SOL     OW31033   2.937   3.616  12.969 -0.3080 -0.0068  0.0644
 6524SOL    HW131034   3.006   3.554  12.947 -2.0200 -1.7229 -0.4519
 6524SOL    HW231035   2.986   3.671  13.030  0.4234 -0.1621 -0.3901
 6525SOL     OW31036   3.561   1.412  15.602 -0.6620 -0.0986  0.1158
 6525SOL    HW131037   3.475   1.370  15.606 -1.5078  1.6518  0.3940
 6525SOL    HW231038   3.536   1.504  15.610  3.1964  1.1687 -2.4411
 6526SOL     OW31039   1.492   1.722   2.193 -0.1689  0.2795 -1.0708
 6526SOL    HW131040   1.422   1.667   2.158  0.3004  1.1192 -3.3341
 6526SOL    HW231041   1.449   1.768   2.264 -0.0466 -3.0025  1.1473
 6527SOL     OW31042   1.280   3.091  15.710 -0.1341 -0.1959 -0.0297
 6527SOL    HW131043   1.285   3.186  15.698  0.5666 -0.4342 -1.6931
 6527SOL    HW231044   1.214   3.092  15.778  0.0047  0.4122  0.0913
 6528SOL     OW31045   0.002   0.866   4.333  1.0270  0.0388  0.0385
 6528SOL    HW131046   4.707   0.842   4.242  2.3346 -0.4342 -0.0868
 6528SOL    HW231047   0.015   0.776   4.362  2.3454  0.5250  0.9212
 6529SOL     OW31048   1.828   3.540   3.418 -0.5579  0.6734  0.2595
 6529SOL    HW131049   1.861   3.579   3.499 -0.6065 -0.6287  0.9235
 6529SOL    HW231050   1.793   3.617   3.374 -0.0445  1.6653  1.5747
 6530SOL     OW31051   0.321   1.322   8.692  0.1544 -0.3098 -0.1547
 6530SOL    HW131052   0.297   1.260   8.761 -0.2719  0.7622  0.6588
 6530SOL    HW231053   0.405   1.359   8.720 -0.3819  2.7199 -2.5438
 6531SOL     OW31054   0.653   4.137   4.226 -0.3446  0.3803 -0.1340
 6531SOL    HW131055   0.678   4.127   4.318  0.2838 -0.9652 -0.4500
 6531SOL    HW231056   0.593   4.065   4.207  1.0275 -0.7330 -0.2836
 6532SOL     OW31057   3.958   4.419  11.823  0.0829 -0.5252  0.1887
 6532SOL    HW131058   3.998   4.332  11.832  3.0456  0.8920  0.7764
 6532SOL    HW231059   4.031   4.481  11.817  1.0340 -1.8096 -1.4747
 6533SOL     OW31060   1.395   2.973   3.939 -0.5603 -0.6091  0.3994
 6533SOL    HW131061   1.452   2.906   3.976  0.4276 -0.3220 -0.6010
 6533SOL    HW231062   1.462   3.040   3.930 -0.9151 -0.4513 -1.1275
 6534SOL     OW31063   2.996   0.812   8.723 -0.3274  0.0633  0.3480
 6534SOL    HW131064   2.965   0.902   8.732 -0.9875 -0.1589  0.2746
 6534SOL    HW231065   3.068   0.823   8.785 -1.3445 -2.2006  1.9263
 6535SOL     OW31066   2.151   2.084   8.975  0.2547 -0.0408 -0.8269
 6535SOL    HW131067   2.159   1.991   8.951  1.7644  0.3380 -1.7448
 6535SOL    HW231068   2.192   2.080   9.061 -1.5296 -1.0351 -0.0094
 6536SOL     OW31069   2.856   4.200   8.124 -0.1647 -0.0501 -0.1966
 6536SOL    HW131070   2.902   4.283   8.129 -1.2086  0.3314  2.9641
 6536SOL    HW231071   2.766   4.218   8.151  1.3844  1.5039  3.8489
 6537SOL     OW31072   3.090   0.992   6.095 -0.5579  0.1064 -0.2396
 6537SOL    HW131073   3.035   1.067   6.072 -2.0956  0.0576  3.1425
 6537SOL    HW231074   3.163   1.044   6.128 -0.5936 -0.7281  1.1460
 6538SOL     OW31075   1.932   2.645   6.789 -0.4379 -0.3124  0.4671
 6538SOL    HW131076   1.991   2.616   6.859  0.9846  0.0865 -0.5626
 6538SOL    HW231077   1.847   2.627   6.828 -0.8281  1.1183  0.2742
 6539SOL     OW31078   1.798   0.881  10.831 -0.4999 -0.4903  0.4219
 6539SOL    HW131079   1.858   0.955  10.824  0.0955 -0.8840  1.2816
 6539SOL    HW231080   1.728   0.906  10.891  0.5082  1.1816  0.8984
 6540SOL     OW31081   2.267   3.329   9.170  0.4817 -0.2842  0.3466
 6540SOL    HW131082   2.211   3.252   9.163 -1.3923  0.8643  2.4583
 6540SOL    HW231083   2.198   3.394   9.159  1.8608  1.4899  2.0590
 6541SOL     OW31084   4.485   1.344   3.388 -0.2318 -0.5441 -0.2255
 6541SOL    HW131085   4.433   1.298   3.322  0.5492 -0.6072 -0.7981
 6541SOL    HW231086   4.433   1.419   3.416  0.4041 -0.9793  2.1289
 6542SOL     OW31087   0.730   1.317   1.462  0.4350  0.5092 -0.9160
 6542SOL    HW131088   0.737   1.298   1.368  1.8290 -3.0075 -0.0922
 6542SOL    HW231089   0.771   1.404   1.468  2.6779 -0.4048 -2.6946
 6543SOL     OW31090   1.044   3.316   2.469 -0.3319  0.7488 -0.0243
 6543SOL    HW131091   1.091   3.400   2.468  0.2042  0.4767  2.1230
 6543SOL    HW231092   0.992   3.338   2.392  0.5843  1.9055 -0.3223
 6544SOL     OW31093   4.187   2.519   5.838  0.3022  0.4319  0.4928
 6544SOL    HW131094   4.152   2.504   5.926  0.2204 -1.6711  0.1020
 6544SOL    HW231095   4.244   2.443   5.828 -1.1562 -0.5216 -0.6108
 6545SOL     OW31096   0.931   4.429  10.297 -0.2197 -0.3126 -0.1650
 6545SOL    HW131097   0.900   4.391  10.379  1.8792 -1.1056  0.2784
 6545SOL    HW231098   0.925   4.359  10.232 -0.3888 -0.0568 -0.4167
 6546SOL     OW31099   0.403   4.341  12.861  0.6855 -0.1233  0.3175
 6546SOL    HW131100   0.425   4.405  12.928 -1.8237  2.8683 -1.7033
 6546SOL    HW231101   0.361   4.402  12.800  1.5887 -0.0787 -0.2635
 6547SOL     OW31102   4.280   2.176  10.339 -0.1222 -0.6555  0.1112
 6547SOL    HW131103   4.301   2.209  10.426 -0.9886 -0.0673  0.0928
 6547SOL    HW231104   4.359   2.124  10.322 -1.5530 -2.9828  0.4927
 6548SOL     OW31105   1.109   2.281   1.590  0.7004  0.4994  0.2085
 6548SOL    HW131106   1.025   2.244   1.565  0.9911  0.4616 -0.7165
 6548SOL    HW231107   1.125   2.236   1.673  0.4168 -0.7528 -0.4283
 6549SOL     OW31108   2.773   4.393   3.602 -0.6047  0.8295 -0.6419
 6549SOL    HW131109   2.868   4.390   3.588 -0.5157  0.9070 -0.0486
 6549SOL    HW231110   2.744   4.394   3.511  1.7059  0.7570 -1.3910
 6550SOL     OW31111   4.128   2.833   2.116  0.0124  0.0262  0.0972
 6550SOL    HW131112   4.161   2.923   2.123  1.3646 -0.6041  1.8699
 6550SOL    HW231113   4.050   2.854   2.065 -0.5218 -2.8526 -0.2468
 6551SOL     OW31114   1.463   0.607   7.151  0.3016 -0.3013  0.8265
 6551SOL    HW131115   1.384   0.656   7.130 -0.3956 -1.6922  0.2408
 6551SOL    HW231116   1.448   0.588   7.244 -4.0497 -2.1401 -0.2649
 6552SOL     OW31117   1.048   4.259   7.101  0.2976  0.4941 -0.5273
 6552SOL    HW131118   0.967   4.310   7.109  1.3676  1.7127  2.4603
 6552SOL    HW231119   1.018   4.192   7.039  1.1690 -1.9086  1.6402
 6553SOL     OW31120   2.065   4.340  11.641 -0.1429  0.0476 -0.3547
 6553SOL    HW131121   1.979   4.341  11.599 -0.9770  0.9862  1.3756
 6553SOL    HW231122   2.079   4.434  11.645  0.7051 -0.1131  0.5515
 6554SOL     OW31123   2.396   0.817  10.132  0.0578 -0.0062  0.2890
 6554SOL    HW131124   2.395   0.726  10.161 -2.4734  0.4635  1.7236
 6554SOL    HW231125   2.486   0.820  10.100  0.2316 -1.3564  0.6686
 6555SOL     OW31126   1.320   1.164  17.592  0.2922  0.5304  0.0972
 6555SOL    HW131127   1.351   1.110  17.665  0.3542 -0.9634 -1.0517
 6555SOL    HW231128   1.237   1.197  17.627  0.2937  2.0154 -1.3042
 6556SOL     OW31129   4.643   3.013   9.553  0.5348 -0.2256  0.4923
 6556SOL    HW131130   4.589   3.081   9.594 -0.7514 -1.6599  1.2168
 6556SOL    HW231131   0.008   3.031   9.587  1.0193 -2.4099  0.4186
 6557SOL     OW31132   2.393   3.579  15.299  0.5368  0.1454  0.6585
 6557SOL    HW131133   2.326   3.593  15.233  1.8934  1.6750 -0.3915
 6557SOL    HW231134   2.474   3.601  15.252  0.6386 -0.6410  0.4766
 6558SOL     OW31135   2.085   0.759   5.180  0.3722 -0.3393  0.1372
 6558SOL    HW131136   2.175   0.774   5.153 -0.4761  2.5926 -1.0592
 6558SOL    HW231137   2.050   0.848   5.186  1.8256  0.0874  2.1937
 6559SOL     OW31138   2.660   2.542  12.304 -0.7430 -0.0617 -0.3216
 6559SOL    HW131139   2.580   2.509  12.264 -0.3863  0.3683 -1.3682
 6559SOL    HW231140   2.688   2.470  12.361 -1.0015 -0.6137 -0.8997
 6560SOL     OW31141   0.345   3.772   0.966 -0.0036  0.3910  0.0276
 6560SOL    HW131142   0.371   3.724   1.045  2.9233 -0.3894 -1.4068
 6560SOL    HW231143   0.301   3.849   1.003  2.6951  1.0377  1.9752
 6561SOL     OW31144   0.259   0.497   3.358  0.0875 -0.1932  0.4287
 6561SOL    HW131145   0.287   0.405   3.360 -0.1880 -0.3120 -0.9825
 6561SOL    HW231146   0.165   0.482   3.349 -0.1098  1.7863 -0.9078
 6562SOL     OW31147   0.537   2.590   3.562  0.1297  0.6484 -0.0832
 6562SOL    HW131148   0.506   2.675   3.529 -0.5422 -0.1524 -1.5449
 6562SOL    HW231149   0.624   2.623   3.586  0.9649 -1.1284 -0.6334
 6563SOL     OW31150   3.649   1.744  10.110  0.3091 -0.5963 -0.6736
 6563SOL    HW131151   3.564   1.700  10.097 -0.1154  0.1821 -0.5607
 6563SOL    HW231152   3.679   1.684  10.178 -1.1147  1.6927  1.9742
 6564SOL     OW31153   2.830   4.425  11.915  0.5402 -0.0163 -0.1410
 6564SOL    HW131154   2.817   4.342  11.960  0.9900 -0.2928 -0.5292
 6564SOL    HW231155   2.901   4.468  11.963  0.4398  1.8944 -1.6882
 6565SOL     OW31156   3.965   3.603  13.453 -0.9757  0.2560 -0.3235
 6565SOL    HW131157   3.943   3.696  13.452 -0.0467  0.4968  1.5185
 6565SOL    HW231158   4.027   3.587  13.381  1.5752  0.9259  1.7554
 6566SOL     OW31159   2.456   4.120   8.031  0.1623 -0.0600  0.0965
 6566SOL    HW131160   2.459   4.025   8.039  2.0590  0.1794  2.1082
 6566SOL    HW231161   2.395   4.131   7.958  0.8689 -0.8774 -0.6096
 6567SOL     OW31162   4.572   4.184  17.582 -0.2746  0.3142  0.4286
 6567SOL    HW131163   4.618   4.175  17.666 -0.2118 -1.0350  0.2537
 6567SOL    HW231164   4.583   4.278  17.573 -1.4562  0.4467  0.3943
 6568SOL     OW31165   4.319   0.515  11.797  0.1080 -0.1173 -0.4612
 6568SOL    HW131166   4.415   0.519  11.795  0.0788  1.6177  1.6739
 6568SOL    HW231167   4.306   0.495  11.890  1.8880  1.1745  0.0593
 6569SOL     OW31168   1.732   0.719  10.139  0.1290 -0.1405 -0.1624
 6569SOL    HW131169   1.654   0.682  10.180 -0.7796  1.4269 -0.4820
 6569SOL    HW231170   1.757   0.650  10.077  2.6150  0.1569  0.4885
 6570SOL     OW31171   3.332   0.219   4.947 -0.3491  0.1553 -0.0830
 6570SOL    HW131172   3.277   0.187   4.876 -1.6759  1.6871  0.2347
 6570SOL    HW231173   3.297   0.309   4.952  0.1753  0.3984 -0.8605
 6571SOL     OW31174   4.128   2.242   9.535  0.5267  0.2175  0.0653
 6571SOL    HW131175   4.221   2.252   9.555  0.5025 -0.1951  0.3911
 6571SOL    HW231176   4.137   2.192   9.454  3.3102  0.5693  0.1687
 6572SOL     OW31177   3.406   0.535   2.498 -0.2023  0.4199 -0.5688
 6572SOL    HW131178   3.455   0.608   2.462 -0.9588  1.3241  0.2232
 6572SOL    HW231179   3.323   0.577   2.523  0.7948  2.3820 -0.5738
 6573SOL     OW31180   4.228   3.503   6.249 -0.4466  0.6414 -0.3049
 6573SOL    HW131181   4.143   3.508   6.205 -0.6681 -2.6039 -0.2887
 6573SOL    HW231182   4.287   3.508   6.173 -0.9621  0.3387 -0.7270
 6574SOL     OW31183   0.686   1.834   8.462 -0.0400 -0.6170  0.4903
 6574SOL    HW131184   0.725   1.813   8.378 -0.7341  1.4771 -0.3633
 6574SOL    HW231185   0.761   1.829   8.522 -0.5622 -0.6026  1.1485
 6575SOL     OW31186   2.295   2.930  14.481 -0.0724  0.1623 -0.0307
 6575SOL    HW131187   2.265   2.852  14.435  0.4617  0.1392 -0.3330
 6575SOL    HW231188   2.377   2.934  14.433 -0.5431  0.1892 -0.8418
 6576SOL     OW31189   2.279   3.732   4.906  0.0866 -0.7611  0.3614
 6576SOL    HW131190   2.228   3.655   4.879  1.4279 -1.3438 -0.4862
 6576SOL    HW231191   2.206   3.789   4.931  0.6847  1.5895 -3.3324
 6577SOL     OW31192   4.638   4.110   1.746  0.1479 -0.3653  0.2259
 6577SOL    HW131193   4.620   4.181   1.685 -1.3170 -1.0029 -0.0733
 6577SOL    HW231194   4.585   4.044   1.701 -0.2433  2.3162 -3.2215
 6578SOL     OW31195   2.368   2.103   2.266  0.3347  0.2622 -0.4277
 6578SOL    HW131196   2.335   2.047   2.195 -0.1042 -0.3247  0.2420
 6578SOL    HW231197   2.307   2.078   2.335  1.1857  0.3893  0.3646
 6579SOL     OW31198   2.820   2.128   3.766 -0.1385 -0.6674 -0.7188
 6579SOL    HW131199   2.892   2.171   3.812 -0.0634 -0.0320 -1.4217
 6579SOL    HW231200   2.866   2.080   3.697  1.4110  1.7916 -1.3931
 6580SOL     OW31201   0.703   3.371   5.183 -0.3444  0.5449 -0.3814
 6580SOL    HW131202   0.692   3.290   5.134  1.4588  1.8584 -2.9532
 6580SOL    HW231203   0.716   3.436   5.115  1.8753  0.4292 -0.0733
 6581SOL     OW31204   4.144   0.787  14.018  0.2474 -0.4417 -0.7790
 6581SOL    HW131205   4.159   0.808  13.925  0.0657  1.4825 -0.3804
 6581SOL    HW231206   4.052   0.812  14.023  1.0182  2.4925 -1.0048
 6582SOL     OW31207   0.662   0.836   8.455 -0.4442 -0.1997  0.5324
 6582SOL    HW131208   0.625   0.868   8.537 -2.1862 -2.9108  0.7903
 6582SOL    HW231209   0.754   0.863   8.464 -1.2841  3.5068 -1.8603
 6583SOL     OW31210   4.463   4.225   3.712 -0.5662 -0.1665  0.2924
 6583SOL    HW131211   4.383   4.231   3.661 -0.9528 -1.1319  0.7825
 6583SOL    HW231212   4.430   4.218   3.801 -4.1090 -0.4653 -1.0390
 6584SOL     OW31213   2.421   1.888  15.355  0.4330 -0.2995  0.0169
 6584SOL    HW131214   2.431   1.796  15.377 -0.4777  0.3610  3.1963
 6584SOL    HW231215   2.327   1.906  15.354  0.3273 -0.8096  1.0703
 6585SOL     OW31216   3.686   3.676   2.204  0.0536 -0.8129  0.1441
 6585SOL    HW131217   3.666   3.606   2.142  0.7547 -1.2833  0.4427
 6585SOL    HW231218   3.625   3.652   2.273 -0.7890 -0.1572 -0.3721
 6586SOL     OW31219   3.995   3.282   8.668 -0.0820 -0.0748 -0.6390
 6586SOL    HW131220   3.998   3.325   8.582  0.8516  2.1603  0.5138
 6586SOL    HW231221   4.090   3.281   8.679 -0.4405 -1.4554  2.2129
 6587SOL     OW31222   2.600   1.201   5.039  0.0205  0.6383 -0.2192
 6587SOL    HW131223   2.688   1.187   5.002  1.1425  0.6515  2.4808
 6587SOL    HW231224   2.603   1.287   5.082 -0.7419  0.9996 -0.8846
 6588SOL     OW31225   3.657   2.997   6.241  0.0448 -0.2234 -0.3499
 6588SOL    HW131226   3.687   3.087   6.252 -0.8601 -0.2449  2.3602
 6588SOL    HW231227   3.729   2.948   6.281  0.6580 -0.2130 -1.4485
 6589SOL     OW31228   0.797   1.569   3.512  0.7811  0.1149 -0.1839
 6589SOL    HW131229   0.773   1.661   3.506  1.2069  0.1843 -0.9015
 6589SOL    HW231230   0.766   1.537   3.428  0.2070  0.8150 -0.2338
 6590SOL     OW31231   3.612   4.305   4.062  0.3078  0.0349  0.2466
 6590SOL    HW131232   3.616   4.370   4.133  0.5516 -0.9485  1.1360
 6590SOL    HW231233   3.519   4.292   4.047  0.2051  0.0673  0.8433
 6591SOL     OW31234   4.647   2.803   2.211  0.4854 -0.0503 -0.3287
 6591SOL    HW131235   4.562   2.829   2.175 -1.1567 -1.8089  2.2433
 6591SOL    HW231236   4.653   2.713   2.178  1.0196  0.2313 -0.9819
 6592SOL     OW31237   1.102   1.017  11.458 -0.3144  0.4496 -0.0292
 6592SOL    HW131238   1.179   0.992  11.407  1.6772  2.8110  1.7821
 6592SOL    HW231239   1.148   1.036  11.540  1.2460 -2.5201 -0.1987
 6593SOL     OW31240   3.178   3.003  10.490  0.5359 -0.2764 -0.6819
 6593SOL    HW131241   3.122   2.988  10.567 -0.6974  0.2474 -1.4826
 6593SOL    HW231242   3.146   3.082  10.448  1.0271  0.0187 -0.5035
 6594SOL     OW31243   2.461   3.413   4.478 -0.6127 -0.4328 -0.0971
 6594SOL    HW131244   2.478   3.401   4.385 -0.3601  0.2862 -0.1505
 6594SOL    HW231245   2.486   3.504   4.496  1.0014 -0.7777 -0.6631
 6595SOL     OW31246   1.328   3.436   2.086 -0.2108  0.1121  0.0926
 6595SOL    HW131247   1.302   3.523   2.055  0.9866  0.8635  1.1890
 6595SOL    HW231248   1.382   3.404   2.014 -0.5837 -1.5977  0.5651
 6596SOL     OW31249   0.004   3.092   2.225 -0.1828 -0.2508  0.0741
 6596SOL    HW131250   0.002   2.997   2.231  0.0573 -0.0954  2.9268
 6596SOL    HW231251   0.028   3.126   2.312 -0.4589 -0.0648  0.0764
 6597SOL     OW31252   0.310   2.107   7.636  0.6845 -0.0439 -0.0673
 6597SOL    HW131253   0.383   2.130   7.580  0.7925 -0.3230 -0.0432
 6597SOL    HW231254   0.233   2.116   7.580  0.3703  0.1677  0.3899
 6598SOL     OW31255   1.340   3.639   1.669 -0.4528  0.5892  0.0149
 6598SOL    HW131256   1.283   3.708   1.634 -1.2828  0.0666  0.3340
 6598SOL    HW231257   1.295   3.560   1.639 -0.9316  0.6446  0.6022
 6599SOL     OW31258   2.264   1.964   0.238 -0.0600  0.4880  0.2706
 6599SOL    HW131259   2.278   1.869   0.242 -1.5769  0.2799  1.0771
 6599SOL    HW231260   2.306   1.983   0.155 -0.8344  0.9354 -0.0230
 6600SOL     OW31261   3.096   1.482   4.589 -0.0588 -0.0841  0.5683
 6600SOL    HW131262   3.056   1.397   4.574 -0.2789 -0.0475  0.9424
 6600SOL    HW231263   3.074   1.499   4.680 -1.0375  0.0932  0.2981
 6601SOL     OW31264   2.843   4.507  15.630  0.3857  0.6581 -0.0084
 6601SOL    HW131265   2.828   4.548  15.545  2.7211  1.7310  0.0800
 6601SOL    HW231266   2.938   4.495  15.625  0.1633 -1.1955  0.1216
 6602SOL     OW31267   3.338   2.044   8.460  0.5804  0.0642  0.4705
 6602SOL    HW131268   3.350   2.127   8.413  2.4502  0.5122  1.7225
 6602SOL    HW231269   3.272   2.065   8.525  1.8342  1.6131  1.2435
 6603SOL     OW31270   2.809   1.251   7.023  0.3300  0.4953 -0.0782
 6603SOL    HW131271   2.801   1.241   7.118 -3.5836 -1.9885 -0.6697
 6603SOL    HW231272   2.727   1.297   7.004 -0.5451 -0.2650  1.8669
 6604SOL     OW31273   2.148   3.603  15.114 -0.1262 -0.1366 -0.4055
 6604SOL    HW131274   2.067   3.646  15.089  1.1735  2.1558 -0.7062
 6604SOL    HW231275   2.128   3.553  15.193  0.2538 -0.3361 -0.4341
 6605SOL     OW31276   0.829   2.079   8.909 -0.0010  0.1730 -0.6703
 6605SOL    HW131277   0.774   2.045   8.838 -0.2312  1.0126 -0.8956
 6605SOL    HW231278   0.757   2.093   8.971 -0.4279  1.9916 -1.5568
 6606SOL     OW31279   1.341   0.342   4.189 -0.3072 -0.2316 -0.3482
 6606SOL    HW131280   1.262   0.393   4.203 -0.1409  0.1381 -0.7484
 6606SOL    HW231281   1.300   0.256   4.192 -1.5597  0.2636 -3.2566
 6607SOL     OW31282   3.323   3.396  10.352  0.0058  0.1247 -0.0580
 6607SOL    HW131283   3.333   3.491  10.347  0.2687  0.2695  3.0879
 6607SOL    HW231284   3.409   3.379  10.391 -0.5970 -0.8643  0.8425
 6608SOL     OW31285   2.913   2.125   8.203  0.0892 -0.3002  0.5112
 6608SOL    HW131286   2.858   2.046   8.204 -1.3801  0.7182 -0.3555
 6608SOL    HW231287   2.967   2.119   8.125  0.8243  0.0221  0.9949
 6609SOL     OW31288   1.884   0.690  16.498  0.2237 -0.5352 -0.1221
 6609SOL    HW131289   1.887   0.601  16.464  0.1138 -1.2000  1.6035
 6609SOL    HW231290   1.865   0.735  16.416  0.5596 -0.0158  0.0852
 6610SOL     OW31291   3.929   4.498  11.441  0.1010  0.1318 -0.7041
 6610SOL    HW131292   3.864   4.445  11.486  1.4044 -0.1011  0.9199
 6610SOL    HW231293   3.873   4.570  11.413  0.5790  0.3567 -1.0848
 6611SOL     OW31294   0.630   0.388   8.817 -0.1342  0.6818  0.0543
 6611SOL    HW131295   0.720   0.410   8.842  0.5490 -1.2939 -0.6434
 6611SOL    HW231296   0.622   0.294   8.833  1.6965  0.8440  1.7918
 6612SOL     OW31297   0.853   4.272  12.916  0.1404 -0.4976  0.0522
 6612SOL    HW131298   0.803   4.354  12.914 -1.4039 -1.4453 -0.2141
 6612SOL    HW231299   0.881   4.280  12.825 -0.6508  1.0647 -0.0574
 6613SOL     OW31300   2.869   2.430  12.938  0.2575  0.0100 -0.1084
 6613SOL    HW131301   2.816   2.508  12.952  0.3586 -0.1860  1.3407
 6613SOL    HW231302   2.957   2.463  12.918  0.9305 -1.5197  0.2893
 6614SOL     OW31303   1.413   0.020   6.722  1.2917  0.1725 -0.4644
 6614SOL    HW131304   1.508   0.025   6.724  1.2536  0.9517 -0.7957
 6614SOL    HW231305   1.401   0.003   6.628 -0.5398  0.4548 -0.2881
 6615SOL     OW31306   1.778   0.783   6.153  0.1152  0.1318  0.3268
 6615SOL    HW131307   1.762   0.763   6.061  1.5335  1.5802 -0.2376
 6615SOL    HW231308   1.726   0.716   6.197 -0.8321  0.9160  0.3938
 6616SOL     OW31309   3.863   3.465  12.770  0.2497  0.3915  0.4159
 6616SOL    HW131310   3.839   3.493  12.682  1.7809  0.5391  0.0340
 6616SOL    HW231311   3.940   3.521  12.779  1.1760 -0.7587 -0.2394
 6617SOL     OW31312   2.637   4.235   7.549  0.2404  0.3167 -0.2638
 6617SOL    HW131313   2.654   4.192   7.633 -0.6838  0.2441 -0.1127
 6617SOL    HW231314   2.717   4.205   7.506  0.6270  1.7871 -0.5560
 6618SOL     OW31315   3.523   2.381  15.480  0.1064  0.2766  0.7182
 6618SOL    HW131316   3.515   2.287  15.499 -0.4790  0.0202 -0.8578
 6618SOL    HW231317   3.497   2.388  15.389  2.1200  0.3570  0.1437
 6619SOL     OW31318   4.426   2.462   3.487  0.0939 -0.0062 -0.2104
 6619SOL    HW131319   4.375   2.393   3.529 -0.3348  0.4279 -0.0209
 6619SOL    HW231320   4.357   2.524   3.463  1.3604  0.8275 -1.6857
 6620SOL     OW31321   0.569   2.114   9.356  0.8266  0.2783 -0.6428
 6620SOL    HW131322   0.493   2.161   9.389 -0.0579  0.2543 -2.6771
 6620SOL    HW231323   0.540   2.024   9.374  0.5152  0.4066 -0.5173
 6621SOL     OW31324   4.622   2.176   7.520 -0.8798  0.3934 -0.2809
 6621SOL    HW131325   4.552   2.213   7.467 -0.7457 -2.5018 -2.4944
 6621SOL    HW231326   4.578   2.144   7.598  0.6442 -0.8122  0.0924
 6622SOL     OW31327   2.290   0.997  14.659  0.4395 -0.5968  0.4101
 6622SOL    HW131328   2.313   1.085  14.689  0.3346 -0.3822 -0.1442
 6622SOL    HW231329   2.216   0.977  14.716  0.5300 -0.0283  0.7268
 6623SOL     OW31330   3.932   3.813  15.211  0.1972 -0.1933 -0.0911
 6623SOL    HW131331   3.906   3.767  15.131 -1.7090  0.2000  0.3097
 6623SOL    HW231332   3.943   3.903  15.179 -1.0315  0.4586  1.3107
 6624SOL     OW31333   2.760   4.142   6.639  0.2287  0.3485 -0.5967
 6624SOL    HW131334   2.699   4.104   6.703  1.1816  0.6235  0.4702
 6624SOL    HW231335   2.844   4.152   6.683 -0.4129 -0.8013  0.8817
 6625SOL     OW31336   1.253   0.871  10.366  0.5732 -0.6693  0.5144
 6625SOL    HW131337   1.166   0.837  10.390 -0.2125  0.7258 -0.3800
 6625SOL    HW231338   1.223   0.930  10.297  0.6119 -1.4023 -0.1314
 6626SOL     OW31339   2.260   4.169  11.507 -0.5133 -0.0381 -0.5237
 6626SOL    HW131340   2.199   4.226  11.552  1.2303  0.3185  1.4110
 6626SOL    HW231341   2.301   4.234  11.449  1.3427 -0.4657  0.2851
 6627SOL     OW31342   1.554   0.879   2.765 -0.4901  0.0310  0.1005
 6627SOL    HW131343   1.498   0.816   2.809 -0.2400 -0.3879 -0.1824
 6627SOL    HW231344   1.527   0.955   2.817 -1.4434 -1.6533  2.0284
 6628SOL     OW31345   4.358   3.762   3.151 -0.2981 -0.0636 -0.6350
 6628SOL    HW131346   4.282   3.759   3.094 -0.1433 -0.9824 -0.7927
 6628SOL    HW231347   4.403   3.681   3.126  1.1574  0.5063  0.1342
 6629SOL     OW31348   2.638   3.135   6.969 -0.3024 -0.2739  0.3837
 6629SOL    HW131349   2.688   3.075   7.026 -0.1498  1.9930  2.6500
 6629SOL    HW231350   2.602   3.062   6.919 -2.4081 -0.0401  1.5577
 6630SOL     OW31351   0.429   2.422  12.929 -0.3045  0.4569 -0.0256
 6630SOL    HW131352   0.415   2.466  12.846  1.3574 -2.5886 -1.9136
 6630SOL    HW231353   0.525   2.422  12.935 -0.4735 -0.6117  2.5890
 6631SOL     OW31354   2.820   0.170  10.039  0.2483  0.4201  0.1142
 6631SOL    HW131355   2.725   0.165  10.045  0.0535  0.1102 -2.9151
 6631SOL    HW231356   2.850   0.164  10.129  0.9611  1.3412 -0.0589
 6632SOL     OW31357   3.750   1.482   8.656  0.0873  0.3194  0.3487
 6632SOL    HW131358   3.700   1.517   8.582 -1.2091 -0.1773  0.9860
 6632SOL    HW231359   3.733   1.540   8.730  2.6342 -2.0913  2.8349
 6633SOL     OW31360   4.632   3.660   6.288  0.1135 -0.4959  0.1634
 6633SOL    HW131361   4.673   3.746   6.286  1.9549 -1.4101 -1.5621
 6633SOL    HW231362   4.557   3.679   6.232  1.1971  0.1197 -1.0719
 6634SOL     OW31363   2.665   4.420  14.938  0.8360  0.2182 -0.5641
 6634SOL    HW131364   2.606   4.401  14.866 -0.9199 -0.1682  0.9967
 6634SOL    HW231365   2.736   4.365  14.904  1.3562  1.2300 -1.1294
 6635SOL     OW31366   1.105   0.789   0.902 -0.1633 -0.3789 -0.3043
 6635SOL    HW131367   1.045   0.739   0.958 -1.6339  0.0285 -1.5294
 6635SOL    HW231368   1.193   0.755   0.920  0.1995  0.3962 -0.6415
 6636SOL     OW31369   0.353   3.832   3.850 -0.9074 -0.1136  0.0907
 6636SOL    HW131370   0.352   3.911   3.795  0.3604 -0.9552 -1.1173
 6636SOL    HW231371   0.344   3.768   3.780  0.9246  1.2611 -1.4113
 6637SOL     OW31372   1.175   0.078  14.221  0.3438  0.2519 -0.6888
 6637SOL    HW131373   1.104   0.023  14.254 -0.0668  0.8313 -0.6096
 6637SOL    HW231374   1.124   0.113  14.147 -0.0562  1.5402  0.1980
 6638SOL     OW31375   2.242   3.330   6.102  0.1611 -0.4134 -0.1986
 6638SOL    HW131376   2.326   3.284   6.098 -0.6106 -1.7456 -1.2683
 6638SOL    HW231377   2.258   3.386   6.027 -1.5905 -0.7790 -0.8564
 6639SOL     OW31378   2.080   0.152   2.201 -0.3504 -0.1194  0.4091
 6639SOL    HW131379   2.056   0.240   2.230  0.9926  0.8848 -1.5118
 6639SOL    HW231380   2.075   0.096   2.278  0.7161  0.1471  0.6714
 6640SOL     OW31381   2.922   1.607   9.452  0.2532 -0.0486  0.5740
 6640SOL    HW131382   2.913   1.637   9.362  1.2288  0.4699  0.6538
 6640SOL    HW231383   2.899   1.515   9.437  0.3691  0.1108 -0.5697
 6641SOL     OW31384   2.372   2.842   7.210  0.2408  0.0708  0.1323
 6641SOL    HW131385   2.320   2.762   7.202  1.3074 -0.5316 -0.9615
 6641SOL    HW231386   2.441   2.808   7.267 -0.1268  0.7487  0.9690
 6642SOL     OW31387   3.369   2.132  15.723  0.3630  0.4072 -1.1229
 6642SOL    HW131388   3.371   2.054  15.778  0.4483 -0.8786 -2.9378
 6642SOL    HW231389   3.413   2.198  15.777 -1.2845 -0.8428  1.7414
 6643SOL     OW31390   2.147   1.787  13.993 -0.3049  0.5708 -0.1636
 6643SOL    HW131391   2.160   1.696  14.019  3.8309  1.0633 -0.6059
 6643SOL    HW231392   2.240   1.805  13.981  0.0364  0.3283  2.0315
 6644SOL     OW31393   0.979   1.851   3.658 -0.2015 -0.4172 -0.5869
 6644SOL    HW131394   0.993   1.813   3.744 -2.2831 -1.1035 -0.5516
 6644SOL    HW231395   1.063   1.877   3.621  1.1114 -1.8815  1.3748
 6645SOL     OW31396   4.353   1.410   2.914  0.1083 -0.4244 -0.0843
 6645SOL    HW131397   4.438   1.395   2.873 -0.9764 -0.9283 -2.1412
 6645SOL    HW231398   4.295   1.352   2.864 -0.4274 -1.2885  1.5399
 6646SOL     OW31399   0.592   2.766  13.756 -0.2594  0.6356  0.0601
 6646SOL    HW131400   0.574   2.819  13.678  0.5514 -0.7049 -1.0421
 6646SOL    HW231401   0.534   2.691  13.746 -0.7389  0.9706  0.3482
 6647SOL     OW31402   1.109   3.535  14.045  0.1050  0.3551  0.4217
 6647SOL    HW131403   1.059   3.499  13.972  0.0508  0.2999  0.4868
 6647SOL    HW231404   1.089   3.483  14.123  0.9578  0.1758  0.5258
 6648SOL     OW31405   3.181   3.488   7.770 -0.2742  0.1001 -0.1425
 6648SOL    HW131406   3.247   3.536   7.721  0.7883  0.9350  2.1146
 6648SOL    HW231407   3.106   3.495   7.710 -0.8336  0.8689  0.6410
 6649SOL     OW31408   3.006   3.109   0.050 -0.0850  0.3292 -0.1860
 6649SOL    HW131409   3.076   3.044   0.060  1.3448  2.2746  2.4462
 6649SOL    HW231410   2.952   3.090  17.667 -1.6882  0.7115  0.8532
 6650SOL     OW31411   4.193   0.311   3.518 -0.0156 -0.3378  0.4451
 6650SOL    HW131412   4.236   0.270   3.442  0.1310 -2.2764  1.5814
 6650SOL    HW231413   4.113   0.331   3.469  0.9379  0.4562 -0.7944
 6651SOL     OW31414   3.228   0.107   5.685 -0.5233 -0.8507 -0.1113
 6651SOL    HW131415   3.215   0.158   5.764  1.9650 -1.4161  0.6669
 6651SOL    HW231416   3.150   0.131   5.634 -2.2366 -3.7534  1.1145
 6652SOL     OW31417   3.305   0.278   3.189 -0.1987 -0.1559  0.5808
 6652SOL    HW131418   3.221   0.322   3.203 -1.0400 -1.7522  0.4952
 6652SOL    HW231419   3.306   0.264   3.094 -0.2336 -1.2322  0.7427
 6653SOL     OW31420   1.240   1.954   0.638 -0.3751 -0.4605  0.2891
 6653SOL    HW131421   1.262   1.896   0.711  1.0487 -0.3646 -0.0767
 6653SOL    HW231422   1.320   2.005   0.628 -1.5034  0.8768 -1.9227
 6654SOL     OW31423   3.709   1.996   9.301  0.2083 -0.1559 -0.0477
 6654SOL    HW131424   3.679   2.057   9.368 -1.2888 -0.6354 -0.2773
 6654SOL    HW231425   3.794   1.972   9.337  0.2477  1.4995  0.9431
 6655SOL     OW31426   0.191   3.998   1.773 -0.1661  0.1437  0.2891
 6655SOL    HW131427   0.180   3.977   1.866 -0.2824 -1.2121 -0.0218
 6655SOL    HW231428   0.099   4.022   1.757 -0.0963  0.2338  0.0269
 6656SOL     OW31429   3.876   2.113  14.067 -0.1336 -0.3481  0.6832
 6656SOL    HW131430   3.810   2.117  13.997  0.2459 -0.8702  0.2986
 6656SOL    HW231431   3.881   2.206  14.091 -0.0972 -0.2956  0.4765
 6657SOL     OW31432   2.349   3.917   4.416 -0.3360  0.0463 -0.0718
 6657SOL    HW131433   2.258   3.901   4.393 -0.6745  1.8369  0.0086
 6657SOL    HW231434   2.398   3.858   4.358 -2.2419 -1.2816 -0.3065
 6658SOL     OW31435   3.981   2.832   1.607 -0.7260  0.0064  0.0704
 6658SOL    HW131436   3.989   2.853   1.514 -0.2730  0.9032  0.3154
 6658SOL    HW231437   3.906   2.885   1.630 -0.1130  0.0923  1.8411
 6659SOL     OW31438   2.495   3.349   4.970  0.0617 -0.2783  0.9466
 6659SOL    HW131439   2.470   3.334   5.061  1.0600  2.2250  1.6289
 6659SOL    HW231440   2.513   3.443   4.982 -1.7212  0.3029 -0.8324
 6660SOL     OW31441   3.654   2.905   3.998  0.5731 -0.2536 -0.0398
 6660SOL    HW131442   3.726   2.842   4.004 -0.8001 -1.5739  2.5953
 6660SOL    HW231443   3.591   2.876   3.932  0.7680  0.5171 -0.5651
 6661SOL     OW31444   3.809   4.410  11.074 -0.5616 -0.3960  0.3142
 6661SOL    HW131445   3.721   4.434  11.103  0.2886  0.3679  2.2418
 6661SOL    HW231446   3.803   4.405  10.978  1.1626 -0.1380  0.1893
 6662SOL     OW31447   1.571   3.048  15.209 -0.0951 -0.1001 -0.4323
 6662SOL    HW131448   1.649   3.005  15.173  0.5600  1.8485 -1.3069
 6662SOL    HW231449   1.517   2.969  15.219  0.6735 -0.6349 -0.5346
 6663SOL     OW31450   0.098   0.086   8.742  0.7322  0.7642  0.1124
 6663SOL    HW131451   0.145   0.013   8.782 -1.1587  0.8217  2.4198
 6663SOL    HW231452   0.171   0.147   8.726 -1.6371  3.1557 -1.5545
 6664SOL     OW31453   1.779   0.064   2.055 -0.2142 -0.8046  0.3373
 6664SOL    HW131454   1.768   4.698   2.089 -2.7583  0.0619  1.7947
 6664SOL    HW231455   1.850   0.093   2.112 -0.5570  0.2548  0.2264
 6665SOL     OW31456   1.682   4.211   4.909  0.3510 -1.0106  0.7069
 6665SOL    HW131457   1.627   4.286   4.887 -0.2767 -0.6345  3.4876
 6665SOL    HW231458   1.661   4.196   5.001  1.0134  1.5470  1.2607
 6666SOL     OW31459   0.643   4.329   4.034 -0.3856  0.3283 -0.3965
 6666SOL    HW131460   0.628   4.253   4.090 -4.6508  1.4104 -0.1073
 6666SOL    HW231461   0.698   4.392   4.081  1.5858 -0.2167 -2.0155
 6667SOL     OW31462   2.337   4.643   1.759  0.0576 -0.6968 -0.5503
 6667SOL    HW131463   2.344   4.625   1.665 -1.4711 -4.1682  0.0025
 6667SOL    HW231464   2.381   0.003   1.771 -0.8349  0.0747 -2.5100
 6668SOL     OW31465   0.196   0.381  17.181  0.3760 -0.1956  0.3953
 6668SOL    HW131466   0.106   0.349  17.174  0.4727 -0.4767  0.4421
 6668SOL    HW231467   0.179   0.422  17.265  0.4530  0.1851  0.2247
 6669SOL     OW31468   3.980   3.627   2.239 -0.2351  0.5263  0.6477
 6669SOL    HW131469   3.964   3.539   2.273 -0.7101 -0.1212 -1.2599
 6669SOL    HW231470   3.887   3.650   2.229 -0.3456 -0.0953  0.2432
 6670SOL     OW31471   1.509   1.950   6.121  0.0002  0.1344  0.1549
 6670SOL    HW131472   1.592   1.994   6.105 -1.1611  1.8293 -1.1050
 6670SOL    HW231473   1.447   2.005   6.073 -0.3958 -0.2702  0.1933
 6671SOL     OW31474   2.319   3.895   8.731  0.8643 -0.2857 -0.0922
 6671SOL    HW131475   2.292   3.807   8.756  0.6489  0.0789  0.9465
 6671SOL    HW231476   2.249   3.910   8.668 -0.1582  1.6882  1.5075
 6672SOL     OW31477   3.695   4.063   7.727  0.0349  0.0828 -0.0815
 6672SOL    HW131478   3.747   3.989   7.757 -1.9836 -0.3072  2.4833
 6672SOL    HW231479   3.663   4.104   7.807 -0.0477 -0.9470  0.4014
 6673SOL     OW31480   0.343   2.484  10.689 -0.3132  0.2441  0.2855
 6673SOL    HW131481   0.318   2.392  10.680  0.0629  0.2449 -0.8205
 6673SOL    HW231482   0.281   2.522  10.751 -0.7375 -0.9471  0.5938
 6674SOL     OW31483   2.986   3.098   3.274 -0.1505  0.5408 -0.4074
 6674SOL    HW131484   2.980   3.003   3.262 -3.2954  0.4811  1.6803
 6674SOL    HW231485   2.895   3.111   3.303  0.3200  3.1867 -0.1097
 6675SOL     OW31486   0.949   2.410   3.491  0.6448 -0.0122  0.4904
 6675SOL    HW131487   0.956   2.403   3.586 -0.0093 -0.8145  0.4863
 6675SOL    HW231488   1.042   2.404   3.472  0.9035  1.4405  1.3409
 6676SOL     OW31489   1.265   1.918   3.956  0.0354 -0.1607 -0.2032
 6676SOL    HW131490   1.227   1.881   4.036 -0.4162  0.6704 -0.0206
 6676SOL    HW231491   1.336   1.970   3.995  1.7379 -1.9474 -0.9624
 6677SOL     OW31492   0.099   3.152  13.088  0.1184 -0.3545 -0.2917
 6677SOL    HW131493   0.101   3.057  13.093 -2.2665 -0.4117 -0.3426
 6677SOL    HW231494   0.078   3.170  12.996 -0.2003  0.7106 -0.0117
 6678SOL     OW31495   0.139   1.621   2.014  0.5407  0.4131 -0.2486
 6678SOL    HW131496   0.119   1.529   2.028  1.5914 -0.2931 -3.2865
 6678SOL    HW231497   0.084   1.639   1.937 -1.6296  1.3176  1.5001
 6679SOL     OW31498   0.645   3.778   4.685  0.0345  0.3354 -0.8958
 6679SOL    HW131499   0.635   3.867   4.718 -2.0289 -0.5791  1.0039
 6679SOL    HW231500   0.592   3.721   4.741  1.0952  1.9129  1.7043
 6680SOL     OW31501   3.392   0.942   9.125 -0.5387 -0.7732 -0.5425
 6680SOL    HW131502   3.406   0.850   9.147 -0.7265 -1.3238 -2.7360
 6680SOL    HW231503   3.296   0.945   9.117 -0.4732  0.3630 -0.7944
 6681SOL     OW31504   3.353   1.823  12.346  0.4916  0.1307  0.1272
 6681SOL    HW131505   3.257   1.827  12.351  0.3409 -1.1136 -1.5964
 6681SOL    HW231506   3.359   1.780  12.260 -1.5488  0.1386 -0.0270
 6682SOL     OW31507   3.266   1.926   3.136 -0.1796  0.2421 -0.0670
 6682SOL    HW131508   3.299   1.958   3.052  0.9959  1.8631  1.0127
 6682SOL    HW231509   3.316   1.845   3.146 -1.3939 -0.6879 -1.5251
 6683SOL     OW31510   4.170   0.060   9.429 -0.1019 -0.5734 -0.8156
 6683SOL    HW131511   4.178   0.152   9.455  2.8286 -0.7224 -1.2016
 6683SOL    HW231512   4.230   0.021   9.493  0.9835  0.3753 -1.2496
 6684SOL     OW31513   0.087   1.243  14.456 -0.1150  0.0342 -0.1148
 6684SOL    HW131514   0.028   1.168  14.445 -0.6338  0.2064  1.5850
 6684SOL    HW231515   0.025   1.311  14.483 -2.0539 -3.1153  3.2413
 6685SOL     OW31516   2.737   4.419  14.031  0.0818 -0.2557  0.5385
 6685SOL    HW131517   2.674   4.379  14.091 -1.1484 -2.9768 -2.5357
 6685SOL    HW231518   2.725   4.512  14.048 -0.1994  0.4900 -3.6920
 6686SOL     OW31519   1.838   4.359   1.578 -0.0662 -0.2188 -0.1918
 6686SOL    HW131520   1.813   4.436   1.630 -0.8746 -0.8756  0.4063
 6686SOL    HW231521   1.859   4.396   1.493 -0.4386 -0.8518 -0.5533
 6687SOL     OW31522   3.602   3.943   4.536  0.0097  0.4296 -0.3116
 6687SOL    HW131523   3.517   3.899   4.540 -0.0491  0.9496  4.2126
 6687SOL    HW231524   3.572   4.020   4.584  2.3863 -0.0907  2.0033
 6688SOL     OW31525   1.354   0.089  15.995  0.2846 -0.1106  0.0408
 6688SOL    HW131526   1.305   0.160  16.038  0.5893  1.3329 -1.9717
 6688SOL    HW231527   1.437   0.089  16.042  0.9797  1.8042 -1.1439
 6689SOL     OW31528   3.637   3.706  10.782  0.3523 -0.5658 -0.8986
 6689SOL    HW131529   3.693   3.708  10.860 -1.7370 -1.5494  0.6252
 6689SOL    HW231530   3.556   3.673  10.821  0.0229 -0.0790 -1.1677
 6690SOL     OW31531   3.208   0.133   8.246 -0.3072  0.6001  0.0591
 6690SOL    HW131532   3.157   0.141   8.166  2.0698  2.7164 -1.2717
 6690SOL    HW231533   3.207   0.039   8.262  1.0650  0.7250  0.9392
 6691SOL     OW31534   3.596   0.566   8.065  0.1463  0.4516  0.3670
 6691SOL    HW131535   3.543   0.508   8.119 -2.9620  1.5523 -1.4952
 6691SOL    HW231536   3.584   0.641   8.124 -0.4374  0.8654 -0.2760
 6692SOL     OW31537   3.261   2.775   2.273 -0.1849 -0.0844 -0.3660
 6692SOL    HW131538   3.237   2.843   2.211  1.9983 -0.2369 -1.4008
 6692SOL    HW231539   3.221   2.698   2.233 -0.1064 -0.8282  0.9817
 6693SOL     OW31540   3.402   0.357   5.572 -0.1637 -0.5103  0.0539
 6693SOL    HW131541   3.323   0.309   5.594 -0.3545 -0.5541 -0.7256
 6693SOL    HW231542   3.442   0.379   5.657  1.2856 -1.6475 -0.3301
 6694SOL     OW31543   0.575   4.292  16.763 -0.2148 -0.1457 -0.3448
 6694SOL    HW131544   0.655   4.238  16.764 -1.5849 -2.2186 -1.1184
 6694SOL    HW231545   0.554   4.312  16.854  0.4047  0.0889 -0.2529
 6695SOL     OW31546   1.271   3.735  17.443  0.0385 -0.2573  0.1329
 6695SOL    HW131547   1.227   3.728  17.527 -2.2677 -0.6303 -1.1198
 6695SOL    HW231548   1.363   3.747  17.467  0.6647 -1.0134 -1.9097
 6696SOL     OW31549   0.845   2.126   2.769  0.4593  0.1741 -0.4926
 6696SOL    HW131550   0.792   2.202   2.794  0.4414 -0.1785  0.5469
 6696SOL    HW231551   0.857   2.135   2.675  0.7417  1.2028 -0.3590
 6697SOL     OW31552   3.625   3.403   2.370 -0.6191  0.3386  0.4573
 6697SOL    HW131553   3.556   3.353   2.326  0.0160  1.2143 -1.5698
 6697SOL    HW231554   3.582   3.488   2.382  1.8855  2.0353 -2.4949
 6698SOL     OW31555   1.980   0.763  15.827  0.1612  0.4641 -0.3723
 6698SOL    HW131556   2.065   0.746  15.787  1.6037  2.4532  1.8716
 6698SOL    HW231557   2.010   0.812  15.903 -0.5158  1.6916 -0.8887
 6699SOL     OW31558   3.705   1.719   0.600  0.5914  0.0499 -0.0417
 6699SOL    HW131559   3.727   1.663   0.526  2.1382  0.2770  0.2248
 6699SOL    HW231560   3.659   1.657   0.656  1.5001  0.1067  0.7719
 6700SOL     OW31561   4.003   2.093  12.745 -0.1582 -1.0379  0.0008
 6700SOL    HW131562   4.064   2.102  12.818 -1.1464  0.2314  0.6657
 6700SOL    HW231563   3.997   1.997  12.753 -1.2963 -0.7503  2.6513
 6701SOL     OW31564   2.978   2.164  14.766 -1.0458  0.1346 -0.0400
 6701SOL    HW131565   2.952   2.155  14.674  2.6858 -0.3706 -1.0342
 6701SOL    HW231566   3.072   2.148  14.767 -0.3967  4.0581 -0.1062
 6702SOL     OW31567   1.361   1.592  15.257 -0.5725 -0.1082  0.7870
 6702SOL    HW131568   1.422   1.663  15.276 -3.1281  2.2140  0.3530
 6702SOL    HW231569   1.390   1.531  15.325 -0.0678 -0.0127  0.6591
 6703SOL     OW31570   3.519   4.135   1.675 -0.1620 -0.7482 -0.1657
 6703SOL    HW131571   3.507   4.230   1.688  0.0899 -0.9743  1.6781
 6703SOL    HW231572   3.454   4.128   1.605  0.1885  3.1707 -0.8905
 6704SOL     OW31573   2.991   1.091   8.724 -0.4365  0.0171  0.7254
 6704SOL    HW131574   3.021   1.150   8.655 -1.6232  1.0850  1.1207
 6704SOL    HW231575   2.896   1.099   8.717 -0.4678  0.7929  1.8418
 6705SOL     OW31576   3.000   2.290  12.192  0.6546  0.6359  0.1386
 6705SOL    HW131577   2.916   2.279  12.147  0.5470  0.8821  0.2833
 6705SOL    HW231578   3.017   2.200  12.220  1.3436  1.1213  1.2738
 6706SOL     OW31579   2.429   4.231   3.471 -0.2606  0.0024 -0.5562
 6706SOL    HW131580   2.461   4.146   3.442 -4.6469 -2.1119  0.7613
 6706SOL    HW231581   2.384   4.262   3.393  0.4671 -0.0030 -0.9719
 6707SOL     OW31582   1.271   1.369   2.735 -0.1873  0.3780 -0.3709
 6707SOL    HW131583   1.228   1.443   2.778  0.2473  0.2503  0.2791
 6707SOL    HW231584   1.247   1.383   2.643  2.1030  0.2756 -1.0031
 6708SOL     OW31585   2.733   2.459  16.580  0.3403 -0.6210  0.4167
 6708SOL    HW131586   2.773   2.391  16.526  0.3169 -2.5342  2.7975
 6708SOL    HW231587   2.775   2.428  16.661  2.2646  3.4794  0.9758
 6709SOL     OW31588   1.351   2.229   7.196 -0.2981  0.1486 -0.0197
 6709SOL    HW131589   1.302   2.151   7.222  0.2993 -1.2885 -3.1144
 6709SOL    HW231590   1.417   2.180   7.146 -0.0423 -1.0038  1.4525
 6710SOL     OW31591   1.359   0.684   5.342 -0.0337 -0.8357  0.7355
 6710SOL    HW131592   1.390   0.619   5.279  1.0553  0.3248  0.0551
 6710SOL    HW231593   1.377   0.767   5.297 -2.6615 -0.1007  1.0445
 6711SOL     OW31594   2.428   1.279   7.126  0.1238  0.2390  0.1766
 6711SOL    HW131595   2.380   1.353   7.164  0.7940  0.9679 -0.3909
 6711SOL    HW231596   2.471   1.321   7.052 -0.9702  1.1285  0.0374
 6712SOL     OW31597   2.487   1.318   3.589  0.1849 -0.4653 -0.3225
 6712SOL    HW131598   2.410   1.333   3.533  1.5208 -1.1555 -2.3283
 6712SOL    HW231599   2.558   1.358   3.539  0.9400 -0.4002  0.8261
 6713SOL     OW31600   3.013   4.351   4.416 -0.4624  0.1274  0.3619
 6713SOL    HW131601   3.042   4.301   4.492 -3.5456 -0.6999  0.9763
 6713SOL    HW231602   2.938   4.395   4.455 -0.9291 -2.2549  2.1670
 6714SOL     OW31603   1.399   2.151   8.466  0.1310  0.0550 -0.3643
 6714SOL    HW131604   1.481   2.201   8.461  0.2491 -0.0907  0.1374
 6714SOL    HW231605   1.353   2.209   8.527 -0.1571 -1.2560  0.6785
 6715SOL     OW31606   3.816   1.479   3.379 -0.1512  0.4953  0.2345
 6715SOL    HW131607   3.851   1.494   3.467 -0.4394 -0.0458  0.4407
 6715SOL    HW231608   3.800   1.566   3.343 -0.3042 -0.0826 -1.0728
 6716SOL     OW31609   4.345   2.768   6.170 -0.2081 -0.3162 -0.0100
 6716SOL    HW131610   4.317   2.823   6.244  1.9954  2.7558 -1.4594
 6716SOL    HW231611   4.414   2.713   6.207  0.2990  1.5722  1.8644
 6717SOL     OW31612   1.846   2.531  12.830  0.3499  0.0091 -0.2772
 6717SOL    HW131613   1.920   2.482  12.866  1.0512 -1.3341 -3.5320
 6717SOL    HW231614   1.880   2.537  12.741  0.2155  1.9805 -0.1815
 6718SOL     OW31615   2.438   0.933  17.692  0.1908  0.3984  0.6390
 6718SOL    HW131616   2.358   0.984   0.008 -0.4845 -0.4486 -0.4206
 6718SOL    HW231617   2.462   0.946  17.600 -1.6730  2.2378  0.4100
 6719SOL     OW31618   0.868   1.568   7.351 -0.3324 -0.1426 -0.1207
 6719SOL    HW131619   0.933   1.639   7.347  1.5169 -2.0017 -2.6068
 6719SOL    HW231620   0.896   1.517   7.275  0.6054 -0.3627  0.3751
 6720SOL     OW31621   1.506   0.815   5.821  0.0452  0.0288  0.2557
 6720SOL    HW131622   1.520   0.825   5.727  2.0320  1.8677  0.7542
 6720SOL    HW231623   1.435   0.877   5.837  0.0201 -0.2084  1.0745
 6721SOL     OW31624   0.937   1.072  15.757  0.0610  0.5985 -0.1926
 6721SOL    HW131625   0.885   1.097  15.681 -1.2731 -1.0177  0.1661
 6721SOL    HW231626   0.974   1.151  15.797 -0.7451  1.0672 -0.3641
 6722SOL     OW31627   3.959   1.186  16.362  0.2320 -0.0443  0.1753
 6722SOL    HW131628   3.886   1.173  16.423 -0.1219  2.0169  0.2124
 6722SOL    HW231629   3.938   1.272  16.324  0.0389 -0.1315  0.0845
 6723SOL     OW31630   0.005   4.266   4.486  0.6236 -0.4243 -0.3506
 6723SOL    HW131631   4.687   4.237   4.567  0.0644 -3.0270 -1.5758
 6723SOL    HW231632   4.643   4.298   4.453  0.3772  1.1248  1.7955
 6724SOL     OW31633   1.995   1.703   6.763 -0.1545 -1.2132 -0.2544
 6724SOL    HW131634   1.998   1.726   6.856  2.0446  2.0360 -1.1181
 6724SOL    HW231635   1.964   1.780   6.716 -1.8063 -2.4454 -1.1962
 6725SOL     OW31636   3.710   3.834   9.701  0.1360  0.0473 -0.0237
 6725SOL    HW131637   3.781   3.778   9.731 -1.8060 -1.2199  2.1961
 6725SOL    HW231638   3.758   3.888   9.639  0.5922 -0.5152 -0.1610
 6726SOL     OW31639   3.114   1.189   7.183  0.0800  0.1662 -0.9367
 6726SOL    HW131640   3.050   1.260   7.178 -2.0142 -1.6425  0.1919
 6726SOL    HW231641   3.052   1.117   7.169  1.0601 -1.1077  1.3075
 6727SOL     OW31642   2.098   0.343   3.148 -0.2783 -0.0297  0.1090
 6727SOL    HW131643   2.014   0.300   3.131  0.1036 -1.7611  2.5690
 6727SOL    HW231644   2.144   0.335   3.065  2.8512  0.9789  1.7467
 6728SOL     OW31645   1.239   1.967   7.295 -0.4826  1.0191 -0.0852
 6728SOL    HW131646   1.277   1.951   7.381  2.7165  1.4106 -1.4231
 6728SOL    HW231647   1.146   1.974   7.314 -0.5341  1.2769 -0.4276
 6729SOL     OW31648   1.360   1.935  17.527 -0.2574  0.3844  0.2690
 6729SOL    HW131649   1.297   2.007  17.532  0.7558  1.3488 -0.7950
 6729SOL    HW231650   1.297   1.864  17.535  0.8917 -0.4740  1.7072
 6730SOL     OW31651   3.271   0.514   2.920  0.4403  0.0875 -0.0827
 6730SOL    HW131652   3.258   0.518   3.014 -1.6617 -0.8545 -0.3442
 6730SOL    HW231653   3.311   0.427   2.912  2.4811  1.0991 -1.0602
 6731SOL     OW31654   3.947   0.759   3.145 -0.1327 -0.3648  0.8583
 6731SOL    HW131655   3.936   0.671   3.108 -0.2770 -0.5420  1.3279
 6731SOL    HW231656   3.863   0.782   3.184 -0.3255  3.0889 -1.6124
 6732SOL     OW31657   4.379   1.637   6.582  0.2974 -0.4188  0.0897
 6732SOL    HW131658   4.320   1.564   6.566  1.1446 -1.4470  1.6634
 6732SOL    HW231659   4.443   1.588   6.633 -2.1020 -2.4725  1.1205
 6733SOL     OW31660   2.690   2.284   6.317 -0.7973  0.0726 -0.0895
 6733SOL    HW131661   2.634   2.219   6.359 -2.9387  1.6970 -0.4724
 6733SOL    HW231662   2.775   2.254   6.352 -1.0211 -0.7356 -0.2521
 6734SOL     OW31663   0.681   3.682   1.610  0.3502 -0.7530  0.1617
 6734SOL    HW131664   0.631   3.750   1.656  0.3112 -0.8954  0.3252
 6734SOL    HW231665   0.701   3.729   1.529  0.3894 -2.5931 -0.8989
 6735SOL     OW31666   2.738   1.082  14.630  0.7486  0.0934 -0.2202
 6735SOL    HW131667   2.711   1.088  14.722 -0.0324  2.8083 -0.6456
 6735SOL    HW231668   2.803   1.151  14.619  0.3467  0.2372 -1.6945
 6736SOL     OW31669   0.983   4.075   6.909 -0.6334 -0.3701 -0.5711
 6736SOL    HW131670   1.039   4.086   6.833  0.2753  0.3216  0.2088
 6736SOL    HW231671   0.899   4.100   6.869  0.2402  1.1702 -1.4427
 6737SOL     OW31672   0.222   4.491   9.720  0.0623 -0.5150  0.3359
 6737SOL    HW131673   0.171   4.411   9.706  1.0181 -0.7343 -1.7858
 6737SOL    HW231674   0.183   4.540   9.648  0.7893  2.1075  1.7380
 6738SOL     OW31675   2.577   2.068  14.020 -0.2358  0.0861 -0.2186
 6738SOL    HW131676   2.486   2.075  13.990 -0.6302 -2.4545  0.3225
 6738SOL    HW231677   2.613   2.007  13.956 -1.2184  0.4696 -1.1520
 6739SOL     OW31678   4.427   3.337   7.708 -0.4224  0.2153 -0.6873
 6739SOL    HW131679   4.476   3.419   7.719 -2.5615  1.7041 -2.3808
 6739SOL    HW231680   4.344   3.380   7.728  0.2132  0.2085  2.1039
 6740SOL     OW31681   1.636   0.472   3.412 -0.2994 -0.1306 -0.3345
 6740SOL    HW131682   1.603   0.383   3.399 -1.0418  0.0617  0.2524
 6740SOL    HW231683   1.566   0.521   3.454 -0.0000  1.1862 -1.3894
 6741SOL     OW31684   3.838   4.680   7.847 -0.0793 -0.4348  0.2324
 6741SOL    HW131685   3.777   0.021   7.810  1.8006  2.4892  2.2975
 6741SOL    HW231686   3.891   4.654   7.771 -0.6830 -0.0307 -0.3263
 6742SOL     OW31687   0.522   3.891   1.728  0.0693  0.0741  0.0138
 6742SOL    HW131688   0.435   3.873   1.692  0.3043  0.8224 -0.9276
 6742SOL    HW231689   0.514   3.976   1.772 -1.4353  0.1786 -0.4669
 6743SOL     OW31690   1.162   3.056   0.807 -0.6216  0.0280  0.9117
 6743SOL    HW131691   1.197   3.032   0.893  0.1575 -1.5983  0.1335
 6743SOL    HW231692   1.163   2.976   0.755  3.6183  1.1610 -0.7084
 6744SOL     OW31693   0.830   3.933   4.100 -0.0196  0.7273 -0.3234
 6744SOL    HW131694   0.794   4.007   4.150  1.2317  0.3672  1.1238
 6744SOL    HW231695   0.759   3.872   4.119  0.5033  0.4217  0.6322
 6745SOL     OW31696   2.105   4.723   4.512 -0.5717  0.5891  0.3032
 6745SOL    HW131697   2.197   0.000   4.486 -0.6602 -2.5755 -0.0878
 6745SOL    HW231698   2.108   4.699   4.605 -0.7549  0.1745  0.2049
 6746SOL     OW31699   1.294   0.542  13.700  0.6196 -0.7967 -0.4078
 6746SOL    HW131700   1.381   0.519  13.733  0.6903  0.5417  0.3295
 6746SOL    HW231701   1.305   0.557  13.606  1.8523 -1.3606 -0.3585
 6747SOL     OW31702   1.636   2.159   5.650  0.1857  0.0689 -0.2895
 6747SOL    HW131703   1.542   2.141   5.650 -0.4594  3.5254  1.3037
 6747SOL    HW231704   1.652   2.203   5.566  1.2522  1.5207  0.6883
 6748SOL     OW31705   1.346   4.563   7.858 -0.3140  1.1000  0.6596
 6748SOL    HW131706   1.335   4.522   7.943 -2.3072 -1.9267 -1.0556
 6748SOL    HW231707   1.425   4.521   7.824 -0.9253  1.2105 -0.9174
 6749SOL     OW31708   3.919   2.633   4.464  0.6387 -0.0654 -0.0451
 6749SOL    HW131709   3.937   2.593   4.379  1.1477  0.1820 -0.0528
 6749SOL    HW231710   3.956   2.565   4.519 -1.1924 -1.3836 -0.4719
 6750SOL     OW31711   4.603   0.488   1.303 -0.2209  0.5530  0.0390
 6750SOL    HW131712   4.514   0.520   1.313 -1.6634 -4.0488  1.6253
 6750SOL    HW231713   4.645   0.494   1.388 -0.5057  2.7706  0.0325
 6751SOL     OW31714   0.179   0.029   2.516 -0.0329  0.2110  0.5079
 6751SOL    HW131715   0.251   0.084   2.547  1.5478 -0.7263 -1.4446
 6751SOL    HW231716   0.197   0.033   2.422  3.4500  2.6559  1.2493
 6752SOL     OW31717   4.366   2.587   2.711 -0.3239  0.2916  0.1471
 6752SOL    HW131718   4.429   2.535   2.661  1.3014 -0.9022  3.4893
 6752SOL    HW231719   4.390   2.678   2.693  0.9272 -0.2530 -0.9187
 6753SOL     OW31720   3.583   0.928   5.924  0.8985 -0.0329  0.4225
 6753SOL    HW131721   3.606   1.000   5.866 -0.3979  2.0741  2.5269
 6753SOL    HW231722   3.526   0.877   5.865 -1.4089  1.5038  1.3092
 6754SOL     OW31723   4.240   3.141   3.685  0.4466  0.1407 -0.1361
 6754SOL    HW131724   4.308   3.200   3.651 -0.5427  2.4836  1.9372
 6754SOL    HW231725   4.180   3.196   3.735 -0.9342 -1.3659 -0.1320
 6755SOL     OW31726   2.463   1.114   7.622  0.3786  0.1858  0.8076
 6755SOL    HW131727   2.484   1.184   7.560 -0.4516 -0.9052 -0.6955
 6755SOL    HW231728   2.508   1.144   7.700 -0.5151  3.5809 -0.0169
 6756SOL     OW31729   1.390   2.812   6.755 -0.3444 -0.0387  0.1196
 6756SOL    HW131730   1.473   2.848   6.723 -0.8959  1.0865 -0.0811
 6756SOL    HW231731   1.342   2.822   6.673 -0.1165  0.1977  0.0149
 6757SOL     OW31732   3.363   3.776   9.088 -0.5718  0.3852 -0.3427
 6757SOL    HW131733   3.341   3.865   9.116  0.2563  0.3401  0.4670
 6757SOL    HW231734   3.443   3.796   9.039 -1.1437  0.8165 -1.0812
 6758SOL     OW31735   3.631   2.555  13.472  0.2594 -0.1948  0.0899
 6758SOL    HW131736   3.604   2.496  13.543 -2.4601  1.3374  0.2975
 6758SOL    HW231737   3.569   2.535  13.402 -0.0100  1.7985 -0.2423
 6759SOL     OW31738   0.449   3.344   6.358 -0.5544 -0.4571  0.7399
 6759SOL    HW131739   0.470   3.340   6.452  3.3724  0.5975 -0.0795
 6759SOL    HW231740   0.501   3.417   6.325 -0.9754 -0.1342  0.7933
 6760SOL     OW31741   2.314   4.421   6.098  0.3522  0.5619  0.0600
 6760SOL    HW131742   2.322   4.492   6.161 -0.7652  0.0673  0.7705
 6760SOL    HW231743   2.295   4.477   6.023  1.1466 -0.2790 -0.7616
 6761SOL     OW31744   3.750   1.871   2.135 -0.0334 -0.3445  0.0682
 6761SOL    HW131745   3.777   1.841   2.048 -0.6022  0.1559 -0.2796
 6761SOL    HW231746   3.791   1.958   2.137 -1.5077  0.3775 -1.0319
 6762SOL     OW31747   3.148   3.846   8.857  0.8809  0.6394  0.5214
 6762SOL    HW131748   3.124   3.932   8.824 -0.7698  0.5393  1.4535
 6762SOL    HW231749   3.241   3.862   8.876  0.5350 -0.4987  3.2651
 6763SOL     OW31750   1.796   3.645   6.995 -0.2309 -0.7597  0.0020
 6763SOL    HW131751   1.853   3.717   7.024  0.2402 -0.7031 -1.0475
 6763SOL    HW231752   1.719   3.701   6.985  1.0075  0.9340 -0.0309
 6764SOL     OW31753   4.244   3.809   3.604  0.0036 -0.1397 -0.2109
 6764SOL    HW131754   4.150   3.826   3.604  0.4217  2.2493  0.9582
 6764SOL    HW231755   4.285   3.848   3.527 -2.2889  2.5729 -0.0469
 6765SOL     OW31756   2.158   2.315   3.785  0.6278  0.5895 -0.3275
 6765SOL    HW131757   2.121   2.285   3.702 -0.9275  3.0795 -0.5273
 6765SOL    HW231758   2.174   2.406   3.758 -0.0101  0.6589 -0.4775
 6766SOL     OW31759   0.417   1.369   2.199 -0.1805 -0.0927  0.3109
 6766SOL    HW131760   0.327   1.365   2.166 -0.1587  1.1478  0.1043
 6766SOL    HW231761   0.396   1.365   2.293  0.5418 -1.8801  0.3782
 6767SOL     OW31762   4.073   2.866   5.232  0.0697 -0.3913 -0.2936
 6767SOL    HW131763   4.091   2.825   5.317  0.9282 -0.3761 -0.4713
 6767SOL    HW231764   4.100   2.956   5.250 -1.2959  0.0892 -0.6446
 6768SOL     OW31765   0.127   2.406   4.546 -0.1896 -0.3450 -0.0415
 6768SOL    HW131766   0.173   2.443   4.470  1.1832 -2.2506 -0.1176
 6768SOL    HW231767   0.072   2.482   4.567 -0.0432 -0.3265  0.2774
 6769SOL     OW31768   1.839   0.116   0.404  0.3401 -0.2795 -0.2561
 6769SOL    HW131769   1.895   0.116   0.327  0.9209  0.1934  0.1607
 6769SOL    HW231770   1.869   0.041   0.456 -0.5906 -0.5269 -0.0728
 6770SOL     OW31771   4.044   3.950   4.266  0.3159  0.6016  0.5057
 6770SOL    HW131772   3.995   4.031   4.283  1.1518  1.1056  0.4976
 6770SOL    HW231773   3.979   3.882   4.283  1.2390 -0.3968  0.0400
 6771SOL     OW31774   4.642   4.045   2.053 -0.3880 -0.4739 -0.1310
 6771SOL    HW131775   4.687   4.072   2.133 -0.4840 -1.9663  0.4075
 6771SOL    HW231776   4.698   3.973   2.026  0.3976 -0.3023  1.0452
 6772SOL     OW31777   2.744   3.327   7.815  0.5498  0.1457  0.7721
 6772SOL    HW131778   2.658   3.311   7.854  0.6412 -0.8840  0.5504
 6772SOL    HW231779   2.789   3.376   7.885  3.6051  1.7743 -2.3572
 6773SOL     OW31780   3.500   4.198   2.239  0.0769 -0.0995 -0.0602
 6773SOL    HW131781   3.583   4.152   2.254 -0.1995 -0.1390  1.3482
 6773SOL    HW231782   3.511   4.280   2.288  0.5004 -0.5619  0.6078
 6774SOL     OW31783   1.798   3.040   9.903 -0.2893 -0.0580 -0.1665
 6774SOL    HW131784   1.711   3.006   9.882 -0.4683 -0.4747  1.2542
 6774SOL    HW231785   1.776   3.076   9.989  0.4861  0.8921 -0.3661
 6775SOL     OW31786   4.195   4.184  13.893 -0.0338  0.1323  0.3776
 6775SOL    HW131787   4.101   4.200  13.885  0.0390  0.8990  1.0385
 6775SOL    HW231788   4.216   4.246  13.823  0.7612 -2.5180 -1.7151
 6776SOL     OW31789   0.235   1.099   6.773  0.0262 -0.0987 -0.2091
 6776SOL    HW131790   0.242   1.123   6.680 -0.5626  1.3500  0.1198
 6776SOL    HW231791   0.146   1.120   6.802  0.6734  1.9033  0.3233
 6777SOL     OW31792   1.926   3.975  14.007 -0.0055 -0.4494 -0.1446
 6777SOL    HW131793   1.833   3.988  13.990 -0.5498 -0.0916  3.1066
 6777SOL    HW231794   1.924   4.035  14.082  1.9151 -0.2281 -0.2508
 6778SOL     OW31795   3.475   1.845   1.812 -0.6236  0.1552  0.0683
 6778SOL    HW131796   3.448   1.784   1.744  2.6124 -1.3408  0.1050
 6778SOL    HW231797   3.501   1.920   1.758  2.2312  0.6623  2.1524
 6779SOL     OW31798   1.347   3.667   4.738 -0.4165  0.0791 -0.3705
 6779SOL    HW131799   1.392   3.696   4.659 -0.7046 -2.1003 -1.3521
 6779SOL    HW231800   1.279   3.724   4.773  0.6676  1.1720 -0.0658
 6780SOL     OW31801   0.189   3.669   9.528  0.3837  0.2114 -0.1843
 6780SOL    HW131802   0.254   3.697   9.463  0.6521 -0.0791 -0.0422
 6780SOL    HW231803   0.107   3.707   9.495  2.3093  3.7077 -0.9028
 6781SOL     OW31804   3.596   0.738   8.912  0.0713 -0.1984 -0.4941
 6781SOL    HW131805   3.661   0.788   8.961 -0.2397  0.3843 -0.6797
 6781SOL    HW231806   3.640   0.656   8.889  2.8069  0.9591  0.6442
 6782SOL     OW31807   1.321   1.948   2.096  0.0198 -0.0467 -0.3701
 6782SOL    HW131808   1.362   1.862   2.104  0.4898  0.3069  1.0220
 6782SOL    HW231809   1.257   1.914   2.034 -0.6229  0.0113  0.2724
 6783SOL     OW31810   0.691   0.500   9.490 -0.4133 -0.4186 -0.2078
 6783SOL    HW131811   0.633   0.514   9.564  1.2308  0.9408  0.8276
 6783SOL    HW231812   0.711   0.593   9.474  1.2032 -0.6467  0.4515
 6784SOL     OW31813   0.260   0.772   6.480 -0.0468 -0.1103  0.4824
 6784SOL    HW131814   0.293   0.737   6.397  0.7832 -0.6539  1.0308
 6784SOL    HW231815   0.188   0.831   6.460 -0.4550 -0.4948  0.8098
 6785SOL     OW31816   0.173   4.446   1.620 -0.1780  0.7009  0.3907
 6785SOL    HW131817   0.139   4.360   1.595 -0.3214  0.8075  0.2191
 6785SOL    HW231818   0.095   4.494   1.592 -1.0226 -0.4042  0.8466
 6786SOL     OW31819   0.591   1.939   5.421  0.0854 -0.7918 -0.0592
 6786SOL    HW131820   0.568   1.853   5.386  2.4431 -1.2673 -0.4481
 6786SOL    HW231821   0.508   1.967   5.461  0.7718  1.7782 -0.4567
 6787SOL     OW31822   4.235   4.256   2.475  0.2776  0.0973 -0.0041
 6787SOL    HW131823   4.209   4.182   2.530  0.3521 -0.4035 -0.6456
 6787SOL    HW231824   4.326   4.240   2.451 -0.3240 -1.1442 -1.4791
 6788SOL     OW31825   4.066   3.295  15.513  0.3037 -0.0879 -0.0867
 6788SOL    HW131826   4.032   3.336  15.433 -0.4450  1.3818  0.9786
 6788SOL    HW231827   4.147   3.344  15.529  0.3854 -0.1039 -0.4481
 6789SOL     OW31828   0.148   0.575  17.373 -0.7281 -0.5015 -0.2589
 6789SOL    HW131829   0.053   0.584  17.371 -0.5854  1.0159 -0.4993
 6789SOL    HW231830   0.182   0.664  17.364  2.6121 -1.7706 -0.0280
 6790SOL     OW31831   0.635   4.164   2.430  0.5968  0.0035 -0.6258
 6790SOL    HW131832   0.686   4.088   2.400  0.3544 -0.5712  0.3966
 6790SOL    HW231833   0.548   4.142   2.397  0.6288  1.2098 -1.4820
 6791SOL     OW31834   3.928   1.843   1.496  0.1027 -0.1717 -0.8611
 6791SOL    HW131835   3.890   1.857   1.582  1.7517 -1.3957  0.0652
 6791SOL    HW231836   3.904   1.931   1.466  1.0594  0.1006 -0.8321
 6792SOL     OW31837   1.148   3.688  17.200  0.2732  0.4293  0.2141
 6792SOL    HW131838   1.176   3.720  17.285 -1.6717  2.9616 -0.0972
 6792SOL    HW231839   1.077   3.747  17.173 -0.2307  0.0363  0.6808
 6793SOL     OW31840   3.952   3.699   8.725  0.3965  0.6944 -0.0569
 6793SOL    HW131841   3.966   3.755   8.801  2.1899  1.2050 -0.7568
 6793SOL    HW231842   3.932   3.620   8.775 -0.2852 -0.4793 -2.1722
 6794SOL     OW31843   4.423   1.694  14.102  0.2879 -0.0845  0.5666
 6794SOL    HW131844   4.332   1.684  14.132 -0.0107 -0.4123 -0.4261
 6794SOL    HW231845   4.431   1.610  14.058 -1.0236 -0.6028  1.3017
 6795SOL     OW31846   1.672   3.930  10.379  0.0220  0.6948 -0.2096
 6795SOL    HW131847   1.611   3.896  10.445 -0.8939  2.1043 -0.3290
 6795SOL    HW231848   1.754   3.907  10.422 -0.0461 -0.5332 -0.7111
 6796SOL     OW31849   3.066   3.649   8.721 -0.0338 -0.1555  0.5259
 6796SOL    HW131850   3.071   3.726   8.779 -0.3980 -0.7325  1.3176
 6796SOL    HW231851   3.158   3.624   8.735 -0.1965 -0.1278  1.6760
 6797SOL     OW31852   4.121   3.589   1.392  0.1509  0.1278 -0.7235
 6797SOL    HW131853   4.058   3.660   1.380 -0.8919 -1.0707 -2.3542
 6797SOL    HW231854   4.078   3.528   1.332 -2.8770  2.6420 -1.0872
 6798SOL     OW31855   2.017   3.385  17.637 -0.1471  0.0384  0.1943
 6798SOL    HW131856   1.984   3.474  17.638  1.4618  0.6437 -0.2915
 6798SOL    HW231857   2.002   3.367  17.544 -0.0112  0.2185  0.1372
 6799SOL     OW31858   3.550   0.931  15.277  0.1090 -0.0037  0.0012
 6799SOL    HW131859   3.560   1.026  15.282  2.2041 -0.0816 -2.5493
 6799SOL    HW231860   3.606   0.901  15.349 -0.3034  2.1770  1.2250
 6800SOL     OW31861   1.230   3.995  16.100 -0.1778  0.3208  0.0128
 6800SOL    HW131862   1.296   4.060  16.076  1.8981 -0.8687  2.4593
 6800SOL    HW231863   1.173   4.038  16.163  1.8486  0.4411  1.7610
 6801SOL     OW31864   3.022   3.849   5.050 -0.2528 -0.3662 -0.5801
 6801SOL    HW131865   2.929   3.840   5.069 -0.6853  1.2188 -1.9948
 6801SOL    HW231866   3.045   3.914   5.117  1.3265 -0.5754 -0.9073
 6802SOL     OW31867   1.175   0.677   7.820  0.3228 -0.6553  0.2521
 6802SOL    HW131868   1.255   0.686   7.767 -3.0634 -0.0689 -4.6787
 6802SOL    HW231869   1.159   0.766   7.850  2.8503  0.1326 -0.6866
 6803SOL     OW31870   2.075   0.378   7.785 -0.3997 -0.2851  0.2503
 6803SOL    HW131871   2.109   0.405   7.870  0.6068  0.3660 -0.3645
 6803SOL    HW231872   2.081   0.456   7.730 -1.5315 -1.2476 -1.2385
 6804SOL     OW31873   2.346   2.531   3.408  0.4759 -0.0593  0.3768
 6804SOL    HW131874   2.350   2.617   3.366  1.8698 -0.1041  0.4291
 6804SOL    HW231875   2.295   2.474   3.350 -1.7304 -0.2195  2.4648
 6805SOL     OW31876   0.004   4.369   3.607  0.4796  1.0391  0.2090
 6805SOL    HW131877   0.027   4.381   3.699 -2.4244 -3.2903  1.4918
 6805SOL    HW231878   4.634   4.350   3.620  0.6466  0.6382  0.8330
 6806SOL     OW31879   0.749   3.662  16.082  0.4589 -0.2058 -0.5514
 6806SOL    HW131880   0.665   3.697  16.052 -0.1295 -0.2938  1.0212
 6806SOL    HW231881   0.787   3.750  16.081  1.9229 -0.8371 -1.8312
 6807SOL     OW31882   0.781   4.403   8.221  0.1223 -0.0152  0.1544
 6807SOL    HW131883   0.781   4.463   8.295  0.3631  0.6279 -0.3701
 6807SOL    HW231884   0.820   4.328   8.266  0.8051 -0.6486 -1.4728
 6808SOL     OW31885   1.055   0.343  12.295 -0.2342 -0.2117  0.6851
 6808SOL    HW131886   0.983   0.392  12.336  0.9389 -0.0372  2.5027
 6808SOL    HW231887   1.033   0.357  12.203 -0.1597  0.9946  0.8519
 6809SOL     OW31888   2.089   2.036   5.370 -0.9195 -0.6040  0.4694
 6809SOL    HW131889   2.077   2.011   5.462 -0.5196 -3.2799 -0.1994
 6809SOL    HW231890   2.119   2.125   5.383  0.2913 -0.8783 -0.5538
 6810SOL     OW31891   4.392   2.053  13.393 -0.0576  0.6116 -0.1150
 6810SOL    HW131892   4.300   2.026  13.386  0.5622 -2.1333  2.2341
 6810SOL    HW231893   4.406   2.105  13.314  1.5944  2.4417  1.3825
 6811SOL     OW31894   2.636   0.488  15.389  0.1425  0.0775  0.4137
 6811SOL    HW131895   2.608   0.495  15.298  1.6181 -1.3418 -0.1548
 6811SOL    HW231896   2.684   0.405  15.386  0.8840  0.6008 -2.3718
 6812SOL     OW31897   3.776   0.943  16.268 -0.2955  0.0476  0.1649
 6812SOL    HW131898   3.830   0.975  16.195  0.0045 -1.7473 -0.3994
 6812SOL    HW231899   3.831   0.944  16.346  1.6018  1.9242 -1.1980
 6813SOL     OW31900   2.300   2.576   7.612 -0.5017 -0.4875 -0.4773
 6813SOL    HW131901   2.377   2.522   7.629 -1.2925 -1.3252  0.4791
 6813SOL    HW231902   2.252   2.516   7.555 -2.3596 -0.1425  0.7010
 6814SOL     OW31903   1.327   1.312  10.231  0.3220  0.0817 -0.4237
 6814SOL    HW131904   1.296   1.359  10.308  2.6752 -2.4242  2.0260
 6814SOL    HW231905   1.395   1.254  10.264 -1.2506  0.8025  4.0536
 6815SOL     OW31906   2.430   0.066   2.242  0.2663  0.0642 -0.5652
 6815SOL    HW131907   2.361   0.039   2.182 -0.0205  0.9366 -0.6296
 6815SOL    HW231908   2.421   0.162   2.242 -2.0042 -0.1526 -0.1520
 6816SOL     OW31909   1.649   2.835   7.474  0.5493 -0.1078  0.4177
 6816SOL    HW131910   1.582   2.888   7.517  2.2388  2.1304  0.2528
 6816SOL    HW231911   1.725   2.831   7.532  2.2612  2.3777 -1.6172
 6817SOL     OW31912   2.325   2.481   6.796 -0.2251 -0.3681  0.2629
 6817SOL    HW131913   2.273   2.507   6.872  0.2829  0.3779  0.3548
 6817SOL    HW231914   2.283   2.407   6.752  0.5818 -1.3789  1.1712
 6818SOL     OW31915   4.016   0.288  15.703  0.2089 -0.0823 -0.0086
 6818SOL    HW131916   4.078   0.301  15.631  1.9627 -4.0477  0.8161
 6818SOL    HW231917   3.932   0.277  15.659  0.6148 -3.5257  0.1316
 6819SOL     OW31918   4.683   4.624  12.801 -0.5856 -0.0534 -0.5902
 6819SOL    HW131919   4.609   4.578  12.762 -1.7422  1.4963 -0.2138
 6819SOL    HW231920   4.655   4.618  12.892 -0.7780  1.3118 -0.5534
 6820SOL     OW31921   2.337   3.159   2.357  0.2247 -0.1785 -0.1097
 6820SOL    HW131922   2.398   3.089   2.379 -2.8531 -2.8084 -0.0246
 6820SOL    HW231923   2.313   3.130   2.269  0.4885 -1.5522  0.2827
 6821SOL     OW31924   2.928   1.026   5.819  0.2969  0.4054 -0.0321
 6821SOL    HW131925   2.962   0.941   5.847  1.7428  0.7756 -0.6261
 6821SOL    HW231926   2.887   1.017   5.733 -0.9289 -1.4050  0.7409
 6822SOL     OW31927   3.840   2.299   9.452  0.8339 -0.0555  0.0761
 6822SOL    HW131928   3.823   2.215   9.411  0.3770 -0.6832  1.5273
 6822SOL    HW231929   3.928   2.272   9.477  0.6928 -2.2650 -1.9015
 6823SOL     OW31930   4.280   0.416   0.404  0.0422 -0.2002 -0.7879
 6823SOL    HW131931   4.364   0.370   0.408  0.5497  0.7285 -0.8834
 6823SOL    HW231932   4.225   0.341   0.379 -0.9508  0.6308 -1.1076
 6824SOL     OW31933   4.595   1.462  13.224 -0.5770 -0.1249 -0.3638
 6824SOL    HW131934   4.617   1.533  13.284  1.5620 -1.9976  1.0847
 6824SOL    HW231935   4.657   1.477  13.153 -0.1565  1.1112  0.2742
 6825SOL     OW31936   2.181   1.194   6.781  0.4797 -0.0991 -0.6228
 6825SOL    HW131937   2.106   1.149   6.742  0.5473 -1.3556  0.6943
 6825SOL    HW231938   2.194   1.259   6.712  2.6599 -0.9836 -1.0308
 6826SOL     OW31939   4.556   4.590   5.546 -0.6537 -0.1221  0.4180
 6826SOL    HW131940   4.486   4.548   5.596 -0.4565 -1.5604 -0.5154
 6826SOL    HW231941   4.617   4.609   5.618 -1.0278  1.1659  0.3946
 6827SOL     OW31942   2.976   0.512   8.745 -0.4569 -0.3690 -0.3892
 6827SOL    HW131943   2.907   0.563   8.787  0.9213  3.3233 -2.6360
 6827SOL    HW231944   3.041   0.573   8.711  0.0553  0.5494  2.2580
 6828SOL     OW31945   0.331   4.270  12.496 -0.6804 -0.2595  0.0345
 6828SOL    HW131946   0.352   4.364  12.498 -2.2630  0.1332 -1.3654
 6828SOL    HW231947   0.344   4.254  12.402 -1.4354 -0.4651 -0.0420
 6829SOL     OW31948   1.259   3.266  17.671 -0.2310 -0.2496  0.1137
 6829SOL    HW131949   1.318   3.209   0.027  0.1538  0.4320  0.4374
 6829SOL    HW231950   1.276   3.248  17.579 -0.1904 -1.2449  0.3084
 6830SOL     OW31951   4.680   1.038   2.970 -0.0517 -0.5118  0.2655
 6830SOL    HW131952   4.598   0.994   2.992 -0.0778  0.8512  3.0280
 6830SOL    HW231953   4.715   0.976   2.907  1.0228  2.0413 -1.6643
 6831SOL     OW31954   2.124   4.385   1.987 -0.0371  0.5620 -0.2185
 6831SOL    HW131955   2.184   4.335   1.931 -0.2280  4.2793 -3.7522
 6831SOL    HW231956   2.083   4.446   1.926  2.0156  1.4948 -0.6776
 6832SOL     OW31957   4.147   2.830   9.152 -0.0418 -0.1921  0.4963
 6832SOL    HW131958   4.180   2.753   9.106 -0.6744  0.9702 -1.9030
 6832SOL    HW231959   4.083   2.868   9.092 -0.2033 -1.3085 -0.0293
 6833SOL     OW31960   0.790   1.569   4.222 -0.0367  0.0176 -0.1906
 6833SOL    HW131961   0.786   1.550   4.128  1.3211 -1.0319 -0.0335
 6833SOL    HW231962   0.730   1.500   4.252  0.6305 -1.1430 -1.4996
 6834SOL     OW31963   2.008   4.560  11.144 -0.5571  0.6907  0.1600
 6834SOL    HW131964   2.103   4.555  11.136 -0.3721  1.6347  1.7839
 6834SOL    HW231965   1.998   4.613  11.065  0.1886  2.0033  0.9365
 6835SOL     OW31966   3.416   0.777   3.262  0.4007 -0.2807 -0.2892
 6835SOL    HW131967   3.433   0.685   3.242 -1.8677 -0.1768 -2.6807
 6835SOL    HW231968   3.458   0.815   3.185 -0.2670 -1.1276 -1.0639
 6836SOL     OW31969   2.732   2.612   5.251 -0.0911  0.0205  0.0172
 6836SOL    HW131970   2.799   2.544   5.259  0.5193  0.8530  1.9519
 6836SOL    HW231971   2.747   2.645   5.162 -1.3971 -0.4282 -0.3718
 6837SOL     OW31972   4.306   3.031   9.592  0.0613 -0.1851 -0.7913
 6837SOL    HW131973   4.316   2.958   9.654 -0.8781  0.3695  0.0179
 6837SOL    HW231974   4.329   2.991   9.508 -0.3476  0.0375 -1.0105
 6838SOL     OW31975   1.611   1.756   5.914 -0.7180  0.2377 -0.6873
 6838SOL    HW131976   1.647   1.843   5.893  0.7263 -0.9289 -3.0657
 6838SOL    HW231977   1.557   1.757   5.993  0.4277  0.3313  0.0943
 6839SOL     OW31978   0.753   4.021  14.477 -0.2536 -0.4399  0.3140
 6839SOL    HW131979   0.763   4.045  14.569  0.3900  1.3258 -0.2174
 6839SOL    HW231980   0.721   4.099  14.433  0.4256 -0.9815 -1.1321
 6840SOL     OW31981   4.438   1.968  10.058 -0.5653  0.3178  0.6308
 6840SOL    HW131982   4.481   2.042  10.102 -0.0294  0.2461  0.2271
 6840SOL    HW231983   4.408   1.929  10.140 -0.9279  0.8233  0.7407
 6841SOL     OW31984   4.527   2.792   6.877 -0.6371  0.2897 -0.1160
 6841SOL    HW131985   4.462   2.753   6.935 -1.9558  1.9022 -0.5023
 6841SOL    HW231986   4.494   2.882   6.880 -0.3585  0.3820  0.0947
 6842SOL     OW31987   4.405   2.839   3.946 -0.2363 -0.5374  0.3896
 6842SOL    HW131988   4.448   2.809   4.026  2.2033  1.4122 -0.1761
 6842SOL    HW231989   4.325   2.880   3.979  0.0336  1.7607 -1.8328
 6843SOL     OW31990   0.837   1.324   8.714  0.3450 -0.0483  0.2305
 6843SOL    HW131991   0.919   1.275   8.715  0.0748 -0.5133 -0.2607
 6843SOL    HW231992   0.867   1.412   8.738 -0.7568  1.1730 -2.8074
 6844SOL     OW31993   1.906   2.072   8.833 -0.3121 -0.3723 -0.2012
 6844SOL    HW131994   1.834   2.018   8.866 -0.2002  0.2990  1.1646
 6844SOL    HW231995   1.972   2.066   8.903  0.9685  0.5891 -1.3260
 6845SOL     OW31996   1.071   3.413  15.768 -0.2532 -0.0149 -0.1447
 6845SOL    HW131997   1.129   3.488  15.777  0.1170  0.0233 -2.9884
 6845SOL    HW231998   1.129   3.359  15.714  1.0583 -0.1099  1.3446
 6846SOL     OW31999   3.035   2.106   1.923 -0.5235 -0.2859 -0.2999
 6846SOL    HW132000   3.125   2.136   1.936 -1.3973  1.4413  2.0222
 6846SOL    HW232001   2.996   2.193   1.914  0.1332 -0.0053 -0.4185
 6847SOL     OW32002   1.560   3.468   4.673 -0.3431 -0.3106 -0.6593
 6847SOL    HW132003   1.537   3.501   4.586  0.2957  1.3297 -0.2041
 6847SOL    HW232004   1.481   3.415   4.683  0.2088 -0.5455  2.4764
 6848SOL     OW32005   0.995   1.602  10.929  0.2075 -0.2152 -0.4144
 6848SOL    HW132006   0.961   1.565  10.847  2.2700 -2.2884 -0.3605
 6848SOL    HW232007   0.927   1.575  10.991  0.6158  0.2383  0.2229
 6849SOL     OW32008   2.268   0.251   8.504 -0.0240 -0.1614 -0.2445
 6849SOL    HW132009   2.271   0.347   8.500 -2.1937 -0.2545 -3.7000
 6849SOL    HW232010   2.352   0.246   8.551  0.8004 -0.4275 -1.7531
 6850SOL     OW32011   1.105   1.962  16.559 -0.5017 -0.9800 -0.2671
 6850SOL    HW132012   1.034   1.961  16.622  0.4789 -1.8782  0.8317
 6850SOL    HW232013   1.130   1.869  16.553 -0.2861 -0.9603  0.3818
 6851SOL     OW32014   0.673   4.195  15.495 -0.6135 -0.3456 -0.5762
 6851SOL    HW132015   0.702   4.284  15.474 -0.8494  0.3681  2.0828
 6851SOL    HW232016   0.711   4.187  15.582 -1.2770  0.5271 -0.2014
 6852SOL     OW32017   2.909   0.469   9.326 -0.6536 -0.0395  0.1502
 6852SOL    HW132018   2.873   0.510   9.406  0.4107  2.8759 -0.8782
 6852SOL    HW232019   2.997   0.448   9.356 -0.4710  1.4105  0.6379
 6853SOL     OW32020   1.481   0.199   8.302 -0.0895 -0.6339  0.5004
 6853SOL    HW132021   1.449   0.287   8.286  1.1741 -0.3459 -0.4171
 6853SOL    HW232022   1.532   0.205   8.383  1.9432 -3.0737 -0.5859
 6854SOL     OW32023   3.711   3.218   4.448 -0.2590 -0.1423 -0.0551
 6854SOL    HW132024   3.680   3.183   4.531 -1.7257  0.4822 -0.3452
 6854SOL    HW232025   3.626   3.243   4.412 -0.3853  0.1063  0.4247
 6855SOL     OW32026   3.169   1.653   0.481 -0.3107  0.3692 -0.1914
 6855SOL    HW132027   3.076   1.675   0.486 -0.6950 -0.9619 -1.6853
 6855SOL    HW232028   3.168   1.561   0.457 -1.3660  0.0329  1.1465
 6856SOL     OW32029   1.599   3.741   8.157 -0.9251 -0.0659 -0.0462
 6856SOL    HW132030   1.517   3.768   8.116 -0.9735  0.0535  0.1299
 6856SOL    HW232031   1.648   3.822   8.144 -0.7857 -0.5738 -2.6033
 6857SOL     OW32032   0.205   3.933   7.235 -0.0163 -0.8217  0.5140
 6857SOL    HW132033   0.117   3.896   7.230 -0.2805 -0.7070  3.8721
 6857SOL    HW232034   0.243   3.882   7.164 -0.5359 -0.5786  0.0662
 6858SOL     OW32035   3.119   2.253   2.318  0.2492  0.2313 -0.4932
 6858SOL    HW132036   3.207   2.288   2.330  0.2092  0.5157 -1.0203
 6858SOL    HW232037   3.097   2.241   2.410  1.5822 -1.1516 -0.3441
 6859SOL     OW32038   0.139   4.688   3.757 -0.1306 -0.2569  0.1154
 6859SOL    HW132039   0.132   4.599   3.793  1.7467 -0.2564  0.4922
 6859SOL    HW232040   0.044   4.700   3.757  0.0500  1.0920  0.4186
 6860SOL     OW32041   3.804   3.549   0.648 -0.0259  0.2950 -0.6441
 6860SOL    HW132042   3.796   3.475   0.588 -0.0901 -0.4564  0.3007
 6860SOL    HW232043   3.746   3.523   0.719  0.4531  1.3579  0.1501
 6861SOL     OW32044   4.497   3.124   3.470 -0.2291 -0.3195  0.6611
 6861SOL    HW132045   4.536   3.107   3.384  0.2865  2.8633  0.2772
 6861SOL    HW232046   4.457   3.209   3.456  1.7524  0.5551  0.3429
 6862SOL     OW32047   3.547   1.644  12.424 -0.3808 -0.6772  0.3858
 6862SOL    HW132048   3.519   1.564  12.381 -0.7301  0.3386 -1.3130
 6862SOL    HW232049   3.478   1.709  12.409  0.0295 -0.3301 -0.0205
 6863SOL     OW32050   3.011   2.350   0.851 -0.0850  0.6905  0.3179
 6863SOL    HW132051   2.950   2.421   0.869 -1.5674 -0.4479 -0.1803
 6863SOL    HW232052   3.070   2.399   0.793 -0.8640  1.8517  0.5038
 6864SOL     OW32053   4.282   3.338  14.324 -0.4496 -0.4661  0.2103
 6864SOL    HW132054   4.282   3.412  14.264  1.3223  0.3474  1.1793
 6864SOL    HW232055   4.213   3.278  14.300 -1.1859 -0.6060  2.6345
 6865SOL     OW32056   0.539   0.769  15.454  0.2265  0.1279  0.0917
 6865SOL    HW132057   0.487   0.849  15.449  1.9428  1.3393  1.7517
 6865SOL    HW232058   0.484   0.720  15.515  0.2551 -1.0934 -0.8590
 6866SOL     OW32059   2.573   0.091  17.023  0.5104 -0.0474  0.3515
 6866SOL    HW132060   2.489   0.053  17.047  1.5628 -1.3504  1.9954
 6866SOL    HW232061   2.624   0.037  17.084  0.0900 -0.6297  0.1851
 6867SOL     OW32062   2.103   1.961  13.624 -0.3136 -0.3727 -0.3855
 6867SOL    HW132063   2.067   2.049  13.623  1.1994  0.2607  1.5920
 6867SOL    HW232064   2.064   1.896  13.684 -0.6413  0.6144  0.4615
 6868SOL     OW32065   3.340   2.925  11.455 -0.1935 -0.4943 -0.0131
 6868SOL    HW132066   3.310   2.912  11.545  0.9149  0.2627  0.4688
 6868SOL    HW232067   3.435   2.921  11.468 -0.0280  0.9124 -0.7674
 6869SOL     OW32068   3.300   1.198   6.104  0.4364 -0.8776  0.0700
 6869SOL    HW132069   3.395   1.184   6.104  0.2403 -2.1839 -0.2742
 6869SOL    HW232070   3.293   1.288   6.134 -1.9567 -0.7052 -1.0323
 6870SOL     OW32071   0.092   0.244   7.578  0.1327 -0.0437 -0.3005
 6870SOL    HW132072   0.133   0.171   7.625 -0.5784 -0.5199 -0.4270
 6870SOL    HW232073   0.150   0.312   7.613  0.5069 -0.1567 -0.7026
 6871SOL     OW32074   3.943   0.539  17.559 -0.4473  0.5108  0.0291
 6871SOL    HW132075   4.007   0.471  17.583 -0.3923  0.2219 -0.9607
 6871SOL    HW232076   3.898   0.483  17.496  1.8462 -1.7032  0.3382
 6872SOL     OW32077   3.386   2.929  10.156  0.1076  0.0596  0.2060
 6872SOL    HW132078   3.312   2.974  10.115  0.5664  1.8433  1.2928
 6872SOL    HW232079   3.419   3.005  10.204  0.3076 -0.6856  1.2355
 6873SOL     OW32080   1.234   0.152  16.785 -0.6510 -0.0880  0.6439
 6873SOL    HW132081   1.140   0.162  16.773 -0.9007 -2.9935  0.0109
 6873SOL    HW232082   1.249   0.170  16.878  1.4701 -0.3148  0.3441
 6874SOL     OW32083   1.131   2.864   5.562  0.0090  0.7492 -0.3931
 6874SOL    HW132084   1.156   2.920   5.488 -1.6356  2.3288  0.2589
 6874SOL    HW232085   1.215   2.871   5.608  0.9904  0.1605 -2.0754
 6875SOL     OW32086   1.982   2.427  17.057 -0.1029 -0.5981  0.3322
 6875SOL    HW132087   1.957   2.347  17.010 -0.4920  0.7938 -1.7919
 6875SOL    HW232088   2.051   2.395  17.115  0.6977 -0.6632 -0.6589
 6876SOL     OW32089   1.850   1.866   6.617 -0.8007  0.5357  0.0847
 6876SOL    HW132090   1.868   1.888   6.526  1.8466 -1.2705  0.1599
 6876SOL    HW232091   1.765   1.910   6.622 -1.6279 -1.2481  1.6274
 6877SOL     OW32092   2.433   0.923   9.804  0.3024  0.2551 -0.3997
 6877SOL    HW132093   2.413   1.012   9.831 -0.8002 -0.1233 -0.0118
 6877SOL    HW232094   2.452   0.880   9.887  1.1050 -0.8342 -1.1414
 6878SOL     OW32095   1.718   1.204   9.584  0.4527  0.4359 -0.4887
 6878SOL    HW132096   1.642   1.262   9.592 -0.4466 -0.8845  0.5506
 6878SOL    HW232097   1.799   1.251   9.603 -0.6290  2.2194 -0.3189
 6879SOL     OW32098   0.485   3.496   4.496  0.1671 -0.4185  0.1527
 6879SOL    HW132099   0.485   3.585   4.463  1.1954  0.0529  1.4288
 6879SOL    HW232100   0.576   3.470   4.480  0.3721  2.7057 -3.6767
 6880SOL     OW32101   1.709   3.259   5.900 -0.0516  0.2775  0.6622
 6880SOL    HW132102   1.745   3.275   5.987  0.9839 -2.2321  0.7017
 6880SOL    HW232103   1.634   3.206   5.925  0.0574  1.9557  4.5338
 6881SOL     OW32104   1.182   1.600   2.870 -0.4138 -0.3062 -0.3682
 6881SOL    HW132105   1.133   1.671   2.912 -1.2569  1.5405 -4.4556
 6881SOL    HW232106   1.189   1.557   2.955 -2.3794  0.0679 -0.0211
 6882SOL     OW32107   2.967   0.740  13.050 -0.6251  0.2190 -0.5394
 6882SOL    HW132108   2.906   0.801  13.092 -0.4824  0.6472 -0.9522
 6882SOL    HW232109   3.016   0.803  12.997  0.3161  1.0343  1.3160
 6883SOL     OW32110   3.828   1.505   7.544  0.0604  0.4205 -0.0046
 6883SOL    HW132111   3.803   1.523   7.454 -1.0889  0.4612  0.3264
 6883SOL    HW232112   3.776   1.573   7.587  0.9154  2.4073 -2.2018
 6884SOL     OW32113   2.976   1.201   6.523  0.1227 -0.3799 -0.2304
 6884SOL    HW132114   2.978   1.222   6.616 -0.2903 -2.2224  0.1986
 6884SOL    HW232115   3.043   1.132   6.523  1.8043  1.2649  0.4813
 6885SOL     OW32116   0.589   3.846   0.938  0.5918  0.3490  0.2631
 6885SOL    HW132117   0.498   3.823   0.957  1.1499  1.2874  4.0496
 6885SOL    HW232118   0.581   3.935   0.974  2.1366  0.0621  1.3211
 6886SOL     OW32119   4.506   1.107   4.123 -0.3135 -0.1124  0.4338
 6886SOL    HW132120   4.543   1.132   4.039  2.6929 -0.4792  1.6581
 6886SOL    HW232121   4.415   1.091   4.096 -0.2775  0.3249  0.0595
 6887SOL     OW32122   1.714   3.797  17.661  0.3293  0.1386 -0.1894
 6887SOL    HW132123   1.672   3.844   0.039  1.3620  1.6804 -0.6113
 6887SOL    HW232124   1.775   3.868  17.640  0.0543  0.4333  0.0138
 6888SOL     OW32125   0.150   1.872   6.734 -0.3436  0.1596  0.3262
 6888SOL    HW132126   0.232   1.922   6.730 -0.4404  0.4690  2.5787
 6888SOL    HW232127   0.130   1.852   6.642 -0.4814  0.8008  0.2118
 6889SOL     OW32128   4.357   1.402  10.678  0.8659 -0.8766  0.3766
 6889SOL    HW132129   4.414   1.464  10.722 -1.4630  2.2566 -0.9654
 6889SOL    HW232130   4.424   1.345  10.642  1.2842  0.6347 -1.2340
 6890SOL     OW32131   3.138   0.757   0.597 -0.5455 -0.4202 -0.4019
 6890SOL    HW132132   3.161   0.848   0.577  1.2551 -0.9257 -0.6922
 6890SOL    HW232133   3.199   0.741   0.669 -0.4965 -0.7340 -0.5117
 6891SOL     OW32134   1.359   3.177   8.449  0.0221 -0.0512  0.7801
 6891SOL    HW132135   1.431   3.239   8.447 -0.1645  0.1505  0.0992
 6891SOL    HW232136   1.280   3.228   8.468 -1.3913 -2.9526  2.7911
 6892SOL     OW32137   1.962   3.772   0.827  0.2878 -0.7268  0.1267
 6892SOL    HW132138   1.966   3.852   0.878 -1.0757 -0.2406 -0.5145
 6892SOL    HW232139   1.953   3.708   0.898  0.5749 -0.4528  0.4048
 6893SOL     OW32140   3.433   4.138   8.053 -0.1747  0.0748 -0.3187
 6893SOL    HW132141   3.424   4.053   8.011  0.2441 -0.6654  1.1084
 6893SOL    HW232142   3.342   4.163   8.067 -0.3065 -0.2953 -0.5238
 6894SOL     OW32143   3.851   2.193   4.830  0.1634  0.2914 -0.4763
 6894SOL    HW132144   3.930   2.148   4.799 -0.2747 -1.2950  0.7171
 6894SOL    HW232145   3.845   2.276   4.783  1.2803  0.0606 -1.0365
 6895SOL     OW32146   0.205   2.901   6.228  0.4649 -0.6183  0.1870
 6895SOL    HW132147   0.291   2.862   6.211  1.7809  1.8900  1.0972
 6895SOL    HW232148   0.234   2.945   6.308  3.3069 -0.3223 -0.9972
 6896SOL     OW32149   0.202   2.227  15.450 -0.4739  0.2665 -0.4387
 6896SOL    HW132150   0.154   2.280  15.386 -2.0386  0.4483  0.8978
 6896SOL    HW232151   0.271   2.288  15.476  2.6864 -3.0932 -0.7916
 6897SOL     OW32152   1.610   2.078   2.590  0.1155 -0.0177 -0.1838
 6897SOL    HW132153   1.697   2.097   2.554  0.8653  0.6738  1.9773
 6897SOL    HW232154   1.570   2.165   2.582 -1.1645 -0.6410 -0.4966
 6898SOL     OW32155   3.641   3.354   7.835  0.0071 -0.4007 -0.1191
 6898SOL    HW132156   3.642   3.264   7.804  1.9662 -0.6838  0.7387
 6898SOL    HW232157   3.735   3.368   7.843 -0.3516  1.6953  0.5459
 6899SOL     OW32158   4.473   4.013  14.112  0.2583  0.3154  0.3678
 6899SOL    HW132159   4.503   4.082  14.054  0.2402  0.0403  0.0273
 6899SOL    HW232160   4.429   4.064  14.180  2.0795 -0.2408  1.9577
 6900SOL     OW32161   1.496   3.057   9.290 -0.4152  0.4871 -0.0122
 6900SOL    HW132162   1.526   2.982   9.341  1.5074 -0.1083 -2.0442
 6900SOL    HW232163   1.470   3.107   9.368  0.1973 -1.2763  1.3363
 6901SOL     OW32164   1.202   0.722   8.461 -0.2885 -0.1208  0.1315
 6901SOL    HW132165   1.238   0.752   8.545  1.9613 -1.7719 -0.2489
 6901SOL    HW232166   1.277   0.667   8.437 -0.3430  0.1152 -0.5771
 6902SOL     OW32167   3.210   0.989   6.541  0.0188  0.3902  0.1856
 6902SOL    HW132168   3.159   0.957   6.615  0.5163 -1.3896 -0.2391
 6902SOL    HW232169   3.261   1.050   6.594  1.6504 -1.0049  0.1913
 6903SOL     OW32170   0.617   0.982  12.505  0.0968  0.3772  0.5064
 6903SOL    HW132171   0.539   0.966  12.560  0.2329  1.3626  0.9863
 6903SOL    HW232172   0.571   0.972  12.422 -1.1271 -1.3861  1.3667
 6904SOL     OW32173   2.937   2.093  16.247 -0.1929 -0.4614 -0.4946
 6904SOL    HW132174   2.902   2.014  16.206  1.7808 -1.9225  0.6276
 6904SOL    HW232175   3.005   2.111  16.183  0.0755  0.3135  0.0055
 6905SOL     OW32176   0.067   3.176   1.244  0.1618 -0.6300 -0.0043
 6905SOL    HW132177   0.142   3.161   1.303  1.5951 -0.2622 -1.7409
 6905SOL    HW232178   4.719   3.133   1.292  0.5717  0.5267  1.6745
 6906SOL     OW32179   1.845   2.253   5.299 -0.2268 -0.0829  0.2134
 6906SOL    HW132180   1.790   2.328   5.278  2.7199  1.1332 -3.3504
 6906SOL    HW232181   1.888   2.276   5.381  3.2204 -1.5436 -1.1552
 6907SOL     OW32182   4.423   1.195  14.298  0.6583  0.4293  0.2845
 6907SOL    HW132183   4.421   1.116  14.352 -0.5310 -1.2738 -2.2860
 6907SOL    HW232184   4.498   1.181  14.241  0.6420  1.0162  0.1163
 6908SOL     OW32185   3.925   2.580   1.953 -0.0441  0.3146  0.4689
 6908SOL    HW132186   4.000   2.639   1.946  2.7704 -3.3029 -0.0600
 6908SOL    HW232187   3.869   2.642   1.907 -0.0946  2.7439  3.7999
 6909SOL     OW32188   4.030   1.058   5.695 -0.0892  0.1949  0.8156
 6909SOL    HW132189   3.982   1.066   5.778 -1.3450  0.5932  0.0460
 6909SOL    HW232190   4.100   1.118   5.720  0.8193 -0.5374  0.0020
 6910SOL     OW32191   0.830   1.195   0.164 -0.3547  0.0135  0.4151
 6910SOL    HW132192   0.827   1.111   0.118  1.5110 -0.7188  1.6422
 6910SOL    HW232193   0.736   1.214   0.166 -0.1596  0.6617  2.8972
 6911SOL     OW32194   2.496   2.862  16.483  0.8915 -0.6056  0.2879
 6911SOL    HW132195   2.514   2.955  16.468 -0.8102 -0.4173 -0.5650
 6911SOL    HW232196   2.584   2.824  16.489  0.7632 -1.0096 -0.5018
 6912SOL     OW32197   0.664   3.633   8.268 -0.0174  0.2217 -0.0277
 6912SOL    HW132198   0.688   3.557   8.322 -2.1921 -0.0919  0.5131
 6912SOL    HW232199   0.594   3.591   8.217 -0.1132  1.0262 -0.5489
 6913SOL     OW32200   1.771   0.896  16.791 -0.2698 -0.0437 -0.5047
 6913SOL    HW132201   1.763   0.930  16.880  0.5591  2.0692 -1.2379
 6913SOL    HW232202   1.863   0.870  16.794 -0.4525 -0.5095  0.9492
 6914SOL     OW32203   2.718   0.631  11.296  0.0005 -0.0656 -0.3647
 6914SOL    HW132204   2.748   0.721  11.310 -1.4199  0.1709  1.0829
 6914SOL    HW232205   2.672   0.641  11.212 -1.0300 -0.0500  0.2097
 6915SOL     OW32206   2.687   2.101   5.956  0.1091 -0.3571 -0.4827
 6915SOL    HW132207   2.712   2.191   5.975 -0.5961 -0.1811 -0.3777
 6915SOL    HW232208   2.746   2.083   5.882 -0.1213 -1.0861 -0.4900
 6916SOL     OW32209   4.112   2.051   8.909  0.0387 -0.2842 -0.0134
 6916SOL    HW132210   4.038   2.090   8.862 -0.8208  0.4791  1.9930
 6916SOL    HW232211   4.174   2.034   8.838 -0.5875  1.8560 -1.0666
 6917SOL     OW32212   4.138   2.476   3.197  0.1358  0.3097 -0.2135
 6917SOL    HW132213   4.219   2.485   3.146 -0.1961 -1.2460 -1.0338
 6917SOL    HW232214   4.145   2.381   3.207 -0.9801  0.0669 -1.7896
 6918SOL     OW32215   0.470   4.426   9.426  0.0083 -0.0889 -0.2446
 6918SOL    HW132216   0.505   4.399   9.510  0.3451  1.1216  0.0021
 6918SOL    HW232217   0.426   4.342   9.412  0.7989 -0.3732 -1.0075
 6919SOL     OW32218   2.655   2.774  12.652  0.7167 -0.3271  0.2003
 6919SOL    HW132219   2.579   2.801  12.704  1.9231 -1.7842  2.7030
 6919SOL    HW232220   2.711   2.740  12.722 -1.2087 -0.9543  1.4297
 6920SOL     OW32221   0.062   0.057   0.802  0.6142 -0.1769 -0.4613
 6920SOL    HW132222   0.037   0.113   0.729  0.4780  0.0264 -0.2558
 6920SOL    HW232223   0.022   4.698   0.774 -1.4044  0.5070  0.4260
 6921SOL     OW32224   2.878   0.077   9.785 -0.0988 -0.6140 -0.0014
 6921SOL    HW132225   2.793   0.080   9.741 -1.4702 -0.6981  2.6535
 6921SOL    HW232226   2.845   0.098   9.872 -0.3476 -0.1132 -0.2188
 6922SOL     OW32227   2.710   2.756  16.827  0.4284  0.2308  0.4005
 6922SOL    HW132228   2.776   2.750  16.896  0.9527  0.2883 -0.0883
 6922SOL    HW232229   2.754   2.817  16.767  2.4192 -0.8835  0.7471
 6923SOL     OW32230   3.526   3.350   8.611 -0.2393  0.3479 -0.4345
 6923SOL    HW132231   3.479   3.329   8.691  1.8440  0.5494  0.8305
 6923SOL    HW232232   3.458   3.332   8.546 -0.1195 -0.2577 -0.3934
 6924SOL     OW32233   1.956   0.908   3.845 -0.0473  0.3147 -0.1445
 6924SOL    HW132234   1.903   0.832   3.823 -0.1009  0.3599 -0.1736
 6924SOL    HW232235   2.035   0.861   3.870 -0.8146 -0.0994  1.5460
 6925SOL     OW32236   0.108   2.153  14.621 -0.1784  0.1467 -0.4744
 6925SOL    HW132237   0.113   2.059  14.639 -2.1970  0.3786  1.3029
 6925SOL    HW232238   0.037   2.158  14.557 -2.0142  2.2399  1.7306
 6926SOL     OW32239   0.490   1.531   3.025  0.6408 -0.4901  0.4359
 6926SOL    HW132240   0.419   1.593   3.009  2.8947  1.8986 -0.2993
 6926SOL    HW232241   0.463   1.445   2.994 -1.1333  0.5786 -0.9592
 6927SOL     OW32242   2.909   0.402  15.150 -0.1913 -0.1273  0.5719
 6927SOL    HW132243   2.858   0.330  15.187 -1.0337 -0.2607 -0.8565
 6927SOL    HW232244   2.831   0.451  15.123 -0.7488 -1.1037  0.4097
 6928SOL     OW32245   1.905   3.661   9.914 -1.5512  0.2993 -0.3970
 6928SOL    HW132246   1.876   3.740   9.959 -3.2893 -1.1360  1.0181
 6928SOL    HW232247   1.981   3.641   9.967 -1.7176  1.4241  0.2603
 6929SOL     OW32248   0.904   1.003   8.494  0.3750 -0.0196 -0.0247
 6929SOL    HW132249   0.918   0.998   8.588  0.0557 -0.6226 -0.0113
 6929SOL    HW232250   0.887   1.095   8.473 -0.8574  0.0281  1.1855
 6930SOL     OW32251   3.772   0.998   2.307  0.3019  0.0368  0.1539
 6930SOL    HW132252   3.780   0.907   2.280 -0.6351  0.3071 -1.0028
 6930SOL    HW232253   3.688   1.029   2.273  0.0207 -0.0903  0.7280
 6931SOL     OW32254   3.865   2.069   4.014 -0.6477 -0.3140  0.2518
 6931SOL    HW132255   3.925   2.075   3.940 -2.4479 -1.7509 -1.3499
 6931SOL    HW232256   3.819   1.988   3.990  1.4800 -1.5734  0.4338
 6932SOL     OW32257   1.861   0.338  11.805 -0.5543  0.1329 -0.0372
 6932SOL    HW132258   1.801   0.394  11.854 -2.4587 -0.7301 -1.3870
 6932SOL    HW232259   1.934   0.331  11.867  0.0845  2.1740 -0.5444
 6933SOL     OW32260   2.242   3.430   4.279  0.1852  0.3435  0.4628
 6933SOL    HW132261   2.331   3.443   4.246  0.7488  1.5177  2.4186
 6933SOL    HW232262   2.219   3.338   4.266  1.3605 -0.0617  1.1695
 6934SOL     OW32263   4.125   4.144   7.689  0.4590 -0.3052 -0.6792
 6934SOL    HW132264   4.109   4.238   7.689 -1.4561 -0.6261  0.5863
 6934SOL    HW232265   4.166   4.135   7.775 -1.6081 -1.2705  0.2171
 6935SOL     OW32266   2.597   1.919  16.332 -0.0986  0.0679 -0.4720
 6935SOL    HW132267   2.600   1.954  16.243  0.2572 -1.6868 -1.1567
 6935SOL    HW232268   2.572   1.996  16.383  1.9498  1.1105 -1.0358
 6936SOL     OW32269   2.418   4.247   5.239 -0.3144 -0.4009 -0.0776
 6936SOL    HW132270   2.462   4.325   5.207  0.7343 -0.3034  1.5810
 6936SOL    HW232271   2.442   4.182   5.173  1.5707  0.3143 -0.0979
 6937SOL     OW32272   2.426   1.301   7.415 -0.0825 -0.0426  0.0033
 6937SOL    HW132273   2.476   1.382   7.422  2.1206 -1.5296  1.3327
 6937SOL    HW232274   2.447   1.278   7.325 -0.9159  0.5928 -0.3575
 6938SOL     OW32275   3.805   3.304   6.662 -0.3802 -0.1989  0.2254
 6938SOL    HW132276   3.833   3.317   6.752  0.2014  1.3648 -0.1870
 6938SOL    HW232277   3.833   3.386   6.622 -1.1238  0.4453  1.0290
 6939SOL     OW32278   2.820   1.743  10.994 -0.2380  0.0457  0.0044
 6939SOL    HW132279   2.892   1.758  11.054  0.4533  0.2015 -0.8633
 6939SOL    HW232280   2.845   1.800  10.921  1.8958  0.1263  0.8093
 6940SOL     OW32281   1.572   2.624  15.792  0.6676  0.6947  0.2163
 6940SOL    HW132282   1.601   2.665  15.710 -0.5400 -2.3437 -1.7208
 6940SOL    HW232283   1.508   2.688  15.822  0.7520  0.1814  1.4822
 6941SOL     OW32284   0.220   0.662   3.888  0.0622  0.2071  0.3253
 6941SOL    HW132285   0.167   0.617   3.822  0.3222  0.3167  0.0407
 6941SOL    HW232286   0.218   0.603   3.962 -1.4570 -0.1423  0.0064
 6942SOL     OW32287   1.790   3.612   9.190  0.7303 -0.1403  0.0099
 6942SOL    HW132288   1.776   3.554   9.266 -1.2722  0.5977  0.2150
 6942SOL    HW232289   1.699   3.641   9.184  0.7768 -0.0932 -0.4210
 6943SOL     OW32290   2.267   0.693   8.134 -0.7185 -0.0452 -0.5755
 6943SOL    HW132291   2.234   0.714   8.222  1.8709  1.3009  0.0828
 6943SOL    HW232292   2.268   0.778   8.092 -0.2577 -0.2200 -0.9152
 6944SOL     OW32293   4.439   3.754   6.098  0.1804  0.3489  0.0597
 6944SOL    HW132294   4.344   3.747   6.105  0.3358  1.7326  3.4484
 6944SOL    HW232295   4.463   3.734   6.007 -0.7866 -2.4256  0.3928
 6945SOL     OW32296   3.625   4.356   4.625 -0.4080 -0.6465  0.0343
 6945SOL    HW132297   3.718   4.335   4.636 -0.9718 -3.3498 -0.3427
 6945SOL    HW232298   3.580   4.280   4.661  0.2049 -1.2404 -0.4372
 6946SOL     OW32299   0.115   4.348   5.426  0.8145  0.1904  0.1238
 6946SOL    HW132300   0.195   4.298   5.411  1.3751  1.1250  0.0182
 6946SOL    HW232301   0.080   4.315   5.509 -1.9505  0.3035 -0.9690
 6947SOL     OW32302   2.613   0.373  13.373  0.6148 -0.1522  0.1400
 6947SOL    HW132303   2.622   0.310  13.445  0.6689 -1.3644 -0.9276
 6947SOL    HW232304   2.616   0.310  13.301 -1.2748 -0.0492 -0.0363
 6948SOL     OW32305   2.769   3.080   8.656 -0.2723 -0.0054  0.2610
 6948SOL    HW132306   2.697   3.073   8.719  0.6764  0.2070  1.3802
 6948SOL    HW232307   2.720   3.136   8.595 -0.0581 -0.0740  0.0265
 6949SOL     OW32308   3.109   0.749  13.919  0.2701  0.1089 -0.1336
 6949SOL    HW132309   3.124   0.810  13.991  0.4559 -1.0744  0.8296
 6949SOL    HW232310   3.025   0.710  13.944  1.6901 -1.5623  2.1424
 6950SOL     OW32311   1.122   1.271  11.309 -0.3719 -0.3914  0.0340
 6950SOL    HW132312   1.095   1.216  11.382 -0.9114  1.0825  0.9426
 6950SOL    HW232313   1.097   1.360  11.332  0.8026 -0.1173  0.2673
 6951SOL     OW32314   3.696   4.172   1.931  0.1987  0.1387 -0.2260
 6951SOL    HW132315   3.702   4.104   1.998 -0.0288 -1.0517 -1.3898
 6951SOL    HW232316   3.604   4.199   1.939 -0.3665 -1.8996  0.3271
 6952SOL     OW32317   4.651   1.715  13.337  0.1138 -0.0631  0.1682
 6952SOL    HW132318   4.610   1.742  13.419  0.6009  1.2150 -0.0016
 6952SOL    HW232319   4.696   1.793  13.305  2.8381 -1.5745  0.3453
 6953SOL     OW32320   3.398   2.502   6.625 -0.3113  0.7237  0.2632
 6953SOL    HW132321   3.435   2.572   6.677  3.5320 -1.7522  0.8563
 6953SOL    HW232322   3.304   2.499   6.641 -0.4384  2.4097 -0.1395
 6954SOL     OW32323   2.616   0.365   9.776 -0.1125  0.2366  0.3914
 6954SOL    HW132324   2.568   0.447   9.788  0.9065  1.4281 -3.7710
 6954SOL    HW232325   2.560   0.307   9.828  1.4049 -2.2886 -0.8058
 6955SOL     OW32326   0.281   0.251   0.569  0.1867  0.0318  0.3317
 6955SOL    HW132327   0.216   0.303   0.521 -0.8121  0.0748  1.7357
 6955SOL    HW232328   0.346   0.317   0.594 -0.7527  1.4967 -1.0788
 6956SOL     OW32329   1.996   0.801   6.518  0.2353 -0.1191  0.2811
 6956SOL    HW132330   1.930   0.744   6.557 -0.2705 -0.2856 -0.8385
 6956SOL    HW232331   2.005   0.850   6.600 -0.6107  0.6470 -0.0952
 6957SOL     OW32332   4.355   2.786   5.177  0.0672 -0.3035 -0.1417
 6957SOL    HW132333   4.391   2.875   5.187 -1.1889  0.0161  1.5403
 6957SOL    HW232334   4.263   2.808   5.166  0.5836  2.4420  0.8693
 6958SOL     OW32335   3.860   4.232   2.581  0.5885 -0.0398 -0.2807
 6958SOL    HW132336   3.950   4.207   2.603  0.9736  1.9804  0.5106
 6958SOL    HW232337   3.881   4.318   2.544  2.9761  0.0610  1.2758
 6959SOL     OW32338   0.608   2.891   0.042 -0.1601 -0.7464 -0.0297
 6959SOL    HW132339   0.603   2.953  17.663  1.7807  2.1688  2.3297
 6959SOL    HW232340   0.651   2.820  17.688 -2.0081 -1.0560 -1.2294
 6960SOL     OW32341   0.005   1.764   2.573  0.0327 -0.5035 -0.4663
 6960SOL    HW132342   4.684   1.789   2.492 -0.0990  0.2428 -0.1609
 6960SOL    HW232343   0.005   1.848   2.619  0.3728 -0.7575  0.0121
 6961SOL     OW32344   3.773   3.841   4.735  0.6780  0.6705 -0.0968
 6961SOL    HW132345   3.866   3.849   4.711  0.4353 -0.8526 -1.4983
 6961SOL    HW232346   3.725   3.884   4.664 -1.6780 -2.7991 -0.5942
 6962SOL     OW32347   0.689   1.027   5.824 -0.0208 -0.0286 -0.2283
 6962SOL    HW132348   0.723   1.041   5.736  2.8916  2.9559  1.3888
 6962SOL    HW232349   0.763   1.062   5.874 -0.0188 -0.7074  0.2500
 6963SOL     OW32350   0.423   1.856   4.055 -0.1075  0.2611  0.2155
 6963SOL    HW132351   0.404   1.831   3.964  0.1769 -2.3644  0.8609
 6963SOL    HW232352   0.358   1.802   4.101  1.0717 -0.9591  0.4615
 6964SOL     OW32353   4.507   3.291   9.081  0.0038  0.1261  0.4830
 6964SOL    HW132354   4.591   3.265   9.120 -0.3921  1.8392  2.4866
 6964SOL    HW232355   4.450   3.221   9.112 -0.0362 -0.5730 -1.2075
 6965SOL     OW32356   1.485   2.756  16.473  0.8139  0.1111 -0.3949
 6965SOL    HW132357   1.478   2.755  16.378  0.7593  1.1059 -0.4050
 6965SOL    HW232358   1.520   2.667  16.472 -1.0610 -0.6408  0.7792
 6966SOL     OW32359   4.416   2.337   7.859 -0.5078  0.1625 -0.3698
 6966SOL    HW132360   4.472   2.273   7.815 -1.0837 -1.2022  0.8792
 6966SOL    HW232361   4.464   2.338   7.942  0.6130 -0.6528 -1.0030
 6967SOL     OW32362   3.109   1.390   8.998 -0.3817  0.1620 -0.1606
 6967SOL    HW132363   3.049   1.414   8.928  1.4595 -0.5966 -1.9863
 6967SOL    HW232364   3.177   1.457   8.996  0.5529 -0.7981 -0.8223
 6968SOL     OW32365   4.148   1.640   2.250  0.1423 -0.1279 -0.6215
 6968SOL    HW132366   4.198   1.566   2.284 -1.8049 -0.3333  1.7344
 6968SOL    HW232367   4.094   1.601   2.181 -3.3809  2.4148  0.6912
 6969SOL     OW32368   1.146   2.082   5.231 -0.8262 -0.4684  0.7744
 6969SOL    HW132369   1.130   2.176   5.223 -1.8124 -0.5243  2.2709
 6969SOL    HW232370   1.241   2.099   5.230 -0.8748 -0.2794 -3.6261
 6970SOL     OW32371   1.106   2.677  12.026  0.2456 -0.3543 -0.0462
 6970SOL    HW132372   1.089   2.723  12.108  3.2007 -2.3352  1.6768
 6970SOL    HW232373   1.195   2.711  12.012 -0.6892  2.3528  0.4901
 6971SOL     OW32374   3.722   0.840   5.667 -0.1752 -0.0993  0.4747
 6971SOL    HW132375   3.770   0.801   5.740 -0.9281  0.3250  1.1972
 6971SOL    HW232376   3.681   0.769   5.618 -0.6074  0.4384  0.0505
 6972SOL     OW32377   4.142   4.284   0.776  0.4340 -0.5288 -0.6366
 6972SOL    HW132378   4.151   4.191   0.755 -1.7204 -1.0652  0.8096
 6972SOL    HW232379   4.109   4.287   0.866 -0.7681 -1.4951 -1.0351
 6973SOL     OW32380   3.239   1.660   8.651  0.1831  0.3005 -0.0418
 6973SOL    HW132381   3.182   1.624   8.583  0.5436 -0.5184  0.0948
 6973SOL    HW232382   3.179   1.715   8.701 -0.7976 -1.5965  0.8700
 6974SOL     OW32383   4.182   1.003   6.378 -0.3232 -0.0438 -0.4275
 6974SOL    HW132384   4.270   1.038   6.390 -1.2248  1.9978  0.2837
 6974SOL    HW232385   4.203   0.910   6.366 -0.9804 -0.0451 -1.5502
 6975SOL     OW32386   2.519   4.225   6.078 -0.3031 -0.4845  0.1790
 6975SOL    HW132387   2.463   4.299   6.101 -2.1759 -1.2103 -2.0805
 6975SOL    HW232388   2.506   4.164   6.151 -0.6604  1.3744  1.6651
 6976SOL     OW32389   1.414   3.502   8.310  0.0143 -0.7588 -0.3613
 6976SOL    HW132390   1.461   3.456   8.379 -0.1682 -1.6042 -0.8052
 6976SOL    HW232391   1.360   3.564   8.360  0.5311 -0.6026 -0.0018
 6977SOL     OW32392   3.947   2.337   5.524 -0.2640 -0.0158 -0.0600
 6977SOL    HW132393   3.876   2.306   5.468  0.0489 -2.8649  1.0983
 6977SOL    HW232394   3.932   2.431   5.534  1.8248  0.4860 -1.6327
 6978SOL     OW32395   3.651   4.650  16.806 -0.2566 -0.0612 -0.1293
 6978SOL    HW132396   3.705   4.660  16.728  0.1417 -0.7328  0.0628
 6978SOL    HW232397   3.638   4.556  16.811  2.3064 -0.3913  0.5548
 6979SOL     OW32398   1.673   3.468  16.797 -0.2545  0.1755 -0.1871
 6979SOL    HW132399   1.668   3.540  16.734 -1.1477  0.8102  0.6003
 6979SOL    HW232400   1.652   3.509  16.881 -0.9246  1.7837 -1.1353
 6980SOL     OW32401   4.025   4.361  15.039 -0.5772  0.5666 -0.2640
 6980SOL    HW132402   4.118   4.380  15.031 -0.3406 -0.3890  0.1490
 6980SOL    HW232403   4.005   4.398  15.125  0.5973  2.0907 -0.6502
 6981SOL     OW32404   2.086   3.286  12.112 -0.3561 -0.0480  0.0267
 6981SOL    HW132405   1.997   3.281  12.148  0.2693 -3.0425  1.1611
 6981SOL    HW232406   2.110   3.196  12.088  2.0564  0.1400  1.7944
 6982SOL     OW32407   0.387   2.359   8.924  0.2165  0.0669 -0.2114
 6982SOL    HW132408   0.383   2.305   9.004  1.3565 -1.2165 -1.0186
 6982SOL    HW232409   0.293   2.371   8.912  0.0462  0.9921  2.0562
 6983SOL     OW32410   2.952   4.652  14.586 -0.0206 -0.3033  0.5032
 6983SOL    HW132411   2.953   4.573  14.640  0.4967 -0.2450  0.5727
 6983SOL    HW232412   2.948   4.620  14.496  1.7300  0.4576  0.1522
 6984SOL     OW32413   2.079   2.324   3.532  0.6431 -0.1627 -0.0903
 6984SOL    HW132414   2.132   2.299   3.456  1.3084  0.3442  0.2020
 6984SOL    HW232415   2.000   2.277   3.504  0.3420 -0.9472  2.0930
 6985SOL     OW32416   2.648   0.221   6.275 -0.3928 -0.2890  0.0468
 6985SOL    HW132417   2.664   0.211   6.369  0.7686 -0.5496 -0.1861
 6985SOL    HW232418   2.552   0.218   6.269 -0.3034 -0.3688 -1.2647
 6986SOL     OW32419   4.598   4.585   1.876 -0.2931 -0.2456  0.3568
 6986SOL    HW132420   4.678   4.631   1.903 -0.1581  0.1490 -0.6870
 6986SOL    HW232421   4.529   4.635   1.919 -1.4358 -0.4700 -1.1984
 6987SOL     OW32422   3.787   0.682   6.590 -0.0537  0.3735 -0.1722
 6987SOL    HW132423   3.868   0.693   6.638 -0.2916  0.6699  0.1633
 6987SOL    HW232424   3.713   0.681   6.652  2.6435 -0.1420  3.0280
 6988SOL     OW32425   3.273   0.480   4.181 -0.1336  0.1775 -0.0272
 6988SOL    HW132426   3.331   0.435   4.243 -1.0214 -2.3338 -1.0272
 6988SOL    HW232427   3.304   0.434   4.103 -0.9980 -1.6385  0.6913
 6989SOL     OW32428   1.969   2.723  17.617  0.0139 -0.1622 -0.3990
 6989SOL    HW132429   1.918   2.711  17.537  0.8116  0.7509 -1.0482
 6989SOL    HW232430   2.024   2.797  17.591 -0.2885  0.4602  0.7148
 6990SOL     OW32431   3.635   3.510  17.041 -0.0741 -0.5257  0.3223
 6990SOL    HW132432   3.570   3.562  16.993 -0.6845 -1.0070  0.6375
 6990SOL    HW232433   3.581   3.434  17.060  0.9418 -1.3091  0.0445
 6991SOL     OW32434   4.655   2.359   6.474 -0.0874 -0.3668 -0.2152
 6991SOL    HW132435   4.633   2.364   6.567 -1.5232 -0.0992 -0.5780
 6991SOL    HW232436   4.572   2.331   6.437 -0.2246  0.4857 -0.5483
 6992SOL     OW32437   3.134   2.796   1.512 -0.0909 -0.5740 -0.1773
 6992SOL    HW132438   3.195   2.846   1.566  0.3961  0.9211 -2.0942
 6992SOL    HW232439   3.192   2.730   1.473  1.4882 -0.3028  1.7107
 6993SOL     OW32440   3.951   1.866   4.876 -0.2741  0.2201  0.1205
 6993SOL    HW132441   3.857   1.861   4.861 -0.2065 -1.3257  0.1487
 6993SOL    HW232442   3.986   1.839   4.791  1.2774 -0.3862  0.9463
 6994SOL     OW32443   3.248   3.686   4.782  0.1330 -0.8179  0.3164
 6994SOL    HW132444   3.280   3.600   4.811 -1.8643 -1.4575  0.5955
 6994SOL    HW232445   3.295   3.744   4.842  2.8424 -1.7260 -0.9394
 6995SOL     OW32446   3.500   0.718  11.941  0.2160  0.1007  0.1907
 6995SOL    HW132447   3.450   0.695  12.020  1.4691 -1.3382  0.5560
 6995SOL    HW232448   3.431   0.715  11.875  0.4639  1.4106 -0.1297
 6996SOL     OW32449   4.568   1.181   4.915  0.2334  0.0783  0.5810
 6996SOL    HW132450   4.567   1.159   4.822  3.2196 -2.7403  1.2341
 6996SOL    HW232451   4.661   1.180   4.936  0.6269  2.5161 -1.0430
 6997SOL     OW32452   4.675   1.926  17.459 -0.1932 -0.4232  0.4275
 6997SOL    HW132453   4.636   1.858  17.514 -1.0286  1.0375  1.6518
 6997SOL    HW232454   4.634   2.008  17.487  0.1334 -0.8432  2.1663
 6998SOL     OW32455   2.168   2.562   7.002 -0.2303  0.8769  0.4133
 6998SOL    HW132456   2.109   2.637   7.006  0.5161  1.6095 -2.5219
 6998SOL    HW232457   2.229   2.570   7.075  0.5948 -2.3464  0.0971
 6999SOL     OW32458   2.320   1.178   5.040 -0.1676  0.6074 -0.1795
 6999SOL    HW132459   2.336   1.238   5.113  3.3559 -1.7137  0.9880
 6999SOL    HW232460   2.407   1.177   5.000 -0.4894  0.1615 -0.8492
 7000SOL     OW32461   2.512   3.821   3.654  0.3458 -0.4736 -0.3876
 7000SOL    HW132462   2.516   3.865   3.739 -1.1959  2.4789 -1.8006
 7000SOL    HW232463   2.418   3.809   3.640  0.2389  1.3089 -1.2611
 7001SOL     OW32464   3.482   3.163  10.261 -0.2570 -0.6821  0.4015
 7001SOL    HW132465   3.559   3.203  10.302 -1.8684  1.6289  1.1396
 7001SOL    HW232466   3.412   3.227  10.269 -0.8995 -1.1272 -1.5874
 7002SOL     OW32467   1.323   0.371  12.741 -0.1748  0.1138 -0.0230
 7002SOL    HW132468   1.410   0.408  12.755  0.2315 -1.0056  0.3972
 7002SOL    HW232469   1.344   0.316  12.665 -0.9536  0.4726 -0.4966
 7003SOL     OW32470   4.668   1.144   8.623 -0.2839  0.1602 -0.0131
 7003SOL    HW132471   4.664   1.231   8.661  0.1627  0.4417 -0.6095
 7003SOL    HW232472   4.657   1.163   8.529 -1.8251 -1.9913 -0.2751
 7004SOL     OW32473   1.322   2.902   5.996 -0.0839  0.1921  0.2999
 7004SOL    HW132474   1.236   2.906   6.039 -0.0658 -0.1692  0.3768
 7004SOL    HW232475   1.356   2.824   6.040  0.9712  1.1652  1.1932
 7005SOL     OW32476   1.693   2.571  13.944  0.2240  0.9936 -0.2361
 7005SOL    HW132477   1.708   2.645  14.002 -2.1017  0.2092  1.3595
 7005SOL    HW232478   1.723   2.600  13.858  0.1277  0.1951 -0.5356
 7006SOL     OW32479   1.718   0.171   1.574 -0.5178 -0.0991 -0.3117
 7006SOL    HW132480   1.727   0.182   1.668 -0.3633  2.2277 -0.6018
 7006SOL    HW232481   1.696   0.258   1.540 -0.7106  0.0025  0.0737
 7007SOL     OW32482   1.585   0.455  12.769 -0.3562  0.1137 -0.4730
 7007SOL    HW132483   1.655   0.455  12.834 -0.2143 -0.1398 -0.6254
 7007SOL    HW232484   1.642   0.465  12.693 -0.5356 -0.0071 -0.6253
 7008SOL     OW32485   0.751   2.474   5.062  0.2719 -0.3176  0.3108
 7008SOL    HW132486   0.682   2.410   5.075  0.4591 -1.0806 -2.3993
 7008SOL    HW232487   0.705   2.524   4.995  0.4564 -0.3188  0.1809
 7009SOL     OW32488   3.421   4.450  13.175  0.1724  0.2843  0.7671
 7009SOL    HW132489   3.386   4.375  13.126 -1.1993  0.8841  0.8133
 7009SOL    HW232490   3.392   4.519  13.115  2.5255 -1.9594 -2.9949
 7010SOL     OW32491   3.775   2.060   7.649  0.2151 -0.4128 -0.0694
 7010SOL    HW132492   3.702   2.090   7.594 -0.0650  0.7579  0.9635
 7010SOL    HW232493   3.836   2.024   7.584 -0.4025 -2.5212  0.5012
 7011SOL     OW32494   1.010   2.242   8.770  0.7365 -0.7533  0.3550
 7011SOL    HW132495   1.024   2.318   8.827  0.1252 -0.7381  0.4808
 7011SOL    HW232496   0.947   2.191   8.820  0.4900 -0.6943  0.1067
 7012SOL     OW32497   1.606   4.428   4.127  0.4163  0.4825  0.0611
 7012SOL    HW132498   1.530   4.380   4.161  0.6894 -0.3397 -0.4753
 7012SOL    HW232499   1.570   4.515   4.114  1.7166  0.9823 -0.1575
 7013SOL     OW32500   4.529   4.651  12.136  0.1124 -0.2483  0.7769
 7013SOL    HW132501   4.477   0.008  12.124 -0.1727 -0.4263  0.8404
 7013SOL    HW232502   4.604   4.703  12.167  1.3725 -1.0660 -0.9327
 7014SOL     OW32503   0.574   0.017  16.818 -0.6109 -0.1402 -0.2658
 7014SOL    HW132504   0.479   0.005  16.825 -0.7574 -0.0290 -2.2597
 7014SOL    HW232505   0.606   4.658  16.780  1.5304  0.4852  0.1816
 7015SOL     OW32506   2.051   4.570   2.590 -0.7991 -0.0089 -0.5028
 7015SOL    HW132507   2.094   4.487   2.606 -0.2283  0.4461  0.2679
 7015SOL    HW232508   2.048   4.577   2.494 -2.3430 -1.6898 -0.5745
 7016SOL     OW32509   0.302   0.253  17.433  0.1374  0.3252  0.2715
 7016SOL    HW132510   0.287   0.174  17.485  1.5657 -0.5855 -0.6884
 7016SOL    HW232511   0.313   0.221  17.343  0.1898  2.8606 -0.6136
 7017SOL     OW32512   3.165   1.518  16.264 -0.6080  0.3647  0.1009
 7017SOL    HW132513   3.089   1.461  16.269 -0.3273 -0.0968 -0.9737
 7017SOL    HW232514   3.127   1.597  16.303  0.4417  1.6607 -1.4685
 7018SOL     OW32515   3.542   0.044   4.814  0.2014  0.4207  0.1020
 7018SOL    HW132516   3.498   4.708   4.752  1.0294 -1.2204  1.0514
 7018SOL    HW232517   3.485   0.117   4.836 -3.0691 -1.8631 -0.6830
 7019SOL     OW32518   4.135   3.766   5.158  0.4247  0.0009  0.0044
 7019SOL    HW132519   4.204   3.816   5.114 -1.1500  1.5274 -0.7675
 7019SOL    HW232520   4.172   3.740   5.242 -0.6317  0.7997  0.7226
 7020SOL     OW32521   2.455   3.291   6.386 -0.7632  0.2472 -0.2187
 7020SOL    HW132522   2.483   3.271   6.297  2.7273  0.5041  0.8148
 7020SOL    HW232523   2.534   3.326   6.428 -2.2649  0.1282  2.7525
 7021SOL     OW32524   0.063   3.238   2.023  0.3907 -0.2339 -0.0796
 7021SOL    HW132525   0.032   3.173   2.086  0.3469 -1.5034 -1.4200
 7021SOL    HW232526   0.105   3.297   2.086  1.7957 -1.4304  0.0953
 7022SOL     OW32527   1.461   1.838   6.361  0.6575  0.0411 -0.4067
 7022SOL    HW132528   1.459   1.879   6.275  1.5357  2.1893  0.6129
 7022SOL    HW232529   1.398   1.885   6.415  0.5902 -1.9200  1.2246
 7023SOL     OW32530   1.578   0.080  16.137  0.0620  0.3600 -0.1693
 7023SOL    HW132531   1.573   0.104  16.230  0.5755 -0.7965  0.1628
 7023SOL    HW232532   1.665   0.040  16.133 -0.8830 -1.8735  1.2523
 7024SOL     OW32533   2.726   0.587  17.019 -0.4901  0.7171 -0.1877
 7024SOL    HW132534   2.696   0.498  16.999  0.9828 -0.1353  1.3790
 7024SOL    HW232535   2.678   0.603  17.100  1.2849 -1.9552  1.4109
 7025SOL     OW32536   0.081   2.524   8.789  0.3715  0.4209  0.1925
 7025SOL    HW132537   0.015   2.539   8.722 -0.9026 -0.0241  1.3522
 7025SOL    HW232538   0.098   2.434   8.759 -1.0308 -0.5684  2.3498
 7026SOL     OW32539   1.353   3.355   6.594 -0.0325  0.8190 -0.4056
 7026SOL    HW132540   1.435   3.305   6.585 -0.2187  0.7496 -1.7576
 7026SOL    HW232541   1.326   3.365   6.503  2.0857 -2.1059 -1.3753
 7027SOL     OW32542   3.906   0.197   3.740 -0.1125  0.5918 -0.3936
 7027SOL    HW132543   3.934   0.288   3.745 -1.2827  0.9460 -0.3751
 7027SOL    HW232544   3.848   0.205   3.664  0.2891 -0.6691 -0.8409
 7028SOL     OW32545   3.331   2.432   2.587 -0.4470  0.2130  0.4914
 7028SOL    HW132546   3.346   2.521   2.553 -1.7775  0.6101  0.9053
 7028SOL    HW232547   3.365   2.439   2.676 -0.3473  3.5117  0.2194
 7029SOL     OW32548   2.683   1.502  13.655 -0.2058 -0.3113 -0.4684
 7029SOL    HW132549   2.703   1.545  13.571  2.1126  1.1728  0.8196
 7029SOL    HW232550   2.589   1.504  13.638 -0.0312  1.8390 -1.3133
 7030SOL     OW32551   3.229   1.010   1.063  0.4233  0.6019  0.2652
 7030SOL    HW132552   3.296   0.943   1.072 -0.1346 -0.1313 -1.0866
 7030SOL    HW232553   3.275   1.087   1.097 -0.1084  0.8892  0.3322
 7031SOL     OW32554   0.086   1.495  14.978  0.4064  0.2118  0.4711
 7031SOL    HW132555   0.050   1.464  15.062  1.5021 -0.1625  0.8165
 7031SOL    HW232556   0.018   1.472  14.915  0.9013 -0.1038  0.0522
 7032SOL     OW32557   1.811   4.231  15.879 -0.3077  0.4264  0.7981
 7032SOL    HW132558   1.828   4.201  15.789  0.4572 -0.9139  1.3926
 7032SOL    HW232559   1.717   4.223  15.894 -1.0169  3.8618 -1.9879
 7033SOL     OW32560   1.784   2.819  15.643  0.1575  0.2682  0.0319
 7033SOL    HW132561   1.869   2.818  15.598  0.4896 -1.5830  0.6851
 7033SOL    HW232562   1.782   2.739  15.696  1.1991 -0.2964 -0.7670
 7034SOL     OW32563   0.421   2.598   2.252 -0.5767  0.4509 -0.4249
 7034SOL    HW132564   0.357   2.560   2.311  0.2115  0.5386  0.5028
 7034SOL    HW232565   0.501   2.547   2.266 -0.0473  1.5312  0.5334
 7035SOL     OW32566   3.982   0.234   5.911  0.6757 -0.1581  0.2658
 7035SOL    HW132567   4.054   0.204   5.966  1.4290  1.8086  0.3607
 7035SOL    HW232568   3.912   0.242   5.975 -0.8166 -0.9599 -1.2487
 7036SOL     OW32569   2.952   2.941  17.501 -0.3148  0.1582 -0.0472
 7036SOL    HW132570   2.856   2.943  17.501 -0.3330 -1.0041 -0.2166
 7036SOL    HW232571   2.967   2.854  17.537  0.2518  0.4851  0.4984
 7037SOL     OW32572   2.095   0.996   2.725  0.6171 -0.0435 -0.2444
 7037SOL    HW132573   2.159   0.965   2.789  1.0576  2.7641  0.6784
 7037SOL    HW232574   2.151   1.019   2.651  3.9081  1.1742  2.6359
 7038SOL     OW32575   3.781   1.227  11.717 -0.1375 -0.0313 -0.2544
 7038SOL    HW132576   3.745   1.168  11.652 -0.2420  0.9258 -1.0651
 7038SOL    HW232577   3.859   1.178  11.741  1.7767  2.8783 -0.4935
 7039SOL     OW32578   3.667   2.588   2.411 -0.0080  0.6166 -0.0216
 7039SOL    HW132579   3.665   2.567   2.318  0.7119 -0.3561  0.1738
 7039SOL    HW232580   3.729   2.520   2.438 -0.0832  0.7594  0.5108
 7040SOL     OW32581   3.070   1.773   1.973 -0.4134 -0.3634  0.4925
 7040SOL    HW132582   3.023   1.855   1.992 -1.0675 -1.0708  1.8737
 7040SOL    HW232583   3.160   1.799   1.993 -1.1371  2.4104  0.2592
 7041SOL     OW32584   3.728   4.381   9.833  0.1742  0.0100  0.4239
 7041SOL    HW132585   3.665   4.351   9.898  2.3089 -1.0942  2.0089
 7041SOL    HW232586   3.788   4.307   9.846  0.6522  0.3634  0.2482
 7042SOL     OW32587   4.229   2.219   6.585 -0.9260  0.1505  0.4214
 7042SOL    HW132588   4.148   2.270   6.592 -1.1292 -0.0505 -0.4579
 7042SOL    HW232589   4.286   2.242   6.658 -1.5629  2.5438  0.1607
 7043SOL     OW32590   0.514   0.886   2.992 -0.9160  0.2446 -0.5803
 7043SOL    HW132591   0.497   0.874   3.085  0.3964 -2.1533 -0.6655
 7043SOL    HW232592   0.431   0.854   2.956 -3.1371  2.4597  2.5157
 7044SOL     OW32593   0.684   0.249  17.349 -0.2002  0.2697  0.2609
 7044SOL    HW132594   0.653   0.188  17.416  0.7794 -0.9413 -0.3947
 7044SOL    HW232595   0.764   0.285  17.387 -1.1897  2.4414  0.2958
 7045SOL     OW32596   2.211   1.929   3.028  0.0587  0.0213  0.1306
 7045SOL    HW132597   2.225   1.847   2.979 -0.7576  0.1447 -0.2987
 7045SOL    HW232598   2.132   1.961   2.985  0.5451 -0.1634 -0.9072
 7046SOL     OW32599   1.543   0.839   3.229  0.0453  0.7615 -0.0718
 7046SOL    HW132600   1.563   0.931   3.243 -1.5484  0.7816  2.1482
 7046SOL    HW232601   1.627   0.801   3.204 -0.2153 -0.1871  0.4835
 7047SOL     OW32602   2.796   3.722   2.835  0.8163  0.1401  0.0047
 7047SOL    HW132603   2.712   3.683   2.863  0.9755 -1.0400 -1.1729
 7047SOL    HW232604   2.857   3.652   2.859 -0.8745 -1.8890 -1.5881
 7048SOL     OW32605   3.792   1.509   0.423 -0.2057 -0.5421 -0.3992
 7048SOL    HW132606   3.830   1.448   0.486 -0.6803 -0.1756  0.2413
 7048SOL    HW232607   3.817   1.468   0.340  1.8301  0.5928 -0.3684
 7049SOL     OW32608   0.355   0.864  14.914 -0.0867 -0.1063  0.3284
 7049SOL    HW132609   0.399   0.919  14.849 -0.0625  0.3130  0.7046
 7049SOL    HW232610   0.407   0.878  14.993  0.7677  3.0107 -0.7708
 7050SOL     OW32611   0.766   1.734   0.509 -0.6214  0.0310 -0.3055
 7050SOL    HW132612   0.776   1.811   0.564 -1.0385 -0.9633  1.1772
 7050SOL    HW232613   0.831   1.752   0.442 -0.3587  1.1184  0.2496
 7051SOL     OW32614   4.024   2.497   3.937  0.1547 -0.3386 -0.9231
 7051SOL    HW132615   4.105   2.449   3.956  0.6461  1.1992  0.9569
 7051SOL    HW232616   4.055   2.548   3.862 -1.7519 -0.0237 -1.4920
 7052SOL     OW32617   3.266   3.069   5.333 -0.3728  0.0925 -0.3567
 7052SOL    HW132618   3.205   3.094   5.263  1.4458  1.3788 -1.4974
 7052SOL    HW232619   3.341   3.027   5.290  0.4530  1.1480  0.0630
 7053SOL     OW32620   2.850   1.743   4.094  0.0437  0.2900 -0.1214
 7053SOL    HW132621   2.911   1.814   4.078  1.1768 -0.4070  1.1338
 7053SOL    HW232622   2.894   1.706   4.170 -2.9452 -1.3814  0.8232
 7054SOL     OW32623   2.896   1.744   5.630 -1.0728 -0.1046  0.6418
 7054SOL    HW132624   2.955   1.668   5.624  3.4566  3.2698  2.5636
 7054SOL    HW232625   2.939   1.808   5.575 -1.9317 -0.8967 -0.9425
 7055SOL     OW32626   3.407   3.379  16.954  0.0029  0.4953  0.6298
 7055SOL    HW132627   3.347   3.326  17.006  0.4425 -0.2903  0.3558
 7055SOL    HW232628   3.353   3.457  16.962  1.5428  1.6639 -0.2537
 7056SOL     OW32629   3.750   0.534   7.841 -0.1565  0.6687  0.1707
 7056SOL    HW132630   3.805   0.468   7.884 -1.7833 -2.2703 -2.2914
 7056SOL    HW232631   3.683   0.552   7.907  0.0257  1.9328  0.0258
 7057SOL     OW32632   0.952   1.648   7.614  0.3522 -0.0276 -0.0322
 7057SOL    HW132633   1.025   1.689   7.569 -0.6442  0.7903 -0.8963
 7057SOL    HW232634   0.935   1.574   7.555 -2.8089  0.5349  0.1981
 7058SOL     OW32635   3.189   3.077   7.610  0.3299 -0.0788 -0.6417
 7058SOL    HW132636   3.253   3.138   7.573  0.1665  0.5279  0.0766
 7058SOL    HW232637   3.112   3.131   7.629 -1.5437 -1.6921 -3.5059
 7059SOL     OW32638   2.426   0.309  10.642  0.1810 -0.0924 -0.2780
 7059SOL    HW132639   2.446   0.403  10.644 -0.2203 -0.0075 -0.2341
 7059SOL    HW232640   2.443   0.284  10.552 -1.8583  0.3742 -0.7931
 7060SOL     OW32641   1.778   4.545  15.849 -0.4904  0.0126  0.0388
 7060SOL    HW132642   1.780   4.595  15.931 -2.1174 -1.0256  0.7175
 7060SOL    HW232643   1.815   4.462  15.879  1.4019  0.8344 -0.0187
 7061SOL     OW32644   0.327   2.837   6.795 -0.3663  0.3677  0.0602
 7061SOL    HW132645   0.336   2.842   6.890 -1.9052  0.2949  0.2107
 7061SOL    HW232646   0.232   2.836   6.792 -0.3762 -0.7171  0.6591
 7062SOL     OW32647   1.310   3.816  12.213  0.0331  0.5549  0.0677
 7062SOL    HW132648   1.389   3.793  12.261 -1.4176 -1.4564  1.4922
 7062SOL    HW232649   1.272   3.888  12.263  0.9013 -1.2309  3.3087
 7063SOL     OW32650   2.798   3.444  15.099 -0.4254  0.2498  0.0320
 7063SOL    HW132651   2.840   3.525  15.071  0.3519 -0.4198 -0.7429
 7063SOL    HW232652   2.850   3.379  15.052 -1.9029 -0.9187  0.0065
 7064SOL     OW32653   1.007   0.657   3.289 -0.4063  0.4255 -0.5874
 7064SOL    HW132654   1.044   0.744   3.271  1.4275 -0.0091  1.0403
 7064SOL    HW232655   0.941   0.656   3.220 -0.4992  0.1063 -0.4909
 7065SOL     OW32656   1.256   3.946   2.269 -0.3428 -0.2037  0.4057
 7065SOL    HW132657   1.325   3.991   2.219 -0.7245  0.1865  0.2315
 7065SOL    HW232658   1.296   3.860   2.279  0.1531  0.2277  2.0627
 7066SOL     OW32659   1.933   4.338   3.324 -0.2498  0.0522  0.0986
 7066SOL    HW132660   1.866   4.370   3.385  0.0813  1.2376 -0.1721
 7066SOL    HW232661   1.874   4.286   3.269 -0.6491 -1.2796  1.7569
 7067SOL     OW32662   0.760   4.167   0.012 -0.6197  0.3724  0.5861
 7067SOL    HW132663   0.798   4.082   0.034 -0.0248  0.5693  0.3215
 7067SOL    HW232664   0.681   4.144  17.657 -0.0943  1.2494 -0.6755
 7068SOL     OW32665   0.033   3.687   0.119  0.3952  0.4088  0.3607
 7068SOL    HW132666   0.033   3.593   0.135  0.2262  0.4164  0.4020
 7068SOL    HW232667   0.107   3.695   0.059  0.6179  0.4395  0.6392
 7069SOL     OW32668   4.285   0.945   4.645 -0.6302  0.1445  0.2556
 7069SOL    HW132669   4.199   0.928   4.682  0.3266  0.0472  2.4386
 7069SOL    HW232670   4.267   0.962   4.552 -0.6713 -0.6738  0.1146
 7070SOL     OW32671   2.603   0.864   0.525 -0.3516 -0.1550  0.1266
 7070SOL    HW132672   2.593   0.865   0.429 -3.0065  2.0528  0.4207
 7070SOL    HW232673   2.564   0.948   0.546  1.5112  0.4130  1.3038
 7071SOL     OW32674   3.492   0.391   7.179 -0.1166  0.6858  0.1616
 7071SOL    HW132675   3.464   0.308   7.140  0.0851  1.0830 -0.8392
 7071SOL    HW232676   3.475   0.370   7.271 -0.2039  2.7245  0.6027
 7072SOL     OW32677   0.835   0.266   6.013 -0.5628  0.4587  0.0763
 7072SOL    HW132678   0.827   0.270   5.917 -0.7877  0.0203  0.0780
 7072SOL    HW232679   0.753   0.314   6.028 -1.9238 -1.3303 -1.6242
 7073SOL     OW32680   0.523   4.345   8.142  0.7753  0.0690  0.1109
 7073SOL    HW132681   0.612   4.374   8.162 -0.1674  2.0143  1.5069
 7073SOL    HW232682   0.509   4.301   8.226 -1.6851  1.2009  0.2777
 7074SOL     OW32683   3.887   0.478   0.375  0.0856  0.3227 -0.0488
 7074SOL    HW132684   3.948   0.406   0.391  2.0436  2.4173  1.7312
 7074SOL    HW232685   3.802   0.435   0.390 -0.7498  2.3904  1.0612
 7075SOL     OW32686   2.305   3.756   7.202  0.2861  0.1235 -0.3256
 7075SOL    HW132687   2.372   3.801   7.149  0.6886 -0.9824 -0.7705
 7075SOL    HW232688   2.266   3.705   7.131 -2.2578  0.0382  1.1604
 7076SOL     OW32689   1.729   0.308   7.999 -0.2051 -0.4296 -0.1257
 7076SOL    HW132690   1.781   0.298   7.919 -0.6882 -1.8983 -0.2569
 7076SOL    HW232691   1.791   0.341   8.064  0.9842 -0.5838 -1.2021
 7077SOL     OW32692   1.512   2.951  14.563 -0.0603  0.1206  0.0021
 7077SOL    HW132693   1.462   2.900  14.626  0.6109  0.1111  0.5183
 7077SOL    HW232694   1.602   2.936  14.591  0.2493  0.0339 -1.0471
 7078SOL     OW32695   3.276   4.296  14.953  0.4607  0.5325  0.6338
 7078SOL    HW132696   3.261   4.387  14.926 -3.4462  0.0902  1.3393
 7078SOL    HW232697   3.349   4.295  15.015  1.7821 -0.7975 -0.9296
 7079SOL     OW32698   4.458   1.533   7.752 -0.0227  0.1534  0.2212
 7079SOL    HW132699   4.403   1.527   7.830  0.3668 -0.4083  0.4498
 7079SOL    HW232700   4.432   1.452   7.707 -0.2082  0.6757 -0.6229
 7080SOL     OW32701   3.789   2.206   0.135  0.1954 -0.3253 -0.2243
 7080SOL    HW132702   3.700   2.174   0.149 -0.9696  1.7081 -3.2286
 7080SOL    HW232703   3.816   2.243   0.220  0.1579 -1.5856  0.3429
 7081SOL     OW32704   0.396   2.375   1.209 -0.4252  0.3500  0.1291
 7081SOL    HW132705   0.340   2.447   1.181 -3.1786 -1.6190  0.6119
 7081SOL    HW232706   0.336   2.335   1.272 -0.6023 -1.8491 -1.4353
 7082SOL     OW32707   2.174   2.807   8.549  0.4216  0.1300 -0.4083
 7082SOL    HW132708   2.084   2.775   8.540  1.0782 -1.4006 -1.4700
 7082SOL    HW232709   2.230   2.745   8.594  1.6930  1.3306 -0.3527
 7083SOL     OW32710   3.076   0.347   3.752  0.3448  0.9309  0.0040
 7083SOL    HW132711   3.002   0.289   3.768  0.1266  0.9198 -1.0453
 7083SOL    HW232712   3.150   0.287   3.762  1.3564  2.3532  0.9925
 7084SOL     OW32713   2.168   1.209   8.715 -0.2831 -0.6479 -0.1772
 7084SOL    HW132714   2.160   1.260   8.795  0.5822  0.9158 -1.0743
 7084SOL    HW232715   2.081   1.218   8.674  0.3028  3.8549 -0.4114
 7085SOL     OW32716   1.493   0.270   7.898 -0.5116  0.3115 -0.5641
 7085SOL    HW132717   1.425   0.332   7.924 -0.1374  0.4009  0.2025
 7085SOL    HW232718   1.575   0.292   7.943 -0.3443 -1.0665 -0.1700
 7086SOL     OW32719   0.098   2.917   5.927 -0.2947 -0.1135 -0.4458
 7086SOL    HW132720   0.029   2.866   5.970 -0.2791  0.4657  0.2781
 7086SOL    HW232721   0.175   2.915   5.984 -0.3780 -2.3981 -0.4159
 7087SOL     OW32722   4.038   1.534   1.517  0.2898  0.2415  0.2993
 7087SOL    HW132723   4.081   1.539   1.432  1.0087 -0.0037  0.6430
 7087SOL    HW232724   3.996   1.618   1.532 -0.2350  0.0489 -0.0647
 7088SOL     OW32725   2.435   4.507   9.176 -0.0241 -0.0895 -0.3155
 7088SOL    HW132726   2.420   4.540   9.088  0.3281 -2.1622 -1.1473
 7088SOL    HW232727   2.530   4.494   9.177  0.0615  0.5089 -0.4894
 7089SOL     OW32728   1.374   2.429   5.084  0.0428 -0.1790  0.1586
 7089SOL    HW132729   1.333   2.380   5.013  1.3172 -1.2133  0.1439
 7089SOL    HW232730   1.334   2.385   5.160  0.8818 -3.5454 -1.3191
 7090SOL     OW32731   1.353   1.364   4.236 -0.5073 -0.0980  0.7411
 7090SOL    HW132732   1.445   1.338   4.241 -0.5406 -0.4810 -0.6210
 7090SOL    HW232733   1.317   1.283   4.271 -1.8492 -0.1142 -0.7204
 7091SOL     OW32734   4.479   2.856  14.014  0.4886  0.8397 -0.1376
 7091SOL    HW132735   4.449   2.932  13.963 -2.1345 -0.2979 -0.3213
 7091SOL    HW232736   4.392   2.827  14.043  0.6493  0.3579 -0.1465
 7092SOL     OW32737   2.847   2.580   6.791  0.4892 -0.4267  0.0963
 7092SOL    HW132738   2.892   2.510   6.838  2.0347 -0.7555 -1.9230
 7092SOL    HW232739   2.779   2.523   6.757 -0.2255 -0.5847  1.7593
 7093SOL     OW32740   2.501   0.537   2.816  0.4974  0.1063 -0.5915
 7093SOL    HW132741   2.437   0.476   2.853  1.2916 -1.8251 -2.3922
 7093SOL    HW232742   2.446   0.604   2.777  0.3294 -0.0824 -0.6820
 7094SOL     OW32743   0.997   1.035   8.761  0.0403  0.2562 -0.7328
 7094SOL    HW132744   1.075   1.086   8.737 -0.2722  1.8538  1.7349
 7094SOL    HW232745   1.019   0.996   8.845 -1.4696 -0.3429 -0.6317
 7095SOL     OW32746   3.812   2.294  13.395  0.1796  0.0090 -0.5824
 7095SOL    HW132747   3.721   2.319  13.381  0.6239  1.5108 -0.7344
 7095SOL    HW232748   3.847   2.379  13.419  0.9166 -1.0972  2.2006
 7096SOL     OW32749   0.612   4.024  10.990  0.0465  0.4224  0.8325
 7096SOL    HW132750   0.656   4.076  11.058 -0.8057 -0.9222  2.4149
 7096SOL    HW232751   0.537   4.074  10.957 -0.2906 -0.2182  0.6361
 7097SOL     OW32752   0.425   4.307  13.235 -0.0796 -0.7599  0.1508
 7097SOL    HW132753   0.351   4.346  13.189 -1.6109 -2.1447  1.4717
 7097SOL    HW232754   0.392   4.224  13.269  0.1396 -2.1711 -3.0539
 7098SOL     OW32755   1.004   3.747   3.514 -0.5534  0.4431 -0.8267
 7098SOL    HW132756   1.032   3.760   3.424 -0.2176 -0.6997 -0.8934
 7098SOL    HW232757   0.995   3.651   3.516 -0.7823  0.4869  0.4393
 7099SOL     OW32758   2.548   4.009   3.867  0.0158  0.4007  0.4675
 7099SOL    HW132759   2.552   4.095   3.908  1.7021 -0.4568  2.1109
 7099SOL    HW232760   2.632   3.964   3.879  1.1128  2.1225 -0.7969
 7100SOL     OW32761   1.400   3.762   1.288 -0.1746  0.1969  0.3507
 7100SOL    HW132762   1.414   3.688   1.229  2.1108  1.4140 -0.6306
 7100SOL    HW232763   1.458   3.831   1.255 -2.6166  1.7334 -0.7520
 7101SOL     OW32764   0.646   2.835   8.105  0.6348 -0.5735 -1.0602
 7101SOL    HW132765   0.601   2.760   8.067 -2.5409  0.9862 -0.3495
 7101SOL    HW232766   0.571   2.892   8.118 -0.0747 -1.8587  0.5973
 7102SOL     OW32767   4.305   3.753   1.837  0.7016 -0.3621 -0.0363
 7102SOL    HW132768   4.258   3.758   1.754  0.9639  2.2705 -0.0115
 7102SOL    HW232769   4.228   3.720   1.883  0.3040 -0.6264 -0.8912
 7103SOL     OW32770   3.210   1.791  15.707  0.0086  0.1308  0.4803
 7103SOL    HW132771   3.214   1.698  15.729  0.3233  0.0469  0.0597
 7103SOL    HW232772   3.224   1.826  15.795 -0.1216  1.3079  0.0320
 7104SOL     OW32773   1.360   1.624  14.963  0.2297 -0.5745 -0.0546
 7104SOL    HW132774   1.271   1.631  14.928  0.6228  1.4246 -0.6838
 7104SOL    HW232775   1.403   1.611  14.878 -0.2495  1.3356 -0.5839
 7105SOL     OW32776   1.155   2.894  10.150  0.1254 -0.1038  0.4331
 7105SOL    HW132777   1.247   2.901  10.173 -0.0313  0.5090  0.8704
 7105SOL    HW232778   1.128   2.970  10.201  1.3121 -0.6702  1.9113
 7106SOL     OW32779   0.360   0.059   1.994 -0.5155  0.0280 -0.2995
 7106SOL    HW132780   0.367   0.107   1.911  0.5720 -0.8508 -0.7220
 7106SOL    HW232781   0.447   0.026   2.016 -0.4798  1.1026  1.1387
 7107SOL     OW32782   1.181   3.081   2.600  0.4297  0.5067 -0.5961
 7107SOL    HW132783   1.092   3.115   2.595  0.6345  1.0306 -0.6563
 7107SOL    HW232784   1.219   3.128   2.526 -0.9693  0.2833 -1.4620
 7108SOL     OW32785   1.916   1.071  14.130  0.5801  0.4210 -0.3088
 7108SOL    HW132786   1.963   1.050  14.210 -0.8969 -0.2909  0.3738
 7108SOL    HW232787   1.981   1.058  14.060 -0.6546 -0.0105 -1.3771
 7109SOL     OW32788   4.308   3.488   5.903 -0.6034 -0.4374 -0.0989
 7109SOL    HW132789   4.366   3.470   5.977  0.3596  0.6138 -0.5960
 7109SOL    HW232790   4.256   3.566   5.924  0.3988  0.2748 -0.2401
 7110SOL     OW32791   4.135   4.056   4.818  0.5117  0.1037 -0.2810
 7110SOL    HW132792   4.068   4.040   4.885 -1.6965  0.2118 -2.4468
 7110SOL    HW232793   4.134   3.972   4.773  2.1097 -0.5934  1.0064
 7111SOL     OW32794   1.260   4.642  10.894 -0.0992  0.1152  1.0518
 7111SOL    HW132795   1.234   4.551  10.910  0.1667 -0.3406 -1.1069
 7111SOL    HW232796   1.208   4.664  10.817  0.9875 -0.0194  0.2791
 7112SOL     OW32797   3.651   1.949   8.383 -0.0436 -0.1299  0.4103
 7112SOL    HW132798   3.620   1.998   8.459  0.5712 -1.2662  1.3903
 7112SOL    HW232799   3.592   1.874   8.391  1.0791 -1.1108 -0.5058
 7113SOL     OW32800   3.480   2.230   5.484 -0.0180  0.5411 -0.1966
 7113SOL    HW132801   3.560   2.192   5.521 -1.3424 -2.5124 -0.4933
 7113SOL    HW232802   3.409   2.177   5.518  0.6558  0.1371  0.5794
 7114SOL     OW32803   0.819   3.480   1.706 -0.0132 -0.0641 -0.2318
 7114SOL    HW132804   0.809   3.560   1.757  1.9266  1.8101 -2.7701
 7114SOL    HW232805   0.782   3.507   1.622 -0.2064 -0.4603 -0.2769
 7115SOL     OW32806   3.787   3.516   1.891  0.4471  0.2100  0.5131
 7115SOL    HW132807   3.694   3.536   1.895  1.0525  3.0645  0.2259
 7115SOL    HW232808   3.820   3.604   1.908  0.5148  0.5606 -1.4052
 7116SOL     OW32809   4.385   3.084   7.587 -0.1255  0.1345 -0.3461
 7116SOL    HW132810   4.343   3.038   7.660 -0.5551 -1.6913 -1.7485
 7116SOL    HW232811   4.389   3.173   7.623  0.9387  0.3688 -1.0361
 7117SOL     OW32812   3.453   1.638   0.178 -0.4288 -0.3529 -0.0236
 7117SOL    HW132813   3.453   1.732   0.194  1.4996 -0.8246  2.6782
 7117SOL    HW232814   3.535   1.633   0.129 -0.2836  2.0135 -0.0262
 7118SOL     OW32815   4.115   3.203   6.694 -0.3281  0.2603 -0.0142
 7118SOL    HW132816   4.131   3.196   6.788  0.2491 -0.1012 -0.1410
 7118SOL    HW232817   4.080   3.291   6.681  0.7671  0.2193 -3.2652
 7119SOL     OW32818   3.727   3.180  17.330  0.1591  0.0057  0.1103
 7119SOL    HW132819   3.754   3.226  17.250  1.1159  1.0104  1.0157
 7119SOL    HW232820   3.633   3.182  17.312  0.4669  1.1836 -1.3760
 7120SOL     OW32821   4.480   1.678   8.651  0.5430 -0.5290  0.6992
 7120SOL    HW132822   4.522   1.755   8.691  3.6947 -0.3011 -3.1492
 7120SOL    HW232823   4.414   1.655   8.717  0.1821 -0.6015  0.3158
 7121SOL     OW32824   1.833   4.490   2.237  0.1176 -0.2565  0.0629
 7121SOL    HW132825   1.854   4.410   2.189 -0.5953  0.6542 -1.7690
 7121SOL    HW232826   1.750   4.467   2.278 -0.6401 -0.0218 -1.3472
 7122SOL     OW32827   1.851   3.302   9.241  0.5729  0.2096 -0.2428
 7122SOL    HW132828   1.847   3.211   9.272 -0.6486 -0.8787 -3.5029
 7122SOL    HW232829   1.795   3.354   9.297  2.3528  2.6399 -0.7284
 7123SOL     OW32830   0.601   4.208   5.026 -0.2156  0.1283  0.2745
 7123SOL    HW132831   0.629   4.168   4.943 -1.5181  0.6031 -0.3853
 7123SOL    HW232832   0.576   4.296   4.998  0.3365  1.2107  3.2075
 7124SOL     OW32833   3.123   0.607   5.772  0.0611 -0.2248 -0.4685
 7124SOL    HW132834   3.065   0.657   5.828  1.6161  1.2738 -0.2292
 7124SOL    HW232835   3.186   0.570   5.834  0.3288  1.1097  0.0369
 7125SOL     OW32836   0.308   3.461   9.308  0.0159  0.2846  0.4343
 7125SOL    HW132837   0.338   3.546   9.341 -1.2605  1.4556 -1.4852
 7125SOL    HW232838   0.383   3.434   9.255  0.0814  0.4821  0.4282
 7126SOL     OW32839   4.223   3.399   9.177 -0.1269  0.3783  0.4066
 7126SOL    HW132840   4.307   3.354   9.187 -0.6933 -0.9482 -0.8584
 7126SOL    HW232841   4.243   3.481   9.223  0.7330  0.5873 -0.3340
 7127SOL     OW32842   3.172   1.358   7.906 -0.0173  0.4086  0.4622
 7127SOL    HW132843   3.209   1.348   7.819 -0.2073 -0.4201  0.4825
 7127SOL    HW232844   3.168   1.265   7.929  0.0383  0.5714  1.1360
 7128SOL     OW32845   2.566   0.847   0.236  0.5052  0.5474 -0.2730
 7128SOL    HW132846   2.651   0.826   0.197  0.9420 -0.1553  1.0783
 7128SOL    HW232847   2.519   0.878   0.158 -0.3317  0.2094  0.1074
 7129SOL     OW32848   1.286   0.282  16.153 -0.2735 -0.6113 -0.1597
 7129SOL    HW132849   1.207   0.334  16.160  1.1588  1.9176 -3.2186
 7129SOL    HW232850   1.352   0.351  16.156 -2.1615  1.2450 -2.4840
 7130SOL     OW32851   2.492   0.743   8.919  0.1677 -0.2899 -0.2416
 7130SOL    HW132852   2.443   0.824   8.908  0.6844 -0.1722 -1.5993
 7130SOL    HW232853   2.542   0.757   8.999 -2.2085  2.0106  0.8449
 7131SOL     OW32854   0.928   1.276   7.227  0.2349 -0.1823 -0.2628
 7131SOL    HW132855   0.965   1.296   7.141 -1.6152  0.5428 -0.8921
 7131SOL    HW232856   0.974   1.193   7.240 -1.6883 -1.0474  0.9654
 7132SOL     OW32857   3.434   2.516   8.920  0.3015 -0.0510  0.0508
 7132SOL    HW132858   3.431   2.485   9.010 -1.2365 -1.3626 -0.4478
 7132SOL    HW232859   3.528   2.517   8.900  0.3701 -1.3198  0.3207
 7133SOL     OW32860   0.597   4.152   1.365  0.0272 -0.2062 -0.3264
 7133SOL    HW132861   0.681   4.166   1.408  0.1854  1.1498 -1.0559
 7133SOL    HW232862   0.549   4.219   1.413  1.4436 -0.1897  1.0472
 7134SOL     OW32863   3.682   2.543   0.293 -0.0379 -0.3463 -0.1530
 7134SOL    HW132864   3.669   2.638   0.295  2.4132 -0.0714  2.4649
 7134SOL    HW232865   3.604   2.502   0.257 -1.0307  0.7608  0.7354
 7135SOL     OW32866   0.722   1.536  10.369  0.2538  0.2692 -0.2861
 7135SOL    HW132867   0.661   1.610  10.359  1.1390  1.1475  0.8469
 7135SOL    HW232868   0.659   1.464  10.371  0.1508  0.2985 -2.5224
 7136SOL     OW32869   1.806   1.054   1.829 -0.0311  0.6078  0.6527
 7136SOL    HW132870   1.881   1.097   1.787 -0.5446  0.5890 -0.2840
 7136SOL    HW232871   1.765   1.131   1.869  0.0143  2.2915 -2.4858
 7137SOL     OW32872   2.592   4.174   5.430 -0.3036 -0.1986  0.1889
 7137SOL    HW132873   2.524   4.221   5.381 -0.4978  1.5633  2.1431
 7137SOL    HW232874   2.663   4.238   5.427 -0.2459 -0.2998 -0.4610
 7138SOL     OW32875   3.504   2.577   9.789 -0.3486  0.2022  0.5410
 7138SOL    HW132876   3.438   2.507   9.795 -0.1188 -0.0686 -0.0649
 7138SOL    HW232877   3.462   2.639   9.729  2.5018  0.9228 -0.6932
 7139SOL     OW32878   4.260   0.651   4.673 -0.3081 -0.0154  0.1977
 7139SOL    HW132879   4.251   0.747   4.674 -1.6683 -0.1533  1.0040
 7139SOL    HW232880   4.168   0.628   4.678 -0.4464 -0.1658 -3.1223
 7140SOL     OW32881   1.835   1.087   3.663  0.2474 -0.0481 -0.1988
 7140SOL    HW132882   1.773   1.154   3.691  0.8501 -0.3575  1.8370
 7140SOL    HW232883   1.845   1.032   3.741  3.2153  2.0742  0.9387
 7141SOL     OW32884   0.404   1.265   8.399 -0.2555  0.2466  0.5360
 7141SOL    HW132885   0.394   1.283   8.493  1.7270 -0.7084  0.9416
 7141SOL    HW232886   0.404   1.170   8.402  0.7386  0.1486 -2.5383
 7142SOL     OW32887   1.954   3.091   8.010  0.0644 -0.4882  0.7641
 7142SOL    HW132888   1.986   3.133   8.090 -0.5627  1.5396 -0.0684
 7142SOL    HW232889   1.876   3.043   8.039  0.8953  0.5791  4.7438
 7143SOL     OW32890   0.567   3.323   9.838  0.2665 -0.1681  0.0789
 7143SOL    HW132891   0.661   3.307   9.834  0.3229  0.2266 -0.2363
 7143SOL    HW232892   0.567   3.409   9.796 -1.1430  0.8609  2.1662
 7144SOL     OW32893   0.850   0.029   3.199  0.3446 -0.7420 -0.0606
 7144SOL    HW132894   0.773   4.699   3.221 -0.9620  1.7922  1.3925
 7144SOL    HW232895   0.826   0.090   3.128  1.3704 -0.3865 -0.0981
 7145SOL     OW32896   0.790   1.940   8.021 -0.2842  0.5231  0.1957
 7145SOL    HW132897   0.808   2.033   8.033  1.3436  0.1719  0.4136
 7145SOL    HW232898   0.812   1.921   7.930 -1.1161  2.3639 -0.3884
 7146SOL     OW32899   4.233   4.240   7.977 -0.9369  0.2347  0.0276
 7146SOL    HW132900   4.215   4.331   7.955 -1.4962 -0.5262 -2.6161
 7146SOL    HW232901   4.144   4.206   7.976 -0.2981 -1.3732 -1.4690
 7147SOL     OW32902   4.633   2.507   8.588 -0.2827  0.0670 -0.6470
 7147SOL    HW132903   4.680   2.480   8.510 -2.4289 -1.1983 -1.4969
 7147SOL    HW232904   4.574   2.433   8.597  2.6860 -1.9707  2.0816
 7148SOL     OW32905   3.004   2.925  10.721 -0.2164  0.2854 -0.5650
 7148SOL    HW132906   2.949   2.882  10.787  1.6674 -2.7178 -0.9354
 7148SOL    HW232907   3.025   3.007  10.766  1.0126 -1.2579  1.7041
 7149SOL     OW32908   3.424   2.983   3.378 -0.1723  0.2225 -0.0583
 7149SOL    HW132909   3.365   2.979   3.303 -0.2369 -0.5256  0.0347
 7149SOL    HW232910   3.363   2.972   3.451  0.9020  2.2926  1.1664
 7150SOL     OW32911   2.485   4.352   2.667 -0.2822 -0.1366 -0.1747
 7150SOL    HW132912   2.462   4.262   2.688 -0.1383 -0.0810  0.2183
 7150SOL    HW232913   2.407   4.377   2.617 -0.4652  1.1868  0.7820
 7151SOL     OW32914   0.751   3.415   8.933 -0.2660  0.3781  0.2225
 7151SOL    HW132915   0.825   3.388   8.988  0.6676  0.9261 -0.7640
 7151SOL    HW232916   0.673   3.373   8.969  0.3777  0.2962  1.5103
 7152SOL     OW32917   4.446   4.073   6.498  0.6262  0.2317  0.3323
 7152SOL    HW132918   4.452   4.147   6.438 -1.3202 -0.8954 -1.2284
 7152SOL    HW232919   4.445   4.004   6.432  0.6272 -0.5131  1.1067
 7153SOL     OW32920   0.374   0.297  14.463  0.5636 -0.2220 -0.3211
 7153SOL    HW132921   0.388   0.236  14.390 -0.7373 -1.9687  0.8715
 7153SOL    HW232922   0.298   0.343  14.426 -0.7105 -0.2137  2.3586
 7154SOL     OW32923   0.585   2.964   8.409  1.1394  0.7886 -0.3797
 7154SOL    HW132924   0.578   2.877   8.449  1.5380  0.3456 -1.2775
 7154SOL    HW232925   0.521   2.961   8.338  0.1520 -0.0644  0.5473
 7155SOL     OW32926   3.077   3.443   3.069  0.2177  0.0402  0.1801
 7155SOL    HW132927   3.013   3.431   3.139 -0.3398  2.4184  0.0776
 7155SOL    HW232928   3.047   3.367   3.021 -0.8629  2.0086 -2.2533
 7156SOL     OW32929   1.872   4.669   7.406 -0.2961  0.5974  0.4905
 7156SOL    HW132930   1.837   0.026   7.366  0.4759  1.4517  1.5156
 7156SOL    HW232931   1.932   4.650   7.334  0.8591 -0.2813  1.6943
 7157SOL     OW32932   4.513   1.898  14.299 -0.4894  0.1381 -0.3628
 7157SOL    HW132933   4.573   1.960  14.259 -0.1311 -0.2570 -0.4363
 7157SOL    HW232934   4.502   1.847  14.219  2.8477 -0.2859 -0.5294
 7158SOL     OW32935   4.494   4.086   2.788 -0.2574  0.1646  0.3233
 7158SOL    HW132936   4.499   4.108   2.881 -2.7461  2.1660 -0.0257
 7158SOL    HW232937   4.463   4.171   2.757  0.9896  0.3601 -0.3946
 7159SOL     OW32938   3.827   0.389   5.298  0.0469  0.2488  0.1387
 7159SOL    HW132939   3.741   0.429   5.314  1.2478  1.8870  2.5707
 7159SOL    HW232940   3.805   0.297   5.290  0.8887  0.0482  0.0821
 7160SOL     OW32941   3.589   2.869   3.689  0.3577  0.4436  0.0445
 7160SOL    HW132942   3.662   2.885   3.630 -0.4830 -0.4320 -1.2324
 7160SOL    HW232943   3.605   2.782   3.725 -0.1066  0.4253  0.2059
 7161SOL     OW32944   0.241   3.012  11.605 -0.5083  0.1666  0.1310
 7161SOL    HW132945   0.183   2.940  11.631 -0.8417  0.5257  0.3787
 7161SOL    HW232946   0.283   2.979  11.525  1.1495 -2.4677  2.0716
 7162SOL     OW32947   1.686   1.384  11.815 -0.0280  0.1890 -0.5017
 7162SOL    HW132948   1.738   1.338  11.749  0.6853  0.5514 -0.1903
 7162SOL    HW232949   1.668   1.467  11.772 -0.3633 -0.0454 -0.8193
 7163SOL     OW32950   0.797   3.696   2.173  0.1607  0.2508 -0.4606
 7163SOL    HW132951   0.862   3.749   2.127  1.1967 -1.1349 -0.5894
 7163SOL    HW232952   0.851   3.623   2.203 -1.3418 -0.6366  0.1186
 7164SOL     OW32953   3.163   1.475   5.360  0.2871 -0.2320  0.0082
 7164SOL    HW132954   3.156   1.531   5.282 -0.6922 -0.2727  0.0670
 7164SOL    HW232955   3.196   1.391   5.329  1.9959 -0.0085  1.2273
 7165SOL     OW32956   4.712   3.945   2.984  0.1426  0.2244 -0.1644
 7165SOL    HW132957   0.029   4.030   2.966  0.9832  0.0520  0.9044
 7165SOL    HW232958   4.671   3.962   3.069 -1.0879 -1.7281 -0.3605
 7166SOL     OW32959   1.213   0.633  16.020 -0.1119 -0.3517 -0.1350
 7166SOL    HW132960   1.291   0.579  16.033 -0.4868 -0.8486  0.1022
 7166SOL    HW232961   1.145   0.575  16.054 -1.1510  0.5036 -0.7715
 7167SOL     OW32962   1.862   3.656  16.237 -0.1382  0.0783 -0.5459
 7167SOL    HW132963   1.876   3.624  16.148 -1.1716  0.7952 -0.9691
 7167SOL    HW232964   1.899   3.587  16.292  0.5420  0.2435 -0.7937
 7168SOL     OW32965   0.587   0.628  11.517 -0.3349 -0.8138  0.4375
 7168SOL    HW132966   0.528   0.564  11.476  0.4293 -1.7290  0.7677
 7168SOL    HW232967   0.630   0.648  11.434  0.5199 -1.9242  0.6119
 7169SOL     OW32968   2.709   4.681  17.235 -0.2333  0.1495  0.3391
 7169SOL    HW132969   2.744   4.594  17.257 -2.2879 -0.0753  2.7443
 7169SOL    HW232970   2.776   0.025  17.249 -0.1118  0.1467 -0.2281
 7170SOL     OW32971   4.455   2.748   7.925  0.1397 -0.0176  0.0059
 7170SOL    HW132972   4.442   2.809   7.998  0.2919 -0.1658  0.1604
 7170SOL    HW232973   4.376   2.695   7.935 -1.1743  1.6105 -1.8771
 7171SOL     OW32974   2.439   4.294   8.457 -0.7537 -0.1129  0.0740
 7171SOL    HW132975   2.481   4.294   8.543 -0.8275  1.7135  0.1050
 7171SOL    HW232976   2.395   4.378   8.460 -1.5348 -0.4575 -2.2975
 7172SOL     OW32977   3.420   2.159   2.709 -0.8306 -0.0287 -0.2217
 7172SOL    HW132978   3.380   2.245   2.701 -1.7003 -0.5291 -1.3209
 7172SOL    HW232979   3.443   2.141   2.617 -1.3081  0.3914 -0.4212
 7173SOL     OW32980   4.401   0.407  10.711  0.1625  0.1107 -0.3047
 7173SOL    HW132981   4.352   0.380  10.633  1.9441 -1.6005 -0.8186
 7173SOL    HW232982   4.449   0.326  10.725 -0.9595 -0.9654 -2.5988
 7174SOL     OW32983   4.458   1.061   8.323 -0.8860 -0.1274 -0.7157
 7174SOL    HW132984   4.382   1.101   8.364  0.2275  2.0996 -0.8555
 7174SOL    HW232985   4.518   1.135   8.310 -1.6811  0.1358 -2.9053
 7175SOL     OW32986   0.138   1.152  10.864 -0.4311 -0.0183  0.1542
 7175SOL    HW132987   0.114   1.130  10.954 -0.5022  0.6743  0.3097
 7175SOL    HW232988   0.071   1.111  10.809 -0.2525 -0.0071 -0.0738
 7176SOL     OW32989   3.426   3.753   5.392  0.9994  0.0858 -0.0913
 7176SOL    HW132990   3.520   3.736   5.386  0.8346 -0.5561 -0.8342
 7176SOL    HW232991   3.422   3.844   5.362  2.5101  0.3809  0.6249
 7177SOL     OW32992   3.457   4.397   5.272  0.3544 -0.2108  0.1563
 7177SOL    HW132993   3.485   4.408   5.363  0.1574 -1.0115  0.3082
 7177SOL    HW232994   3.457   4.489   5.245  1.1449  0.2003  1.5409
 7178SOL     OW32995   3.575   0.154  10.091 -0.6266  0.3374  0.4722
 7178SOL    HW132996   3.533   0.217  10.032  0.0869  1.6535  1.3598
 7178SOL    HW232997   3.653   0.126  10.044  0.8039  1.0810  2.3856
 7179SOL     OW32998   0.054   0.024  14.534  0.4326  0.2057 -0.3423
 7179SOL    HW132999   0.098   0.103  14.566  4.9133 -1.9321 -1.1692
 7179SOL    HW233000   0.087   4.684  14.599  0.1287 -0.1681 -0.5462
 7180SOL     OW33001   2.708   2.648   2.947  0.1070 -0.1918 -0.9404
 7180SOL    HW133002   2.716   2.726   3.003 -0.9594 -0.4481 -0.4311
 7180SOL    HW233003   2.614   2.635   2.955  0.0689  0.8307  0.2968
 7181SOL     OW33004   2.118   4.292   2.261  0.4664  0.2991  0.3703
 7181SOL    HW133005   2.110   4.313   2.167  0.1071 -1.7380 -0.0557
 7181SOL    HW233006   2.190   4.230   2.264  1.0043  0.9295  0.3733
 7182SOL     OW33007   0.774   1.020   1.185  0.2162  0.1303 -0.3611
 7182SOL    HW133008   0.792   1.029   1.091 -1.2405 -1.1492 -0.7566
 7182SOL    HW233009   0.765   1.114   1.202 -1.2954 -0.7702  3.6799
 7183SOL     OW33010   1.413   1.806   4.446  0.8104 -0.2072  0.0436
 7183SOL    HW133011   1.376   1.743   4.384  0.2595  0.9205 -0.7832
 7183SOL    HW233012   1.501   1.818   4.410  0.7019 -1.4518 -0.6279
 7184SOL     OW33013   3.422   2.188  10.134  0.1340  0.1440  0.4639
 7184SOL    HW133014   3.514   2.196  10.108  0.3059 -1.5198  0.5581
 7184SOL    HW233015   3.388   2.167  10.047 -1.6650 -0.3340  1.2891
 7185SOL     OW33016   1.114   2.917   3.280 -0.5335 -0.4398  0.3688
 7185SOL    HW133017   1.058   2.856   3.328 -1.6255  0.0618 -0.2730
 7185SOL    HW233018   1.182   2.933   3.346 -0.1578 -1.6753  0.2671
 7186SOL     OW33019   4.292   1.962   3.823 -0.2426 -0.1099  0.3703
 7186SOL    HW133020   4.325   1.896   3.885 -3.4603 -1.7002  0.3755
 7186SOL    HW233021   4.282   1.906   3.746  0.6956  0.9979 -0.5682
 7187SOL     OW33022   2.387   0.834  11.677 -0.1405  0.2438  0.0928
 7187SOL    HW133023   2.355   0.903  11.735 -1.8046 -0.5594  0.1368
 7187SOL    HW233024   2.317   0.768  11.682 -0.9675  1.0829 -0.3494
 7188SOL     OW33025   4.226   3.615   4.879 -0.2724  0.0355 -0.4812
 7188SOL    HW133026   4.291   3.584   4.816  0.3194  0.8896 -0.2928
 7188SOL    HW233027   4.266   3.599   4.964 -0.2001  1.2309 -0.2946
 7189SOL     OW33028   0.136   2.895   7.274  0.0184 -0.5082 -0.1047
 7189SOL    HW133029   0.082   2.942   7.210  0.4109 -2.3744 -1.8189
 7189SOL    HW233030   0.066   2.838   7.305 -0.8296 -0.3997 -1.8275
 7190SOL     OW33031   3.818   3.902  13.585 -0.1859 -0.2029 -0.4824
 7190SOL    HW133032   3.776   3.919  13.501 -0.3825 -0.3032 -0.4035
 7190SOL    HW233033   3.735   3.903  13.632  0.4103  0.2469  0.5612
 7191SOL     OW33034   3.775   0.046  11.785 -0.0195 -0.0184 -0.1028
 7191SOL    HW133035   3.771   0.140  11.804 -1.6332 -0.3120  0.9923
 7191SOL    HW233036   3.706   0.015  11.844  1.0715 -2.0681  0.0855
 7192SOL     OW33037   0.411   4.445   2.305 -0.0034  0.0454  0.4864
 7192SOL    HW133038   0.421   4.540   2.293 -0.9208 -0.2480 -2.7160
 7192SOL    HW233039   0.428   4.419   2.214 -0.9147  0.3112  0.2395
 7193SOL     OW33040   0.162   0.004   3.396  0.4891 -0.5086 -0.0490
 7193SOL    HW133041   0.201   0.040   3.316 -0.8039  0.4089 -0.2684
 7193SOL    HW233042   0.070   0.031   3.392  0.7384  0.3142 -0.2799
 7194SOL     OW33043   1.699   0.359   6.752 -0.7852 -0.0166  0.3803
 7194SOL    HW133044   1.712   0.267   6.775  3.8457  0.4026 -0.3878
 7194SOL    HW233045   1.649   0.388   6.828  0.5189 -0.9978  1.6196
 7195SOL     OW33046   3.801   1.019   6.829  0.5816 -0.0315 -0.1231
 7195SOL    HW133047   3.886   0.979   6.816  1.1716  0.4601  2.1998
 7195SOL    HW233048   3.798   1.011   6.924 -1.3544 -3.3135 -0.4290
 7196SOL     OW33049   3.855   2.831   8.139  0.1610 -0.4372 -0.3065
 7196SOL    HW133050   3.798   2.906   8.123  0.5229  0.6137  3.4744
 7196SOL    HW233051   3.800   2.763   8.100  1.3878 -0.9766 -1.0689
 7197SOL     OW33052   3.567   3.351  10.427 -0.4952  0.1756  0.0515
 7197SOL    HW133053   3.614   3.431  10.449 -0.6533  0.7400 -1.6776
 7197SOL    HW233054   3.622   3.295  10.482 -1.0470 -1.7418 -1.3312
 7198SOL     OW33055   4.147   0.022   6.667  0.5897 -0.5294  0.6378
 7198SOL    HW133056   4.117   4.656   6.683 -0.7871 -0.6964 -2.9723
 7198SOL    HW233057   4.180   0.048   6.753  0.1824  1.4026  0.2271
 7199SOL     OW33058   0.996   4.474   1.502  0.2551 -0.7232 -0.4193
 7199SOL    HW133059   0.993   4.564   1.533  0.0612 -1.4287  1.5875
 7199SOL    HW233060   0.960   4.474   1.413 -0.5500 -0.9580 -0.0986
 7200SOL     OW33061   0.268   1.040   2.311  0.1463  0.3740  0.2885
 7200SOL    HW133062   0.328   0.991   2.255  1.9629  2.0386  0.7985
 7200SOL    HW233063   0.184   0.993   2.303  0.9309 -0.9750  0.0624
 7201SOL     OW33064   4.581   3.524   5.715  0.0402 -0.2749 -0.4586
 7201SOL    HW133065   4.577   3.428   5.725 -0.3111 -0.3112 -0.9333
 7201SOL    HW233066   4.667   3.554   5.684  0.0038 -0.9258 -1.2187
 7202SOL     OW33067   4.445   4.369   2.739 -0.0582  0.1855 -0.3305
 7202SOL    HW133068   4.458   4.454   2.697  0.9063  1.2500  2.1325
 7202SOL    HW233069   4.510   4.368   2.809 -1.8347  0.9056  1.3232
 7203SOL     OW33070   1.990   2.912   5.357  0.0903 -0.0424  0.5447
 7203SOL    HW133071   2.054   2.940   5.423  0.5710  0.1237  0.0065
 7203SOL    HW233072   1.903   2.919   5.396 -0.2324  1.6791 -0.4990
 7204SOL     OW33073   2.861   2.871   4.564  0.0954 -0.7582 -0.0112
 7204SOL    HW133074   2.853   2.825   4.647 -1.2494  2.7300  1.7923
 7204SOL    HW233075   2.810   2.948   4.590  0.5647 -0.7029  0.7354
 7205SOL     OW33076   2.486   2.367   6.082 -0.1369 -0.1293  0.1301
 7205SOL    HW133077   2.480   2.411   6.167  0.0537  0.1585 -0.0036
 7205SOL    HW233078   2.579   2.346   6.074 -0.2660 -0.5469 -0.2485
 7206SOL     OW33079   0.094   2.558   6.363 -0.0174 -0.3580  0.8560
 7206SOL    HW133080   0.169   2.565   6.421  0.1284 -0.1300  0.6384
 7206SOL    HW233081   0.058   2.476   6.399 -1.0969  0.1089  0.8374
 7207SOL     OW33082   0.389   4.661   4.110  0.0519 -0.5371  0.0358
 7207SOL    HW133083   0.471   4.693   4.147 -0.3732  0.4833  0.0727
 7207SOL    HW233084   0.359   0.011   4.056 -0.0067 -0.1301  0.6288
 7208SOL     OW33085   2.024   1.413   3.179  0.6250 -0.5693  0.4323
 7208SOL    HW133086   1.977   1.475   3.124  0.7677 -0.1051  0.8408
 7208SOL    HW233087   2.040   1.461   3.260  0.6155  2.1849 -1.2151
 7209SOL     OW33088   2.086   4.510   0.433  0.2295  0.3063 -0.3663
 7209SOL    HW133089   2.112   4.600   0.453 -1.3956  0.6502  0.2710
 7209SOL    HW233090   2.000   4.503   0.476  0.4925  0.5628  0.2045
 7210SOL     OW33091   3.610   4.248  11.598 -0.6647  0.3106  0.3346
 7210SOL    HW133092   3.683   4.203  11.555 -1.5348 -0.5796 -0.2214
 7210SOL    HW233093   3.652   4.321  11.644  1.5140 -0.3758 -0.5531
 7211SOL     OW33094   4.573   3.611   7.792  0.3017  0.6724  0.3722
 7211SOL    HW133095   4.651   3.582   7.840  0.3210  1.0219  0.5554
 7211SOL    HW233096   4.602   3.698   7.763 -0.2523  0.8299  0.2910
 7212SOL     OW33097   3.256   4.000   1.292 -0.2430 -0.0980 -0.2725
 7212SOL    HW133098   3.187   4.052   1.331  0.4351  0.0031  0.7979
 7212SOL    HW233099   3.294   4.061   1.228  0.9228  0.3872  0.8730
 7213SOL     OW33100   3.047   3.549   5.944  0.4466  0.6760 -0.5154
 7213SOL    HW133101   3.129   3.503   5.924  0.5965  0.2043  1.1539
 7213SOL    HW233102   3.068   3.638   5.970 -1.7280  1.1547 -0.4839
 7214SOL     OW33103   3.446   3.254   1.491  0.1021 -0.1883 -0.0539
 7214SOL    HW133104   3.368   3.223   1.446  0.9602 -1.1727 -0.8524
 7214SOL    HW233105   3.504   3.253   1.415  3.2970 -0.1038  2.3427
 7215SOL     OW33106   2.840   0.771   3.419  0.1595  0.6774  0.0481
 7215SOL    HW133107   2.781   0.836   3.457 -1.9842 -0.9361 -0.4887
 7215SOL    HW233108   2.925   0.793   3.456  1.1922 -0.8459 -1.4579
 7216SOL     OW33109   0.246   4.329   6.318  0.5342  0.1219  0.7002
 7216SOL    HW133110   0.182   4.384   6.363  0.8416  2.5697 -1.8300
 7216SOL    HW233111   0.212   4.247   6.352  0.7609 -0.2759 -0.0320
 7217SOL     OW33112   0.717   1.593   8.966  0.1945  0.2437  0.0939
 7217SOL    HW133113   0.786   1.623   9.026 -0.1960  0.2785  0.5292
 7217SOL    HW233114   0.652   1.664   8.973  1.1759  0.8449  3.2607
 7218SOL     OW33115   4.116   1.802   6.380  0.3843  0.6654  0.4043
 7218SOL    HW133116   4.179   1.742   6.421 -0.5383  0.9334  2.2386
 7218SOL    HW233117   4.146   1.878   6.429  0.9544 -2.1036  4.4334
 7219SOL     OW33118   0.214   0.070   4.423 -0.6463  0.5142 -0.0503
 7219SOL    HW133119   0.211   4.702   4.392  0.6013  0.2663  0.5143
 7219SOL    HW233120   0.278   0.104   4.360  0.2343 -1.0613 -0.0165
 7220SOL     OW33121   0.764   2.626   5.662 -0.2322  0.5746  0.9079
 7220SOL    HW133122   0.761   2.648   5.568  1.8411  1.4456  1.0592
 7220SOL    HW233123   0.839   2.675   5.696  0.4031  0.7151 -0.6565
 7221SOL     OW33124   0.221   0.299  13.949  0.1901  0.0655  0.0764
 7221SOL    HW133125   0.165   0.358  14.000  0.0184 -0.9161  1.0072
 7221SOL    HW233126   0.314   0.317  13.964  0.7700 -3.1982  0.2888
 7222SOL     OW33127   2.653   1.683  10.700  0.1418  0.4016  0.7229
 7222SOL    HW133128   2.598   1.730  10.763 -1.7176  1.2271 -1.5229
 7222SOL    HW233129   2.730   1.738  10.688 -0.5285  0.5369 -2.9779
 7223SOL     OW33130   0.733   1.226   3.190  0.1959 -0.7375 -0.3734
 7223SOL    HW133131   0.786   1.295   3.151 -1.8789  0.8744 -0.3794
 7223SOL    HW233132   0.792   1.197   3.259  1.1933  0.8756 -0.5403
 7224SOL     OW33133   4.670   1.152   6.220 -0.3298  0.1762 -0.2544
 7224SOL    HW133134   4.637   1.181   6.135 -0.4496  0.1402 -0.2207
 7224SOL    HW233135   0.039   1.169   6.203 -0.3873 -0.6891 -1.4627
 7225SOL     OW33136   1.433   1.345   5.933 -0.4572  0.3718 -0.1289
 7225SOL    HW133137   1.488   1.359   6.010  0.8922  0.7314 -1.1604
 7225SOL    HW233138   1.348   1.382   5.955 -0.5916  1.4786 -2.4949
 7226SOL     OW33139   2.163   1.901  10.730  0.3176 -0.4559  0.5831
 7226SOL    HW133140   2.122   1.821  10.764 -3.7140  1.7917  1.0424
 7226SOL    HW233141   2.155   1.967  10.799  0.9324 -0.3772  0.5759
 7227SOL     OW33142   2.781   1.602   7.593 -0.0092  0.1161  0.4134
 7227SOL    HW133143   2.876   1.593   7.592 -0.0601 -0.5029  1.4222
 7227SOL    HW233144   2.761   1.575   7.683 -0.2468  1.0290  0.6286
 7228SOL     OW33145   3.507   4.482   3.510 -0.0512  0.2856 -0.6563
 7228SOL    HW133146   3.575   4.532   3.464  1.2196 -2.0732 -1.3615
 7228SOL    HW233147   3.428   4.517   3.470  0.6439  1.2357 -1.2094
 7229SOL     OW33148   2.802   2.913   8.007 -0.2085 -0.2561  0.3802
 7229SOL    HW133149   2.722   2.922   7.956  0.3314 -0.6640 -0.5412
 7229SOL    HW233150   2.774   2.910   8.098 -1.5193  1.0431  0.0199
 7230SOL     OW33151   3.457   3.080   1.724 -0.0433  0.9448  0.0971
 7230SOL    HW133152   3.459   3.133   1.645  0.8982  2.0479  0.8602
 7230SOL    HW233153   3.472   3.142   1.795  1.1149 -0.3092  0.9666
 7231SOL     OW33154   2.481   3.195   6.096  0.2271  0.1899  0.1107
 7231SOL    HW133155   2.529   3.112   6.096 -0.0904  0.0235 -2.2698
 7231SOL    HW233156   2.538   3.242   6.035  0.4776 -0.5344 -0.2071
 7232SOL     OW33157   0.417   3.217   2.064  0.3643 -0.4820  0.3741
 7232SOL    HW133158   0.478   3.254   1.999 -0.3279  4.0236  2.3569
 7232SOL    HW233159   0.470   3.138   2.078  0.1954 -0.5384  0.6948
 7233SOL     OW33160   0.280   1.355  14.618  0.1610 -0.4174 -0.2843
 7233SOL    HW133161   0.198   1.344  14.569 -0.0596  1.5826 -0.3753
 7233SOL    HW233162   0.302   1.262  14.623 -1.8731 -0.7096  3.1317
 7234SOL     OW33163   3.991   0.156   3.232  0.2984 -0.2529 -0.1178
 7234SOL    HW133164   3.938   0.155   3.152  1.6709  1.8940 -1.0595
 7234SOL    HW233165   4.027   0.068   3.231 -0.6105 -0.6380  0.7934
 7235SOL     OW33166   2.308   4.133   2.334 -0.4259 -0.0924 -0.2933
 7235SOL    HW133167   2.388   4.132   2.282 -1.0627  1.4899 -1.3032
 7235SOL    HW233168   2.324   4.060   2.393 -0.1285  0.2557  0.0535
 7236SOL     OW33169   4.244   0.577   6.485  0.2740  0.1193 -0.0439
 7236SOL    HW133170   4.297   0.620   6.419 -0.4498 -1.1437 -1.4464
 7236SOL    HW233171   4.163   0.561   6.436 -0.2931 -1.3448  1.3819
 7237SOL     OW33172   1.038   4.260   1.660 -0.0453  0.0112 -0.1957
 7237SOL    HW133173   1.067   4.292   1.745  0.3181 -0.3992 -0.1652
 7237SOL    HW233174   1.026   4.341   1.611  1.2936  0.7391  0.6865
 7238SOL     OW33175   0.625   1.644   6.796 -0.0039 -0.2099 -0.3625
 7238SOL    HW133176   0.634   1.562   6.844 -0.2459 -0.0033  0.0363
 7238SOL    HW233177   0.569   1.689   6.859  2.1288 -1.0302  2.1090
 7239SOL     OW33178   2.753   4.295   2.354  0.2561 -0.3791 -0.5031
 7239SOL    HW133179   2.668   4.262   2.325  0.7522 -0.4900 -1.7938
 7239SOL    HW233180   2.792   4.343   2.281 -0.7853  1.6747  0.2860
 7240SOL     OW33181   0.848   4.314   8.994 -0.0062  0.4461  0.6411
 7240SOL    HW133182   0.774   4.326   8.933  1.6002  0.3639 -1.3437
 7240SOL    HW233183   0.876   4.225   8.970  0.6743  1.1808 -1.3490
 7241SOL     OW33184   4.121   0.374   5.440  0.3649 -0.0243 -0.6458
 7241SOL    HW133185   4.047   0.426   5.409  1.7566  2.9433  0.9378
 7241SOL    HW233186   4.199   0.428   5.425  0.0124  0.3710 -1.0472
 7242SOL     OW33187   3.458   2.749   6.755 -0.3291  0.2658 -0.0178
 7242SOL    HW133188   3.386   2.812   6.750  1.4184  2.2570  0.0106
 7242SOL    HW233189   3.465   2.740   6.850 -0.3254 -1.3133 -0.1642
 7243SOL     OW33190   2.757   3.295  10.477  0.1614  0.1821 -0.2664
 7243SOL    HW133191   2.707   3.368  10.440  0.0942  1.1594  1.7544
 7243SOL    HW233192   2.830   3.284  10.416 -0.2275  2.8955 -1.2378
 7244SOL     OW33193   3.026   1.647   9.172  0.3444  0.4458 -0.2596
 7244SOL    HW133194   3.017   1.555   9.144  1.1773 -0.0056  0.9408
 7244SOL    HW233195   2.934   1.671   9.171 -0.0744 -1.2314 -2.9312
 7245SOL     OW33196   1.150   0.423  17.019  0.1415  0.0932 -0.1863
 7245SOL    HW133197   1.164   0.351  17.081  2.4315  0.6390 -0.0810
 7245SOL    HW233198   1.057   0.405  17.003 -0.1531  1.1847  0.2979
 7246SOL     OW33199   4.296   0.137   3.307 -0.0975 -0.1173 -0.5512
 7246SOL    HW133200   4.223   0.078   3.289 -0.5788 -0.5482  2.8104
 7246SOL    HW233201   4.326   0.143   3.216  0.1000  1.8366 -0.3685
 7247SOL     OW33202   0.664   2.434   1.169  0.4282 -0.8201 -0.0467
 7247SOL    HW133203   0.573   2.434   1.197  0.4322  1.7621 -0.0025
 7247SOL    HW233204   0.681   2.342   1.187  2.2894 -0.7273 -1.3491
 7248SOL     OW33205   2.307   4.592   2.056 -0.9460  0.1015  0.1612
 7248SOL    HW133206   2.342   4.596   1.967 -1.2276  1.2554  0.1072
 7248SOL    HW233207   2.238   4.527   2.047 -1.0150  0.6474 -3.0278
 7249SOL     OW33208   2.841   3.913   8.442 -0.0074 -0.3263  0.2549
 7249SOL    HW133209   2.852   3.818   8.438  1.2667 -0.2295  1.6297
 7249SOL    HW233210   2.758   3.924   8.487  0.8983 -1.4882  2.1865
 7250SOL     OW33211   0.664   3.150   5.034  0.0875 -0.1596  0.3216
 7250SOL    HW133212   0.625   3.084   5.091 -1.9588  1.2687  0.5648
 7250SOL    HW233213   0.642   3.121   4.946 -0.6535  0.3031  0.3596
 7251SOL     OW33214   4.663   1.488   8.417 -0.0252 -0.3129 -0.0762
 7251SOL    HW133215   4.658   1.533   8.333 -2.2069  3.1828  1.9023
 7251SOL    HW233216   0.009   1.544   8.454 -0.5780  0.4528 -0.1877
 7252SOL     OW33217   3.043   0.007   3.397  0.1269  0.5008 -0.5480
 7252SOL    HW133218   2.963   0.018   3.345  0.7563 -0.6140 -1.7658
 7252SOL    HW233219   3.004   0.013   3.484  1.0147  0.8794 -0.1802
 7253SOL     OW33220   1.017   2.909   8.810 -0.0572 -0.3236 -0.5509
 7253SOL    HW133221   0.954   2.935   8.877  1.5393  0.4376  0.6330
 7253SOL    HW233222   1.100   2.923   8.855 -0.4322  2.2761 -0.6657
 7254SOL     OW33223   1.336   0.274   8.830 -0.0939  0.1173  0.2019
 7254SOL    HW133224   1.380   0.189   8.838 -0.2619 -0.1423 -1.5575
 7254SOL    HW233225   1.350   0.295   8.922  1.5109  1.7698 -0.4163
 7255SOL     OW33226   4.581   3.313   1.486 -0.6961  0.7708  0.0182
 7255SOL    HW133227   4.611   3.365   1.411  0.4479 -1.4494 -1.0633
 7255SOL    HW233228   4.488   3.330   1.501 -0.0545  2.9528  1.5394
 7256SOL     OW33229   0.021   1.637   3.488 -0.1524  0.0495  0.0125
 7256SOL    HW133230   4.672   1.654   3.427  0.0247  0.1777 -0.1608
 7256SOL    HW233231   0.100   1.658   3.439 -0.7523  0.1958 -0.8789
 7257SOL     OW33232   3.762   2.157   5.077  0.2269 -0.5066  0.5168
 7257SOL    HW133233   3.692   2.219   5.098 -1.5341 -2.0756 -0.8337
 7257SOL    HW233234   3.785   2.175   4.986 -0.5916 -3.2221 -0.2010
 7258SOL     OW33235   0.553   0.332  14.671  0.0925  0.5588 -0.1550
 7258SOL    HW133236   0.475   0.291  14.632 -0.5553  2.4138 -0.7909
 7258SOL    HW233237   0.567   0.397  14.602 -0.5282 -1.4121 -2.1415
 7259SOL     OW33238   4.300   3.497  10.145 -0.2745 -0.1131  0.8553
 7259SOL    HW133239   4.268   3.498  10.235  1.1396 -1.6183  1.3612
 7259SOL    HW233240   4.292   3.405  10.121  1.1286 -0.7509  2.9032
 7260SOL     OW33241   0.424   0.719  13.381 -0.1807  0.4214  0.0995
 7260SOL    HW133242   0.480   0.779  13.432  1.8217 -1.6577  0.3384
 7260SOL    HW233243   0.358   0.706  13.449 -1.0515 -1.5778 -1.1240
 7261SOL     OW33244   1.767   3.031   0.300 -0.0022 -0.0688 -0.0707
 7261SOL    HW133245   1.817   3.094   0.352  0.6404  0.4509 -1.3369
 7261SOL    HW233246   1.808   3.025   0.214  0.7379  0.5176  0.2409
 7262SOL     OW33247   1.287   4.254  11.566 -0.3416 -0.1892  0.4687
 7262SOL    HW133248   1.257   4.228  11.480  0.4723 -0.9095  0.3983
 7262SOL    HW233249   1.253   4.343  11.573 -1.3918 -0.5188 -0.6181
 7263SOL     OW33250   1.623   4.282  17.541  0.1297  0.1095 -0.0028
 7263SOL    HW133251   1.693   4.216  17.531  0.3864  0.4755 -0.5998
 7263SOL    HW233252   1.576   4.246  17.616 -0.7458 -3.3371 -2.2045
 7264SOL     OW33253   2.142   3.969   3.351  0.2720 -0.0608  0.1347
 7264SOL    HW133254   2.183   3.910   3.414  0.0016  0.2134  0.5692
 7264SOL    HW233255   2.054   3.982   3.388  0.4650 -1.6204  1.1316
 7265SOL     OW33256   3.567   0.836   4.794 -0.1595  0.1091  0.6189
 7265SOL    HW133257   3.532   0.819   4.881 -1.2196 -1.8934 -0.1995
 7265SOL    HW233258   3.554   0.930   4.785 -0.2256  0.2898  2.5142
 7266SOL     OW33259   3.861   4.462  17.061 -0.1018  0.4880  0.2408
 7266SOL    HW133260   3.798   4.529  17.091 -1.6371  0.1386 -2.2014
 7266SOL    HW233261   3.807   4.410  17.002 -0.4931  1.5902 -0.3809
 7267SOL     OW33262   2.299   1.538   8.345  0.7062 -1.1478  0.9183
 7267SOL    HW133263   2.332   1.599   8.279 -0.6540 -1.3932  0.0029
 7267SOL    HW233264   2.297   1.453   8.302  1.3016  0.1497 -1.7109
 7268SOL     OW33265   4.218   0.504   4.279 -0.1984  0.1438 -0.5087
 7268SOL    HW133266   4.312   0.497   4.266 -0.0216 -0.6009  1.1364
 7268SOL    HW233267   4.213   0.447   4.356 -1.0661  0.6558 -0.1846
 7269SOL     OW33268   0.591   0.113   8.907  0.2605  0.4044  0.5339
 7269SOL    HW133269   0.644   0.051   8.857 -1.2329 -1.0869  0.7795
 7269SOL    HW233270   0.509   0.064   8.918  0.2874  0.3154  0.3394
 7270SOL     OW33271   2.137   1.411   4.816 -0.3497 -0.1691 -0.1594
 7270SOL    HW133272   2.132   1.324   4.776  0.0373  0.0618 -0.7112
 7270SOL    HW233273   2.144   1.385   4.908  1.4261  0.5290 -0.1088
 7271SOL     OW33274   4.155   2.150  14.587  0.0288  0.4248  0.1761
 7271SOL    HW133275   4.247   2.129  14.568  0.3387  1.9448 -0.0544
 7271SOL    HW233276   4.145   2.091  14.661  3.0326 -1.1137 -0.6313
 7272SOL     OW33277   2.363   1.525   8.921  0.4063  0.1543  0.1006
 7272SOL    HW133278   2.319   1.458   8.973 -0.3822 -0.0924 -0.8959
 7272SOL    HW233279   2.360   1.602   8.978 -0.9889 -0.7182  1.2169
 7273SOL     OW33280   0.070   2.364   8.306 -0.0226 -0.7950  0.1815
 7273SOL    HW133281   0.032   2.279   8.330  2.0711 -1.8933 -0.4075
 7273SOL    HW233282   0.161   2.354   8.334  0.4177  0.1582 -0.8891
 7274SOL     OW33283   4.208   3.572   2.986  0.2174 -0.3175 -0.0524
 7274SOL    HW133284   4.279   3.508   2.978 -0.3377 -0.9773  0.3206
 7274SOL    HW233285   4.140   3.519   3.029 -2.4025  2.2955 -1.0003
 7275SOL     OW33286   0.962   1.054   0.669  0.1696  0.2023 -0.0474
 7275SOL    HW133287   0.968   0.993   0.596  2.2695  0.4433 -0.0725
 7275SOL    HW233288   0.969   1.130   0.611  2.9386  0.3205  0.4509
 7276SOL     OW33289   4.493   0.018  16.877  0.2491 -0.0718 -0.2674
 7276SOL    HW133290   4.438   4.671  16.913 -0.4213  1.3992  1.4940
 7276SOL    HW233291   4.468   0.015  16.784  0.2448  0.3969 -0.2786
 7277SOL     OW33292   0.811   1.831   4.379 -1.0914  0.0618  0.4068
 7277SOL    HW133293   0.814   1.760   4.316 -1.7837 -0.5325  1.0395
 7277SOL    HW233294   0.797   1.787   4.463 -3.2556  0.6987  0.3935
 7278SOL     OW33295   1.233   1.495   5.203  0.6561 -0.2271 -0.2959
 7278SOL    HW133296   1.302   1.515   5.266  0.4593  1.2209 -0.5495
 7278SOL    HW233297   1.152   1.508   5.253  0.5923 -1.2992 -0.1126
 7279SOL     OW33298   1.340   0.932  17.127  0.0277 -0.0675  0.5070
 7279SOL    HW133299   1.340   0.958  17.220 -0.7316  0.6277  0.3111
 7279SOL    HW233300   1.331   0.837  17.140 -3.4514  0.0039 -1.4174
 7280SOL     OW33301   4.239   2.373   8.678  0.5996  0.4819  0.0651
 7280SOL    HW133302   4.282   2.411   8.602  2.8688 -1.4220  0.4004
 7280SOL    HW233303   4.146   2.394   8.670  0.1287 -2.0374 -0.9400
 7281SOL     OW33304   4.492   1.722   7.471 -0.2344 -0.8166 -0.1575
 7281SOL    HW133305   4.542   1.803   7.474 -0.5337 -0.5964 -1.0431
 7281SOL    HW233306   4.513   1.680   7.555 -0.2149  1.6944  1.0840
 7282SOL     OW33307   4.234   0.579   6.062  0.6081 -0.4025 -0.1573
 7282SOL    HW133308   4.314   0.545   6.103 -0.6307 -0.4500  2.2225
 7282SOL    HW233309   4.235   0.539   5.975  1.8959 -0.3306 -0.1824
 7283SOL     OW33310   2.548   1.216  11.025 -0.3724  0.5542  0.4460
 7283SOL    HW133311   2.638   1.248  11.020  0.0410 -0.2310  2.5808
 7283SOL    HW233312   2.542   1.230  11.120 -1.3178  0.7580  0.3613
 7284SOL     OW33313   0.702   2.035   6.385 -0.2928  0.1711  0.3428
 7284SOL    HW133314   0.633   2.061   6.324  1.2983  2.5763 -0.4047
 7284SOL    HW233315   0.657   1.990   6.457 -2.4170  0.9916 -0.4756
 7285SOL     OW33316   2.997   3.746   5.594  0.4701  0.7421 -0.0966
 7285SOL    HW133317   2.945   3.733   5.673 -0.6452  2.2237 -0.5779
 7285SOL    HW233318   2.933   3.797   5.543 -1.5342 -0.0499  1.6148
 7286SOL     OW33319   2.853   2.060   2.459  0.3463  0.4807 -0.0290
 7286SOL    HW133320   2.811   2.042   2.375  1.0712  0.5716 -0.4049
 7286SOL    HW233321   2.838   1.971   2.492 -2.2806  1.8208  2.4429
 7287SOL     OW33322   3.037   0.304   3.423 -0.0794  0.1251  0.2439
 7287SOL    HW133323   3.101   0.349   3.478  0.7475 -0.4487 -0.2439
 7287SOL    HW233324   3.089   0.227   3.400 -1.7184 -0.3701 -1.7712
 7288SOL     OW33325   1.593   2.865  13.190  0.1750 -0.5336 -0.2934
 7288SOL    HW133326   1.609   2.943  13.244 -1.8090  0.4136 -1.0724
 7288SOL    HW233327   1.676   2.851  13.143  1.1903  1.0447  1.0182
 7289SOL     OW33328   1.627   4.390   9.966  0.0778 -0.1606  0.6110
 7289SOL    HW133329   1.570   4.425  10.034  0.4809  0.7760  0.4759
 7289SOL    HW233330   1.575   4.318   9.930  0.0475 -0.9656  2.3121
 7290SOL     OW33331   4.118   2.211  12.214  0.2083 -0.2952  0.1508
 7290SOL    HW133332   4.076   2.274  12.273 -0.1016  0.0619 -0.4502
 7290SOL    HW233333   4.115   2.127  12.261  0.0508  0.2479  1.1104
 7291SOL     OW33334   1.081   3.930   7.115  0.0527  0.3080 -0.1537
 7291SOL    HW133335   1.169   3.967   7.123  0.9770 -2.5100  2.7832
 7291SOL    HW233336   1.044   3.965   7.034 -1.8518  0.4512  0.7921
 7292SOL     OW33337   0.659   4.251   5.466  0.2633 -0.6302 -0.0501
 7292SOL    HW133338   0.702   4.206   5.393 -1.3638  2.1217 -2.6586
 7292SOL    HW233339   0.619   4.174   5.507  0.6281  0.2428  1.9395
 7293SOL     OW33340   2.078   0.637   4.546 -0.3336 -0.1312 -0.1748
 7293SOL    HW133341   2.035   0.574   4.603  0.4280 -1.0472 -0.6064
 7293SOL    HW233342   2.136   0.574   4.503  0.6653  1.2546 -0.8777
 7294SOL     OW33343   1.476   1.274   7.218  0.3305 -0.5185 -0.7433
 7294SOL    HW133344   1.501   1.220   7.143 -0.0627  1.5709 -2.3587
 7294SOL    HW233345   1.560   1.295   7.257 -1.1457 -0.8339  2.6103
 7295SOL     OW33346   1.165   3.018   3.792 -0.2307  0.2945 -0.1076
 7295SOL    HW133347   1.240   2.976   3.833 -2.3151 -0.6085  2.7196
 7295SOL    HW233348   1.217   3.089   3.752  1.1006 -0.3574  0.4650
 7296SOL     OW33349   4.360   3.034  10.394 -0.0089  0.1754 -0.0565
 7296SOL    HW133350   4.329   3.040  10.485  0.1291  0.3819 -0.0229
 7296SOL    HW233351   4.380   2.941  10.385 -1.1891 -0.2731  1.8160
 7297SOL     OW33352   3.520   1.797  15.236  0.2750 -0.1026 -0.1316
 7297SOL    HW133353   3.576   1.815  15.312  1.8064  2.5175 -1.8425
 7297SOL    HW233354   3.453   1.741  15.274  3.4672 -2.5703  1.8872
 7298SOL     OW33355   1.042   2.031  11.918  0.6346  0.0646 -0.4382
 7298SOL    HW133356   1.007   2.103  11.971 -1.1317 -0.5077 -0.8314
 7298SOL    HW233357   1.115   1.997  11.971  2.1534  1.9534 -1.3204
 7299SOL     OW33358   3.727   2.309  17.016 -0.3541 -0.3049 -0.0630
 7299SOL    HW133359   3.788   2.329  16.945 -1.3871  1.6414 -0.3888
 7299SOL    HW233360   3.671   2.385  17.004 -0.8293 -0.7066 -0.3562
 7300SOL     OW33361   3.518   2.428   0.123  0.1610 -0.0956 -0.2120
 7300SOL    HW133362   3.509   2.332   0.118 -1.3501  0.0557 -0.4797
 7300SOL    HW233363   3.559   2.452   0.040 -0.2335  0.2486 -0.3058
 7301SOL     OW33364   3.190   4.169   6.466 -0.3520  0.2300 -0.3026
 7301SOL    HW133365   3.208   4.080   6.494  0.3997  0.1567 -1.0489
 7301SOL    HW233366   3.129   4.149   6.395 -2.4230 -0.2532  1.5941
 7302SOL     OW33367   3.070   2.398   9.514 -0.9380  0.4124 -0.1208
 7302SOL    HW133368   3.156   2.437   9.500 -1.4797  1.1220 -1.4839
 7302SOL    HW233369   3.043   2.373   9.426 -1.4589  1.3650 -0.2378
 7303SOL     OW33370   3.042   1.882   5.406  0.0383 -0.3067 -0.0657
 7303SOL    HW133371   3.100   1.891   5.482 -1.7051  0.7250  1.1596
 7303SOL    HW233372   3.002   1.967   5.389  1.0885 -0.2098 -2.0345
 7304SOL     OW33373   2.606   0.276   0.512 -0.0363  0.6621  0.1624
 7304SOL    HW133374   2.602   0.183   0.536  0.2394  0.2318 -1.4501
 7304SOL    HW233375   2.646   0.275   0.424  0.4100 -1.3647  0.3886
 7305SOL     OW33376   0.066   1.901   6.097  0.3115  0.1067  0.3999
 7305SOL    HW133377   0.150   1.908   6.140  0.3403 -0.5745  0.4647
 7305SOL    HW233378   0.004   1.921   6.167 -0.4585  1.5299 -0.6828
 7306SOL     OW33379   1.283   0.820   7.008  0.0437 -0.4050  0.2115
 7306SOL    HW133380   1.268   0.830   6.914 -1.2178 -0.3118  0.4279
 7306SOL    HW233381   1.371   0.857   7.015 -0.2014  0.7420 -2.7690
 7307SOL     OW33382   4.266   1.525   3.502 -0.2279  0.3440  0.0448
 7307SOL    HW133383   4.193   1.552   3.446 -0.5737  4.2416  2.3690
 7307SOL    HW233384   4.229   1.440   3.523  0.2030  0.4584  1.2606
 7308SOL     OW33385   2.925   0.652   1.382  0.1011 -0.4567  0.3654
 7308SOL    HW133386   2.970   0.736   1.375  0.2484 -0.5157  0.5962
 7308SOL    HW233387   2.991   0.583   1.386  2.8026  1.9680 -1.4934
 7309SOL     OW33388   1.581   1.327   8.874  0.4796  0.3053 -0.1638
 7309SOL    HW133389   1.631   1.245   8.871  0.6514  0.3909  0.3137
 7309SOL    HW233390   1.613   1.377   8.950 -1.6654  1.7815 -0.2220
 7310SOL     OW33391   1.941   1.078   1.406 -0.1846  0.5911  0.3205
 7310SOL    HW133392   1.971   1.033   1.327 -2.3568  1.5416 -1.0371
 7310SOL    HW233393   1.895   1.156   1.375  0.7354  0.8416 -0.4205
 7311SOL     OW33394   1.918   2.534   7.947 -0.1972  0.4706 -0.0014
 7311SOL    HW133395   1.981   2.470   7.916  1.4414  0.8444  2.6101
 7311SOL    HW233396   1.850   2.517   7.882  0.0687 -1.2517  0.1713
 7312SOL     OW33397   2.074   1.331   7.804  0.1349  0.0741 -0.6396
 7312SOL    HW133398   2.077   1.239   7.777 -2.9617 -1.5522  4.5931
 7312SOL    HW233399   1.984   1.361   7.791  0.3712  0.9366 -0.2423
 7313SOL     OW33400   0.837   4.340   7.410 -0.4962  0.2814 -0.3872
 7313SOL    HW133401   0.920   4.294   7.396  0.6893  2.2680  0.2466
 7313SOL    HW233402   0.867   4.414   7.462  2.2875 -1.4100  0.4256
 7314SOL     OW33403   2.971   3.558   6.600  0.4229  0.3313 -0.3294
 7314SOL    HW133404   2.939   3.642   6.566  2.7863  1.0656 -0.7153
 7314SOL    HW233405   3.063   3.578   6.618  0.7575 -0.7206 -0.8720
 7315SOL     OW33406   2.590   4.279   6.949  0.3592  0.2771  0.2844
 7315SOL    HW133407   2.617   4.199   6.904 -1.6121 -0.5848  0.6270
 7315SOL    HW233408   2.605   4.252   7.039 -0.8359 -0.3153  0.3103
 7316SOL     OW33409   2.941   0.986   5.530 -0.6102 -0.4950  0.1718
 7316SOL    HW133410   2.996   0.910   5.551  0.6354  0.7947  1.5245
 7316SOL    HW233411   2.952   1.000   5.436  1.4770  0.5130  0.5896
 7317SOL     OW33412   2.667   2.153   6.588 -0.2884  0.7586 -0.5241
 7317SOL    HW133413   2.727   2.085   6.559 -0.6227  0.1827  0.1579
 7317SOL    HW233414   2.595   2.142   6.527 -0.1797  1.8819 -0.8586
 7318SOL     OW33415   1.451   3.376   3.777  0.0401  0.0806 -0.1785
 7318SOL    HW133416   1.432   3.329   3.696 -0.2814 -0.8556  0.4374
 7318SOL    HW233417   1.362   3.391   3.809  0.3779  0.8755  0.3946
 7319SOL     OW33418   4.027   4.103   6.035 -0.0368 -0.6487  0.0021
 7319SOL    HW133419   4.000   4.194   6.047  2.0576 -0.0978  0.6526
 7319SOL    HW233420   4.095   4.111   5.968  0.9558 -0.3831  1.0339
 7320SOL     OW33421   1.899   3.986   4.011  0.0960 -0.1625 -0.7104
 7320SOL    HW133422   1.930   4.009   4.098 -1.1813 -2.1422  0.2667
 7320SOL    HW233423   1.835   4.054   3.994  1.4434  1.9283  2.6538
 7321SOL     OW33424   3.021   3.880   3.231 -0.4758  0.4724 -0.6095
 7321SOL    HW133425   2.969   3.912   3.157 -2.0913  0.5386  0.5418
 7321SOL    HW233426   3.087   3.822   3.194  1.3748  2.4155 -0.3610
 7322SOL     OW33427   3.717   3.245   8.256  0.2116  0.3865  0.8833
 7322SOL    HW133428   3.784   3.271   8.193 -1.7639 -1.5862 -2.0446
 7322SOL    HW233429   3.691   3.327   8.298 -0.4049  1.0040 -0.6813
 7323SOL     OW33430   3.256   0.492   4.860 -0.1917 -0.0666 -0.4199
 7323SOL    HW133431   3.259   0.476   4.765 -0.4364 -1.3181 -0.2196
 7323SOL    HW233432   3.221   0.581   4.860  0.6485  0.2351  2.3499
 7324SOL     OW33433   3.711   3.125   1.445 -0.1089  0.0125 -0.1914
 7324SOL    HW133434   3.651   3.077   1.389 -0.9438  0.0549  0.6692
 7324SOL    HW233435   3.703   3.069   1.522 -0.3531  1.1404  0.6056
 7325SOL     OW33436   2.210   0.599  14.001 -0.7860 -0.7033 -0.3251
 7325SOL    HW133437   2.226   0.658  14.075 -0.0827  0.2348 -1.2335
 7325SOL    HW233438   2.282   0.536  14.013  0.3460  0.6891  0.1297
 7326SOL     OW33439   3.637   3.656   2.899  0.0465  0.8307  0.5675
 7326SOL    HW133440   3.690   3.633   2.823 -0.9943 -1.0663  0.3962
 7326SOL    HW233441   3.581   3.711   2.844 -0.1831  0.3630  0.3311
 7327SOL     OW33442   0.109   4.703   1.936  0.2624  0.1202 -0.1075
 7327SOL    HW133443   0.063   0.045   1.882 -0.7787 -1.1418 -0.7228
 7327SOL    HW233444   0.195   0.019   1.947  1.0246 -1.4195 -0.6962
 7328SOL     OW33445   2.679   1.283   2.014  0.4540 -0.6031  0.1404
 7328SOL    HW133446   2.649   1.267   2.104 -1.2567 -0.4807 -0.4041
 7328SOL    HW233447   2.641   1.370   2.001  0.1786 -0.6884  0.3749
 7329SOL     OW33448   4.626   3.106   4.679  0.0196 -0.4081  0.5974
 7329SOL    HW133449   4.639   3.121   4.586  0.1639 -0.6816  0.5738
 7329SOL    HW233450   4.572   3.027   4.677 -0.7534  0.0528  3.3631
 7330SOL     OW33451   1.551   2.574   6.443  0.4033 -0.3778 -0.6525
 7330SOL    HW133452   1.564   2.502   6.506  0.7201  1.1336  1.0086
 7330SOL    HW233453   1.471   2.541   6.402 -1.3880  1.4611  1.3734
 7331SOL     OW33454   2.594   1.209  12.605  0.8196  0.3337  0.0022
 7331SOL    HW133455   2.555   1.253  12.529 -0.4951  0.5064  0.7761
 7331SOL    HW233456   2.540   1.129  12.602 -1.2765  1.6501  2.8242
 7332SOL     OW33457   3.332   0.849   1.532 -1.0997 -0.6131  0.2058
 7332SOL    HW133458   3.415   0.837   1.485 -0.0839 -0.1484  1.8898
 7332SOL    HW233459   3.356   0.895   1.613 -3.1810  0.4772  0.1909
 7333SOL     OW33460   0.718   3.168  17.053  0.5759 -0.6908  0.4120
 7333SOL    HW133461   0.736   3.213  16.971  0.5854  2.5909  2.1889
 7333SOL    HW233462   0.752   3.083  17.028 -0.1929 -1.2634  1.2869
 7334SOL     OW33463   3.021   1.688   0.014 -0.6536 -0.7899  0.5817
 7334SOL    HW133464   3.090   1.632   0.050 -0.0433 -1.7035 -1.9905
 7334SOL    HW233465   3.085   1.756  17.685 -2.1296  0.4288  0.0883
 7335SOL     OW33466   1.701   3.188   5.276  0.8605  0.1704  0.2331
 7335SOL    HW133467   1.620   3.149   5.310 -0.3719  1.4885 -1.1760
 7335SOL    HW233468   1.718   3.257   5.340  1.3648 -1.4823  1.8660
 7336SOL     OW33469   4.149   2.274  17.637  0.3271 -0.0928  0.3059
 7336SOL    HW133470   4.221   2.281  17.573 -0.3979  1.5871 -0.3088
 7336SOL    HW233471   4.184   2.301   0.028 -2.0951  3.5049  0.1578
 7337SOL     OW33472   0.783   4.546   4.146  0.2803  0.5852  0.8291
 7337SOL    HW133473   0.720   4.582   4.209 -1.3026 -0.8118  0.0602
 7337SOL    HW233474   0.853   4.514   4.203  2.0295  0.7402 -1.2553
 7338SOL     OW33475   1.391   3.457  16.974  0.0125  0.4629 -0.1201
 7338SOL    HW133476   1.319   3.445  17.036  0.1313 -0.7142 -0.2011
 7338SOL    HW233477   1.467   3.420  17.018 -1.0577 -2.5647 -0.8400
 7339SOL     OW33478   3.766   2.600  12.570 -0.4621  0.1028  0.5862
 7339SOL    HW133479   3.686   2.585  12.520  0.0112  0.3651 -0.2404
 7339SOL    HW233480   3.778   2.514  12.609  1.1091 -0.5591 -1.3637
 7340SOL     OW33481   3.841   3.036   8.387 -1.0925 -0.2343  0.2408
 7340SOL    HW133482   3.802   3.115   8.350 -1.2883 -0.3352  0.2310
 7340SOL    HW233483   3.816   3.039   8.480  4.7365  1.5747  1.7626
 7341SOL     OW33484   3.203   4.089  13.210  0.2329  0.6276  0.6428
 7341SOL    HW133485   3.154   4.166  13.237  0.3410  1.4141 -1.4320
 7341SOL    HW233486   3.287   4.128  13.187 -0.0380  0.6494 -0.3054
 7342SOL     OW33487   1.252   0.375   2.703 -0.0067 -0.2931  0.1578
 7342SOL    HW133488   1.213   0.299   2.745  0.8120 -0.9523 -0.2780
 7342SOL    HW233489   1.257   0.431   2.781 -1.2566 -0.4973  0.3811
 7343SOL     OW33490   2.739   0.952   8.046 -0.7208 -0.2490 -0.0335
 7343SOL    HW133491   2.712   0.986   7.961 -2.8487  1.0020  1.1376
 7343SOL    HW233492   2.834   0.956   8.048 -0.6710 -0.9917 -1.1399
 7344SOL     OW33493   2.200   2.255   3.285 -0.1052 -0.4364  0.3813
 7344SOL    HW133494   2.247   2.178   3.252  2.2137  1.0109  0.3038
 7344SOL    HW233495   2.185   2.298   3.201  0.1879 -0.2287  0.4367
 7345SOL     OW33496   2.696   2.472  10.336  0.0679  0.1446  0.5065
 7345SOL    HW133497   2.622   2.412  10.346 -0.7478  1.3462  1.6231
 7345SOL    HW233498   2.665   2.512  10.255  3.9876 -0.3955 -1.2571
 7346SOL     OW33499   2.438   3.985   7.378  0.2336  0.5779  0.5186
 7346SOL    HW133500   2.353   4.025   7.395 -0.4475 -0.4066 -0.5003
 7346SOL    HW233501   2.444   3.946   7.290 -0.8537  0.4082  0.5189
 7347SOL     OW33502   4.290   4.006   1.067 -0.2009  0.4639  0.2067
 7347SOL    HW133503   4.261   4.080   1.121 -1.0392  0.0657  0.3166
 7347SOL    HW233504   4.219   3.945   1.087 -0.6122  1.0680  0.5886
 7348SOL     OW33505   1.469   3.251  14.624  0.6804  0.2786 -0.3744
 7348SOL    HW133506   1.503   3.162  14.630 -0.6033 -0.2529 -1.2286
 7348SOL    HW233507   1.385   3.247  14.669  0.5457  1.5591 -0.5155
 7349SOL     OW33508   1.340   0.205   4.811 -0.0513  0.4288 -0.1232
 7349SOL    HW133509   1.344   0.136   4.744  2.3386  0.8529 -0.4091
 7349SOL    HW233510   1.248   0.231   4.797  0.2947  1.1712 -1.0462
 7350SOL     OW33511   2.642   3.762  15.273  0.5308 -0.0690  0.1837
 7350SOL    HW133512   2.599   3.813  15.205  0.9463  0.2285  0.1462
 7350SOL    HW233513   2.619   3.816  15.349  0.6204 -0.6653  0.6405
 7351SOL     OW33514   4.296   0.248   3.026  0.3346  0.1031  0.0497
 7351SOL    HW133515   4.250   0.177   2.981  0.3860  0.8451 -1.1852
 7351SOL    HW233516   4.226   0.313   3.038 -1.4864 -1.5380 -1.6451
 7352SOL     OW33517   2.282   3.211  14.486 -0.4090 -0.3799  0.4085
 7352SOL    HW133518   2.293   3.132  14.433  2.8854  0.2835  0.0881
 7352SOL    HW233519   2.198   3.238  14.449 -0.0525  0.2109  0.0215
 7353SOL     OW33520   3.299   2.668  14.114  0.1351  0.4496 -0.7715
 7353SOL    HW133521   3.295   2.577  14.084  0.0162  0.3155 -0.3560
 7353SOL    HW233522   3.340   2.654  14.200  2.1053  2.1642 -1.4280
 7354SOL     OW33523   4.373   0.738  11.127 -0.5136  0.5563  0.8537
 7354SOL    HW133524   4.307   0.761  11.192 -0.0811  2.0141  0.7880
 7354SOL    HW233525   4.316   0.684  11.072 -1.5239  0.8392  1.6296
 7355SOL     OW33526   4.308   1.168   8.725  0.3330 -0.5970  0.3414
 7355SOL    HW133527   4.247   1.203   8.790  1.2809  0.1750  0.8064
 7355SOL    HW233528   4.347   1.249   8.693 -0.7745 -0.2060 -0.0398
 7356SOL     OW33529   3.589   0.631   6.364 -0.0913 -0.5299 -0.1523
 7356SOL    HW133530   3.674   0.670   6.346  0.4868 -1.7817 -0.1114
 7356SOL    HW233531   3.571   0.692   6.436 -1.2366 -1.9646  0.7887
 7357SOL     OW33532   3.172   0.145  10.658 -0.6773 -0.1980  0.4854
 7357SOL    HW133533   3.221   0.082  10.710  1.3681  0.5986 -0.4657
 7357SOL    HW233534   3.183   0.096  10.577 -0.6579  0.6902 -0.0542
 7358SOL     OW33535   2.915   4.613   5.345 -0.0949 -0.8833  0.2009
 7358SOL    HW133536   2.889   4.705   5.353  0.3485 -0.6817 -0.6592
 7358SOL    HW233537   2.963   4.619   5.262 -0.5616  1.4180  0.0939
 7359SOL     OW33538   0.151   1.276  12.924 -0.3725 -0.1423 -0.3828
 7359SOL    HW133539   0.082   1.330  12.962  0.4063  0.4863  0.1421
 7359SOL    HW233540   0.175   1.327  12.846 -0.5645  1.7982  0.8489
 7360SOL     OW33541   2.038   3.130   6.117 -0.7227  0.6330 -0.8951
 7360SOL    HW133542   2.076   3.056   6.070  0.0501 -0.4007  1.3414
 7360SOL    HW233543   2.105   3.196   6.102  0.0828 -0.2941 -1.3269
 7361SOL     OW33544   1.802   3.426   0.823  0.4661  0.0528  0.0243
 7361SOL    HW133545   1.817   3.486   0.895 -0.8217 -1.1160  1.2664
 7361SOL    HW233546   1.855   3.351   0.847  1.3639  0.8515  0.5109
 7362SOL     OW33547   4.438   3.830   4.960  0.0163  0.6253  0.1999
 7362SOL    HW133548   4.453   3.831   4.865  1.3202 -1.7410  0.3834
 7362SOL    HW233549   4.439   3.922   4.988 -1.7441 -0.0150  2.3254
 7363SOL     OW33550   3.013   2.820  14.410  0.1176 -0.0789  0.4394
 7363SOL    HW133551   2.956   2.747  14.386  1.1952 -1.6749  2.7617
 7363SOL    HW233552   3.050   2.788  14.493 -2.9081 -0.2570  1.7171
 7364SOL     OW33553   2.938   1.872   0.218 -0.4717  0.0839  0.2739
 7364SOL    HW133554   2.846   1.849   0.214 -0.8860  1.7695  0.1300
 7364SOL    HW233555   2.985   1.815   0.158 -1.1099 -0.4099  0.2464
 7365SOL     OW33556   4.137   3.914   6.744  0.2866 -0.0873 -1.1241
 7365SOL    HW133557   4.062   3.947   6.794  1.5616  1.4427 -0.2073
 7365SOL    HW233558   4.201   3.984   6.761  0.1177  0.3536 -2.3231
 7366SOL     OW33559   0.388   3.843  17.122  0.4039  0.0165 -0.0216
 7366SOL    HW133560   0.397   3.898  17.044  2.1457 -0.2721 -0.0228
 7366SOL    HW233561   0.441   3.767  17.097 -0.5417 -0.6819  0.1144
 7367SOL     OW33562   0.390   3.324   9.017  0.1354 -0.0576 -0.1725
 7367SOL    HW133563   0.410   3.272   9.096  0.3352  2.7289  1.6116
 7367SOL    HW233564   0.337   3.261   8.969  1.6526 -0.8517 -0.7989
 7368SOL     OW33565   4.254   4.112  14.244  0.2297 -0.3518 -0.6490
 7368SOL    HW133566   4.233   4.142  14.155  2.6219  1.5440 -0.5876
 7368SOL    HW233567   4.175   4.061  14.263 -0.8566  0.6978 -2.3481
 7369SOL     OW33568   3.304   0.722   0.810 -0.6077 -0.0730  0.3720
 7369SOL    HW133569   3.257   0.680   0.882 -1.4598 -0.3714 -0.3580
 7369SOL    HW233570   3.363   0.649   0.795 -0.2668  0.4466 -0.8112
 7370SOL     OW33571   3.623   3.460  13.625  0.3648  0.1444 -0.1893
 7370SOL    HW133572   3.632   3.542  13.576 -1.9520  1.1413  1.0825
 7370SOL    HW233573   3.645   3.394  13.559 -0.1693 -0.8712  0.6586
 7371SOL     OW33574   3.536   2.292   3.502 -0.3053  0.4180 -0.1939
 7371SOL    HW133575   3.497   2.363   3.451 -0.2771  2.0770  2.0901
 7371SOL    HW233576   3.482   2.224   3.462 -2.8931  2.3664 -0.0127
 7372SOL     OW33577   0.136   1.838   1.591 -0.0434  0.1378  0.5737
 7372SOL    HW133578   0.172   1.828   1.503 -1.6417  1.9998 -0.2844
 7372SOL    HW233579   0.201   1.890   1.638 -0.4088 -0.1156  1.3596
 7373SOL     OW33580   1.249   3.457   4.868 -0.7232  0.6088 -0.1131
 7373SOL    HW133581   1.241   3.397   4.793 -2.6729 -1.9348  2.1247
 7373SOL    HW233582   1.296   3.529   4.826  2.4223  0.2864  2.8407
 7374SOL     OW33583   0.990   1.908   3.112 -1.0847  0.1240  0.0046
 7374SOL    HW133584   0.896   1.908   3.092 -1.0282 -1.5907 -0.2669
 7374SOL    HW233585   0.988   1.818   3.146 -3.3675  1.2515  2.8458
 7375SOL     OW33586   1.195   1.485  17.200  0.8124 -0.3580 -0.2420
 7375SOL    HW133587   1.185   1.407  17.254 -0.3477  1.1802  1.7909
 7375SOL    HW233588   1.136   1.543  17.250  1.5345 -1.6385  2.0696
 7376SOL     OW33589   3.796   4.391   8.703 -1.0107 -0.2760  0.3461
 7376SOL    HW133590   3.794   4.375   8.608  2.0359  2.8867 -0.2215
 7376SOL    HW233591   3.763   4.481   8.701 -0.2768 -0.0142  0.3104
 7377SOL     OW33592   0.876   3.767   1.047 -0.0219 -0.3665  0.1888
 7377SOL    HW133593   0.961   3.743   1.082 -0.3680 -2.0039 -0.0638
 7377SOL    HW233594   0.890   3.861   1.038 -0.3561 -0.1632  1.8924
 7378SOL     OW33595   1.323   3.182   3.631  0.2236 -0.3231  0.1477
 7378SOL    HW133596   1.256   3.216   3.571 -0.0722  0.3156  0.8447
 7378SOL    HW233597   1.374   3.127   3.571  1.2146 -0.0450  0.7467
 7379SOL     OW33598   4.544   3.133   5.935  0.0147  0.5102  0.2254
 7379SOL    HW133599   4.504   3.047   5.922  1.7243 -0.2631  0.0324
 7379SOL    HW233600   4.496   3.167   6.011  0.4597 -0.9261  1.1523
 7380SOL     OW33601   2.453   4.315   6.378  0.2270 -0.2495 -0.0103
 7380SOL    HW133602   2.364   4.291   6.355  0.4096 -2.3219  1.3993
 7380SOL    HW233603   2.432   4.392   6.429 -0.5338 -0.5523  0.1278
 7381SOL     OW33604   0.564   2.759   0.310 -0.1251 -0.6126  0.2255
 7381SOL    HW133605   0.538   2.838   0.358 -2.2194 -2.8020  2.7601
 7381SOL    HW233606   0.514   2.773   0.229  1.3258 -2.0411 -0.8907
 7382SOL     OW33607   1.918   1.006   3.406 -0.1739  0.2851 -0.0677
 7382SOL    HW133608   1.911   0.910   3.410 -1.7752  0.3333 -1.7747
 7382SOL    HW233609   1.926   1.021   3.501 -1.0647 -1.3509  0.2782
 7383SOL     OW33610   2.076   0.272   7.458 -0.7593 -0.0484  0.2661
 7383SOL    HW133611   2.129   0.344   7.492  1.3869 -0.9559 -1.1373
 7383SOL    HW233612   1.997   0.288   7.509 -0.2313  2.0281  0.4055
 7384SOL     OW33613   2.067   0.874   6.766 -0.1704  0.6142  0.2246
 7384SOL    HW133614   2.024   0.943   6.715 -1.1683 -0.9894 -1.0907
 7384SOL    HW233615   2.024   0.872   6.851  1.8868  0.9456  1.2667
 7385SOL     OW33616   4.512   2.529  12.876  0.1479  0.0880  0.3623
 7385SOL    HW133617   4.569   2.484  12.938 -0.2010 -1.4059 -0.4023
 7385SOL    HW233618   4.552   2.502  12.794  0.0851  0.7467  0.1165
 7386SOL     OW33619   3.375   3.780   5.879 -0.1717 -0.6138 -0.1810
 7386SOL    HW133620   3.353   3.762   5.788 -0.1990  0.6837 -0.4272
 7386SOL    HW233621   3.283   3.784   5.906 -0.0525  1.3119 -0.0521
 7387SOL     OW33622   3.541   1.979  12.596 -0.1465  0.3400  0.0122
 7387SOL    HW133623   3.584   2.045  12.541  2.2104  0.2801  1.7985
 7387SOL    HW233624   3.468   1.954  12.539 -0.4921 -1.8356  1.4268
 7388SOL     OW33625   1.410   1.097  11.487 -0.2076  0.3557 -0.1402
 7388SOL    HW133626   1.439   1.176  11.534 -0.4056  1.4406 -1.8139
 7388SOL    HW233627   1.345   1.065  11.549  1.3070  1.0436  1.8010
 7389SOL     OW33628   3.467   0.165  14.097 -0.2208  0.3369  0.1621
 7389SOL    HW133629   3.509   0.123  14.022  0.1538 -0.5157  0.8445
 7389SOL    HW233630   3.523   0.145  14.173  1.7379  0.4711 -1.2612
 7390SOL     OW33631   3.759   2.359  14.082  0.4834 -0.3439 -0.0340
 7390SOL    HW133632   3.717   2.394  14.004 -1.0303 -2.2836 -0.0935
 7390SOL    HW233633   3.697   2.287  14.094 -2.1328  1.4859 -2.4757
 7391SOL     OW33634   1.497   2.831   1.439  0.1461 -0.3045  0.3377
 7391SOL    HW133635   1.402   2.815   1.439  0.2215 -0.7528 -0.3090
 7391SOL    HW233636   1.519   2.821   1.346  0.9500 -1.7085  0.6721
 7392SOL     OW33637   4.365   4.055   4.247  0.1085  0.0825  0.2179
 7392SOL    HW133638   4.282   4.009   4.231 -0.0446  0.9651 -1.4782
 7392SOL    HW233639   4.426   3.997   4.293 -0.5142 -0.6672  0.0953
 7393SOL     OW33640   1.391   4.531   3.324 -0.0459  0.2376  0.4999
 7393SOL    HW133641   1.297   4.542   3.307  0.0277  1.7995  1.0487
 7393SOL    HW233642   1.419   4.593   3.256 -2.3300  0.0816 -0.6062
 7394SOL     OW33643   4.572   1.957   9.078 -0.7269  0.2100  0.2926
 7394SOL    HW133644   4.572   2.043   9.121 -0.2615  1.2893 -1.8861
 7394SOL    HW233645   4.604   1.907   9.153  2.0480  1.2668 -0.1805
 7395SOL     OW33646   2.641   0.418   2.449 -0.2274  0.2234  0.5546
 7395SOL    HW133647   2.593   0.500   2.445 -0.6356 -0.0662 -0.4658
 7395SOL    HW233648   2.674   0.424   2.538  0.9489  0.9574  0.0731
 7396SOL     OW33649   1.155   3.203   7.943  0.8025 -0.0896 -0.0045
 7396SOL    HW133650   1.157   3.203   8.038  0.4702 -3.1489 -0.0158
 7396SOL    HW233651   1.193   3.290   7.932 -1.1154  0.6899 -0.5200
 7397SOL     OW33652   1.047   4.012   3.774 -0.3682  0.4367 -0.4070
 7397SOL    HW133653   0.987   4.039   3.844  0.7230  2.1690 -0.1461
 7397SOL    HW233654   1.080   4.097   3.746  0.4331  0.6369  1.1422
 7398SOL     OW33655   4.141   1.763   5.066 -0.2021  0.2944  0.2270
 7398SOL    HW133656   4.086   1.795   4.995 -1.2754 -1.0699  0.4335
 7398SOL    HW233657   4.098   1.678   5.081  0.4679 -0.1855 -0.5406
 7399SOL     OW33658   4.132   3.141   2.143 -0.4278 -0.2363  0.1396
 7399SOL    HW133659   4.150   3.213   2.083 -0.4492 -0.3781 -0.0386
 7399SOL    HW233660   4.038   3.156   2.138 -0.0486  1.3184 -1.9682
 7400SOL     OW33661   0.670   3.564   6.790 -0.1909  0.5598  0.6407
 7400SOL    HW133662   0.710   3.531   6.870  0.8272  0.1393 -0.0403
 7400SOL    HW233663   0.713   3.649   6.775 -0.1723  0.2053 -1.2787
 7401SOL     OW33664   4.364   3.834  14.608  0.5637  0.4977 -0.0117
 7401SOL    HW133665   4.368   3.756  14.554 -1.0211 -0.3063  1.0252
 7401SOL    HW233666   4.443   3.878  14.576  1.1386  1.1699  2.3188
 7402SOL     OW33667   2.764   1.868   4.388  0.0935  0.2862  0.3328
 7402SOL    HW133668   2.705   1.845   4.316  0.3751  2.4684 -0.6014
 7402SOL    HW233669   2.745   1.813   4.463 -1.9469  1.1026  0.4186
 7403SOL     OW33670   0.996   0.109   7.305 -0.3056  0.0515  0.3166
 7403SOL    HW133671   0.940   0.186   7.313  1.4828  1.4663 -0.8255
 7403SOL    HW233672   1.029   0.122   7.216 -1.5663 -0.8105 -0.2794
 7404SOL     OW33673   3.582   0.648   1.050  0.0893 -0.8366 -0.2725
 7404SOL    HW133674   3.614   0.607   0.970 -0.9396 -2.5704  0.2046
 7404SOL    HW233675   3.640   0.616   1.119  0.1175 -0.2619 -0.0219
 7405SOL     OW33676   0.626   2.455   7.848 -0.3015  0.1948  0.3591
 7405SOL    HW133677   0.620   2.495   7.762 -2.3325  0.1413  0.4733
 7405SOL    HW233678   0.567   2.517   7.893 -0.8385 -0.0700  0.0264
 7406SOL     OW33679   3.181   3.167  13.003  0.4723  0.2952  0.3005
 7406SOL    HW133680   3.212   3.231  13.067 -0.3076  2.1753 -1.2016
 7406SOL    HW233681   3.110   3.121  13.049 -0.7329 -0.1475 -2.0034
 7407SOL     OW33682   2.309   1.743   8.150 -0.6717  0.1323 -0.1563
 7407SOL    HW133683   2.262   1.714   8.072  0.2490 -3.1970  0.5044
 7407SOL    HW233684   2.237   1.775   8.205 -0.9916  1.1162 -1.1467
 7408SOL     OW33685   0.283   2.934   3.003 -1.0970  0.2038 -0.0284
 7408SOL    HW133686   0.195   2.896   2.995 -0.7230 -0.3265 -1.6704
 7408SOL    HW233687   0.331   2.870   3.056  0.9607  0.4280 -1.6212
 7409SOL     OW33688   3.025   4.570  15.888 -0.2857  0.0909  0.9114
 7409SOL    HW133689   2.957   4.542  15.827  0.4082  0.7321 -0.1556
 7409SOL    HW233690   2.970   4.581  15.965 -1.6440 -0.0996 -0.0337
 7410SOL     OW33691   4.665   1.662   6.339 -0.0525 -0.5347  0.6279
 7410SOL    HW133692   4.583   1.708   6.319  0.2404  0.9662  2.9475
 7410SOL    HW233693   4.717   1.663   6.258 -0.9114 -1.2666  0.0627
 7411SOL     OW33694   4.621   2.166  15.964  0.5180 -0.0995 -0.1584
 7411SOL    HW133695   4.578   2.134  16.043  0.1056  2.2501  0.5949
 7411SOL    HW233696   4.667   2.242  16.001  0.3795 -0.4752  0.7687
 7412SOL     OW33697   3.689   3.125   7.712 -0.3287 -0.2330 -0.4108
 7412SOL    HW133698   3.784   3.111   7.715 -0.1860  0.6632 -0.7753
 7412SOL    HW233699   3.687   3.148   7.619  3.0489 -1.1953 -0.7305
 7413SOL     OW33700   0.099   0.493   3.708 -1.1247  0.0388  0.2588
 7413SOL    HW133701   0.028   0.429   3.706  1.2811 -2.5902 -1.5986
 7413SOL    HW233702   0.167   0.428   3.723 -0.9883  0.6670  2.3843
 7414SOL     OW33703   4.102   3.679  16.572 -0.2960  0.1342  0.4773
 7414SOL    HW133704   4.116   3.622  16.496  0.2315  0.1858  0.5386
 7414SOL    HW233705   4.056   3.625  16.637  0.1302 -1.3719 -0.4734
 7415SOL     OW33706   4.138   3.824   2.925  0.0084  0.2656  0.2756
 7415SOL    HW133707   4.148   3.729   2.918 -0.9437  0.0448  1.8946
 7415SOL    HW233708   4.080   3.851   2.854  0.8957  2.8358  0.5192
 7416SOL     OW33709   0.377   1.109  13.303 -0.4387  0.2436 -0.3303
 7416SOL    HW133710   0.322   1.087  13.228 -1.4688 -0.7000  0.6848
 7416SOL    HW233711   0.314   1.174  13.335 -0.8986 -0.7251  0.7251
 7417SOL     OW33712   4.482   2.172   4.789 -0.3186 -0.2411  0.7066
 7417SOL    HW133713   4.474   2.186   4.883 -1.6282  0.9905  0.3976
 7417SOL    HW233714   4.574   2.154   4.771  0.3739  0.4095  3.6369
 7418SOL     OW33715   2.492   1.872   7.929 -0.4461 -0.0094 -0.3646
 7418SOL    HW133716   2.430   1.814   7.884  1.1084 -2.0368  0.1257
 7418SOL    HW233717   2.434   1.934   7.974  0.9832  0.6690  0.5382
 7419SOL     OW33718   4.721   2.664   1.847  0.0380  0.5317 -0.2949
 7419SOL    HW133719   0.049   2.661   1.766 -2.8801  0.9407 -2.1628
 7419SOL    HW233720   4.639   2.692   1.805 -0.1993  0.3518  0.0490
 7420SOL     OW33721   3.485   2.879  16.518  0.4971 -0.4735  0.2624
 7420SOL    HW133722   3.525   2.861  16.433 -0.5813 -0.1964 -0.3113
 7420SOL    HW233723   3.451   2.967  16.502  0.9429 -0.6309 -1.5353
 7421SOL     OW33724   0.412   2.599   7.941  0.8908 -0.5457  0.1424
 7421SOL    HW133725   0.364   2.649   8.008  1.8894 -1.9208  1.8967
 7421SOL    HW233726   0.368   2.515   7.950 -0.8554  0.2569 -0.8573
 7422SOL     OW33727   2.743   0.593  16.477  0.2629 -0.2074  0.0046
 7422SOL    HW133728   2.650   0.598  16.499  0.3349  0.2778  0.2062
 7422SOL    HW233729   2.773   0.510  16.513  0.2626  0.2257  1.0106
 7423SOL     OW33730   4.463   0.863   6.088  0.4147 -0.1048  0.2721
 7423SOL    HW133731   4.378   0.906   6.075  0.8198  0.7684  0.5090
 7423SOL    HW233732   4.509   0.920   6.026  0.6240 -1.4925 -0.8452
 7424SOL     OW33733   1.213   2.382   9.073  0.4056  0.3384 -0.2061
 7424SOL    HW133734   1.192   2.388   9.166  2.2749 -1.3707  0.3256
 7424SOL    HW233735   1.165   2.458   9.040 -0.8917 -0.1662  0.5352
 7425SOL     OW33736   4.651   1.754   7.689 -0.4121 -0.3482  0.5103
 7425SOL    HW133737   4.721   1.794   7.741  0.3591  0.6069 -1.2687
 7425SOL    HW233738   4.587   1.725   7.754  2.5401 -2.3303  2.5549
 7426SOL     OW33739   1.950   0.836   5.539 -0.3186 -0.0994 -0.1515
 7426SOL    HW133740   1.902   0.889   5.602  0.6433 -2.4555  2.5899
 7426SOL    HW233741   1.886   0.823   5.470 -0.1963  3.4205 -0.9160
 7427SOL     OW33742   0.145   4.442   3.400  0.5459 -0.1380  0.1364
 7427SOL    HW133743   0.139   4.537   3.407 -1.3137 -0.2365 -0.1240
 7427SOL    HW233744   0.079   4.414   3.463  0.9489 -0.8783  0.2270
 7428SOL     OW33745   2.994   1.299   7.546  0.5284 -0.0731  0.0010
 7428SOL    HW133746   2.944   1.350   7.481 -1.3914  0.0045  1.5190
 7428SOL    HW233747   3.037   1.375   7.585  1.5310  0.1018 -1.4478
 7429SOL     OW33748   3.071   2.421   8.480  0.2651  0.0318  0.1468
 7429SOL    HW133749   3.026   2.477   8.545 -4.1238 -2.4275 -0.7430
 7429SOL    HW233750   3.096   2.487   8.415 -0.5547  0.8809  0.6725
 7430SOL     OW33751   0.388   1.938   8.263  0.2482 -0.1444  0.4720
 7430SOL    HW133752   0.423   1.912   8.178 -1.3094  0.1039 -0.2477
 7430SOL    HW233753   0.365   2.027   8.238  2.4341 -0.2240 -1.8539
 7431SOL     OW33754   0.528   3.127   3.874  0.6063 -0.3546  0.3140
 7431SOL    HW133755   0.473   3.062   3.917 -1.6095 -0.7677 -3.1574
 7431SOL    HW233756   0.528   3.084   3.788 -2.5024  0.7501 -0.2358
 7432SOL     OW33757   3.500   3.953   6.061 -0.1844 -0.5183 -0.5150
 7432SOL    HW133758   3.433   3.897   6.021 -0.4999 -0.0686 -0.6092
 7432SOL    HW233759   3.573   3.912   6.014  0.9181  1.3010 -0.3653
 7433SOL     OW33760   1.260   0.512   4.618 -0.4983 -0.7722 -0.2287
 7433SOL    HW133761   1.261   0.572   4.543 -4.0623 -0.5566 -0.0870
 7433SOL    HW233762   1.301   0.436   4.577  0.9776 -0.2798  0.2953
 7434SOL     OW33763   0.347   3.384   2.466  0.3701  0.2395 -0.0008
 7434SOL    HW133764   0.324   3.476   2.478 -1.5855  0.1965 -3.2233
 7434SOL    HW233765   0.318   3.347   2.549 -0.8927 -2.0431 -1.4752
 7435SOL     OW33766   2.030   0.497   1.631 -0.5665  0.4492 -0.2226
 7435SOL    HW133767   2.080   0.565   1.587 -0.2137  0.2847 -0.0705
 7435SOL    HW233768   2.075   0.413   1.620 -0.3070  0.4831  0.6187
 7436SOL     OW33769   1.773   0.718   3.724 -0.3375  0.2090  0.2235
 7436SOL    HW133770   1.702   0.720   3.788  0.6746 -0.2585  1.3549
 7436SOL    HW233771   1.749   0.634   3.684  0.1459  0.2096 -0.0732
 7437SOL     OW33772   2.276   1.012   5.371  0.3571 -0.2340 -0.4503
 7437SOL    HW133773   2.209   1.040   5.308  0.5771 -1.3479 -1.1944
 7437SOL    HW233774   2.252   0.919   5.370  0.9796 -0.4326  4.9087
 7438SOL     OW33775   0.748   1.991  12.487  0.5230 -0.0179 -0.1993
 7438SOL    HW133776   0.808   1.916  12.489  1.9598  1.2162  3.1188
 7438SOL    HW233777   0.734   1.996  12.581 -1.2380  0.4788 -0.4882
 7439SOL     OW33778   1.467   2.795  16.207  0.3968 -0.0146 -0.5687
 7439SOL    HW133779   1.429   2.861  16.149  0.6975 -0.4448 -1.2491
 7439SOL    HW233780   1.418   2.718  16.180 -0.5428 -0.2308  1.7139
 7440SOL     OW33781   0.131   1.241   6.532  0.2407  0.1640  0.1945
 7440SOL    HW133782   0.092   1.320   6.495  1.6071  0.1616 -1.2049
 7440SOL    HW233783   0.048   1.202   6.563  0.6207  0.5651  1.7327
 7441SOL     OW33784   4.476   0.014  13.485  0.1168  0.6647 -0.0837
 7441SOL    HW133785   4.422   0.044  13.412  1.0332  1.7957 -0.2998
 7441SOL    HW233786   4.495   0.099  13.525  1.9894  0.1308  0.1996
 7442SOL     OW33787   0.262   1.915   7.094 -0.1272  0.5035 -0.5966
 7442SOL    HW133788   0.256   2.011   7.099 -0.4628  0.3984  0.8706
 7442SOL    HW233789   0.179   1.886   7.130 -0.2460 -0.2827 -1.5062
 7443SOL     OW33790   0.465   2.227   1.689 -0.6117 -0.0745 -0.8057
 7443SOL    HW133791   0.537   2.253   1.631  1.3177 -0.6362  1.3581
 7443SOL    HW233792   0.503   2.256   1.772  0.9828 -0.7192 -1.3093
 7444SOL     OW33793   2.714   1.571  11.370  0.4265 -0.3146  0.6078
 7444SOL    HW133794   2.752   1.658  11.387  1.2445 -0.3014 -1.2007
 7444SOL    HW233795   2.792   1.523  11.342  1.2523 -0.1306  2.5930
 7445SOL     OW33796   0.771   1.362   7.541 -0.3092 -0.0657 -0.2417
 7445SOL    HW133797   0.705   1.299   7.512  0.6304 -0.7041 -0.9957
 7445SOL    HW233798   0.779   1.418   7.464  0.8422  0.9998  0.6390
 7446SOL     OW33799   2.471   2.469  16.937  0.5024  0.6258  0.5614
 7446SOL    HW133800   2.538   2.473  17.005  0.6556 -1.7551  0.5336
 7446SOL    HW233801   2.519   2.489  16.857 -1.2027 -2.9937 -1.3799
 7447SOL     OW33802   4.090   2.010   8.295  0.2767 -0.1389  0.4787
 7447SOL    HW133803   4.021   1.943   8.292 -0.7011  0.9367 -1.0134
 7447SOL    HW233804   4.039   2.076   8.343  2.0052  2.0999 -0.7352
 7448SOL     OW33805   2.731   0.728  11.806  0.0553 -0.6115 -0.0689
 7448SOL    HW133806   2.694   0.696  11.723 -0.7237  0.2649 -0.0599
 7448SOL    HW233807   2.646   0.749  11.846 -0.3715 -3.1430  0.3477
 7449SOL     OW33808   4.545   4.525   9.199 -0.4709 -0.2152 -0.1856
 7449SOL    HW133809   4.542   4.437   9.236  3.2379  0.2622  1.2552
 7449SOL    HW233810   4.455   4.558   9.200  0.2750  1.8165 -1.3603
 7450SOL     OW33811   3.830   2.296   3.729  0.6517 -0.3819 -0.5567
 7450SOL    HW133812   3.890   2.225   3.706 -0.4041 -0.8600 -1.8523
 7450SOL    HW233813   3.853   2.302   3.822 -2.4239 -1.2087  0.2723
 7451SOL     OW33814   3.387   1.670   3.082 -0.1238  0.3944 -0.5131
 7451SOL    HW133815   3.434   1.644   3.161  0.7754  0.0245 -1.1587
 7451SOL    HW233816   3.350   1.582   3.076 -0.7964  0.5522  1.4479
 7452SOL     OW33817   4.608   4.709   5.118  0.8513 -0.3608  0.0226
 7452SOL    HW133818   4.658   4.691   5.198 -1.3940 -2.4561  0.9390
 7452SOL    HW233819   4.599   0.082   5.119 -2.3075 -0.6688  1.2103
 7453SOL     OW33820   4.417   1.906   4.485 -0.1626  0.2031  0.0945
 7453SOL    HW133821   4.431   1.838   4.550 -2.0729 -0.4096 -0.1242
 7453SOL    HW233822   4.321   1.907   4.485 -0.1828 -0.7809  2.0480
 7454SOL     OW33823   2.729   0.732   6.831 -0.0092  0.7166 -0.6399
 7454SOL    HW133824   2.802   0.696   6.780 -1.1200  0.8765 -2.3711
 7454SOL    HW233825   2.737   0.674   6.906  1.6048  0.3182 -1.1308
 7455SOL     OW33826   3.094   4.075   3.503  0.1843  0.3431  0.7646
 7455SOL    HW133827   3.108   4.089   3.409  0.7146  0.8604  0.9160
 7455SOL    HW233828   3.077   3.982   3.496 -0.1465  0.3593  1.4054
 7456SOL     OW33829   3.987   1.020   0.654 -0.1329 -0.2666  0.4283
 7456SOL    HW133830   3.909   1.005   0.708 -0.7202  0.1662 -0.2963
 7456SOL    HW233831   3.990   0.939   0.603 -1.6477  0.3152 -0.5964
 7457SOL     OW33832   0.502   3.083   1.325 -0.5785 -0.1758 -0.2699
 7457SOL    HW133833   0.415   3.094   1.362 -1.0685 -0.3679 -1.3776
 7457SOL    HW233834   0.468   3.099   1.237 -0.5810  0.5281 -0.1390
 7458SOL     OW33835   1.179   3.760   3.282  0.0988  0.7883  0.0769
 7458SOL    HW133836   1.267   3.759   3.245  0.8387 -0.9801  1.8348
 7458SOL    HW233837   1.162   3.666   3.269  2.2855  0.2801  0.9196
 7459SOL     OW33838   3.033   0.498   7.136  0.1941  0.4921  0.3030
 7459SOL    HW133839   2.973   0.535   7.201  0.8028  0.2988  0.9788
 7459SOL    HW233840   3.051   0.417   7.184 -1.2651  0.1639  0.3057
 7460SOL     OW33841   3.404   2.003   4.556  0.1047 -0.0861  0.1563
 7460SOL    HW133842   3.358   2.013   4.639  0.3327  0.7813  0.1775
 7460SOL    HW233843   3.482   2.046   4.589 -0.4923  0.7562  0.4593
 7461SOL     OW33844   1.788   2.954   2.905 -0.2507 -0.1793 -0.7314
 7461SOL    HW133845   1.794   3.050   2.911  0.0447 -0.2169 -0.4559
 7461SOL    HW233846   1.708   2.957   2.851 -0.2232  2.7147 -0.6539
 7462SOL     OW33847   0.829   1.669  17.416 -0.9979  0.0042  0.1255
 7462SOL    HW133848   0.828   1.756  17.375  0.2502  0.2156  0.5508
 7462SOL    HW233849   0.816   1.607  17.345 -0.0533 -0.0259 -0.0225
 7463SOL     OW33850   1.717   2.102   4.265  0.5793  0.0619  0.4610
 7463SOL    HW133851   1.799   2.079   4.220 -0.8152 -1.3489 -1.3790
 7463SOL    HW233852   1.667   2.020   4.263 -0.4412  0.7638 -4.3736
 7464SOL     OW33853   1.190   1.635   8.578 -0.1056 -0.7169 -0.2471
 7464SOL    HW133854   1.156   1.706   8.523 -2.3393 -2.0208 -0.5513
 7464SOL    HW233855   1.278   1.672   8.591 -0.6170  0.6071 -0.5029
 7465SOL     OW33856   3.472   0.197   0.753 -0.0376  0.3950 -0.1064
 7465SOL    HW133857   3.567   0.204   0.752 -0.0866  0.8919 -0.6408
 7465SOL    HW233858   3.464   0.137   0.679  0.0228  1.7506 -1.2159
 7466SOL     OW33859   4.586   1.151   1.737 -0.1590 -0.2609  0.1033
 7466SOL    HW133860   4.586   1.075   1.679 -0.0147 -0.3541  0.2263
 7466SOL    HW233861   4.678   1.168   1.755 -0.2810  0.9815 -0.4452
 7467SOL     OW33862   3.652   3.373   4.060 -0.1361 -0.5816 -0.4021
 7467SOL    HW133863   3.566   3.415   4.055 -0.7010 -1.6452  0.2965
 7467SOL    HW233864   3.637   3.302   4.122  2.4900 -1.7779 -1.1636
 7468SOL     OW33865   4.401   0.150  11.529 -0.1493 -0.3796  0.1546
 7468SOL    HW133866   4.457   0.097  11.585  0.1000 -0.9334 -0.6142
 7468SOL    HW233867   4.344   0.188  11.595  1.5444  0.8768  0.8786
 7469SOL     OW33868   4.349   3.370   8.445 -0.1790 -0.0374 -0.2057
 7469SOL    HW133869   4.337   3.275   8.444  1.6797 -0.2829  0.6248
 7469SOL    HW233870   4.259   3.402   8.433 -0.3087  0.6087  2.4390
 7470SOL     OW33871   2.525   0.361   6.601 -0.5890 -0.1085  0.5512
 7470SOL    HW133872   2.618   0.337   6.593 -0.6752 -0.3828  0.3499
 7470SOL    HW233873   2.495   0.280   6.643 -2.4814  0.4201  0.1819
 7471SOL     OW33874   2.758   2.188  16.741  0.1678  0.2741 -0.0427
 7471SOL    HW133875   2.762   2.270  16.789  0.6781  0.3937 -0.2964
 7471SOL    HW233876   2.848   2.159  16.748  0.5897  1.4461 -0.6951
 7472SOL     OW33877   2.024   2.988   6.467  0.6071 -0.3251 -0.2093
 7472SOL    HW133878   2.114   2.994   6.437  0.5350 -0.3110 -0.4269
 7472SOL    HW233879   2.017   3.070   6.516  0.2247 -0.2484 -0.3850
 7473SOL     OW33880   4.349   0.445   3.702 -0.3227 -0.3991  0.1919
 7473SOL    HW133881   4.330   0.395   3.782  1.6362 -0.1398  0.8226
 7473SOL    HW233882   4.283   0.411   3.642  1.2306 -0.3267 -1.5574
 7474SOL     OW33883   1.640   4.426   3.409 -0.2386  0.1090 -0.1659
 7474SOL    HW133884   1.622   4.338   3.376 -2.4248  0.2062  0.7618
 7474SOL    HW233885   1.549   4.451   3.392 -1.4299 -3.7616  0.3239
 7475SOL     OW33886   2.501   4.063   5.664 -0.3184  0.0903 -0.0211
 7475SOL    HW133887   2.576   4.035   5.716 -0.0659 -0.1703 -0.5266
 7475SOL    HW233888   2.541   4.111   5.592  0.5795 -0.4951  0.0876
 7476SOL     OW33889   1.320   3.041  12.143  0.0099  0.8423  0.0200
 7476SOL    HW133890   1.257   3.109  12.164  0.7796  1.4239  0.4548
 7476SOL    HW233891   1.282   3.002  12.065  2.7852  0.1450 -0.9865
 7477SOL     OW33892   2.625   4.195  17.316  0.2468  0.3457 -0.2964
 7477SOL    HW133893   2.546   4.230  17.357 -0.7094 -0.0812 -1.7752
 7477SOL    HW233894   2.602   4.199  17.223 -0.5422  1.2425 -0.0566
 7478SOL     OW33895   1.063   1.259   8.903  0.2429 -0.0989 -0.2329
 7478SOL    HW133896   1.146   1.264   8.854  0.4522  0.1733  0.1524
 7478SOL    HW233897   1.085   1.259   8.996  0.9993 -1.4547 -0.4075
 7479SOL     OW33898   1.451   0.382   6.466 -0.2472  0.7349 -0.5781
 7479SOL    HW133899   1.408   0.315   6.519  0.8855  1.8290  1.7048
 7479SOL    HW233900   1.373   0.407   6.416 -0.7456  0.1198 -0.1123
 7480SOL     OW33901   3.858   4.684  14.232 -0.8601 -0.1649  0.1976
 7480SOL    HW133902   3.766   4.704  14.251 -1.6173 -1.2652 -2.2812
 7480SOL    HW233903   3.874   4.599  14.273  0.2210 -0.2062 -0.3177
 7481SOL     OW33904   1.371   2.676   4.886 -0.1660 -0.0403 -0.7131
 7481SOL    HW133905   1.426   2.689   4.809  2.3849 -0.2320  1.0802
 7481SOL    HW233906   1.407   2.602   4.935  0.4160  0.7971  0.1231
 7482SOL     OW33907   4.345   3.196   6.207  0.1430 -0.4708 -0.6002
 7482SOL    HW133908   4.268   3.187   6.263  0.3691  1.9129  0.0810
 7482SOL    HW233909   4.395   3.118   6.233  1.2250  0.4232 -0.0047
 7483SOL     OW33910   3.402   1.449  10.339  0.1923  0.4851  0.4653
 7483SOL    HW133911   3.417   1.357  10.318 -1.2979  0.1621  0.7944
 7483SOL    HW233912   3.475   1.494  10.296 -0.3011 -0.9526 -1.8858
 7484SOL     OW33913   4.510   3.012   6.271 -0.3041 -0.4266  0.2287
 7484SOL    HW133914   4.564   2.950   6.222  1.8627  0.0501  2.0027
 7484SOL    HW233915   4.561   3.020   6.352 -3.7563  2.0225  2.1571
 7485SOL     OW33916   4.428   1.436   0.938  0.1514  0.2681  0.0470
 7485SOL    HW133917   4.512   1.449   0.983 -1.7630  2.9463  2.8038
 7485SOL    HW233918   4.436   1.493   0.861 -3.7566 -1.4557 -1.6675
 7486SOL     OW33919   3.722   4.487  11.704  0.0915 -0.8428 -0.0491
 7486SOL    HW133920   3.671   4.537  11.768  0.9826 -0.2053  0.1673
 7486SOL    HW233921   3.804   4.464  11.748 -0.0582  0.9952  1.1906
 7487SOL     OW33922   0.974   0.152  13.548  0.1609  0.3223 -0.0307
 7487SOL    HW133923   1.029   0.161  13.470  0.5285  3.5847  0.5932
 7487SOL    HW233924   1.040   0.173  13.614  0.2480 -0.0712  0.0066
 7488SOL     OW33925   2.055   2.897  15.574  0.1833 -0.4022 -0.6782
 7488SOL    HW133926   2.113   2.866  15.504  0.3635 -0.2253 -0.6074
 7488SOL    HW233927   2.036   2.987  15.547  2.4374 -0.6297 -2.9791
 7489SOL     OW33928   0.615   4.474  13.434  0.5607 -0.1044  0.7099
 7489SOL    HW133929   0.627   4.438  13.346  2.9064  0.8251  0.6383
 7489SOL    HW233930   0.553   4.545  13.420  0.3875 -1.0616 -3.3054
 7490SOL     OW33931   3.230   0.930   3.415  0.1697  0.4561 -0.0034
 7490SOL    HW133932   3.274   1.015   3.407  1.3670 -0.2260 -0.8338
 7490SOL    HW233933   3.284   0.890   3.346 -0.2922  0.5385 -0.4109
 7491SOL     OW33934   1.880   2.911   3.873 -0.2929 -0.0303 -0.5169
 7491SOL    HW133935   1.922   2.825   3.864 -0.3103 -0.4205  3.0043
 7491SOL    HW233936   1.952   2.973   3.878  1.1684 -1.5832 -2.3390
 7492SOL     OW33937   0.467   0.507   1.276 -0.0451  0.2785 -0.3261
 7492SOL    HW133938   0.483   0.586   1.223 -0.0333 -0.1438 -0.9545
 7492SOL    HW233939   0.474   0.431   1.218  0.9927  1.7072 -2.0803
 7493SOL     OW33940   1.623   0.706   7.992 -0.5986  0.3194  0.2424
 7493SOL    HW133941   1.581   0.725   7.908 -0.7091 -0.4717  0.1211
 7493SOL    HW233942   1.641   0.795   8.024  1.3048 -0.5241  1.5170
 7494SOL     OW33943   1.641   4.690   9.413 -0.3976  0.0834  0.7951
 7494SOL    HW133944   1.693   4.611   9.424  2.1682  1.4513 -1.5630
 7494SOL    HW233945   1.705   0.025   9.455  0.0277 -0.1897  0.5227
 7495SOL     OW33946   3.804   4.659   8.121  0.0100 -0.0738 -0.0237
 7495SOL    HW133947   3.835   4.650   8.031 -0.9422 -1.5884 -0.2118
 7495SOL    HW233948   3.849   0.013   8.154 -0.4984  0.0412  0.4213
 7496SOL     OW33949   2.671   2.744   5.532 -0.3217  0.4120  0.0628
 7496SOL    HW133950   2.670   2.687   5.455 -0.9503  0.7351 -0.1706
 7496SOL    HW233951   2.763   2.765   5.551  0.5280 -2.3205 -1.0591
 7497SOL     OW33952   3.284   4.530   3.766 -0.1828 -0.0738 -0.5570
 7497SOL    HW133953   3.267   4.436   3.757 -2.4250  0.3517 -0.7441
 7497SOL    HW233954   3.201   4.561   3.803  0.2289 -1.3158  1.3923
 7498SOL     OW33955   0.295   0.125  14.907  0.3930 -0.3454  0.7260
 7498SOL    HW133956   0.362   0.087  14.850 -1.2955 -2.1740 -0.0759
 7498SOL    HW233957   0.228   0.136  14.839 -0.7936 -0.8231  1.8107
 7499SOL     OW33958   1.188   2.106   3.193  0.0083 -0.2525  0.1306
 7499SOL    HW133959   1.120   2.067   3.137 -1.6696  0.7494  1.4715
 7499SOL    HW233960   1.253   2.036   3.186  1.3528  1.1483 -1.2614
 7500SOL     OW33961   2.858   0.961   5.252  0.3295  0.1216 -0.3452
 7500SOL    HW133962   2.772   0.983   5.215  0.2634  2.0864  1.0070
 7500SOL    HW233963   2.825   0.904   5.322 -0.1541 -2.0609 -2.3452
 7501SOL     OW33964   2.503   2.337   7.503  0.6765 -0.3802 -0.1463
 7501SOL    HW133965   2.500   2.410   7.440  1.2595  1.4163  1.9283
 7501SOL    HW233966   2.516   2.377   7.589  1.0038  2.0460 -1.3168
 7502SOL     OW33967   0.733   3.175   6.090 -0.0156 -0.2582  0.6129
 7502SOL    HW133968   0.769   3.087   6.101  1.2369 -0.1018 -2.2113
 7502SOL    HW233969   0.641   3.154   6.109 -0.1298 -0.9704 -0.6946
 7503SOL     OW33970   2.334   1.152   5.577 -0.4693 -0.2417 -0.2490
 7503SOL    HW133971   2.420   1.170   5.537 -0.3675  0.7541  0.3986
 7503SOL    HW233972   2.300   1.101   5.504 -3.6960 -0.5878  1.5067
 7504SOL     OW33973   4.147   3.799   8.550 -0.0028 -0.7910  0.1513
 7504SOL    HW133974   4.094   3.762   8.622 -1.1408 -0.6095 -0.5867
 7504SOL    HW233975   4.209   3.726   8.550  1.0377  0.1079 -2.1520
 7505SOL     OW33976   3.380   1.530   2.343  0.4120  0.3020 -0.0539
 7505SOL    HW133977   3.439   1.458   2.323  0.9015  0.5724  0.4000
 7505SOL    HW233978   3.441   1.603   2.331  0.8566  0.5466  3.4346
 7506SOL     OW33979   1.451   2.221  12.757 -0.3173 -0.1089  0.1966
 7506SOL    HW133980   1.518   2.168  12.801 -0.4899 -0.2406  0.2974
 7506SOL    HW233981   1.487   2.310  12.762 -0.2543 -0.0900 -0.6037
 7507SOL     OW33982   3.698   0.862   8.022 -0.7557  0.2618  0.0978
 7507SOL    HW133983   3.643   0.939   8.014 -0.3231  0.6715  1.0970
 7507SOL    HW233984   3.767   0.882   8.086 -0.1054 -0.0257 -0.5108
 7508SOL     OW33985   3.052   0.836   3.588 -0.2252 -0.3682 -0.3364
 7508SOL    HW133986   3.125   0.886   3.552  0.4047 -2.4088 -1.8976
 7508SOL    HW233987   3.078   0.745   3.579  2.1163  0.3204 -0.5469
 7509SOL     OW33988   4.487   0.301   3.970 -0.2543 -0.4923 -0.4424
 7509SOL    HW133989   4.406   0.275   4.013 -0.2093  0.9986  0.5223
 7509SOL    HW233990   4.540   0.223   3.986  2.5630  1.2808 -1.0560
 7510SOL     OW33991   3.550   2.048  14.367  0.4251  0.4777 -0.4566
 7510SOL    HW133992   3.485   2.061  14.435  2.1567 -1.5554  1.5615
 7510SOL    HW233993   3.519   1.969  14.323  1.2830 -0.3983  0.5165
 7511SOL     OW33994   1.783   2.227   0.804  0.4237 -0.5633  0.0808
 7511SOL    HW133995   1.853   2.284   0.837 -0.8232  0.2191  1.3292
 7511SOL    HW233996   1.844   2.164   0.765 -0.7029 -1.1019 -0.8179
 7512SOL     OW33997   0.987   2.314  14.864 -0.1630 -0.1070 -0.2969
 7512SOL    HW133998   0.895   2.307  14.838  0.0803  0.0831 -1.2032
 7512SOL    HW233999   1.000   2.409  14.855 -1.2365  0.1718  0.9914
 7513SOL     OW34000   0.145   0.813  11.688 -0.0557 -0.1425  0.0090
 7513SOL    HW134001   0.198   0.797  11.610 -1.1209 -0.8767 -0.5611
 7513SOL    HW234002   0.059   0.786  11.658 -0.5660  0.0822  1.2705
 7514SOL     OW34003   1.602   0.782   8.719  0.2944  0.4280  0.2519
 7514SOL    HW134004   1.687   0.794   8.760  0.8044 -0.4978 -0.5295
 7514SOL    HW234005   1.582   0.702   8.768  0.4600  1.7213  2.4232
 7515SOL     OW34006   1.980   0.951   2.408  0.0232 -0.2962  0.2356
 7515SOL    HW134007   1.939   0.927   2.325 -3.1882  2.7785  0.9149
 7515SOL    HW234008   2.035   1.022   2.373 -1.9267  2.7438  3.4161
 7516SOL     OW34009   0.948   1.813  12.528  0.0303  0.8408  0.2203
 7516SOL    HW134010   0.989   1.813  12.441 -0.1533 -2.0922  0.1276
 7516SOL    HW234011   1.004   1.742  12.560 -2.2910 -0.6177  0.9834
 7517SOL     OW34012   0.866   0.766   7.782  0.3686  0.0547 -0.2971
 7517SOL    HW134013   0.938   0.821   7.811  1.0456 -2.2074  2.3486
 7517SOL    HW234014   0.800   0.835   7.770 -0.2851 -0.2850  1.2888
 7518SOL     OW34015   2.122   0.764   3.189  0.2753 -0.0200 -0.1066
 7518SOL    HW134016   2.173   0.787   3.267 -0.0509 -0.6115  0.2804
 7518SOL    HW234017   2.046   0.717   3.224  0.3168  0.5110  0.7103
 7519SOL     OW34018   0.057   0.001   4.069  0.1392  0.1282  0.0284
 7519SOL    HW134019   0.023   4.675   4.144  2.6290 -0.8307  0.5468
 7519SOL    HW234020   0.101   4.651   4.025  1.9063  0.5713  1.0649
 7520SOL     OW34021   1.042   4.225   2.358  0.8061 -0.9048 -0.8173
 7520SOL    HW134022   0.974   4.221   2.290  2.4893 -2.2077 -2.4092
 7520SOL    HW234023   1.055   4.319   2.369  0.4018 -0.9858  0.3329
 7521SOL     OW34024   0.245   4.490  11.248 -0.0676 -0.1963 -0.2580
 7521SOL    HW134025   0.172   4.457  11.300  0.1664  1.1027  0.9035
 7521SOL    HW234026   0.195   4.508  11.169  1.9843  1.1592 -1.2524
 7522SOL     OW34027   0.817   2.859   3.265  0.1085  0.0613  0.2175
 7522SOL    HW134028   0.835   2.779   3.214 -0.3381  1.2925 -1.8799
 7522SOL    HW234029   0.876   2.920   3.222 -1.1322  0.9249 -0.2468
 7523SOL     OW34030   2.438   2.099   5.421 -0.0133  0.7201 -0.0392
 7523SOL    HW134031   2.486   2.017   5.420  2.6979  2.2887  0.9288
 7523SOL    HW234032   2.436   2.126   5.513 -4.3849  2.7544 -0.7087
 7524SOL     OW34033   0.382   4.309  15.772 -0.1682 -0.1871  0.0224
 7524SOL    HW134034   0.313   4.252  15.807  0.4610 -0.4306  0.8720
 7524SOL    HW234035   0.426   4.346  15.848 -2.3120  1.1796  0.5891
 7525SOL     OW34036   3.795   2.734   5.898  0.9292 -0.7490 -0.4137
 7525SOL    HW134037   3.718   2.763   5.850  0.0204 -0.2771  1.3413
 7525SOL    HW234038   3.854   2.807   5.914  0.0076  0.5133 -2.8376
 7526SOL     OW34039   2.020   3.781   8.187  0.0559 -0.4100 -0.4927
 7526SOL    HW134040   2.068   3.716   8.136 -0.6934 -1.1481 -0.2700
 7526SOL    HW234041   2.060   3.864   8.161 -1.1782 -0.2417 -1.8873
 7527SOL     OW34042   1.189   4.054   2.504 -0.2190 -0.4754 -0.1947
 7527SOL    HW134043   1.226   3.995   2.438 -0.9243 -1.6045  0.4309
 7527SOL    HW234044   1.153   4.120   2.444 -0.9185 -1.4831 -0.8819
 7528SOL     OW34045   4.575   1.355  13.989 -0.2519  0.2106 -0.0729
 7528SOL    HW134046   4.608   1.293  14.054  2.2819  1.5849 -0.0691
 7528SOL    HW234047   4.653   1.386  13.943 -0.1681 -0.5868 -0.4743
 7529SOL     OW34048   0.719   1.346  15.772  0.1615 -0.0193  0.2360
 7529SOL    HW134049   0.712   1.357  15.677  0.6229 -0.0963  0.1927
 7529SOL    HW234050   0.771   1.422  15.797  1.7690 -1.9877  2.7868
 7530SOL     OW34051   0.691   2.519   7.187  0.1654  0.1377  0.0830
 7530SOL    HW134052   0.702   2.597   7.132 -0.6390 -0.6229 -1.1412
 7530SOL    HW234053   0.698   2.558   7.274 -0.7563  1.5230 -0.4608
 7531SOL     OW34054   2.541   3.241   0.294  0.0932 -0.1339 -0.0817
 7531SOL    HW134055   2.519   3.261   0.384  0.3290  2.4382 -0.6056
 7531SOL    HW234056   2.464   3.272   0.246 -0.9669 -1.0513  1.0529
 7532SOL     OW34057   3.903   2.903  10.126  0.1722  0.0103 -0.2241
 7532SOL    HW134058   3.836   2.836  10.141 -0.8114  0.9522 -0.4247
 7532SOL    HW234059   3.970   2.868  10.185  0.6525 -1.8549 -1.8835
 7533SOL     OW34060   2.609   4.714  14.301  0.1481 -0.3969 -0.0093
 7533SOL    HW134061   2.666   4.714  14.223  2.0064  2.8651  1.3319
 7533SOL    HW234062   2.665   4.685  14.373 -0.5183  0.6638  0.9317
 7534SOL     OW34063   1.243   3.800   6.591 -0.2746 -0.0284  0.5927
 7534SOL    HW134064   1.225   3.787   6.684 -0.5664 -0.6833  0.4462
 7534SOL    HW234065   1.158   3.806   6.547  0.2645  2.5190 -0.1025
 7535SOL     OW34066   0.360   2.031   5.609  0.2337 -0.2418  0.2642
 7535SOL    HW134067   0.315   1.948   5.595 -0.4265  0.5847 -2.5381
 7535SOL    HW234068   0.289   2.095   5.607 -0.5866 -1.1909 -0.9930
 7536SOL     OW34069   2.417   0.696   7.580 -0.1960  1.0090 -0.0646
 7536SOL    HW134070   2.490   0.673   7.637  0.8235  0.9722 -1.4031
 7536SOL    HW234071   2.460   0.712   7.496 -0.9154 -1.3068 -0.8553
 7537SOL     OW34072   1.167   4.510   9.494 -0.4651 -0.5595  0.2777
 7537SOL    HW134073   1.175   4.415   9.499 -0.5750 -0.5414  0.7795
 7537SOL    HW234074   1.257   4.542   9.496 -1.2699  1.6198  1.1302
 7538SOL     OW34075   1.859   2.522   2.432 -0.3218 -0.1467  0.5075
 7538SOL    HW134076   1.786   2.520   2.370  0.3811 -3.1183 -0.2360
 7538SOL    HW234077   1.903   2.441   2.405 -0.5209  0.2635 -1.0410
 7539SOL     OW34078   3.631   2.086   5.676  0.3397  0.7450 -0.0067
 7539SOL    HW134079   3.693   2.089   5.749 -0.3460  1.8786  0.5391
 7539SOL    HW234080   3.550   2.067   5.722  0.6626  1.9921  1.0851
 7540SOL     OW34081   3.411   2.034   2.414  0.0164 -0.1235 -0.0580
 7540SOL    HW134082   3.484   2.078   2.372 -2.1644  1.6536 -1.9535
 7540SOL    HW234083   3.338   2.094   2.399 -1.0346 -1.7255 -1.3292
 7541SOL     OW34084   4.156   2.277  13.478 -0.2877 -0.2009 -0.1669
 7541SOL    HW134085   4.143   2.190  13.515  1.5407 -0.8089 -0.9725
 7541SOL    HW234086   4.064   2.304  13.480 -0.3791 -0.5630  0.5733
 7542SOL     OW34087   0.927   4.176   7.656  0.4126 -0.1359  0.2994
 7542SOL    HW134088   0.923   4.264   7.693 -1.0227 -0.2500  0.4128
 7542SOL    HW234089   1.015   4.159   7.691 -0.0814  0.2858  1.7155
 7543SOL     OW34090   0.934   0.601   5.310 -0.1301  0.4452  0.1390
 7543SOL    HW134091   0.838   0.597   5.308 -0.0281 -1.4157 -1.1471
 7543SOL    HW234092   0.963   0.536   5.246 -0.3004  1.8403 -1.3576
 7544SOL     OW34093   4.193   2.802   5.802 -0.5841 -0.2873 -0.4527
 7544SOL    HW134094   4.188   2.708   5.819 -1.8213 -0.4982 -1.9889
 7544SOL    HW234095   4.229   2.798   5.713  1.5631 -0.3895  0.4357
 7545SOL     OW34096   3.699   1.395   1.691 -0.5725 -0.0442  0.1933
 7545SOL    HW134097   3.779   1.352   1.663 -0.7744  0.7840 -1.6797
 7545SOL    HW234098   3.643   1.388   1.614 -0.9225  0.1883  0.4240
 7546SOL     OW34099   4.633   2.931  15.859 -0.1155  0.3346  0.1267
 7546SOL    HW134100   4.562   2.990  15.884 -0.2232 -1.3853  3.7981
 7546SOL    HW234101   4.662   2.963  15.773 -0.9060 -1.2463 -0.7386
 7547SOL     OW34102   0.709   3.375   2.741 -0.3552 -0.4756 -0.6533
 7547SOL    HW134103   0.728   3.436   2.670  0.2156  2.2407  1.8250
 7547SOL    HW234104   0.717   3.289   2.699  0.7867  0.7198 -2.8511
 7548SOL     OW34105   1.875   4.238   7.383 -0.4707  0.4498 -0.6154
 7548SOL    HW134106   1.865   4.305   7.316 -0.5270  2.2808  1.2393
 7548SOL    HW234107   1.849   4.159   7.335 -1.1337  0.8227 -0.8818
 7549SOL     OW34108   0.135   1.887   8.091  0.0979 -0.3893 -0.1968
 7549SOL    HW134109   0.218   1.858   8.128  0.9180  0.1955 -1.5730
 7549SOL    HW234110   0.148   1.923   8.004 -0.0650  0.0802 -0.0277
 7550SOL     OW34111   3.070   3.979  11.038 -0.3311  0.3974 -0.6270
 7550SOL    HW134112   3.102   3.933  11.115  1.0282  1.8862 -0.3138
 7550SOL    HW234113   2.979   3.948  11.031  0.7329 -1.7636 -4.7980
 7551SOL     OW34114   3.230   1.534  12.837  0.2028  0.5375  0.1940
 7551SOL    HW134115   3.293   1.573  12.775 -0.3103  0.6636 -0.2446
 7551SOL    HW234116   3.200   1.458  12.788 -0.9075  0.7179  0.6065
 7552SOL     OW34117   4.404   3.935   2.181 -0.2594 -0.2792  0.0555
 7552SOL    HW134118   4.448   3.852   2.160  2.3379  0.5416  2.2003
 7552SOL    HW234119   4.473   3.993   2.147  0.4463 -0.1784  1.6666
 7553SOL     OW34120   4.424   2.056   0.158  0.3445  0.1349 -0.4072
 7553SOL    HW134121   4.418   2.083   0.250  0.6199 -1.4095  0.0597
 7553SOL    HW234122   4.330   2.046   0.145  0.3976 -0.6261 -0.1622
 7554SOL     OW34123   1.793   1.903   3.285 -0.2697 -0.4891  0.4336
 7554SOL    HW134124   1.855   1.886   3.356 -0.7298 -0.9886  0.7119
 7554SOL    HW234125   1.849   1.962   3.233  0.3237  0.5163  2.2269
 7555SOL     OW34126   2.176   0.576   3.713  0.2360 -0.4649 -0.2643
 7555SOL    HW134127   2.129   0.526   3.780  0.7963 -1.1829 -0.4068
 7555SOL    HW234128   2.162   0.514   3.640 -1.2940  0.0983 -0.4437
 7556SOL     OW34129   4.019   2.074   2.423  0.7857 -0.1005 -0.2888
 7556SOL    HW134130   3.999   2.094   2.331 -0.9747 -0.2922  0.0647
 7556SOL    HW234131   3.973   1.991   2.424 -0.6740  0.7470  2.1575
 7557SOL     OW34132   0.692   2.336   5.674 -0.1096 -0.3959  0.2489
 7557SOL    HW134133   0.703   2.399   5.603 -1.0266  0.4678  0.8656
 7557SOL    HW234134   0.606   2.361   5.707 -0.8206 -1.7552 -0.5847
 7558SOL     OW34135   2.542   1.809   3.656  0.1953  0.3355 -0.0251
 7558SOL    HW134136   2.539   1.719   3.689  3.4832 -0.0855 -0.8759
 7558SOL    HW234137   2.637   1.821   3.662  0.0275  1.3763  0.5158
 7559SOL     OW34138   0.099   2.897  16.671  0.1714 -0.6148  0.0181
 7559SOL    HW134139   0.138   2.814  16.645  2.1296 -0.1409  1.4122
 7559SOL    HW234140   0.126   2.955  16.600 -1.3564  1.7641  1.3867
 7560SOL     OW34141   1.015   1.915   9.011  0.6049 -0.4383  0.3471
 7560SOL    HW134142   1.093   1.954   8.971  0.7154 -1.9827 -0.9125
 7560SOL    HW234143   0.946   1.975   8.980 -0.4880 -2.0427 -0.3107
 7561SOL     OW34144   0.629   4.164   7.725  0.5668  0.3616  0.4926
 7561SOL    HW134145   0.588   4.243   7.689  1.3865  0.2528 -0.6830
 7561SOL    HW234146   0.711   4.161   7.676  1.1537 -1.2032  1.5953
 7562SOL     OW34147   3.254   4.676  15.972 -0.1519 -0.1779  0.6596
 7562SOL    HW134148   3.299   4.592  15.986 -0.0188  0.0738  1.7393
 7562SOL    HW234149   3.173   4.641  15.934 -0.3564 -0.3214  1.2308
 7563SOL     OW34150   0.166   4.417  13.195 -0.2407  0.4292 -0.1840
 7563SOL    HW134151   0.183   4.437  13.287  3.0791 -0.1249 -0.6918
 7563SOL    HW234152   0.074   4.394  13.211 -0.0926 -0.4557 -0.5979
 7564SOL     OW34153   4.443   2.888   5.938  0.1167 -0.4860  0.4819
 7564SOL    HW134154   4.438   2.851   6.026  0.5709 -1.5338  0.0684
 7564SOL    HW234155   4.360   2.865   5.897  0.7379 -0.8046 -0.5954
 7565SOL     OW34156   1.008   4.082   5.999  0.3716 -0.6389 -0.1427
 7565SOL    HW134157   1.070   4.101   6.069 -1.5311  1.6546  0.8845
 7565SOL    HW234158   1.061   4.021   5.947  1.2293  0.9053 -1.1171
 7566SOL     OW34159   0.726   3.513   4.939 -0.3409 -0.1025 -0.0145
 7566SOL    HW134160   0.798   3.486   4.882 -0.1450  0.5467 -0.0725
 7566SOL    HW234161   0.651   3.480   4.888 -0.5126  1.6232 -0.8795
 7567SOL     OW34162   1.810   0.399   4.302  0.4704 -0.0839 -0.1098
 7567SOL    HW134163   1.806   0.461   4.375 -1.0855 -2.3048  1.7010
 7567SOL    HW234164   1.880   0.338   4.328 -2.2399 -2.3172  2.0025
 7568SOL     OW34165   4.680   1.586   8.141 -0.2477  0.2700 -0.0567
 7568SOL    HW134166   4.655   1.646   8.072  1.0184 -0.0082 -0.7485
 7568SOL    HW234167   0.052   1.598   8.139 -0.2812  0.9319  2.0696
 7569SOL     OW34168   0.117   4.201   1.481  0.2053 -0.9237 -0.1103
 7569SOL    HW134169   0.090   4.109   1.480 -1.8063 -0.3382  2.3023
 7569SOL    HW234170   0.035   4.232   1.444  0.4587 -1.9174 -1.5363
 7570SOL     OW34171   3.125   4.190   7.510 -0.2121  0.0156  0.2163
 7570SOL    HW134172   3.105   4.169   7.601 -0.0366 -1.9421 -0.1801
 7570SOL    HW234173   3.217   4.164   7.500 -0.3243 -0.1610 -0.4209
 7571SOL     OW34174   0.073   3.844   4.690  0.5501  0.1379 -0.1615
 7571SOL    HW134175   0.127   3.787   4.635  1.5310  1.0538 -0.1390
 7571SOL    HW234176   0.009   3.873   4.626 -1.3799 -1.0678  1.2146
 7572SOL     OW34177   2.257   4.088   6.724  0.6109  0.3410 -0.2706
 7572SOL    HW134178   2.229   4.014   6.778 -2.1344  1.1077 -0.6552
 7572SOL    HW234179   2.171   4.130   6.722  0.0698 -0.6221  2.8158
 7573SOL     OW34180   0.866   3.251  15.408 -0.4802  0.6066 -0.0211
 7573SOL    HW134181   0.939   3.310  15.392 -0.1491 -0.4559 -2.4827
 7573SOL    HW234182   0.797   3.306  15.371  1.1362  1.4971 -1.6963
 7574SOL     OW34183   3.053   0.336   4.047  0.3813  0.0090  0.2987
 7574SOL    HW134184   3.035   0.343   3.953 -1.3521 -0.6973  0.5818
 7574SOL    HW234185   3.115   0.404   4.075 -1.1899  1.2630  0.7743
 7575SOL     OW34186   1.499   1.699   5.056  0.2446  0.8743  0.1049
 7575SOL    HW134187   1.559   1.637   5.016 -0.2455  0.2760  0.2955
 7575SOL    HW234188   1.419   1.669   5.013  0.6098 -0.9192  0.6570
 7576SOL     OW34189   4.255   1.362   2.313  0.2431 -0.5567  0.7045
 7576SOL    HW134190   4.266   1.273   2.280  0.0047 -0.0508 -0.7408
 7576SOL    HW234191   4.325   1.349   2.378  1.2866  2.5350  0.2064
 7577SOL     OW34192   1.471   4.177   8.008 -0.6351  0.0946  0.6535
 7577SOL    HW134193   1.542   4.205   7.950 -0.3229  0.0944  1.0413
 7577SOL    HW234194   1.398   4.199   7.949  0.0669 -1.8847 -0.9573
 7578SOL     OW34195   0.240   2.630   5.961 -0.6375 -0.3373  0.5312
 7578SOL    HW134196   0.298   2.634   5.885  0.4442 -0.3984  1.3445
 7578SOL    HW234197   0.272   2.706   6.009 -1.1001  0.3468 -0.2334
 7579SOL     OW34198   0.472   0.054  14.697  0.5104 -0.0062  0.0901
 7579SOL    HW134199   0.509   0.095  14.619 -0.6660 -0.0738 -0.4922
 7579SOL    HW234200   0.464   4.691  14.655 -1.1690  0.4057 -0.3988
 7580SOL     OW34201   3.017   4.549  12.049  0.6806 -0.0267 -0.6040
 7580SOL    HW134202   3.085   4.570  11.986  1.8470  0.0586  0.6840
 7580SOL    HW234203   3.019   4.625  12.108  1.2725  0.8664 -1.7589
 7581SOL     OW34204   1.389   3.430   1.328 -0.2390  0.2633  0.1643
 7581SOL    HW134205   1.368   3.444   1.421 -1.2963 -2.3960  0.3405
 7581SOL    HW234206   1.472   3.478   1.334 -0.4448  0.5498  0.7986
 7582SOL     OW34207   2.554   3.571   3.401  0.2413  0.0005 -0.0272
 7582SOL    HW134208   2.648   3.553   3.405  0.3471  0.7010  0.5301
 7582SOL    HW234209   2.536   3.552   3.493 -1.5757  1.4920 -0.0626
 7583SOL     OW34210   4.109   2.358  13.888  0.2013 -0.4469  0.2938
 7583SOL    HW134211   4.016   2.345  13.869 -0.1057  2.8471 -0.4230
 7583SOL    HW234212   4.148   2.368  13.802  0.8291  1.0212  0.7499
 7584SOL     OW34213   3.105   0.959   5.130 -0.1543  0.8219  0.3438
 7584SOL    HW134214   3.173   0.980   5.194 -0.0577  3.1096 -0.5160
 7584SOL    HW234215   3.027   0.950   5.185  1.1404  0.6758  2.1685
 7585SOL     OW34216   2.891   0.030  17.537 -1.2992  0.1542 -0.0368
 7585SOL    HW134217   2.915   4.683  17.476  0.3329 -0.5311  1.3758
 7585SOL    HW234218   2.798   0.009  17.537 -1.3040  0.1770  0.1325
 7586SOL     OW34219   1.220   2.212   3.873 -0.0134  0.8470 -0.7628
 7586SOL    HW134220   1.242   2.232   3.964 -0.3394 -2.9399  0.1720
 7586SOL    HW234221   1.284   2.148   3.844  2.2853  2.1955  1.3598
 7587SOL     OW34222   4.422   2.820   8.962  0.2650  0.3702  0.0776
 7587SOL    HW134223   4.446   2.788   8.874  0.7541  1.3693 -0.1493
 7587SOL    HW234224   4.447   2.911   8.948 -0.3929  0.2511 -2.0052
 7588SOL     OW34225   1.036   4.040   8.714  0.2057 -0.2932 -0.8838
 7588SOL    HW134226   1.083   4.109   8.668 -0.3177  0.1951 -0.6940
 7588SOL    HW234227   0.946   4.072   8.707  0.4966 -0.1462 -3.6804
 7589SOL     OW34228   4.047   4.036   9.938 -0.4699 -0.4806  1.1714
 7589SOL    HW134229   4.114   4.087   9.983  0.8136  1.2235 -2.6964
 7589SOL    HW234230   4.029   3.978  10.012  3.1996 -1.2618  1.4586
 7590SOL     OW34231   3.476   0.337  10.280 -0.0479 -0.5691  0.4069
 7590SOL    HW134232   3.564   0.371  10.298 -0.0133 -0.7161  0.5111
 7590SOL    HW234233   3.498   0.244  10.272  0.0575 -0.3734 -1.7405
 7591SOL     OW34234   0.365   4.479  13.744 -0.2401  0.7124  0.0519
 7591SOL    HW134235   0.303   4.552  13.742 -3.3068 -1.8674  0.6299
 7591SOL    HW234236   0.442   4.534  13.752  0.1245  0.1736  0.1970
 7592SOL     OW34237   1.624   3.688   2.493 -0.1487  0.0197 -0.4428
 7592SOL    HW134238   1.680   3.642   2.556  0.3456  1.8186  0.4311
 7592SOL    HW234239   1.677   3.673   2.415  0.1295  2.5284 -0.7531
 7593SOL     OW34240   0.293   0.048   2.277 -0.3393  0.5896  0.1170
 7593SOL    HW134241   0.272   0.034   2.185 -1.2629 -1.7306  0.6724
 7593SOL    HW234242   0.319   0.140   2.267 -0.3846  0.7621  1.5699
 7594SOL     OW34243   2.501   2.503   5.031 -0.3152  0.1356  0.0667
 7594SOL    HW134244   2.453   2.462   5.103  1.1260  0.3151  1.1336
 7594SOL    HW234245   2.493   2.594   5.061  0.5761  0.5462 -0.9579
 7595SOL     OW34246   3.109   3.979   4.329  0.1612 -0.5509  0.8968
 7595SOL    HW134247   3.067   3.957   4.412 -3.4498  1.1202 -0.5223
 7595SOL    HW234248   3.070   3.908   4.278  2.4650 -0.3520 -1.1764
 7596SOL     OW34249   0.016   2.166   4.726  0.0728  0.3892  0.1070
 7596SOL    HW134250   0.082   2.232   4.703  0.8887 -0.5747 -0.3379
 7596SOL    HW234251   0.036   2.095   4.665  1.2492 -0.5061  1.5330
 7597SOL     OW34252   1.777   3.321   6.441 -0.0574 -0.1458 -0.2014
 7597SOL    HW134253   1.814   3.249   6.390 -1.2476 -0.3892 -0.7153
 7597SOL    HW234254   1.700   3.340   6.387 -1.3380 -0.5841  1.5043
 7598SOL     OW34255   2.228   3.842   6.823 -0.2870  0.5416  0.5012
 7598SOL    HW134256   2.186   3.784   6.761  3.4282 -1.7955  0.2024
 7598SOL    HW234257   2.237   3.787   6.901 -0.7391  1.2953  1.0882
 7599SOL     OW34258   0.320   0.403  16.499 -0.5626  1.2982  0.2356
 7599SOL    HW134259   0.325   0.365  16.412  2.0651 -0.0629  0.9840
 7599SOL    HW234260   0.229   0.399  16.528 -0.2954  1.8765  1.1719
 7600SOL     OW34261   4.035   3.171  17.010  0.3738 -0.5907  0.1273
 7600SOL    HW134262   4.067   3.189  16.922 -0.8748 -0.8644 -0.3819
 7600SOL    HW234263   4.046   3.076  17.007  0.5681 -0.5824  0.5650
 7601SOL     OW34264   0.851   0.013  16.607  0.3853  0.1440 -0.4471
 7601SOL    HW134265   0.884   0.070  16.676  0.8985 -2.5167  1.4928
 7601SOL    HW234266   0.905   0.041  16.534  0.2610 -1.0725 -0.9924
 7602SOL     OW34267   4.048   1.837   7.690 -0.2614  0.1975  0.5321
 7602SOL    HW134268   4.089   1.766   7.642  0.7377  0.5719  0.8217
 7602SOL    HW234269   4.046   1.912   7.630  0.1300  0.3515  0.7154
 7603SOL     OW34270   2.707   1.613  17.341  0.0898  0.0825  0.5486
 7603SOL    HW134271   2.708   1.581  17.431 -3.3372 -0.9171  0.2134
 7603SOL    HW234272   2.778   1.678  17.337 -0.3307  0.5257  0.2651
 7604SOL     OW34273   3.986   2.525  14.073  0.0853  0.1184  0.3345
 7604SOL    HW134274   3.903   2.477  14.083  0.2819 -0.0269  1.2753
 7604SOL    HW234275   4.029   2.472  14.005 -0.1460  0.7210 -0.2754
 7605SOL     OW34276   0.093   3.245  13.799  0.1375  0.2207 -0.0354
 7605SOL    HW134277   0.150   3.187  13.849  0.4852 -0.0319 -0.7160
 7605SOL    HW234278   0.003   3.223  13.822  0.5813 -0.2670  1.2657
 7606SOL     OW34279   1.441   0.677   6.613 -0.0271  0.0626  0.2189
 7606SOL    HW134280   1.397   0.604   6.655  0.3630 -1.2268 -1.6050
 7606SOL    HW234281   1.481   0.633   6.538  1.6130 -0.8947  1.6738
 7607SOL     OW34282   1.477   2.747   1.130  0.3694  0.4231 -0.1592
 7607SOL    HW134283   1.495   2.655   1.109  3.1174  0.6599  1.3067
 7607SOL    HW234284   1.440   2.730   1.217  1.8191 -1.1528  0.1314
 7608SOL     OW34285   2.533   4.185   2.189 -0.6372  0.1414  0.0838
 7608SOL    HW134286   2.453   4.195   2.138  0.1071  1.6021 -0.7941
 7608SOL    HW234287   2.594   4.188   2.116  0.0763  0.8298  0.7007
 7609SOL     OW34288   1.082   4.655  10.663 -0.0816 -0.5423 -0.3015
 7609SOL    HW134289   1.004   4.710  10.667 -0.7658 -1.6111  0.6955
 7609SOL    HW234290   1.048   4.567  10.675 -0.1792 -0.3813  0.6017
 7610SOL     OW34291   4.642   0.421  12.959  0.3517 -0.1440 -0.2645
 7610SOL    HW134292   4.701   0.349  12.937 -0.6016 -0.7954 -0.7043
 7610SOL    HW234293   4.602   0.443  12.875 -1.0006 -0.9061  0.1636
 7611SOL     OW34294   2.329   0.097   5.061 -0.0535  0.4835 -0.2821
 7611SOL    HW134295   2.238   0.087   5.087 -0.6345 -0.2607 -2.6155
 7611SOL    HW234296   2.372   0.083   5.146 -0.8483 -0.6406 -0.0641
 7612SOL     OW34297   2.971   4.118   6.295 -0.2132 -0.2474 -0.2025
 7612SOL    HW134298   2.904   4.152   6.354  0.8081 -0.1543  0.9067
 7612SOL    HW234299   2.983   4.198   6.244  2.7349 -1.6280 -1.6896
 7613SOL     OW34300   2.447   1.788  10.870  0.3660 -0.0550 -0.1498
 7613SOL    HW134301   2.439   1.830  10.956  0.1358 -1.5010  0.5308
 7613SOL    HW234302   2.375   1.725  10.877 -0.8788  1.4395  0.6468
 7614SOL     OW34303   2.928   4.055   2.997  0.5685 -0.7869  0.6041
 7614SOL    HW134304   2.943   3.980   2.940  0.0145 -0.3190 -0.1693
 7614SOL    HW234305   2.928   4.130   2.936  0.8553 -0.0813  1.4739
 7615SOL     OW34306   0.382   3.584  10.397 -0.3079 -0.1543 -0.0492
 7615SOL    HW134307   0.469   3.571  10.360  1.5861  2.4505  3.4261
 7615SOL    HW234308   0.351   3.658  10.346 -0.9955  0.8461  1.8212
 7616SOL     OW34309   2.228   2.225  16.228 -0.1002 -0.0196  0.0863
 7616SOL    HW134310   2.216   2.133  16.253  1.5161  0.2972  2.0924
 7616SOL    HW234311   2.262   2.260  16.311  0.8642  1.0611 -0.7672
 7617SOL     OW34312   3.716   4.585   1.633 -0.1811 -0.3603  0.2750
 7617SOL    HW134313   3.662   4.637   1.692 -0.6429 -1.2275  0.6195
 7617SOL    HW234314   3.656   4.589   1.558  0.1998 -1.2927 -0.0811
 7618SOL     OW34315   1.382   2.650  16.981 -0.0105 -0.4900 -0.2489
 7618SOL    HW134316   1.466   2.694  16.993 -0.0216 -0.4464 -0.3268
 7618SOL    HW234317   1.371   2.674  16.889 -2.2717 -1.5186 -0.2548
 7619SOL     OW34318   0.489   4.671   6.168 -0.1297 -0.8411 -0.1614
 7619SOL    HW134319   0.462   4.637   6.253  1.4329 -0.7266  0.3778
 7619SOL    HW234320   0.533   0.029   6.193 -0.5989 -0.6617  0.0851
 7620SOL     OW34321   0.584   2.402   8.130  0.1852 -0.0190 -0.0107
 7620SOL    HW134322   0.650   2.357   8.077  0.2227  1.6998 -1.4078
 7620SOL    HW234323   0.530   2.325   8.148  0.9522 -0.8918 -1.3517
 7621SOL     OW34324   0.143   2.678   8.404  0.4688  0.1134  0.2169
 7621SOL    HW134325   0.146   2.760   8.454 -1.3137  0.2005  0.1958
 7621SOL    HW234326   0.180   2.619   8.470  0.8325  0.3148  0.1921
 7622SOL     OW34327   0.936   1.117   6.162  0.1563  0.3567  0.1833
 7622SOL    HW134328   0.941   1.021   6.160  0.5687  0.4057 -1.5091
 7622SOL    HW234329   0.909   1.135   6.252  0.5108 -1.5834  0.6953
 7623SOL     OW34330   1.579   2.502  16.425 -0.1233 -0.1955  0.5686
 7623SOL    HW134331   1.673   2.493  16.412 -0.6844  0.2057 -3.8592
 7623SOL    HW234332   1.532   2.442  16.367 -0.2625  0.2823  0.1803
 7624SOL     OW34333   4.278   4.334   8.885  0.2616  0.1621 -0.3328
 7624SOL    HW134334   4.359   4.381   8.902 -1.0263  2.5399 -0.7242
 7624SOL    HW234335   4.306   4.291   8.804 -0.3539  1.7295 -1.3697
 7625SOL     OW34336   2.131   1.678   6.152  0.0445  0.3215 -0.3734
 7625SOL    HW134337   2.220   1.682   6.117 -0.0453  0.9063 -0.5486
 7625SOL    HW234338   2.084   1.719   6.078 -0.7937  0.3908  0.2000
 7626SOL     OW34339   1.684   2.718  10.197  0.1461  0.2263 -0.0527
 7626SOL    HW134340   1.760   2.659  10.200  1.1901  1.5592 -0.3313
 7626SOL    HW234341   1.629   2.671  10.135 -0.1945 -0.3659  0.6952
 7627SOL     OW34342   2.605   3.674   4.618 -0.4552 -0.3842  0.8361
 7627SOL    HW134343   2.675   3.671   4.553  0.6065 -1.1613  2.0229
 7627SOL    HW234344   2.653   3.634   4.690 -2.6387 -0.5961  2.1681
 7628SOL     OW34345   0.517   2.285   6.766  0.4502  0.0855  0.6045
 7628SOL    HW134346   0.605   2.261   6.736  0.1041  0.1435 -0.4720
 7628SOL    HW234347   0.518   2.380   6.756  0.9619  0.4632  4.2582
 7629SOL     OW34348   2.454   0.241   9.422 -0.1243 -0.0713  0.4473
 7629SOL    HW134349   2.483   0.221   9.511  0.3279  2.5695  0.8671
 7629SOL    HW234350   2.390   0.309   9.444  1.1357  0.8083  1.3347
 7630SOL     OW34351   0.580   2.585   5.865  0.4512 -0.2608 -0.5044
 7630SOL    HW134352   0.542   2.671   5.850  0.5749 -0.3812 -1.5109
 7630SOL    HW234353   0.641   2.588   5.791  1.0363 -0.8454 -0.0496
 7631SOL     OW34354   0.622   4.388   6.465 -0.3122 -0.7225  0.0770
 7631SOL    HW134355   0.573   4.309   6.442  0.4595 -1.8476  2.3177
 7631SOL    HW234356   0.571   4.453   6.417  0.7345 -0.3400 -0.5135
 7632SOL     OW34357   3.474   0.871   6.501  0.7541 -0.1767  0.7944
 7632SOL    HW134358   3.388   0.912   6.496  0.0927 -1.6996 -0.3380
 7632SOL    HW234359   3.524   0.909   6.430  1.3156  0.3321  1.4615
 7633SOL     OW34360   3.952   3.803   6.439 -0.1454 -0.6502  0.0771
 7633SOL    HW134361   3.910   3.838   6.360 -0.1591  2.6432  1.5632
 7633SOL    HW234362   3.962   3.883   6.490  0.3626  1.7158 -3.7447
 7634SOL     OW34363   4.352   4.140   6.194 -0.4102 -0.4791 -0.5838
 7634SOL    HW134364   4.340   4.233   6.212  1.2730 -0.1688 -1.0296
 7634SOL    HW234365   4.290   4.129   6.122 -0.4636  0.5331 -0.7042
 7635SOL     OW34366   1.682   2.351   8.480  0.2923  0.0035 -0.1308
 7635SOL    HW134367   1.724   2.437   8.489  1.8382 -0.7875  0.2058
 7635SOL    HW234368   1.762   2.303   8.499  0.5142  0.8087  0.9825
 7636SOL     OW34369   3.639   2.806   0.591 -0.0938  0.0063  0.0148
 7636SOL    HW134370   3.569   2.842   0.645  0.4046  1.3775 -0.2616
 7636SOL    HW234371   3.600   2.787   0.505  1.1792 -0.8537 -0.3862
 7637SOL     OW34372   3.096   3.178   8.705 -0.1564  0.3145 -0.1406
 7637SOL    HW134373   3.100   3.088   8.670 -1.3217 -0.1859  1.0296
 7637SOL    HW234374   3.063   3.239   8.639  0.2530 -1.9947 -2.4841
 7638SOL     OW34375   1.996   3.324   3.353  0.1528 -0.8240 -0.6217
 7638SOL    HW134376   1.985   3.378   3.274 -1.6622  1.7740  1.4210
 7638SOL    HW234377   1.926   3.368   3.400  0.3002  0.0302 -1.1995
 7639SOL     OW34378   4.227   0.512   2.133 -0.2538  0.2889 -0.1039
 7639SOL    HW134379   4.263   0.595   2.104  3.4851 -1.0327  0.6972
 7639SOL    HW234380   4.275   0.501   2.216 -0.7118 -1.2915 -0.0376
 7640SOL     OW34381   3.522   4.115  14.759  0.4024 -0.2130  0.0756
 7640SOL    HW134382   3.480   4.191  14.719  0.1149 -1.2828 -1.6430
 7640SOL    HW234383   3.502   4.054  14.688  0.1840 -2.3086  1.9423
 7641SOL     OW34384   2.654   1.712   6.299 -0.6349  0.1142 -0.1096
 7641SOL    HW134385   2.685   1.779   6.238 -0.8084  0.6699  0.4091
 7641SOL    HW234386   2.679   1.637   6.245  0.2340  0.8238 -0.7073
 7642SOL     OW34387   1.238   4.382   2.577  0.2743  0.1647  0.4828
 7642SOL    HW134388   1.163   4.425   2.535 -0.4382 -1.8357 -0.2730
 7642SOL    HW234389   1.230   4.293   2.542  1.7145  0.3675 -0.3500
 7643SOL     OW34390   1.073   3.141  10.263 -0.6828 -0.1308  0.1959
 7643SOL    HW134391   1.038   3.222  10.227  0.7866  1.7938  3.1187
 7643SOL    HW234392   1.042   3.138  10.353 -3.0783 -0.7445 -0.6319
 7644SOL     OW34393   0.988   0.193  15.930  0.1411 -0.4042  0.1101
 7644SOL    HW134394   0.981   0.183  15.835  0.0797 -0.7882  0.1552
 7644SOL    HW234395   0.916   0.135  15.956  0.1344 -0.0812  0.8275
 7645SOL     OW34396   3.764   2.077   2.950 -0.9330  0.3385 -0.1941
 7645SOL    HW134397   3.756   2.052   2.858 -0.5691  0.2561 -0.2018
 7645SOL    HW234398   3.840   2.134   2.939  0.3716 -1.7590 -2.0959
 7646SOL     OW34399   0.291   3.485   6.139 -0.4762  1.0328  0.1337
 7646SOL    HW134400   0.336   3.446   6.213 -1.4628  1.5571  1.0113
 7646SOL    HW234401   0.325   3.575   6.146 -0.4971  1.1162 -0.7564
 7647SOL     OW34402   3.035   4.191  15.712 -0.3466 -0.0568  0.0653
 7647SOL    HW134403   3.054   4.284  15.702  0.9196 -0.2271  0.9597
 7647SOL    HW234404   3.105   4.155  15.659 -0.2861  2.1639 -1.3357
 7648SOL     OW34405   4.626   2.941  16.848 -0.5839  0.0584 -0.6663
 7648SOL    HW134406   4.706   2.911  16.804 -1.4387 -1.3940 -1.2298
 7648SOL    HW234407   4.634   3.037  16.850 -2.9549  0.2132  1.2592
 7649SOL     OW34408   0.858   1.561   2.273 -0.3129  0.1241  0.3724
 7649SOL    HW134409   0.894   1.587   2.358  0.5525 -0.6515  0.2464
 7649SOL    HW234410   0.810   1.487   2.309  0.3269 -0.2302  0.5157
 7650SOL     OW34411   4.622   0.257   5.150 -0.5254  0.6578 -0.4184
 7650SOL    HW134412   4.529   0.279   5.160 -0.4640  0.3927  0.7873
 7650SOL    HW234413   4.661   0.260   5.237 -1.0215 -0.6901 -0.1512
 7651SOL     OW34414   3.717   1.775   6.643  0.3147 -0.1260 -0.1871
 7651SOL    HW134415   3.698   1.863   6.674  2.0577 -0.8475  2.9639
 7651SOL    HW234416   3.757   1.792   6.558  1.0726  0.2987  0.2540
 7652SOL     OW34417   2.000   2.642   3.488 -0.1195 -0.1961 -0.2780
 7652SOL    HW134418   1.908   2.615   3.497 -0.4728  1.6707  1.4876
 7652SOL    HW234419   2.043   2.564   3.524  0.8092 -0.2264 -1.4250
 7653SOL     OW34420   2.904   2.626   1.496  0.1747 -0.1367  0.3882
 7653SOL    HW134421   2.943   2.547   1.461 -0.1759 -0.7007  1.2717
 7653SOL    HW234422   2.983   2.679   1.500 -0.7703  1.4480 -1.7830
 7654SOL     OW34423   3.060   4.042   6.767  0.0534  0.0719  0.5365
 7654SOL    HW134424   3.147   4.011   6.792  0.2836 -0.2038 -0.6407
 7654SOL    HW234425   3.012   3.965   6.798  1.0652 -0.7688  0.0108
 7655SOL     OW34426   1.998   0.045  16.312  0.3225  0.2393  0.3421
 7655SOL    HW134427   2.090   0.036  16.289  0.0385 -1.7284 -0.0324
 7655SOL    HW234428   2.001   0.105  16.387 -0.7067  0.3696  0.2811
 7656SOL     OW34429   2.283   2.561  15.796 -0.0361  0.0895 -0.7289
 7656SOL    HW134430   2.344   2.521  15.858 -1.6915  1.8673  2.0558
 7656SOL    HW234431   2.218   2.584  15.862 -0.5140 -0.9804 -0.8229
 7657SOL     OW34432   3.377   3.140  16.510  0.2016  0.4052 -0.0200
 7657SOL    HW134433   3.321   3.206  16.469  0.7310 -0.0345 -1.4540
 7657SOL    HW234434   3.409   3.177  16.592  0.5642  1.7646 -0.7688
 7658SOL     OW34435   0.030   0.095  13.059 -0.5248 -0.3331  0.3739
 7658SOL    HW134436   4.678   0.037  13.048  0.5201 -1.5029 -0.5803
 7658SOL    HW234437   0.042   0.132  12.972  2.5483 -0.6140  0.6444
 7659SOL     OW34438   0.158   0.258   4.128 -0.1615  0.3441  0.0419
 7659SOL    HW134439   0.231   0.224   4.077  0.6042  1.7566  0.2017
 7659SOL    HW234440   0.090   0.192   4.111 -0.7044  1.1634 -0.9968
 7660SOL     OW34441   1.424   4.197   5.797 -0.5820  0.4526 -0.0277
 7660SOL    HW134442   1.490   4.221   5.731  0.2900 -0.1840  0.6088
 7660SOL    HW234443   1.454   4.107   5.810  0.6785  1.0220  1.0138
 7661SOL     OW34444   0.103   1.395  10.731 -0.4829 -0.4559 -0.4260
 7661SOL    HW134445   0.181   1.423  10.683 -1.0180  1.4468 -0.2004
 7661SOL    HW234446   0.142   1.322  10.779  0.6593 -0.8701 -1.9617
 7662SOL     OW34447   1.847   4.712   8.301  0.1531  0.3228  0.5986
 7662SOL    HW134448   1.787   4.702   8.227  1.6490  0.8765 -0.6846
 7662SOL    HW234449   1.928   4.708   8.250 -0.4842  1.8976 -0.5361
 7663SOL     OW34450   0.917   2.614   3.916  0.1435 -0.3432  0.1608
 7663SOL    HW134451   0.990   2.676   3.915  0.2435 -0.5204 -3.0093
 7663SOL    HW234452   0.879   2.610   4.004 -0.1651  0.1410  0.0550
 7664SOL     OW34453   2.653   4.701   3.077  0.4344 -0.0410 -0.3042
 7664SOL    HW134454   2.563   4.673   3.089  0.5281 -0.2894 -0.1897
 7664SOL    HW234455   2.700   4.618   3.086  2.1537  1.3116  3.0532
 7665SOL     OW34456   2.557   3.066   8.820  0.5557 -0.9144 -0.5179
 7665SOL    HW134457   2.616   3.056   8.894  1.6209 -1.3119 -1.4092
 7665SOL    HW234458   2.533   2.973   8.824 -0.4745 -0.7645 -3.0351
 7666SOL     OW34459   3.041   3.406   7.303 -0.1205  0.3856 -0.4588
 7666SOL    HW134460   3.026   3.446   7.389  0.9004 -0.2232 -0.0053
 7666SOL    HW234461   3.059   3.483   7.249  1.1187  0.6405  0.3322
 7667SOL     OW34462   3.783   3.210   1.072  0.0755 -0.4502 -0.2384
 7667SOL    HW134463   3.813   3.283   1.017 -1.4178  3.1646  3.6916
 7667SOL    HW234464   3.691   3.223   1.046  0.6950  0.9680 -1.7732
 7668SOL     OW34465   4.183   0.414   6.707  0.6746 -0.3936  0.1798
 7668SOL    HW134466   4.125   0.343   6.682 -1.8023  1.9499 -0.6665
 7668SOL    HW234467   4.188   0.468   6.628  1.5093 -2.4051 -1.1685
 7669SOL     OW34468   4.188   2.504   5.451 -0.1939  0.3197  0.3885
 7669SOL    HW134469   4.173   2.469   5.363 -1.7518 -0.2069  0.8612
 7669SOL    HW234470   4.200   2.421   5.497  3.6909  0.9367  0.4920
 7670SOL     OW34471   2.631   3.714  17.470  0.3525  0.1637  0.4385
 7670SOL    HW134472   2.718   3.699  17.507  1.0549  1.4701 -0.6888
 7670SOL    HW234473   2.644   3.771  17.395  1.3879  1.0995  1.3228
 7671SOL     OW34474   1.442   1.859  16.701 -0.9223  0.4656  0.8638
 7671SOL    HW134475   1.429   1.808  16.621 -0.0818 -0.4316  1.3144
 7671SOL    HW234476   1.411   1.788  16.757  1.4611  1.1201  2.9949
 7672SOL     OW34477   2.410   4.268  17.107  0.1870  0.0746  0.1466
 7672SOL    HW134478   2.389   4.301  17.194  1.8247 -0.4028  0.7144
 7672SOL    HW234479   2.394   4.174  17.121  1.4825 -0.1418  0.1629
 7673SOL     OW34480   2.748   0.806   9.084  0.2035 -0.3107  0.2680
 7673SOL    HW134481   2.736   0.839   8.995 -1.5906 -1.2984  0.1406
 7673SOL    HW234482   2.771   0.713   9.085 -1.3029 -0.6790  0.4234
 7674SOL     OW34483   4.527   1.952   3.568  0.3992  0.2308 -0.3740
 7674SOL    HW134484   4.436   1.924   3.566  0.3166  0.4653 -0.0681
 7674SOL    HW234485   4.579   1.880   3.604 -0.0559  0.9319  1.7208
 7675SOL     OW34486   4.109   0.856   7.986  0.7347 -0.2914 -0.5015
 7675SOL    HW134487   4.026   0.878   8.028  1.0502  0.0020 -0.0271
 7675SOL    HW234488   4.157   0.835   8.067 -0.6039  1.6388  0.8036
 7676SOL     OW34489   0.380   0.030  12.820 -0.2220  0.2769  0.4904
 7676SOL    HW134490   0.404   0.116  12.854  0.2965  0.2905  0.0816
 7676SOL    HW234491   0.388   4.695  12.896 -0.3461 -0.0361  0.2695
 7677SOL     OW34492   3.893   1.036   2.731 -0.3571  0.3287  0.1786
 7677SOL    HW134493   3.864   1.087   2.808  1.6296 -0.4491  1.4284
 7677SOL    HW234494   3.814   1.047   2.678  1.2172  1.4897 -1.9263
 7678SOL     OW34495   4.609   1.314  16.594 -0.2328  0.1378  0.2617
 7678SOL    HW134496   4.538   1.378  16.589 -1.0063 -0.6760  0.9266
 7678SOL    HW234497   4.660   1.350  16.521 -1.2562  0.5215 -0.2587
 7679SOL     OW34498   0.688   4.522   8.680  0.6758  0.1563 -0.1031
 7679SOL    HW134499   0.653   4.465   8.748  0.5970 -1.0794 -1.1725
 7679SOL    HW234500   0.615   4.571   8.642 -1.2794 -1.7221  1.2855
 7680SOL     OW34501   0.260   0.759   1.064 -0.7582 -0.1028  0.0428
 7680SOL    HW134502   0.342   0.758   1.114 -0.1398  0.2972 -0.9749
 7680SOL    HW234503   0.268   0.687   1.002 -3.5346 -1.1141  0.8400
 7681SOL     OW34504   3.403   3.683  15.009 -0.6597 -0.0957 -0.3399
 7681SOL    HW134505   3.480   3.739  15.018  0.6251 -1.8445 -0.5881
 7681SOL    HW234506   3.379   3.674  15.101 -0.9547  1.8737 -0.2148
 7682SOL     OW34507   2.957   1.076   3.360 -0.6747  0.5104  0.7119
 7682SOL    HW134508   3.022   1.011   3.333 -0.9787  0.9172 -1.0063
 7682SOL    HW234509   2.953   1.138   3.287 -0.8427 -1.0546 -0.5878
 7683SOL     OW34510   0.466   1.852  14.938  0.4321  0.0155  0.3916
 7683SOL    HW134511   0.516   1.924  14.974  0.3829  0.8779 -1.2436
 7683SOL    HW234512   0.485   1.773  14.989 -0.6200 -0.4959  0.0061
 7684SOL     OW34513   2.572   4.716   9.856 -0.5085  0.0000  0.4888
 7684SOL    HW134514   2.612   4.636   9.890 -2.1315 -1.1792 -0.3764
 7684SOL    HW234515   2.580   0.059   9.926  1.2230  0.4135 -0.0888
 7685SOL     OW34516   2.917   2.974   2.064  0.9323 -0.0102  0.2316
 7685SOL    HW134517   2.853   2.904   2.051  0.3290  0.2183  1.8650
 7685SOL    HW234518   2.878   3.042   2.009 -2.7585 -2.6132 -0.3481
 7686SOL     OW34519   1.003   2.729   8.374  0.2267 -0.0972 -0.0921
 7686SOL    HW134520   0.912   2.703   8.390  0.0667  0.7368  0.3277
 7686SOL    HW234521   1.010   2.800   8.437 -0.0084 -0.8596  0.8020
 7687SOL     OW34522   2.338   4.407  11.400  0.4266 -0.2854  0.4904
 7687SOL    HW134523   2.301   4.475  11.456  0.1548  1.7542 -2.1386
 7687SOL    HW234524   2.426   4.407  11.437  0.5070  1.1068  0.3202
 7688SOL     OW34525   4.012   2.752   9.472 -0.8752  0.0127  0.0067
 7688SOL    HW134526   3.934   2.806   9.458 -1.4366  0.0824  3.4985
 7688SOL    HW234527   3.981   2.666   9.442 -2.5644  0.3226  0.8362
 7689SOL     OW34528   3.973   3.318   6.919  0.0879 -0.2080  0.5588
 7689SOL    HW134529   4.021   3.236   6.928  1.2436  0.4404  0.2890
 7689SOL    HW234530   3.943   3.344   7.006  2.9159 -3.5435  2.5303
 7690SOL     OW34531   1.115   4.596   6.525 -0.4400 -0.2243 -0.2778
 7690SOL    HW134532   1.079   4.670   6.476 -0.1260 -0.3105 -0.6317
 7690SOL    HW234533   1.047   4.530   6.511 -2.3893  1.2779  2.0194
 7691SOL     OW34534   1.090   3.467   3.218  0.4390 -0.3439  0.4882
 7691SOL    HW134535   0.997   3.448   3.233 -0.8323  4.0568 -1.9227
 7691SOL    HW234536   1.127   3.379   3.206  0.5030 -0.1761 -0.4904
 7692SOL     OW34537   0.238   0.666  11.910  0.4162 -0.1726 -0.1133
 7692SOL    HW134538   0.187   0.685  11.831 -0.7076 -1.6059  0.2530
 7692SOL    HW234539   0.320   0.676  11.863 -0.3268 -0.0202 -1.3735
 7693SOL     OW34540   0.180   2.085   1.129  0.6657  0.1852 -0.2216
 7693SOL    HW134541   0.142   2.009   1.173  0.4559  0.9325  0.8876
 7693SOL    HW234542   0.180   2.150   1.199  0.2929 -0.1125  0.0508
 7694SOL     OW34543   3.118   2.119  16.049  0.7126  0.5236  0.0093
 7694SOL    HW134544   3.167   2.165  15.981  2.4335 -1.9101 -0.3812
 7694SOL    HW234545   3.084   2.038  16.013 -0.0738 -0.3594  2.7151
 7695SOL     OW34546   2.450   1.385   6.292  0.0722  0.2267 -0.1318
 7695SOL    HW134547   2.505   1.308   6.308 -2.5686 -1.6969 -0.4797
 7695SOL    HW234548   2.405   1.350   6.216 -0.0139  1.1980 -0.5347
 7696SOL     OW34549   2.450   2.105  10.613  0.3478 -0.0191 -0.1917
 7696SOL    HW134550   2.388   2.174  10.637  0.7511  0.3199 -0.1272
 7696SOL    HW234551   2.386   2.060  10.558  1.3289 -0.3334 -1.0761
 7697SOL     OW34552   1.065   4.563   6.066  0.4135  0.1327 -0.2410
 7697SOL    HW134553   1.053   4.658   6.063 -0.7812 -0.0929 -2.1252
 7697SOL    HW234554   0.980   4.533   6.035  0.7988 -1.3757  0.1586
 7698SOL     OW34555   1.298   0.472  16.796 -0.2103 -0.6558  0.1952
 7698SOL    HW134556   1.221   0.489  16.742  1.4339  1.6684 -1.3858
 7698SOL    HW234557   1.256   0.436  16.874 -0.1605  2.0525  1.4562
 7699SOL     OW34558   2.816   1.350   8.485  0.1113 -0.1735  0.6521
 7699SOL    HW134559   2.862   1.284   8.432 -0.9741 -0.0173 -0.4705
 7699SOL    HW234560   2.769   1.390   8.413  1.8286 -1.1530 -1.0343
 7700SOL     OW34561   3.307   0.769  12.955  0.2252 -0.1294  0.0827
 7700SOL    HW134562   3.310   0.835  13.024 -1.4335  0.3078 -0.2760
 7700SOL    HW234563   3.235   0.799  12.900  0.9908 -0.9185 -1.3752
 7701SOL     OW34564   2.681   1.334   5.606 -0.3989  0.7180  0.1824
 7701SOL    HW134565   2.749   1.332   5.538  0.7354  1.6212  1.3020
 7701SOL    HW234566   2.659   1.241   5.601 -1.1967  0.8975  0.2642
 7702SOL     OW34567   1.214   0.941   5.022 -0.4845  0.2678 -0.1896
 7702SOL    HW134568   1.131   0.933   5.067 -0.5809 -1.9935 -0.7618
 7702SOL    HW234569   1.187   0.921   4.932 -3.6489 -1.2253  1.1213
 7703SOL     OW34570   2.859   2.784  13.928 -0.3818  0.7250 -0.2057
 7703SOL    HW134571   2.890   2.796  13.838 -3.0590 -2.5177 -1.5912
 7703SOL    HW234572   2.938   2.786  13.982 -0.3510  3.2169 -0.3582
 7704SOL     OW34573   0.752   1.903   0.744  0.1006  0.2508 -0.5368
 7704SOL    HW134574   0.738   1.998   0.737 -0.4690  0.1517 -0.7008
 7704SOL    HW234575   0.823   1.887   0.806 -0.2459 -2.6594 -0.8900
 7705SOL     OW34576   3.075   1.748  14.816 -0.4127  0.7714  0.0669
 7705SOL    HW134577   3.095   1.775  14.727  1.4987  0.1518  0.3192
 7705SOL    HW234578   3.047   1.835  14.846 -1.5815  0.4037  0.0659
 7706SOL     OW34579   2.426   4.553  14.123 -0.0768 -0.0035  0.2608
 7706SOL    HW134580   2.468   4.585  14.204 -0.3061 -0.9483  0.7508
 7706SOL    HW234581   2.336   4.579  14.142 -0.6724 -1.1186 -1.0984
 7707SOL     OW34582   2.089   4.598  12.874 -0.2482 -0.6288  0.1255
 7707SOL    HW134583   2.176   4.616  12.909  0.3698 -0.4517 -1.5282
 7707SOL    HW234584   2.043   4.570  12.954 -0.3254 -0.9473 -0.0277
 7708SOL     OW34585   1.241   0.001   9.035  0.3557  0.1302  0.0135
 7708SOL    HW134586   1.322   0.001   8.983 -0.0158  2.2137 -0.5455
 7708SOL    HW234587   1.281   4.713   9.121 -1.6671  1.4094  1.1002
 7709SOL     OW34588   3.704   2.597  16.356  0.1901  0.1430  0.0305
 7709SOL    HW134589   3.674   2.688  16.358  0.1744  0.1218  1.1035
 7709SOL    HW234590   3.795   2.612  16.381  0.4698  2.0615 -2.1204
 7710SOL     OW34591   2.129   3.624  13.518 -0.1087  0.0415 -0.6253
 7710SOL    HW134592   2.196   3.691  13.537 -0.9411  0.9234 -0.8065
 7710SOL    HW234593   2.050   3.678  13.514 -0.5064 -0.3259  2.3856
 7711SOL     OW34594   0.849   0.178   9.011 -0.2986 -0.3272 -0.6412
 7711SOL    HW134595   0.885   0.110   8.955 -0.0244 -1.9590  1.5047
 7711SOL    HW234596   0.758   0.150   9.021 -0.7837  1.6841  0.5599
 7712SOL     OW34597   1.838   1.172   2.186  0.2132 -0.2776  0.6640
 7712SOL    HW134598   1.782   1.187   2.110 -0.5934 -0.0250  1.3124
 7712SOL    HW234599   1.855   1.078   2.184  1.5596 -0.0254  0.0631
 7713SOL     OW34600   0.166   0.527   4.120 -0.1077  0.1012 -0.0718
 7713SOL    HW134601   0.076   0.541   4.090  0.0129  0.6014 -0.1931
 7713SOL    HW234602   0.153   0.435   4.141  0.6095  1.2299  5.3020
 7714SOL     OW34603   3.748   1.662   5.854 -0.0581  0.1146  0.1002
 7714SOL    HW134604   3.697   1.590   5.817  2.0040  0.3451 -3.2195
 7714SOL    HW234605   3.703   1.680   5.936  0.2002  0.5161  0.1520
 7715SOL     OW34606   1.380   1.353  11.270 -0.3495 -0.4963  0.3145
 7715SOL    HW134607   1.391   1.317  11.182 -4.9481  3.5571 -1.9158
 7715SOL    HW234608   1.309   1.293  11.291 -0.2571 -0.6803  0.0977
 7716SOL     OW34609   0.633   0.520   6.870  0.0961  0.8511 -0.1442
 7716SOL    HW134610   0.600   0.590   6.927 -1.4621  0.2700 -0.3609
 7716SOL    HW234611   0.725   0.547   6.866  0.8613 -1.7254  0.2309
 7717SOL     OW34612   2.626   0.948   7.372  0.0205 -0.0208 -0.1412
 7717SOL    HW134613   2.549   0.974   7.322  1.9403  2.8149 -1.6617
 7717SOL    HW234614   2.627   0.855   7.352  1.1359  0.1136 -0.7334
 7718SOL     OW34615   3.113   2.808   8.702 -0.5230 -0.0670  0.1503
 7718SOL    HW134616   3.166   2.850   8.635 -1.0524  0.1221 -0.1423
 7718SOL    HW234617   3.187   2.790   8.761 -0.9281 -0.3258  0.5791
 7719SOL     OW34618   1.865   3.420   3.112  0.1682  0.1436  0.3119
 7719SOL    HW134619   1.961   3.423   3.118  0.3946 -2.3638 -2.1734
 7719SOL    HW234620   1.846   3.503   3.068  0.4782 -1.2507 -2.4659
 7720SOL     OW34621   4.590   0.768   6.500 -0.3580 -0.4751  0.5665
 7720SOL    HW134622   4.649   0.842   6.483 -1.9669  0.5221 -0.6511
 7720SOL    HW234623   4.644   0.689   6.491 -0.7800 -0.5707 -1.0528
 7721SOL     OW34624   4.370   4.716   7.268  0.2902 -0.8684 -0.0225
 7721SOL    HW134625   4.361   4.678   7.181  2.6914 -1.2694 -0.0951
 7721SOL    HW234626   4.441   0.057   7.259  0.5235 -1.1245  0.0152
 7722SOL     OW34627   3.526   1.486  14.438 -0.1758 -0.3611 -0.1968
 7722SOL    HW134628   3.559   1.566  14.397  0.2201 -0.3521  0.1451
 7722SOL    HW234629   3.604   1.431  14.435  1.6130  2.2117 -1.1574
 7723SOL     OW34630   0.221   1.022   4.069  0.3485 -0.0338  0.3878
 7723SOL    HW134631   0.150   1.085   4.059  0.4973 -0.3327 -2.8563
 7723SOL    HW234632   0.183   0.935   4.059  1.2726 -0.1503 -2.1891
 7724SOL     OW34633   0.243   3.531  13.689  0.2141  0.1952  0.1047
 7724SOL    HW134634   0.265   3.521  13.782  0.3759 -0.5152 -0.0091
 7724SOL    HW234635   0.191   3.611  13.692 -0.5209 -0.1874 -2.0081
 7725SOL     OW34636   3.033   3.307   5.674  0.1007  0.0446 -0.1080
 7725SOL    HW134637   3.078   3.304   5.590  2.9425  2.7715  1.3025
 7725SOL    HW234638   3.104   3.344   5.727 -1.9748  2.1973  1.2147
 7726SOL     OW34639   2.246   1.102   3.650 -0.0006 -0.4559  0.5494
 7726SOL    HW134640   2.255   1.010   3.675  1.8224 -0.9178 -1.8832
 7726SOL    HW234641   2.330   1.146   3.663  0.3075 -0.5842 -0.9781
 7727SOL     OW34642   1.904   0.150   7.056  0.3689 -0.1210  0.1495
 7727SOL    HW134643   1.949   0.166   6.973 -1.5351  1.2596 -0.6119
 7727SOL    HW234644   1.879   0.238   7.083  2.4820  0.6165 -0.2453
 7728SOL     OW34645   2.265   1.407   2.894  0.2659  0.2614 -0.5829
 7728SOL    HW134646   2.239   1.349   2.965 -0.9827  0.3232 -0.9924
 7728SOL    HW234647   2.354   1.374   2.886  0.2591  0.1361 -0.1550
 7729SOL     OW34648   1.563   0.603   6.296 -0.3257  0.1557  0.1181
 7729SOL    HW134649   1.508   0.550   6.354  0.5007 -0.5758  0.2258
 7729SOL    HW234650   1.507   0.667   6.251 -0.7208  1.3547  2.3414
 7730SOL     OW34651   1.938   4.692   0.612 -0.2773  0.3540  0.0830
 7730SOL    HW134652   1.935   0.062   0.634 -1.6512 -0.1177  1.8529
 7730SOL    HW234653   2.010   4.663   0.667  1.3574 -1.1442 -2.8237
 7731SOL     OW34654   3.522   3.590  15.823  0.3099 -0.2613  0.2623
 7731SOL    HW134655   3.611   3.599  15.857 -0.2005 -0.3165  1.6163
 7731SOL    HW234656   3.475   3.644  15.887  1.5475  3.0380 -1.5940
 7732SOL     OW34657   3.250   1.554  14.530  0.2009 -0.2245  0.4385
 7732SOL    HW134658   3.243   1.646  14.504 -1.6302  0.1231  2.1896
 7732SOL    HW234659   3.343   1.536  14.516 -0.2800 -1.1092 -1.6696
 7733SOL     OW34660   2.998   0.380   2.548 -0.3188  0.1140  0.2793
 7733SOL    HW134661   3.031   0.296   2.515 -1.2580 -0.0886 -0.1468
 7733SOL    HW234662   2.931   0.350   2.610 -0.8896 -1.2108 -0.9902
 7734SOL     OW34663   2.158   3.013   1.843 -0.1175 -0.4508  0.1418
 7734SOL    HW134664   2.140   2.976   1.756  1.9524 -0.2678 -0.3585
 7734SOL    HW234665   2.123   3.101   1.828 -0.5713 -0.5867  0.3998
 7735SOL     OW34666   1.430   2.750  11.951  0.1882 -0.5029 -0.2814
 7735SOL    HW134667   1.410   2.771  12.042 -1.7425 -1.7234 -0.4272
 7735SOL    HW234668   1.475   2.666  11.947  0.5658 -0.2446 -1.6394
 7736SOL     OW34669   0.036   1.003   5.036 -0.4091  0.2528 -0.4527
 7736SOL    HW134670   4.684   0.943   5.042 -0.3393  0.1690 -0.4141
 7736SOL    HW234671   0.102   0.950   4.990 -0.1983 -0.7742  1.0350
 7737SOL     OW34672   2.182   0.988   1.646  0.2032  0.5649 -0.0886
 7737SOL    HW134673   2.202   0.895   1.652  0.3118  0.5539 -0.6255
 7737SOL    HW234674   2.267   1.005   1.604  0.9113 -2.1966  0.2141
 7738SOL     OW34675   0.131   3.073   8.650 -0.0519  0.4863 -0.5384
 7738SOL    HW134676   0.173   2.987   8.643  1.3005  0.9686  1.6657
 7738SOL    HW234677   0.127   3.108   8.561 -0.6792  2.0308  0.0960
 7739SOL     OW34678   1.692   3.425  14.679 -0.0466  0.5654 -0.5911
 7739SOL    HW134679   1.755   3.355  14.696  1.0663  1.8298  0.4721
 7739SOL    HW234680   1.604   3.387  14.684  0.1572  0.1901  0.0541
 7740SOL     OW34681   0.907   2.157   1.475 -0.3807 -0.1635  0.0096
 7740SOL    HW134682   0.953   2.088   1.426  0.9194  0.4003  0.4391
 7740SOL    HW234683   0.824   2.162   1.427  0.1979  1.7512 -0.7760
 7741SOL     OW34684   3.584   2.496  16.150 -0.0164  0.1838  0.1161
 7741SOL    HW134685   3.617   2.523  16.236 -0.6319 -1.5303  0.8967
 7741SOL    HW234686   3.641   2.534  16.083 -0.8421 -0.0243 -0.7008
 7742SOL     OW34687   3.105   3.657  13.506  0.2735 -0.5055  0.3333
 7742SOL    HW134688   3.182   3.601  13.518  0.8289 -0.1237 -1.4046
 7742SOL    HW234689   3.140   3.744  13.487 -0.9849  0.1703  1.1653
 7743SOL     OW34690   0.973   3.764  14.260  0.2216  0.1309 -0.2168
 7743SOL    HW134691   0.898   3.773  14.201 -1.7232 -0.4765  2.1693
 7743SOL    HW234692   0.978   3.674  14.291  0.0428  0.1570 -0.1097
 7744SOL     OW34693   1.313   3.228  17.363  0.2546 -0.3995 -0.1341
 7744SOL    HW134694   1.285   3.316  17.335 -0.7505 -1.3757 -2.1425
 7744SOL    HW234695   1.305   3.173  17.286 -1.6430  0.9656 -0.9232
 7745SOL     OW34696   4.280   0.983   1.727 -0.1649  0.6267 -0.1024
 7745SOL    HW134697   4.318   1.037   1.658 -1.9683 -0.1519 -1.7166
 7745SOL    HW234698   4.215   0.937   1.674 -0.2657 -0.7025  1.1581
 7746SOL     OW34699   3.971   1.940   9.130  0.3698 -0.3280  0.2956
 7746SOL    HW134700   4.033   1.968   9.062  0.4502 -0.1083  0.4599
 7746SOL    HW234701   3.909   1.899   9.071  0.1289 -0.9221  0.9611
 7747SOL     OW34702   1.567   4.707   4.100  0.6212 -0.3400 -0.3862
 7747SOL    HW134703   1.502   0.051   4.119  0.3877  0.1000 -2.7360
 7747SOL    HW234704   1.651   0.024   4.122  0.4667 -1.1140  1.6158
 7748SOL     OW34705   2.956   4.174  11.226  0.0559 -0.0311 -0.0452
 7748SOL    HW134706   3.013   4.123  11.169 -1.1699 -2.0771  0.5352
 7748SOL    HW234707   2.999   4.259  11.238 -0.1465 -0.2422  2.1764
 7749SOL     OW34708   4.060   3.572  10.826  0.2588 -0.6597 -0.6354
 7749SOL    HW134709   4.018   3.651  10.862  1.7402 -0.2546  0.1980
 7749SOL    HW234710   3.993   3.543  10.764  1.4654 -3.4758 -0.5960
 7750SOL     OW34711   0.027   0.791   7.138 -0.2089 -0.0459 -0.3357
 7750SOL    HW134712   0.036   0.759   7.228 -0.5986  0.5702 -0.0770
 7750SOL    HW234713   4.695   0.723   7.099 -1.9609  0.1193  1.8334
 7751SOL     OW34714   3.351   2.744  10.380  0.0153  0.8073 -0.2372
 7751SOL    HW134715   3.371   2.824  10.430 -1.4159  0.3175  1.1191
 7751SOL    HW234716   3.367   2.780  10.292 -1.0862  1.2746 -0.2575
 7752SOL     OW34717   4.673   0.530   1.584 -0.3848 -1.0157  0.0023
 7752SOL    HW134718   4.613   0.591   1.627  0.0970 -0.2692 -0.3947
 7752SOL    HW234719   4.671   0.453   1.642  0.5091  0.4453  1.9678
 7753SOL     OW34720   3.875   1.925   6.119  0.0467 -0.5479  0.5673
 7753SOL    HW134721   3.940   1.894   6.056 -1.6449 -0.6172 -1.1375
 7753SOL    HW234722   3.820   1.974   6.058  1.5776  1.8605  1.1221
 7754SOL     OW34723   3.010   2.791   6.774 -0.2302  0.1358 -0.0710
 7754SOL    HW134724   2.940   2.730   6.794 -1.2212  0.9019 -1.1867
 7754SOL    HW234725   2.976   2.864   6.826 -1.9479 -0.8533  0.1992
 7755SOL     OW34726   3.669   1.443   0.790 -0.3062 -0.3375 -0.0953
 7755SOL    HW134727   3.639   1.390   0.864  0.2988  1.3978  1.3726
 7755SOL    HW234728   3.629   1.524   0.819  1.5111  0.1265  1.1550
 7756SOL     OW34729   4.239   2.331  14.168  0.1693 -0.0301  0.9827
 7756SOL    HW134730   4.201   2.307  14.084 -0.9523  1.1997  1.1372
 7756SOL    HW234731   4.252   2.426  14.165 -0.3106 -0.0284 -0.8070
 7757SOL     OW34732   3.609   4.245   6.814 -0.4479 -0.6950  0.2064
 7757SOL    HW134733   3.609   4.336   6.783  0.0279 -0.3232  1.3194
 7757SOL    HW234734   3.541   4.212   6.755  0.7934 -2.7802 -0.0629
 7758SOL     OW34735   1.962   3.636   2.549  0.1578  0.3034 -0.3336
 7758SOL    HW134736   2.025   3.602   2.485 -0.3116  0.9853 -1.1534
 7758SOL    HW234737   1.959   3.567   2.615  2.2083  0.6366  0.0974
 7759SOL     OW34738   2.767   1.201   8.204 -0.2558 -0.5029 -0.4370
 7759SOL    HW134739   2.686   1.247   8.184  0.4925  0.8923 -0.2355
 7759SOL    HW234740   2.740   1.114   8.172 -0.6190 -0.1639 -1.0451
 7760SOL     OW34741   4.042   1.239   7.985  0.3270 -0.1599  0.4191
 7760SOL    HW134742   3.974   1.205   7.927 -1.6122  2.3842  1.1751
 7760SOL    HW234743   4.013   1.330   7.989  0.5640 -0.1632  2.1536
 7761SOL     OW34744   0.849   2.813   0.356  0.2164  0.0834  0.3046
 7761SOL    HW134745   0.761   2.816   0.393 -0.2317  0.1600 -0.7670
 7761SOL    HW234746   0.856   2.722   0.327 -0.0019  0.3560 -0.6208
 7762SOL     OW34747   1.629   1.384  11.458  0.5397  0.1009 -0.0883
 7762SOL    HW134748   1.695   1.343  11.514  1.8585  2.7471  0.2372
 7762SOL    HW234749   1.546   1.362  11.501  0.2893 -0.1830 -0.7079
 7763SOL     OW34750   1.536   1.151  10.329 -0.1778  0.2040  0.4687
 7763SOL    HW134751   1.485   1.137  10.409  0.0454 -0.3296  0.5181
 7763SOL    HW234752   1.619   1.185  10.361  0.2856 -0.0930 -0.4170
 7764SOL     OW34753   1.508   0.892   7.775 -0.0791  0.2491 -0.0804
 7764SOL    HW134754   1.553   0.953   7.718  1.3338 -0.3604  0.3952
 7764SOL    HW234755   1.445   0.955   7.811 -2.0413 -0.9836 -1.4041
 7765SOL     OW34756   4.647   3.080  11.237  0.2973 -0.1817  0.1678
 7765SOL    HW134757   4.719   3.124  11.283  1.1436  1.5565 -2.8491
 7765SOL    HW234758   4.626   3.155  11.182 -1.1925  0.1404  1.1626
 7766SOL     OW34759   1.200   0.922   0.062  0.2207 -0.1811 -0.2580
 7766SOL    HW134760   1.281   0.878   0.040  0.1884 -0.6230  0.4910
 7766SOL    HW234761   1.230   1.002   0.106 -4.2106  1.7180 -0.5900
 7767SOL     OW34762   0.511   1.933   2.912 -0.7573  0.3254 -0.6661
 7767SOL    HW134763   0.418   1.917   2.931 -0.5868 -0.4193 -0.4351
 7767SOL    HW234764   0.551   1.940   2.998  0.8915  0.4893 -1.4591
 7768SOL     OW34765   4.200   0.955  10.772  0.5805  0.2038  0.0195
 7768SOL    HW134766   4.175   1.017  10.703  0.2826  0.7041  0.5836
 7768SOL    HW234767   4.114   0.957  10.815 -0.9681 -0.1716 -2.9970
 7769SOL     OW34768   3.665   0.738   4.330 -0.3403  0.3011 -0.1057
 7769SOL    HW134769   3.739   0.797   4.345  0.7464 -0.9525 -0.5270
 7769SOL    HW234770   3.655   0.741   4.235  0.5880  1.2558 -0.1761
 7770SOL     OW34771   3.304   4.302   5.032 -0.5390  0.2893  0.1201
 7770SOL    HW134772   3.283   4.394   5.022  0.8922  0.5759 -0.3411
 7770SOL    HW234773   3.357   4.311   5.112  0.5931  1.8063 -0.8065
 7771SOL     OW34774   4.138   0.214   9.892  0.1345  0.3534 -0.5022
 7771SOL    HW134775   4.093   0.138   9.854  1.1017 -0.0056 -0.9475
 7771SOL    HW234776   4.153   0.184   9.981  1.1800  0.3541 -0.6813
 7772SOL     OW34777   4.412   4.144   4.679  0.9251  0.6264  0.2422
 7772SOL    HW134778   4.337   4.096   4.715  0.7298 -0.0545 -1.0460
 7772SOL    HW234779   4.363   4.224   4.661 -0.0428  0.0663  0.3839
 7773SOL     OW34780   3.680   1.596   7.944  0.0719  0.2371 -0.7249
 7773SOL    HW134781   3.729   1.513   7.942  0.7102  0.6341 -1.4821
 7773SOL    HW234782   3.691   1.638   7.858  2.7278  3.1627  1.0666
 7774SOL     OW34783   0.453   3.914   8.560  0.1812 -0.5788  0.0999
 7774SOL    HW134784   0.393   3.911   8.485 -0.1426 -1.1838  0.3755
 7774SOL    HW234785   0.531   3.898   8.507 -1.4321 -1.4828 -1.9873
 7775SOL     OW34786   0.354   1.377  10.631 -0.5137 -0.4568 -0.5888
 7775SOL    HW134787   0.445   1.349  10.630 -0.8190 -1.4501 -0.7494
 7775SOL    HW234788   0.350   1.424  10.548  1.6885 -0.3280 -0.6241
 7776SOL     OW34789   1.720   4.626   6.205  0.7744 -0.0478 -0.1739
 7776SOL    HW134790   1.704   4.573   6.283 -0.3793  0.4688 -0.0645
 7776SOL    HW234791   1.645   4.686   6.203 -0.0272 -1.0918 -2.3881
 7777SOL     OW34792   2.549   3.974   3.161 -0.3260  0.5130  0.0404
 7777SOL    HW134793   2.461   4.006   3.143 -0.3401  0.3075 -0.2556
 7777SOL    HW234794   2.528   3.944   3.249 -0.3963 -0.1369 -0.2032
 7778SOL     OW34795   0.067   0.924  14.989 -0.7659  0.1842 -0.2434
 7778SOL    HW134796   4.715   0.870  14.963  0.7539 -1.9816 -0.2318
 7778SOL    HW234797   0.099   0.873  15.064 -2.3338  0.5688  0.6737
 7779SOL     OW34798   1.189   4.423  10.366 -0.5117 -0.1642 -0.2152
 7779SOL    HW134799   1.185   4.395  10.458  1.1168 -1.7381 -0.6236
 7779SOL    HW234800   1.099   4.432  10.336  0.1571  0.9530 -1.8840
 7780SOL     OW34801   1.311   3.882  16.823  0.3939  0.7478 -0.3870
 7780SOL    HW134802   1.262   3.948  16.873 -1.5607  0.2867 -1.6897
 7780SOL    HW234803   1.372   3.851  16.890  0.1944 -2.2661 -1.6077
 7781SOL     OW34804   1.264   1.259   6.646 -0.1551 -0.1723  0.0942
 7781SOL    HW134805   1.260   1.187   6.583  0.0351 -0.7228  0.7085
 7781SOL    HW234806   1.237   1.332   6.591  0.8463  0.0450 -0.1151
 7782SOL     OW34807   0.646   0.681   3.552  0.0479  0.1282 -0.1404
 7782SOL    HW134808   0.555   0.652   3.559  0.6345 -1.8040 -0.4648
 7782SOL    HW234809   0.663   0.636   3.469 -2.3773 -1.3631  0.1721
 7783SOL     OW34810   2.311   3.704  12.231 -0.0339 -0.2824  0.5153
 7783SOL    HW134811   2.297   3.684  12.138  0.7754  0.8097  0.1588
 7783SOL    HW234812   2.230   3.680  12.274 -0.6308  0.3368 -0.2732
 7784SOL     OW34813   3.247   2.776   1.904  0.4959  0.2842  0.3070
 7784SOL    HW134814   3.212   2.837   1.969  0.0680 -2.6900  2.8429
 7784SOL    HW234815   3.197   2.698   1.927  2.6075 -1.4528 -0.9582
 7785SOL     OW34816   0.891   2.241   6.401  0.5826  0.2421  0.1990
 7785SOL    HW134817   0.816   2.182   6.394 -0.3740  1.4128  0.4974
 7785SOL    HW234818   0.850   2.328   6.396 -0.3391 -0.2518 -0.6984
 7786SOL     OW34819   0.186   3.223   4.268  0.2447  0.2866  0.0963
 7786SOL    HW134820   0.136   3.148   4.237 -1.6408  0.4191  2.8305
 7786SOL    HW234821   0.272   3.197   4.236  0.2198  0.3518 -0.0218
 7787SOL     OW34822   3.072   1.923   4.011 -0.1035 -0.2235  0.3504
 7787SOL    HW134823   3.147   1.935   3.953 -0.1972 -2.0103 -0.1097
 7787SOL    HW234824   3.122   1.879   4.079 -0.6847  1.2544  1.7387
 7788SOL     OW34825   4.368   1.941   5.575  0.0052  0.2039 -0.1985
 7788SOL    HW134826   4.390   1.910   5.487 -0.0074  0.6633 -0.3645
 7788SOL    HW234827   4.295   1.885   5.598 -0.5277  1.8798  2.2509
 7789SOL     OW34828   1.873   3.722  11.122  0.3132 -0.1648 -0.4549
 7789SOL    HW134829   1.836   3.635  11.137  0.9340 -0.3934 -0.2191
 7789SOL    HW234830   1.810   3.779  11.164 -1.4575 -1.5754 -1.1946
 7790SOL     OW34831   0.959   0.055   1.606  0.2298 -0.6028  1.0321
 7790SOL    HW134832   0.918   0.061   1.520  2.0183  0.3500  0.2452
 7790SOL    HW234833   0.887   0.081   1.663 -0.1212 -0.2915  0.4356
 7791SOL     OW34834   3.544   4.262  15.574 -0.0575  0.0119 -0.2070
 7791SOL    HW134835   3.508   4.199  15.637  0.5884 -2.0615 -1.9308
 7791SOL    HW234836   3.618   4.209  15.543  0.4355  1.2248 -1.1014
 7792SOL     OW34837   1.640   0.143   7.327  0.2131  0.4905 -0.3279
 7792SOL    HW134838   1.593   0.225   7.316 -1.5516 -0.4350  0.3401
 7792SOL    HW234839   1.616   0.090   7.251 -0.1874 -0.0091  0.1484
 7793SOL     OW34840   1.649   2.409   5.217  0.5119  0.2496  0.0808
 7793SOL    HW134841   1.573   2.404   5.161  0.5375 -0.8104  0.1390
 7793SOL    HW234842   1.637   2.495   5.257  1.2600  1.4401 -2.2346
 7794SOL     OW34843   2.697   2.376   9.397 -0.1522 -0.4613 -0.1616
 7794SOL    HW134844   2.722   2.292   9.436  1.1858 -0.0785 -0.1662
 7794SOL    HW234845   2.630   2.351   9.334 -0.0248  1.1401 -0.9334
 7795SOL     OW34846   1.086   2.582   7.947  0.2724  0.5682  0.2684
 7795SOL    HW134847   1.008   2.638   7.947 -0.2195 -0.1272  0.3659
 7795SOL    HW234848   1.116   2.610   8.034  1.8909 -3.4022  0.9811
 7796SOL     OW34849   2.968   2.265  17.355  0.2197  0.2006 -0.2534
 7796SOL    HW134850   2.977   2.359  17.336  3.0239 -0.0053  0.1398
 7796SOL    HW234851   2.874   2.261  17.373  1.2083 -1.5671  4.3956
 7797SOL     OW34852   2.898   0.705   2.750  0.2008 -0.1336 -0.0409
 7797SOL    HW134853   2.833   0.751   2.696 -0.4832 -2.6034 -1.2936
 7797SOL    HW234854   2.847   0.674   2.824  0.1795  0.0851  0.0365
 7798SOL     OW34855   2.376   4.342   6.821  0.4873 -0.1286 -0.0528
 7798SOL    HW134856   2.454   4.317   6.871 -1.2641 -0.5815  2.4645
 7798SOL    HW234857   2.416   4.336   6.734  0.7360  0.1744  0.0394
 7799SOL     OW34858   3.500   1.999  12.119 -0.2129 -0.4484  0.0343
 7799SOL    HW134859   3.554   1.986  12.197  1.0758  2.7106 -0.3550
 7799SOL    HW234860   3.488   1.907  12.095  1.6285  0.0811 -2.9099
 7800SOL     OW34861   0.412   3.174   9.257  0.2746 -0.0702 -0.6162
 7800SOL    HW134862   0.479   3.152   9.192 -0.6115 -1.1397 -1.1759
 7800SOL    HW234863   0.442   3.124   9.332  1.7170 -0.5206 -1.4899
 7801SOL     OW34864   0.230   4.525   7.540  0.2163 -0.6390  0.2511
 7801SOL    HW134865   0.280   4.454   7.580  0.3709 -1.1854 -0.9023
 7801SOL    HW234866   0.157   4.475   7.502  0.2425 -2.5746  2.7151
 7802SOL     OW34867   2.091   2.016   1.638 -0.7157 -0.1981  0.8102
 7802SOL    HW134868   2.053   2.102   1.621 -2.2525 -0.7344  1.5346
 7802SOL    HW234869   2.021   1.959   1.606  0.0157 -0.7979  0.2759
 7803SOL     OW34870   3.899   3.928   5.466  0.0194  0.1306 -0.2935
 7803SOL    HW134871   3.825   3.869   5.453 -1.3478  1.8449 -0.1162
 7803SOL    HW234872   3.961   3.865   5.503 -2.5851 -2.6140 -0.5910
 7804SOL     OW34873   0.394   3.030   0.764  0.0303 -0.1291  0.4767
 7804SOL    HW134874   0.338   3.074   0.700  0.6217  0.6370  0.4765
 7804SOL    HW234875   0.357   2.943   0.749  1.5286 -0.8866  1.0965
 7805SOL     OW34876   2.468   0.440  14.117 -0.0952 -0.0425 -0.3839
 7805SOL    HW134877   2.454   0.366  14.175 -2.2877  0.0946 -0.7206
 7805SOL    HW234878   2.498   0.390  14.041 -2.3344 -0.8116 -0.7666
 7806SOL     OW34879   4.161   4.667   4.886 -0.2680 -0.3421  0.2676
 7806SOL    HW134880   4.251   4.672   4.918  0.5899 -0.0502 -2.1542
 7806SOL    HW234881   4.110   4.661   4.966  0.8805  1.5081  1.1538
 7807SOL     OW34882   3.123   1.385   1.930 -0.0011 -0.3612  0.5620
 7807SOL    HW134883   3.187   1.315   1.945  1.2047  0.2756 -1.6878
 7807SOL    HW234884   3.061   1.370   2.001 -0.2868 -2.5452 -0.1758
 7808SOL     OW34885   2.881   0.464  16.683 -0.0241  0.4441 -0.1397
 7808SOL    HW134886   2.849   0.378  16.655  1.9583  0.1778 -1.5868
 7808SOL    HW234887   2.834   0.465  16.767 -0.3935 -1.5151 -0.3156
 7809SOL     OW34888   3.682   4.182   3.144  0.5786 -0.3523  0.5113
 7809SOL    HW134889   3.625   4.178   3.221  2.1498  1.5835  1.7591
 7809SOL    HW234890   3.686   4.087   3.129 -1.3816  0.0724 -2.5674
 7810SOL     OW34891   3.901   3.477  10.649  0.1165  0.2899  0.2744
 7810SOL    HW134892   3.934   3.404  10.598  0.4291 -0.1529  1.1099
 7810SOL    HW234893   3.809   3.455  10.642 -0.0406  1.7940 -2.2068
 7811SOL     OW34894   4.196   1.052   2.714  0.4259 -0.2247 -0.6762
 7811SOL    HW134895   4.144   1.129   2.738 -0.7475 -1.1094 -0.3564
 7811SOL    HW234896   4.279   1.098   2.708 -0.7956  2.1438  0.5795
 7812SOL     OW34897   0.362   2.918   3.920 -0.5858  0.0502 -0.1972
 7812SOL    HW134898   0.391   2.835   3.883  0.1151 -0.3567  1.2905
 7812SOL    HW234899   0.279   2.922   3.871 -0.2901 -0.9486 -0.7886
 7813SOL     OW34900   2.228   3.461  12.783 -0.4582 -0.0730  0.3660
 7813SOL    HW134901   2.268   3.516  12.715  0.9362 -0.2997  1.0027
 7813SOL    HW234902   2.170   3.530  12.814  1.8498  2.0496 -0.0397
 7814SOL     OW34903   0.684   2.864   5.978 -0.0346  0.1654  0.0600
 7814SOL    HW134904   0.599   2.867   5.933  0.0767  0.0155 -0.1634
 7814SOL    HW234905   0.745   2.908   5.919  2.3583 -4.4517 -0.8877
 7815SOL     OW34906   1.228   0.141   2.431 -0.1973  0.5498 -0.2851
 7815SOL    HW134907   1.309   0.192   2.437 -0.3193  0.7180 -0.0606
 7815SOL    HW234908   1.218   0.100   2.517 -0.7489 -0.5417 -0.8823
 7816SOL     OW34909   2.002   1.923   8.174  0.2532  0.3984 -0.0142
 7816SOL    HW134910   2.041   1.998   8.217 -0.4568  1.7685 -1.7786
 7816SOL    HW234911   1.967   1.861   8.239  0.5492 -2.6665 -2.7488
 7817SOL     OW34912   0.482   3.665   1.882 -0.3365 -0.1059  0.1014
 7817SOL    HW134913   0.502   3.604   1.811  0.3698  1.1043 -0.7336
 7817SOL    HW234914   0.472   3.747   1.835 -2.6865 -0.6117 -0.2751
 7818SOL     OW34915   0.093   1.309  13.811 -0.7078 -0.4874  0.3352
 7818SOL    HW134916   0.148   1.375  13.854  0.6574 -1.0155 -0.6094
 7818SOL    HW234917   0.136   1.230  13.845 -0.1132 -0.3680 -0.1489
 7819SOL     OW34918   3.340   4.652  10.717 -0.1047  0.2402  0.5984
 7819SOL    HW134919   3.350   4.613  10.630 -2.0786 -0.4254  0.6810
 7819SOL    HW234920   3.430   4.664  10.747 -0.1527  2.4941 -0.1741
 7820SOL     OW34921   3.228   0.683   3.980 -0.1525  0.4069  0.1891
 7820SOL    HW134922   3.222   0.640   4.065  0.3168  2.2031  1.1136
 7820SOL    HW234923   3.150   0.736   3.965 -1.5962 -1.4653  1.0335
 7821SOL     OW34924   0.897   2.149   0.950 -0.1755  0.2636  0.0783
 7821SOL    HW134925   0.928   2.062   0.924  1.6093  0.2467  2.2006
 7821SOL    HW234926   0.813   2.147   0.905  0.2910  1.6905 -0.8482
 7822SOL     OW34927   3.051   1.138  17.594 -0.2749 -0.2791  0.0357
 7822SOL    HW134928   3.130   1.190  17.609 -0.6247  0.5563 -1.0278
 7822SOL    HW234929   2.986   1.190  17.641 -0.2043 -0.0891 -0.0749
 7823SOL     OW34930   2.820   3.574   3.445 -0.0368 -0.2678  0.0066
 7823SOL    HW134931   2.912   3.555   3.425  0.3041  2.1500 -0.8002
 7823SOL    HW234932   2.822   3.640   3.514  0.5570 -1.5327  1.1977
 7824SOL     OW34933   0.506   1.777   8.984 -0.3123 -0.6419  0.1094
 7824SOL    HW134934   0.474   1.783   9.073 -1.2912  0.2172 -0.3030
 7824SOL    HW234935   0.425   1.758   8.937  1.6431 -1.7544 -2.8688
 7825SOL     OW34936   0.101   1.500   2.830  0.5756  0.1059  0.4329
 7825SOL    HW134937   0.044   1.498   2.753  0.6920  2.4255  0.2783
 7825SOL    HW234938   0.148   1.417   2.825  0.1700 -0.1495  0.8342
 7826SOL     OW34939   4.103   1.412  14.062 -0.0188  0.1547 -0.3340
 7826SOL    HW134940   4.096   1.404  13.967  1.5907 -0.6863 -0.3955
 7826SOL    HW234941   4.013   1.395  14.089  0.5823  0.5452  1.9169
 7827SOL     OW34942   1.428   1.136   2.058 -0.0114 -0.7818  0.0519
 7827SOL    HW134943   1.359   1.121   1.993 -1.0016 -1.1188  1.1829
 7827SOL    HW234944   1.511   1.128   2.012  0.3953 -3.1977  1.2089
 7828SOL     OW34945   2.894   1.454  16.287  0.1860  0.0572  0.1986
 7828SOL    HW134946   2.826   1.516  16.312  1.6180  1.0581  1.6506
 7828SOL    HW234947   2.855   1.405  16.215 -0.6018  2.5973 -1.1167
 7829SOL     OW34948   2.574   3.526  14.733  0.9160 -0.3020 -0.0768
 7829SOL    HW134949   2.663   3.547  14.760  1.1688  1.0201 -1.9269
 7829SOL    HW234950   2.532   3.531  14.819 -1.7314 -1.9757 -1.2790
 7830SOL     OW34951   3.132   1.661  16.026 -0.3767 -0.1523  1.1742
 7830SOL    HW134952   3.098   1.745  16.055  0.8930  0.5356  0.6701
 7830SOL    HW234953   3.124   1.605  16.103 -3.7481  1.3283  1.8959
 7831SOL     OW34954   0.032   1.612  14.375 -0.1520  0.3443 -0.0466
 7831SOL    HW134955   0.110   1.576  14.333  0.2704 -0.6606  1.6110
 7831SOL    HW234956   0.055   1.704  14.391  1.5599  0.0174 -0.5492
 7832SOL     OW34957   3.233   3.938   9.977 -0.2142 -0.5089  0.1996
 7832SOL    HW134958   3.301   3.898   9.923 -1.3498 -0.4745 -1.2533
 7832SOL    HW234959   3.203   3.864  10.031  1.3765  0.0701  1.8641
 7833SOL     OW34960   1.414   3.140   1.511  0.5786  0.4911  0.3431
 7833SOL    HW134961   1.419   3.066   1.571  2.7786  1.3680  1.2675
 7833SOL    HW234962   1.499   3.148   1.468  0.3417  1.8836  0.1427
 7834SOL     OW34963   0.359   1.706   4.454  0.0050  0.3775  0.0224
 7834SOL    HW134964   0.389   1.719   4.364  0.5842  0.3394  0.2138
 7834SOL    HW234965   0.300   1.781   4.460  1.8605  1.8755 -0.3365
 7835SOL     OW34966   4.161   4.381   2.771 -0.5923 -0.0039  0.0929
 7835SOL    HW134967   4.144   4.386   2.677  1.3843  1.7346 -0.1573
 7835SOL    HW234968   4.252   4.357   2.755 -0.2110  0.4401  1.6165
 7836SOL     OW34969   4.278   1.084   3.968 -0.5763  0.2973 -0.2273
 7836SOL    HW134970   4.266   1.025   3.893  0.9560 -1.6189  1.0576
 7836SOL    HW234971   4.191   1.089   4.008 -0.2674  1.1662  0.3330
 7837SOL     OW34972   4.606   4.016   3.315 -0.4917  0.7224 -0.2330
 7837SOL    HW134973   4.689   4.001   3.360  0.1207  2.3042 -0.8331
 7837SOL    HW234974   4.597   4.112   3.310 -2.4834  0.5018 -0.8516
 7838SOL     OW34975   0.046   0.408   4.929 -0.2721 -0.8969  0.0041
 7838SOL    HW134976   0.069   0.316   4.926  0.5508 -0.6400 -1.8930
 7838SOL    HW234977   4.690   0.405   4.984 -0.0583  2.1120  0.4803
 7839SOL     OW34978   1.462   2.303  16.285 -0.4643 -0.0237  0.5381
 7839SOL    HW134979   1.473   2.220  16.332  0.5408 -0.0425  0.2545
 7839SOL    HW234980   1.520   2.296  16.209 -0.0873  1.5577  0.6741
 7840SOL     OW34981   0.966   2.772   5.750 -0.2062  0.0703  0.0674
 7840SOL    HW134982   0.919   2.855   5.743  0.8027  0.4585 -2.0686
 7840SOL    HW234983   1.030   2.768   5.679  0.9500 -2.1152  1.2339
 7841SOL     OW34984   0.204   1.777   6.461  0.2997 -0.1308 -0.2651
 7841SOL    HW134985   0.248   1.699   6.493 -0.1591 -0.0174  0.6393
 7841SOL    HW234986   0.129   1.738   6.417  0.4093 -0.3422 -0.2628
 7842SOL     OW34987   4.287   0.963   3.197 -0.3211  0.1944 -0.3143
 7842SOL    HW134988   4.280   0.877   3.238 -0.8007 -0.1435 -1.1122
 7842SOL    HW234989   4.309   0.937   3.108  0.0460 -1.5285  0.2819
 7843SOL     OW34990   0.528   1.613   2.471  0.6027 -0.1572  0.0636
 7843SOL    HW134991   0.433   1.618   2.458  0.5616  0.3942  0.5885
 7843SOL    HW234992   0.567   1.577   2.390  2.5356 -1.2983  1.4924
 7844SOL     OW34993   1.744   4.704   3.822  0.0806  0.0196  0.2326
 7844SOL    HW134994   1.655   4.707   3.856  0.8345  0.2150  2.1655
 7844SOL    HW234995   1.796   4.656   3.886 -2.0057  0.8586  2.5373
 7845SOL     OW34996   1.291   0.632  17.100 -0.2400  0.3407 -0.1946
 7845SOL    HW134997   1.317   0.587  17.180 -0.6251  0.9760  0.2890
 7845SOL    HW234998   1.253   0.559  17.050  1.0207 -1.0456  0.8714
 7846SOL     OW34999   2.527   2.932  16.900  0.2482 -0.0878 -0.0298
 7846SOL    HW135000   2.583   3.006  16.875  0.6412 -0.1087  0.8061
 7846SOL    HW235001   2.586   2.857  16.894  0.0276 -0.2001 -0.8551
 7847SOL     OW35002   4.366   0.019   5.367  0.2120  0.4676  0.7494
 7847SOL    HW135003   4.294   0.014   5.430 -0.2463  0.1240  0.1880
 7847SOL    HW235004   4.437   4.710   5.423  0.8297 -0.6307 -0.6625
 7848SOL     OW35005   2.057   3.452  15.296  0.1438  0.0195  0.4382
 7848SOL    HW135006   2.079   3.435  15.387  0.5343 -1.1325  0.1280
 7848SOL    HW235007   1.964   3.426  15.298 -0.0456  0.7539  1.0175
 7849SOL     OW35008   0.503   3.125  10.345 -0.5126  0.6087 -0.1368
 7849SOL    HW135009   0.515   3.041  10.388  0.0041  1.6716  1.8401
 7849SOL    HW235010   0.439   3.110  10.275 -1.4356  1.9626  0.3947
 7850SOL     OW35011   3.882   3.980   9.532  0.2266 -0.5560 -0.6581
 7850SOL    HW135012   3.861   4.069   9.503 -0.3059 -0.7504 -0.8701
 7850SOL    HW235013   3.974   3.982   9.506  0.4181 -0.9186 -0.0139
 7851SOL     OW35014   0.060   4.131   6.319 -0.1584  0.3571 -0.0862
 7851SOL    HW135015   0.039   4.105   6.409 -0.2076  1.2345  0.1495
 7851SOL    HW235016   4.704   4.110   6.269  0.3367 -1.0387 -0.2965
 7852SOL     OW35017   3.050   3.532   6.334 -0.0814  0.0269  0.1429
 7852SOL    HW135018   3.033   3.450   6.288 -1.2550 -0.2177  1.0259
 7852SOL    HW235019   3.007   3.517   6.418 -1.7714  1.4771 -0.4621
 7853SOL     OW35020   3.414   3.887   7.977 -0.5103 -0.7628  0.3915
 7853SOL    HW135021   3.344   3.858   8.036 -0.0476 -0.0330  1.2912
 7853SOL    HW235022   3.394   3.844   7.893 -0.0195 -0.1335 -0.0466
 7854SOL     OW35023   3.903   1.451   6.157 -0.1102  0.1537 -0.3950
 7854SOL    HW135024   3.948   1.373   6.192 -0.3870  0.2483  0.1676
 7854SOL    HW235025   3.910   1.515   6.228  0.8182 -0.6158  0.2193
 7855SOL     OW35026   0.732   4.593  10.082  0.4134 -0.4110 -0.5949
 7855SOL    HW135027   0.808   4.631  10.126 -0.1137 -2.2577  1.9941
 7855SOL    HW235028   0.723   4.653  10.009  3.1707 -1.5349 -1.8444
 7856SOL     OW35029   0.036   0.746  14.635  0.0998 -0.0090 -1.0705
 7856SOL    HW135030   0.057   0.823  14.688  1.1297 -0.4184 -0.8842
 7856SOL    HW235031   4.664   0.739  14.643  0.2337 -0.5668  0.0898
 7857SOL     OW35032   4.537   1.879   4.220 -0.3278  0.4016  0.1875
 7857SOL    HW135033   4.487   1.887   4.301 -1.5886 -1.1164 -0.4339
 7857SOL    HW235034   4.489   1.934   4.158  1.9660  1.5706 -0.5210
 7858SOL     OW35035   2.924   1.828   1.026 -0.3860 -0.3814 -0.4520
 7858SOL    HW135036   2.939   1.923   1.022  1.7271 -0.6883  0.4549
 7858SOL    HW235037   2.829   1.831   1.039 -0.1765  0.4789  0.9364
 7859SOL     OW35038   3.107   1.839  16.312 -0.2120 -0.1471  0.1041
 7859SOL    HW135039   3.023   1.857  16.270  0.1116  1.2197  0.0482
 7859SOL    HW235040   3.109   1.898  16.388  0.3856  0.4321 -0.3628
 7860SOL     OW35041   0.232   3.295   7.668 -0.0730  0.1210 -0.3735
 7860SOL    HW135042   0.141   3.273   7.692 -0.2510  0.1346 -1.0287
 7860SOL    HW235043   0.222   3.310   7.574  1.6636  0.8420 -0.4350
 7861SOL     OW35044   2.775   2.141   4.478  0.6491  0.1153 -1.0029
 7861SOL    HW135045   2.694   2.136   4.528  3.4331 -0.1667  3.4792
 7861SOL    HW235046   2.778   2.050   4.449  2.1144  0.2967 -1.4609
 7862SOL     OW35047   1.615   4.174   5.597  0.7357 -0.0537 -0.2702
 7862SOL    HW135048   1.708   4.192   5.613  0.4496  0.5326  0.7745
 7862SOL    HW235049   1.612   4.086   5.561  1.4758 -0.7225  1.2926
 7863SOL     OW35050   2.275   1.375  13.275 -0.6973  0.6945 -0.3858
 7863SOL    HW135051   2.200   1.327  13.240 -0.2668 -0.7363  0.6948
 7863SOL    HW235052   2.221   1.443  13.315 -1.3467  0.0831 -0.2247
 7864SOL     OW35053   1.234   2.291   1.343 -0.2324  0.3561  0.1671
 7864SOL    HW135054   1.158   2.279   1.286 -0.2607 -1.7002  0.6371
 7864SOL    HW235055   1.183   2.301   1.423 -1.4785  0.4669 -0.6391
 7865SOL     OW35056   2.544   0.583   8.174  0.7824 -0.0445  0.5191
 7865SOL    HW135057   2.565   0.676   8.180  2.3753 -0.4526  1.3082
 7865SOL    HW235058   2.457   0.580   8.134  0.5995  1.5890  0.8186
 7866SOL     OW35059   0.318   3.382   7.919  0.8911 -0.4043 -0.2946
 7866SOL    HW135060   0.318   3.419   7.831  1.4650 -0.0316 -0.1383
 7866SOL    HW235061   0.304   3.288   7.906  0.5503 -0.6198  1.6030
 7867SOL     OW35062   3.681   4.706   5.530 -0.1137  0.4996  0.0962
 7867SOL    HW135063   3.721   0.052   5.583  1.4707  1.6232 -2.6010
 7867SOL    HW235064   3.604   4.706   5.588 -0.1105 -1.1166  0.0957
 7868SOL     OW35065   2.333   2.973   7.692  0.0780 -0.2096 -0.3897
 7868SOL    HW135066   2.289   3.021   7.622 -0.2024 -1.0338 -0.7656
 7868SOL    HW235067   2.350   3.046   7.753  2.1016  0.1638 -1.3953
 7869SOL     OW35068   0.706   3.396   5.753 -0.0886  0.1372  0.3369
 7869SOL    HW135069   0.790   3.354   5.732  0.4087  1.1930  0.2222
 7869SOL    HW235070   0.708   3.404   5.848  0.7918  1.1385  0.2441
 7870SOL     OW35071   3.088   1.063  11.606  0.5764 -0.5062 -0.3859
 7870SOL    HW135072   3.131   1.003  11.545 -0.6819 -2.7054  0.8933
 7870SOL    HW235073   3.005   1.018  11.621  1.2731 -2.1381 -1.4333
 7871SOL     OW35074   0.957   1.974   5.060 -0.2391 -0.0294 -0.3543
 7871SOL    HW135075   1.037   1.975   5.112  1.1142  0.5658 -2.4294
 7871SOL    HW235076   0.974   2.052   5.007  1.8541 -0.4427 -0.3091
 7872SOL     OW35077   1.333   1.963  14.447 -0.3376 -0.0856 -0.8855
 7872SOL    HW135078   1.277   1.950  14.524 -1.7369  1.0647 -1.7077
 7872SOL    HW235079   1.416   1.989  14.487  0.0575 -0.9411 -1.1469
 7873SOL     OW35080   1.524   4.464   7.632 -0.3301  0.2560  0.1553
 7873SOL    HW135081   1.547   4.557   7.628  2.5078 -0.4819 -0.4532
 7873SOL    HW235082   1.599   4.408   7.614 -0.4963  0.3647 -0.9029
 7874SOL     OW35083   0.550   4.332   9.678 -0.0475 -0.5968  0.1169
 7874SOL    HW135084   0.629   4.362   9.723 -0.3732  0.7356 -0.2112
 7874SOL    HW235085   0.481   4.355   9.741 -0.3948 -2.6725  0.5138
 7875SOL     OW35086   2.690   3.025  12.825 -0.4024 -0.2110  0.5572
 7875SOL    HW135087   2.702   2.977  12.906  1.0612 -0.4309  0.2182
 7875SOL    HW235088   2.601   3.004  12.798  0.0584 -0.0320 -1.0984
 7876SOL     OW35089   4.675   0.109   9.078  0.4372 -0.3548 -0.1556
 7876SOL    HW135090   0.030   0.164   9.084  0.8126 -0.8822 -0.2437
 7876SOL    HW235091   4.713   0.034   9.125  1.1662  0.0219 -0.1525
 7877SOL     OW35092   1.177   2.547   9.794 -0.1031 -0.5904  0.4760
 7877SOL    HW135093   1.213   2.585   9.875 -2.0748  1.6184  0.2906
 7877SOL    HW235094   1.228   2.590   9.725  0.0202 -1.0683  0.2678
 7878SOL     OW35095   2.257   0.808   5.680  0.1734  0.1418 -0.5212
 7878SOL    HW135096   2.205   0.888   5.669 -0.5815 -0.3068 -0.1852
 7878SOL    HW235097   2.280   0.806   5.773  1.4505 -0.5398 -0.8509
 7879SOL     OW35098   4.444   4.059   7.834 -0.3222 -0.0693  0.2825
 7879SOL    HW135099   4.398   4.096   7.910  0.3705  1.7769 -0.1817
 7879SOL    HW235100   4.424   4.122   7.765  0.8540 -0.5971 -0.5372
 7880SOL     OW35101   2.946   4.263  12.291  0.3538 -0.6708  0.0366
 7880SOL    HW135102   2.917   4.333  12.232  0.4899  1.6359  2.7577
 7880SOL    HW235103   2.860   4.226  12.313  0.2324 -1.3818 -1.5944
 7881SOL     OW35104   4.002   0.536   6.288  0.6186 -0.3293 -0.0605
 7881SOL    HW135105   3.945   0.610   6.308  0.4382 -0.6251  0.5532
 7881SOL    HW235106   4.015   0.552   6.195 -1.6402  0.2776 -0.2690
 7882SOL     OW35107   0.779   4.134   4.472  0.5073  0.1573 -0.1343
 7882SOL    HW135108   0.776   4.039   4.465  1.9493 -0.0640  1.9937
 7882SOL    HW235109   0.773   4.143   4.567 -1.6951  1.5780 -0.3971
 7883SOL     OW35110   3.840   1.796   2.999 -0.2970 -0.0081  0.1134
 7883SOL    HW135111   3.748   1.797   2.972 -0.6705 -0.0386  1.3584
 7883SOL    HW235112   3.885   1.796   2.915  0.6328 -0.6803  0.6144
 7884SOL     OW35113   4.513   0.639   7.862  0.3126 -0.3455  0.2692
 7884SOL    HW135114   4.488   0.720   7.906 -2.9243 -1.4900  0.6035
 7884SOL    HW235115   4.607   0.655   7.865  0.1097  1.1533 -1.4004
 7885SOL     OW35116   4.357   0.786   6.347 -0.2138 -0.2134 -0.3463
 7885SOL    HW135117   4.432   0.809   6.403  0.2247 -0.5826 -0.7787
 7885SOL    HW235118   4.391   0.804   6.259  0.7818  0.9990  0.2817
 7886SOL     OW35119   2.782   2.661   6.077 -0.0262 -0.1366  0.4187
 7886SOL    HW135120   2.715   2.719   6.114 -0.2494 -0.1145 -0.0227
 7886SOL    HW235121   2.815   2.618   6.156 -1.1891 -0.1602  0.8777
 7887SOL     OW35122   2.161   2.810  12.785  0.2304  0.2893 -0.3538
 7887SOL    HW135123   2.139   2.775  12.872 -1.0759 -0.5087 -0.9965
 7887SOL    HW235124   2.226   2.754  12.743  0.7989  2.3695 -2.2461
 7888SOL     OW35125   2.116   2.954   7.373  0.0064 -0.0084 -0.3329
 7888SOL    HW135126   2.167   3.036   7.376  0.1433 -0.2007  2.7939
 7888SOL    HW235127   2.152   2.915   7.293 -1.6469 -0.2496 -0.9465
 7889SOL     OW35128   1.764   1.526   7.226 -0.4117  0.5410  0.3335
 7889SOL    HW135129   1.756   1.609   7.180  0.7954  0.5179  0.0622
 7889SOL    HW235130   1.805   1.471   7.159 -0.3315 -0.8899  1.5567
 7890SOL     OW35131   1.702   2.598   6.919  0.2917 -0.6560 -0.2564
 7890SOL    HW135132   1.646   2.664   6.879  2.1581  0.7680 -0.5008
 7890SOL    HW235133   1.631   2.549   6.961  0.0587  1.8315  2.3233
 7891SOL     OW35134   2.767   1.663  17.668  0.2012  0.4009 -0.1789
 7891SOL    HW135135   2.861   1.659  17.686 -0.0406  2.6426  1.5891
 7891SOL    HW235136   2.732   1.739   0.021  2.6763  0.3098  1.8275
 7892SOL     OW35137   1.258   2.293   8.648 -0.2599 -0.2439  0.3018
 7892SOL    HW135138   1.170   2.270   8.677  0.7122 -1.2014  2.5487
 7892SOL    HW235139   1.318   2.266   8.719 -0.8536 -0.2320  0.8041
 7893SOL     OW35140   4.136   4.256   0.314 -0.0422 -0.3103 -0.3156
 7893SOL    HW135141   4.077   4.210   0.374 -0.8774 -0.4064 -1.2155
 7893SOL    HW235142   4.086   4.333   0.289 -0.0135 -0.7126 -1.5961
 7894SOL     OW35143   0.061   2.838   3.891 -0.3600 -0.0320  0.4902
 7894SOL    HW135144   4.703   2.867   3.850  0.9270  0.5690 -1.6189
 7894SOL    HW235145   0.065   2.748   3.861 -1.4730 -0.7801  2.5687
 7895SOL     OW35146   3.971   2.175  11.771  0.1140 -0.0111  0.0208
 7895SOL    HW135147   3.884   2.137  11.758  0.4691 -0.3273 -1.3744
 7895SOL    HW235148   3.964   2.262  11.733 -1.1382  0.3107  1.0072
 7896SOL     OW35149   1.800   3.821   7.337  0.0065  0.1400 -0.1801
 7896SOL    HW135150   1.758   3.735   7.348  0.4440  0.0501  0.8016
 7896SOL    HW235151   1.890   3.787   7.332  0.0099  0.2033 -0.5348
 7897SOL     OW35152   1.040   2.081   7.898  0.4209  0.5839 -0.1336
 7897SOL    HW135153   0.979   2.059   7.827  0.6504 -1.6899  0.3651
 7897SOL    HW235154   1.090   2.150   7.854 -0.7692  0.9436 -0.9196
 7898SOL     OW35155   4.121   3.859   3.994  0.0684 -0.0380  0.3847
 7898SOL    HW135156   4.051   3.793   3.989 -0.8086  0.9349 -0.3071
 7898SOL    HW235157   4.129   3.879   4.087  0.7619 -3.4466  1.0725
 7899SOL     OW35158   4.514   0.497   7.233 -0.0582  0.1418  0.5035
 7899SOL    HW135159   4.553   0.425   7.282 -0.5255 -1.9248 -2.1433
 7899SOL    HW235160   4.461   0.546   7.295  0.1049  0.3506  0.4759
 7900SOL     OW35161   4.607   3.526   3.909 -0.1281 -0.3413  0.0653
 7900SOL    HW135162   4.648   3.465   3.970  2.2850  1.1821 -0.0279
 7900SOL    HW235163   4.636   3.601   3.961 -0.6489  0.4746 -0.8132
 7901SOL     OW35164   4.115   0.920   8.808 -0.1258  0.4281 -0.3558
 7901SOL    HW135165   4.142   1.006   8.840  1.1476 -0.2381  0.3725
 7901SOL    HW235166   4.129   0.870   8.889 -0.7950  1.4371  0.3785
 7902SOL     OW35167   3.473   4.225   5.998  0.4806  0.0015  0.2559
 7902SOL    HW135168   3.488   4.139   6.035  1.2064  0.4895  1.0870
 7902SOL    HW235169   3.467   4.281   6.075 -4.1688  2.0372 -1.5258
 7903SOL     OW35170   1.576   1.205   7.899 -0.3890  0.4332 -0.2776
 7903SOL    HW135171   1.504   1.221   7.960 -1.0477 -0.3652 -0.8468
 7903SOL    HW235172   1.582   1.111   7.918 -1.5084  0.1698 -1.2819
 7904SOL     OW35173   1.919   3.469   5.203 -0.0552 -0.3446  0.6630
 7904SOL    HW135174   1.943   3.379   5.226  2.4096  0.0498 -0.3871
 7904SOL    HW235175   1.964   3.476   5.119  0.1325  1.7986  0.9490
 7905SOL     OW35176   3.110   3.062   5.079 -0.0942 -0.3641  0.0191
 7905SOL    HW135177   3.156   3.038   4.999 -0.7407  0.6504 -0.6615
 7905SOL    HW235178   3.085   3.151   5.051  0.4498 -0.6957 -1.5351
 7906SOL     OW35179   1.254   4.201  10.567  0.1649 -0.1329 -0.2795
 7906SOL    HW135180   1.298   4.284  10.585 -0.1582 -0.2661  1.1704
 7906SOL    HW235181   1.314   4.153  10.625  1.5117 -2.0113 -3.2612
 7907SOL     OW35182   0.637   4.582   1.491  0.8679 -0.0628  0.7497
 7907SOL    HW135183   0.703   4.593   1.422 -0.5654  1.5520 -0.3604
 7907SOL    HW235184   0.687   4.606   1.570  3.2358  0.8656 -1.0066
 7908SOL     OW35185   1.915   0.934   7.529 -0.0153  0.4810 -0.6849
 7908SOL    HW135186   1.925   0.874   7.454  1.8887  0.8591 -0.7286
 7908SOL    HW235187   1.875   0.877   7.594  2.6921 -1.4055 -0.6538
 7909SOL     OW35188   3.163   2.920  13.300  0.3536  0.4704 -0.6192
 7909SOL    HW135189   3.213   2.987  13.346 -1.9102  1.1050  0.9650
 7909SOL    HW235190   3.232   2.854  13.291  0.8602  1.1580 -1.6935
 7910SOL     OW35191   1.789   2.710   1.929 -0.0884 -0.1344  0.8450
 7910SOL    HW135192   1.868   2.697   1.982 -0.9275 -0.9276  1.9128
 7910SOL    HW235193   1.837   2.729   1.849  0.5145 -0.9766  1.0050
 7911SOL     OW35194   3.766   4.446   2.006 -0.2891  0.2205  0.1024
 7911SOL    HW135195   3.795   4.361   2.040 -2.2961 -0.2642  0.5744
 7911SOL    HW235196   3.682   4.418   1.970 -0.4077 -0.4902  0.9248
 7912SOL     OW35197   0.852   1.353  17.525  0.6994  0.1791  0.0534
 7912SOL    HW135198   0.810   1.386  17.604 -0.0668 -2.1684  0.6310
 7912SOL    HW235199   0.838   1.258  17.530 -1.1635  0.3934 -1.2618
 7913SOL     OW35200   4.401   1.764   1.971 -0.2048 -0.1175  0.1947
 7913SOL    HW135201   4.363   1.803   2.050  0.9964 -0.4998  0.9521
 7913SOL    HW235202   4.322   1.719   1.941 -0.9091  1.3581 -0.1928
 7914SOL     OW35203   1.414   3.493   7.544  0.0188 -0.2584  0.0511
 7914SOL    HW135204   1.493   3.445   7.568 -1.2008 -2.1440  0.3122
 7914SOL    HW235205   1.371   3.424   7.493  0.3666  0.0014 -0.5979
 7915SOL     OW35206   0.385   2.397   4.086  0.1239 -0.4989 -0.0420
 7915SOL    HW135207   0.304   2.356   4.056 -0.7062  1.6922 -0.8347
 7915SOL    HW235208   0.382   2.372   4.178  1.5299 -2.8080 -0.6269
 7916SOL     OW35209   3.731   3.763   2.658 -0.0366 -0.1707  0.1167
 7916SOL    HW135210   3.653   3.810   2.685  0.7459  0.6540  0.9342
 7916SOL    HW235211   3.723   3.775   2.564 -0.6925 -0.8225  0.0827
 7917SOL     OW35212   0.986   2.041  12.226  0.2029  0.1729  0.2806
 7917SOL    HW135213   0.982   1.945  12.216  0.6966  0.4942 -2.7745
 7917SOL    HW235214   0.896   2.068  12.204 -1.4545 -2.9983  3.0716
 7918SOL     OW35215   3.312   4.254   1.455 -0.2694 -0.2231 -0.2000
 7918SOL    HW135216   3.221   4.248   1.426 -1.3125  1.3860  2.7134
 7918SOL    HW235217   3.355   4.306   1.386  1.6569 -1.1601  0.2958
 7919SOL     OW35218   0.755   2.799   5.431 -0.1416 -0.9140  0.2275
 7919SOL    HW135219   0.728   2.866   5.494  0.2542 -0.4724 -0.0661
 7919SOL    HW235220   0.771   2.850   5.352 -1.6253 -2.4096 -1.0262
 7920SOL     OW35221   1.065   2.311   1.099 -0.3112  0.0004  0.7727
 7920SOL    HW135222   1.018   2.241   1.056 -3.0062  1.1866  1.7959
 7920SOL    HW235223   1.151   2.309   1.058 -0.4925 -2.3065  0.5125
 7921SOL     OW35224   3.037   3.796   6.940  0.1244 -0.2599  0.4335
 7921SOL    HW135225   3.114   3.771   6.888  0.4634 -2.3933  1.9418
 7921SOL    HW235226   3.036   3.720   6.999 -2.0463  0.4495  1.3216
 7922SOL     OW35227   2.052   3.722   5.221 -0.3008 -0.1099  0.2498
 7922SOL    HW135228   2.025   3.632   5.238  1.2471 -1.2489 -3.1211
 7922SOL    HW235229   2.006   3.734   5.138 -1.0539  1.2318  0.8762
 7923SOL     OW35230   2.133   1.275   7.333  0.6079 -0.3667 -0.1682
 7923SOL    HW135231   2.167   1.234   7.253 -3.1534 -1.3097 -1.2924
 7923SOL    HW235232   2.216   1.287   7.380  0.7949 -0.1275 -0.5639
 7924SOL     OW35233   3.130   3.334  17.651  0.9241  0.1860  0.1257
 7924SOL    HW135234   3.100   3.412   0.005 -2.9532 -0.9391 -0.5265
 7924SOL    HW235235   3.069   3.267  17.681 -1.1540  2.2876  0.6350
 7925SOL     OW35236   0.697   2.477   7.550  0.2845 -0.0096  0.0337
 7925SOL    HW135237   0.714   2.557   7.499  2.4187  0.7054  1.8587
 7925SOL    HW235238   0.770   2.485   7.611 -2.4837  2.4986  2.9936
 7926SOL     OW35239   3.375   2.957   6.168 -0.4924 -0.1637  0.9358
 7926SOL    HW135240   3.469   2.965   6.181 -0.2049  0.4967 -1.5061
 7926SOL    HW235241   3.362   2.880   6.112  1.8663  1.4635 -1.8381
 7927SOL     OW35242   3.768   2.304   0.818 -0.2542  0.0406 -0.0247
 7927SOL    HW135243   3.785   2.358   0.741  1.7529  0.7702  0.9369
 7927SOL    HW235244   3.674   2.286   0.815 -0.1045 -1.0144  1.7583
 7928SOL     OW35245   0.119   3.151   9.646  0.5790 -0.0781  0.0924
 7928SOL    HW135246   0.203   3.158   9.692  0.5879  3.1805 -0.3803
 7928SOL    HW235247   0.099   3.245   9.647 -1.8532 -0.5652 -2.3169
 7929SOL     OW35248   3.428   2.719   7.910 -0.6358 -0.3005 -0.4247
 7929SOL    HW135249   3.448   2.692   7.820  1.7468 -4.6004  1.4340
 7929SOL    HW235250   3.397   2.810   7.912 -0.6802 -0.3391  0.5515
 7930SOL     OW35251   3.677   0.186   7.766 -0.0403 -0.3770  0.1818
 7930SOL    HW135252   3.631   0.144   7.839  1.3435  0.6834  1.6465
 7930SOL    HW235253   3.669   0.277   7.793  0.4446 -0.9718  2.2987
 7931SOL     OW35254   2.601   2.275  12.332 -0.0717  0.2694  0.0676
 7931SOL    HW135255   2.633   2.222  12.405 -1.2848 -4.5509 -2.8476
 7931SOL    HW235256   2.607   2.216  12.257  0.4055  2.1217 -1.3482
 7932SOL     OW35257   0.052   3.823   5.304 -0.1827 -0.1580 -0.2432
 7932SOL    HW135258   0.142   3.829   5.272  0.0619 -1.6932  0.1636
 7932SOL    HW235259   0.053   3.908   5.348  1.4927  0.0496 -0.6576
 7933SOL     OW35260   1.873   2.180   3.201  0.2967  0.2569  0.1694
 7933SOL    HW135261   1.779   2.178   3.181  0.1476 -3.1535  1.2332
 7933SOL    HW235262   1.871   2.208   3.292  1.0350 -0.8137  0.5118
 7934SOL     OW35263   3.416   2.485   5.412  0.4027  0.0616 -0.1003
 7934SOL    HW135264   3.497   2.535   5.412 -0.0173  0.7468  0.2178
 7934SOL    HW235265   3.441   2.400   5.448  0.2821 -0.6744 -1.7342
 7935SOL     OW35266   1.128   4.640  15.992 -0.7270  0.4394 -0.1372
 7935SOL    HW135267   1.040   4.679  15.986 -1.1545 -0.2775  1.4290
 7935SOL    HW235268   1.187   4.712  16.015 -0.2422 -0.2772  0.8582
 7936SOL     OW35269   0.978   3.291  17.146 -0.5557 -0.0220 -0.0295
 7936SOL    HW135270   0.983   3.237  17.067 -0.7647  0.0076 -0.0626
 7936SOL    HW235271   0.913   3.353  17.114  0.1441 -0.1617 -1.7764
 7937SOL     OW35272   0.549   0.221   0.815 -0.3880 -0.7071 -0.1660
 7937SOL    HW135273   0.544   0.135   0.772  0.7654  0.0651 -1.8552
 7937SOL    HW235274   0.537   0.288   0.748 -0.3257 -1.0343 -0.5100
 7938SOL     OW35275   1.615   3.922   5.509  0.0999 -0.3420 -0.1254
 7938SOL    HW135276   1.650   3.845   5.554  0.4071  0.1882  0.5464
 7938SOL    HW235277   1.642   3.914   5.418 -0.5901  1.8104 -0.5251
 7939SOL     OW35278   1.337   0.331   0.741 -0.5997 -0.4450 -0.2538
 7939SOL    HW135279   1.405   0.386   0.781  0.2384 -1.7092  0.0729
 7939SOL    HW235280   1.291   0.299   0.819  1.0469  0.0726  0.9422
 7940SOL     OW35281   1.514   2.030   4.014 -0.0392  0.4775  0.0705
 7940SOL    HW135282   1.580   1.996   3.955 -0.6993 -2.1704  0.8398
 7940SOL    HW235283   1.546   2.116   4.042 -2.3469  1.2726  0.2912
 7941SOL     OW35284   2.224   2.228   6.363  0.2676 -0.0690 -0.1265
 7941SOL    HW135285   2.143   2.186   6.334 -0.3793  0.7097  0.5537
 7941SOL    HW235286   2.201   2.281   6.439 -0.1499  0.6546 -0.7607
 7942SOL     OW35287   3.191   3.334   5.466 -0.0541 -0.1498  0.2782
 7942SOL    HW135288   3.241   3.400   5.418 -1.9308  1.5137  0.5983
 7942SOL    HW235289   3.191   3.264   5.402  0.2877 -1.6118  1.8789
 7943SOL     OW35290   2.289   3.288   5.655 -0.5008  0.2879 -0.1739
 7943SOL    HW135291   2.311   3.201   5.689  0.4119  0.9183  0.8521
 7943SOL    HW235292   2.299   3.350   5.727 -1.6847  1.2653 -0.8454
 7944SOL     OW35293   1.470   2.158   1.292  0.2460 -0.1683  0.0832
 7944SOL    HW135294   1.473   2.162   1.196  2.1340  2.7494  0.2729
 7944SOL    HW235295   1.388   2.202   1.315  1.0722  0.5731  1.5777
 7945SOL     OW35296   0.482   3.049   3.486 -0.2133  0.4243  0.3745
 7945SOL    HW135297   0.548   2.990   3.522  1.1515  0.4392 -2.0966
 7945SOL    HW235298   0.422   2.980   3.458 -0.6384  1.8940 -2.3260
 7946SOL     OW35299   0.040   2.565   4.865  0.0288  0.1101 -0.0806
 7946SOL    HW135300   0.010   2.574   4.775 -0.1679 -1.0861 -0.1316
 7946SOL    HW235301   4.695   2.616   4.909  0.0518  0.0287  0.0483
 7947SOL     OW35302   3.565   0.674   8.322  0.2049  0.1852 -0.6243
 7947SOL    HW135303   3.576   0.729   8.399  3.0814 -0.7632 -0.3892
 7947SOL    HW235304   3.531   0.601   8.374 -0.8945  1.7511  0.8535
 7948SOL     OW35305   0.827   3.013   0.198 -0.0699 -0.1515  0.1253
 7948SOL    HW135306   0.864   2.944   0.253  0.3087  0.7652  1.0206
 7948SOL    HW235307   0.739   2.980   0.181  0.6067 -2.5020  1.1500
 7949SOL     OW35308   3.922   4.254   2.845  0.1192 -0.5417  0.2517
 7949SOL    HW135309   4.006   4.290   2.816 -0.5268  3.0257  2.8768
 7949SOL    HW235310   3.916   4.175   2.791 -1.0048 -1.4958  1.7909
 7950SOL     OW35311   3.800   3.760  11.060 -0.3376 -0.0601 -0.2281
 7950SOL    HW135312   3.867   3.805  11.112  0.1662  0.4755 -1.3295
 7950SOL    HW235313   3.731   3.746  11.123  1.3758 -1.2408  1.3797
 7951SOL     OW35314   3.087   4.421  17.486  0.2099  0.0014  0.3121
 7951SOL    HW135315   3.140   4.351  17.448 -0.0150  0.8831 -1.5973
 7951SOL    HW235316   3.148   4.492  17.464 -1.0041  1.3200  1.1778
 7952SOL     OW35317   4.609   3.886   3.802 -0.3851  0.0447  0.4483
 7952SOL    HW135318   4.633   3.820   3.867 -3.5803 -1.4667  0.0864
 7952SOL    HW235319   4.530   3.916   3.845 -0.0529  0.1622  0.9777
 7953SOL     OW35320   4.155   4.498   6.098  0.6931  0.0996 -0.4151
 7953SOL    HW135321   4.127   4.568   6.156  0.1666 -0.1677 -0.3458
 7953SOL    HW235322   4.072   4.464   6.062 -0.5687  0.9240  1.7027
 7954SOL     OW35323   1.781   2.617   3.037 -0.5582  0.0841 -0.2608
 7954SOL    HW135324   1.874   2.595   3.047 -0.4893  0.3999 -0.1912
 7954SOL    HW235325   1.744   2.530   3.025  0.0567  0.0229 -1.6627
 7955SOL     OW35326   2.668   4.296   0.672  0.3495 -0.3491  0.2067
 7955SOL    HW135327   2.593   4.355   0.682  1.9189  1.8715 -1.1859
 7955SOL    HW235328   2.645   4.246   0.751 -1.1103 -0.4821 -0.3090
 7956SOL     OW35329   2.088   1.603   0.682 -0.3894  0.1695  0.3804
 7956SOL    HW135330   2.140   1.639   0.754  0.9694 -1.9796  0.4785
 7956SOL    HW235331   2.026   1.558   0.739 -0.2872 -1.4630 -0.7883
 7957SOL     OW35332   3.331   2.476   8.026  0.7120  0.2249  0.1549
 7957SOL    HW135333   3.340   2.544   7.959 -2.3461  1.5200  1.0728
 7957SOL    HW235334   3.418   2.437   8.025  1.0257  0.9518 -0.9519
 7958SOL     OW35335   0.127   4.303  10.908  0.2831  0.1902 -0.0439
 7958SOL    HW135336   0.072   4.278  10.834 -0.1659  2.1320 -0.3888
 7958SOL    HW235337   0.104   4.235  10.970 -1.3023  1.3367  0.6501
 7959SOL     OW35338   1.221   3.536  13.335 -0.3550 -0.1792  0.0608
 7959SOL    HW135339   1.191   3.573  13.418  0.6718  1.5810 -0.3663
 7959SOL    HW235340   1.297   3.589  13.313 -0.3871 -0.7263 -1.3368
 7960SOL     OW35341   4.717   4.251   7.711  0.0828  0.1786  0.6696
 7960SOL    HW135342   4.665   4.310   7.764  1.1168  1.5346  0.1581
 7960SOL    HW235343   0.055   4.229   7.781  2.0349 -4.0185 -2.2973
 7961SOL     OW35344   1.247   2.091   2.545 -0.1779 -0.0192 -0.3118
 7961SOL    HW135345   1.193   2.062   2.471 -2.8922  0.8311  1.3374
 7961SOL    HW235346   1.192   2.153   2.592 -2.1921 -0.6068 -1.8980
 7962SOL     OW35347   3.575   1.219   6.094 -0.6874  0.0129 -0.4209
 7962SOL    HW135348   3.613   1.234   6.008 -0.2842  1.4387  0.0026
 7962SOL    HW235349   3.602   1.300   6.137 -2.5383  0.1399  0.4833
 7963SOL     OW35350   0.264   0.227   3.655  0.7378  0.3210  0.3357
 7963SOL    HW135351   0.255   0.204   3.562 -0.7826  0.4101  0.4497
 7963SOL    HW235352   0.202   0.166   3.696  0.2472 -0.0938 -1.0063
 7964SOL     OW35353   4.051   2.324   5.210 -0.5227  0.7731  0.6056
 7964SOL    HW135354   4.052   2.279   5.125 -1.1196  1.0003  0.4752
 7964SOL    HW235355   3.973   2.284   5.250 -1.2677  0.7116 -0.8828
 7965SOL     OW35356   3.263   0.323   2.592  0.1451 -0.0482 -0.3092
 7965SOL    HW135357   3.186   0.380   2.592 -1.0289 -1.6439 -1.4035
 7965SOL    HW235358   3.329   0.388   2.567 -0.2612  1.6688  3.0983
 7966SOL     OW35359   3.214   3.669  11.086  0.1695  0.2616  0.0178
 7966SOL    HW135360   3.217   3.751  11.135 -1.2704 -0.8515  1.9637
 7966SOL    HW235361   3.130   3.639  11.122  0.9666 -1.1986  0.6824
 7967SOL     OW35362   0.234   0.989   7.711  0.3661  0.0147 -0.5795
 7967SOL    HW135363   0.327   0.978   7.730  0.1966  0.1060  0.3172
 7967SOL    HW235364   0.193   0.945   7.785 -1.0039 -1.9569 -2.5224
 7968SOL     OW35365   4.256   0.970  10.297 -0.8671  0.0884  0.0218
 7968SOL    HW135366   4.323   1.030  10.263 -1.4051  0.4559 -0.3962
 7968SOL    HW235367   4.185   1.009  10.246  0.6073  0.4550 -1.7515
 7969SOL     OW35368   2.365   3.440   7.910 -0.2622 -0.0918  0.0684
 7969SOL    HW135369   2.283   3.449   7.862  0.7178  1.0649 -1.3893
 7969SOL    HW235370   2.384   3.351   7.882 -0.6950 -0.1407 -0.0692
 7970SOL     OW35371   4.344   4.638   8.589  0.6113 -0.4801  0.4914
 7970SOL    HW135372   4.344   0.006   8.559  0.8304 -0.4065  0.7113
 7970SOL    HW235373   4.252   4.632   8.614  0.7229 -3.5867  0.2206
 7971SOL     OW35374   1.522   3.028   7.276  0.6767  0.4851 -0.5567
 7971SOL    HW135375   1.595   2.977   7.312  0.7978  1.1865  0.1738
 7971SOL    HW235376   1.449   3.006   7.335  1.1585  1.1944  0.2989
 7972SOL     OW35377   0.111   2.366   5.024  0.3787 -0.1639  0.0602
 7972SOL    HW135378   0.101   2.443   4.969 -1.1384 -1.3148 -1.2692
 7972SOL    HW235379   0.137   2.302   4.957  2.0123  1.1038 -0.5155
 7973SOL     OW35380   4.489   1.110   5.920 -0.5703 -0.8572  0.3337
 7973SOL    HW135381   4.428   1.173   5.957 -1.0372 -1.2476  0.2395
 7973SOL    HW235382   4.540   1.161   5.858  0.0803  0.4858  1.9741
 7974SOL     OW35383   3.882   1.258   4.922  0.0512  0.1822  0.2706
 7974SOL    HW135384   3.971   1.221   4.922  0.0992  0.2951  0.4065
 7974SOL    HW235385   3.843   1.222   5.002  1.0896  0.1854  0.7828
 7975SOL     OW35386   2.580   4.029   2.896  0.0383 -0.2710  0.0757
 7975SOL    HW135387   2.611   3.995   2.980 -1.2085 -2.2791 -0.2852
 7975SOL    HW235388   2.532   4.102   2.935 -2.2713 -2.5498  1.5601
 7976SOL     OW35389   4.394   0.763   5.129  0.1473 -0.1818 -0.1532
 7976SOL    HW135390   4.411   0.801   5.042  0.6250  0.0896  0.0603
 7976SOL    HW235391   4.332   0.828   5.163  0.2346  0.3442 -0.9903
 7977SOL     OW35392   3.407   0.823  14.891 -0.1693  0.5331  0.3257
 7977SOL    HW135393   3.362   0.858  14.968  0.1857  2.2613 -0.2378
 7977SOL    HW235394   3.366   0.873  14.820 -1.0128 -2.9918 -1.6768
 7978SOL     OW35395   0.107   2.106   9.528  0.2423  0.2142 -0.1482
 7978SOL    HW135396   0.161   2.027   9.537 -1.4085 -1.1703 -2.4526
 7978SOL    HW235397   0.043   2.068   9.468  2.8313 -1.0372 -2.1118
 7979SOL     OW35398   2.240   3.294   2.597  0.2650  0.2874  0.5448
 7979SOL    HW135399   2.211   3.208   2.627 -0.5034  0.6833  0.9307
 7979SOL    HW235400   2.280   3.266   2.514  0.3407 -1.6547  1.2333
 7980SOL     OW35401   3.921   1.262   1.486 -0.1184  0.0355  0.3825
 7980SOL    HW135402   3.969   1.344   1.478  2.5476 -1.5601 -0.0057
 7980SOL    HW235403   3.871   1.265   1.404 -0.5963 -0.4140  0.6572
 7981SOL     OW35404   3.622   1.723  16.045 -0.1780 -0.3452  0.4279
 7981SOL    HW135405   3.575   1.709  15.963 -0.3789  4.1476 -0.1898
 7981SOL    HW235406   3.590   1.656  16.106 -0.9812 -0.0275  0.3448
 7982SOL     OW35407   3.916   2.464   2.249  0.3243  0.0026 -0.3446
 7982SOL    HW135408   3.973   2.539   2.266 -1.9740  1.0760  2.6202
 7982SOL    HW235409   3.881   2.487   2.163 -1.6813  0.2074  0.5457
 7983SOL     OW35410   0.733   0.026   6.944  0.3019 -0.1274  0.5058
 7983SOL    HW135411   0.692   4.699   7.015  0.8257 -0.2315  0.7396
 7983SOL    HW235412   0.769   0.102   6.992  0.3166  0.6032 -0.6566
 7984SOL     OW35413   4.518   2.387   5.579  0.6516 -0.3361 -0.0110
 7984SOL    HW135414   4.536   2.463   5.635  0.0187 -0.8346  0.8740
 7984SOL    HW235415   4.512   2.432   5.494  0.7413 -0.4144 -0.0587
 7985SOL     OW35416   1.004   2.164   7.576  0.1043  0.8788 -0.1993
 7985SOL    HW135417   1.092   2.127   7.579  0.5312  1.7862 -1.2715
 7985SOL    HW235418   0.969   2.111   7.504 -1.5721  0.0069  1.2820
 7986SOL     OW35419   3.564   0.141   2.799 -0.0641  0.1975  0.0498
 7986SOL    HW135420   3.615   0.217   2.774 -1.2157  1.0787  0.3658
 7986SOL    HW235421   3.621   0.067   2.778 -0.5811 -0.7621  2.0671
 7987SOL     OW35422   3.663   3.596  10.529  0.2915  0.1018 -0.2203
 7987SOL    HW135423   3.658   3.650  10.609 -1.8271  0.2761 -0.4641
 7987SOL    HW235424   3.580   3.616  10.486  0.4639  0.4254 -0.4073
 7988SOL     OW35425   1.564   3.398   8.507 -0.0683  0.0122 -0.0727
 7988SOL    HW135426   1.518   3.457   8.568 -0.3555 -0.2989  0.0114
 7988SOL    HW235427   1.654   3.430   8.500  0.3600 -0.7921  1.8405
 7989SOL     OW35428   0.080   0.297   6.483  0.2206 -0.1783 -0.1829
 7989SOL    HW135429   0.118   0.367   6.429 -0.2515  0.1820 -0.0473
 7989SOL    HW235430   0.003   0.343   6.516  0.5388  0.3471 -0.1776
 7990SOL     OW35431   1.209   3.039   9.184 -1.2619  0.4599 -0.2094
 7990SOL    HW135432   1.224   3.127   9.148 -0.8693  0.6261  0.3545
 7990SOL    HW235433   1.293   3.029   9.228  0.0832 -0.0734 -2.9139
 7991SOL     OW35434   3.845   1.760   0.229 -0.1722  0.1764  0.1275
 7991SOL    HW135435   3.876   1.670   0.223  0.3526  0.2545  1.7730
 7991SOL    HW235436   3.766   1.754   0.176 -1.1630  0.4727  1.5852
 7992SOL     OW35437   2.138   0.957  15.962  0.0849 -0.2377 -0.2135
 7992SOL    HW135438   2.184   0.998  16.035 -1.1978  0.6690  0.0957
 7992SOL    HW235439   2.055   1.001  15.980  0.2752  0.1645 -0.3358
 7993SOL     OW35440   2.553   0.135   3.501  0.2322 -0.0143  0.5986
 7993SOL    HW135441   2.560   0.220   3.544  0.6244 -0.4242  1.3425
 7993SOL    HW235442   2.495   0.100   3.569  1.0348  0.4221  1.5085
 7994SOL     OW35443   0.377   0.282   2.506  0.1065  0.3712  0.5305
 7994SOL    HW135444   0.436   0.210   2.527  0.8764  0.8096 -0.1108
 7994SOL    HW235445   0.371   0.289   2.411  1.0283 -0.9976  0.3757
 7995SOL     OW35446   4.233   4.514  17.377  0.3242 -0.4940 -0.2012
 7995SOL    HW135447   4.319   4.522  17.337  0.4672  0.0063  0.2040
 7995SOL    HW235448   4.240   4.601  17.417 -0.7074  0.8093 -2.8879
 7996SOL     OW35449   0.861   0.194  13.091 -0.1243  0.0581 -0.5512
 7996SOL    HW135450   0.826   0.108  13.070 -0.1811 -0.7291  2.7392
 7996SOL    HW235451   0.886   0.179  13.182  1.1811 -1.5248 -1.1623
 7997SOL     OW35452   3.959   3.452   4.849 -0.7667 -0.4929  0.4087
 7997SOL    HW135453   4.032   3.440   4.787 -0.3139  0.6780  0.7116
 7997SOL    HW235454   3.888   3.433   4.788  0.7208  0.7032 -1.6968
 7998SOL     OW35455   2.824   1.716   3.471  0.4867 -0.5671 -0.0634
 7998SOL    HW135456   2.835   1.723   3.566 -3.7010  0.7361  0.3499
 7998SOL    HW235457   2.895   1.773   3.444 -0.7394  1.0734  0.1429
 7999SOL     OW35458   2.145   4.606   0.808  0.0298  0.0817  0.2963
 7999SOL    HW135459   2.163   4.579   0.898 -0.5891 -0.1076  0.3672
 7999SOL    HW235460   2.227   4.645   0.779 -0.2031  0.1377 -0.2863
 8000SOL     OW35461   1.233   1.639  11.091 -0.1539  0.4473 -0.4518
 8000SOL    HW135462   1.281   1.635  11.008  0.2420  0.1291 -0.2077
 8000SOL    HW235463   1.148   1.650  11.049 -0.8767 -0.6752  0.7257
 8001SOL     OW35464   3.179   4.327   4.800  0.4634 -0.5801  0.4866
 8001SOL    HW135465   3.229   4.319   4.881  3.6789 -2.6998 -1.7503
 8001SOL    HW235466   3.195   4.240   4.765 -0.4203 -0.5235 -0.0551
 8002SOL     OW35467   3.737   4.709   3.081 -0.0620  0.0623  0.3041
 8002SOL    HW135468   3.653   4.721   3.126 -0.8888 -1.4833 -0.8602
 8002SOL    HW235469   3.742   4.614   3.079  0.0366  0.0750  0.0484
 8003SOL     OW35470   0.549   0.907  16.897 -0.2775  0.2968  0.4658
 8003SOL    HW135471   0.555   0.832  16.957  0.7438  0.8363  1.0379
 8003SOL    HW235472   0.461   0.905  16.858  1.0534 -0.7361 -2.4647
 8004SOL     OW35473   2.780   1.675  15.981 -0.3110  0.2443 -0.2213
 8004SOL    HW135474   2.750   1.587  15.960  1.5737 -0.2234 -0.9677
 8004SOL    HW235475   2.831   1.696  15.902 -2.9266 -0.2015 -2.0179
 8005SOL     OW35476   3.361   3.601   8.788 -0.1864 -0.6050 -0.5055
 8005SOL    HW135477   3.343   3.507   8.793  0.9871 -0.7784  0.7162
 8005SOL    HW235478   3.452   3.590   8.761  0.6927 -1.6091  2.8822
 8006SOL     OW35479   3.931   1.837   0.484 -0.0639  0.7411 -0.5827
 8006SOL    HW135480   3.925   1.781   0.406 -2.4842  0.1865 -0.0192
 8006SOL    HW235481   3.850   1.822   0.532  0.5804 -2.0108 -0.3271
 8007SOL     OW35482   0.999   3.099   9.013 -0.0254 -0.4100 -0.3062
 8007SOL    HW135483   1.064   3.086   9.082 -1.2040 -0.6209  0.7706
 8007SOL    HW235484   0.956   3.180   9.038  2.3029 -0.1111  2.7041
 8008SOL     OW35485   3.440   2.106  15.460 -0.0031 -0.0379 -0.1371
 8008SOL    HW135486   3.409   2.081  15.547  1.0410 -0.4756  0.1088
 8008SOL    HW235487   3.523   2.061  15.449 -0.1087 -0.3985  0.5556
 8009SOL     OW35488   0.178   0.226   5.557  0.2131 -0.3115  0.5790
 8009SOL    HW135489   0.168   0.189   5.469  1.0401 -2.0570  1.2287
 8009SOL    HW235490   0.270   0.210   5.576 -0.0876 -0.8173  1.6154
 8010SOL     OW35491   3.794   2.131   1.060 -0.1840  0.2140  0.1215
 8010SOL    HW135492   3.835   2.045   1.061  0.3294  0.4456 -2.3402
 8010SOL    HW235493   3.701   2.111   1.064 -0.5164  2.0281  1.5017
 8011SOL     OW35494   0.523   4.658  13.081  0.0259 -0.7011  0.1377
 8011SOL    HW135495   0.446   4.618  13.122 -0.8805 -0.8662 -1.7021
 8011SOL    HW235496   0.531   0.016  13.132  1.5842  1.3992 -3.3996
 8012SOL     OW35497   0.426   2.740  11.725 -0.6132 -0.0173  0.2044
 8012SOL    HW135498   0.391   2.821  11.761 -1.1228 -0.6493  1.1274
 8012SOL    HW235499   0.488   2.725  11.797 -1.9648  0.9434  1.5659
 8013SOL     OW35500   1.221   2.245   8.040  0.1738 -0.3736 -0.1568
 8013SOL    HW135501   1.223   2.319   8.101  0.8941 -0.1531 -0.4384
 8013SOL    HW235502   1.289   2.272   7.978  2.4837 -0.0434  2.5331
 8014SOL     OW35503   0.833   3.728   2.951  0.2899 -0.2838 -0.7678
 8014SOL    HW135504   0.812   3.815   2.920  0.9623 -0.8604 -2.8157
 8014SOL    HW235505   0.888   3.704   2.877  1.4594  1.4608 -0.4503
 8015SOL     OW35506   2.768   1.178   7.617 -0.7828 -0.1715 -0.4635
 8015SOL    HW135507   2.749   1.223   7.700  1.7510 -0.9912  0.5526
 8015SOL    HW235508   2.839   1.231   7.583 -1.8601  1.2639 -0.4709
 8016SOL     OW35509   2.414   4.169  15.344  0.2218 -0.4967 -0.9622
 8016SOL    HW135510   2.331   4.122  15.355  0.5635 -1.0093 -0.5374
 8016SOL    HW235511   2.476   4.102  15.374 -0.5954 -0.2726  1.2651
 8017SOL     OW35512   4.617   4.584   4.367 -0.1014 -0.3884 -0.6910
 8017SOL    HW135513   4.528   4.602   4.396  0.5239 -0.1644  1.0855
 8017SOL    HW235514   4.666   4.560   4.445 -1.5476  0.1506  0.3858
 8018SOL     OW35515   3.022   4.661   4.368 -0.1477 -0.5556  0.3737
 8018SOL    HW135516   3.033   4.719   4.293 -1.3658 -1.9553 -0.8766
 8018SOL    HW235517   3.064   4.584   4.330  1.1516  0.5391 -0.4126
 8019SOL     OW35518   1.039   0.524   4.417  0.0191 -0.3002 -0.6018
 8019SOL    HW135519   1.073   0.477   4.493 -0.6378 -0.6068 -0.5024
 8019SOL    HW235520   1.056   0.615   4.442  1.6067 -0.3894 -1.3435
 8020SOL     OW35521   4.095   0.736   3.373 -0.1062  0.5498  0.0812
 8020SOL    HW135522   4.186   0.719   3.349 -0.0870 -0.2943  0.7633
 8020SOL    HW235523   4.063   0.758   3.286 -0.6737 -0.9148 -0.0752
 8021SOL     OW35524   3.366   2.580   1.543 -0.0045  0.0471 -0.5825
 8021SOL    HW135525   3.375   2.667   1.581  0.9444 -0.7712  1.0577
 8021SOL    HW235526   3.420   2.582   1.464 -1.7976  1.4589 -1.7698
 8022SOL     OW35527   0.480   2.361   3.175 -0.2913  0.0400 -0.5719
 8022SOL    HW135528   0.474   2.308   3.255 -0.6878 -2.7215 -2.4480
 8022SOL    HW235529   0.569   2.394   3.192 -0.5092 -0.2514  1.1708
 8023SOL     OW35530   3.363   4.160   1.104  0.3161  0.2649 -0.4776
 8023SOL    HW135531   3.341   4.253   1.100 -0.6678 -0.0017 -1.0782
 8023SOL    HW235532   3.396   4.150   1.015  0.5063  2.2767 -0.6287
 8024SOL     OW35533   0.398   4.149   4.757 -0.1920  0.8067  0.5532
 8024SOL    HW135534   0.380   4.158   4.663 -1.0990  1.8102  0.8168
 8024SOL    HW235535   0.343   4.211   4.806 -2.5800  0.1971 -1.3474
 8025SOL     OW35536   0.005   1.945   5.387 -0.4682  0.0505  0.4070
 8025SOL    HW135537   4.687   1.972   5.305 -0.0694 -0.6745 -0.0302
 8025SOL    HW235538   4.682   1.998   5.452  2.3336  0.9317  1.6676
 8026SOL     OW35539   3.104   2.225   4.456  0.4013 -0.7413 -0.2179
 8026SOL    HW135540   3.061   2.140   4.450 -0.4517 -0.3892  0.8603
 8026SOL    HW235541   3.076   2.257   4.542 -0.2721 -2.2775  0.1267
 8027SOL     OW35542   3.856   4.413   3.127 -0.6999 -0.0499  0.0386
 8027SOL    HW135543   3.806   4.331   3.130 -2.0405  0.7570 -0.0642
 8027SOL    HW235544   3.922   4.398   3.195 -1.0775 -3.5299 -0.3516
 8028SOL     OW35545   3.694   4.202   6.404  0.2741  0.2101 -0.5488
 8028SOL    HW135546   3.723   4.293   6.415 -0.0320  0.2323  0.0933
 8028SOL    HW235547   3.617   4.236   6.359 -0.9207  0.3645  1.5922
 8029SOL     OW35548   1.184   1.166   6.059 -0.4064  0.1185  0.4720
 8029SOL    HW135549   1.185   1.247   6.007 -0.6719 -0.9115 -1.1344
 8029SOL    HW235550   1.109   1.177   6.117 -1.5476 -0.1561 -0.9584
 8030SOL     OW35551   4.158   2.097  14.311 -0.2170  0.2656 -0.2238
 8030SOL    HW135552   4.184   2.185  14.284  0.2902 -0.4837 -2.1667
 8030SOL    HW235553   4.145   2.115  14.404 -0.5697  1.1399 -0.4422
 8031SOL     OW35554   1.614   0.431   3.738 -0.1923  0.1744 -0.3259
 8031SOL    HW135555   1.541   0.385   3.698  0.1816 -0.5357 -0.1814
 8031SOL    HW235556   1.642   0.382   3.814  2.3867  1.2748 -0.5715
 8032SOL     OW35557   2.075   3.472   1.213 -0.1151 -0.1771  0.1668
 8032SOL    HW135558   2.068   3.378   1.228 -2.3344 -0.6921 -4.1745
 8032SOL    HW235559   2.165   3.478   1.181  0.8468  2.0444  3.1927
 8033SOL     OW35560   0.681   0.567  16.944 -0.1310  0.1237  1.1605
 8033SOL    HW135561   0.594   0.562  16.984 -0.9951  2.8911 -0.3584
 8033SOL    HW235562   0.644   0.537  16.862 -0.6704  0.6252  1.2225
 8034SOL     OW35563   4.569   0.400   7.728  0.3633  0.4302  0.0975
 8034SOL    HW135564   4.541   0.457   7.800  0.8968  0.5965  0.1760
 8034SOL    HW235565   4.541   0.460   7.659 -1.1089 -1.8278 -1.2538
 8035SOL     OW35566   3.310   4.454  10.481 -0.1974  0.5127  1.1437
 8035SOL    HW135567   3.315   4.391  10.553 -0.0295 -2.0291 -1.0669
 8035SOL    HW235568   3.384   4.423  10.429 -0.0151  0.0346  1.6867
 8036SOL     OW35569   0.592   0.780   5.811 -0.2491  0.0849 -0.5672
 8036SOL    HW135570   0.663   0.716   5.805 -0.5102 -0.4979  3.0383
 8036SOL    HW235571   0.635   0.865   5.800  2.1991 -1.2523 -1.3618
 8037SOL     OW35572   3.590   3.301   5.848 -0.0775 -0.2348 -0.2404
 8037SOL    HW135573   3.602   3.261   5.762  0.6347  0.1064 -0.3065
 8037SOL    HW235574   3.554   3.386   5.823  0.6652 -0.3507 -1.7476
 8038SOL     OW35575   1.683   0.063   6.775  0.3235  0.1883 -0.0249
 8038SOL    HW135576   1.774   0.046   6.796  0.4543  0.1855 -0.6136
 8038SOL    HW235577   1.687   0.067   6.680  0.4114  0.5579 -0.0052
 8039SOL     OW35578   1.648   1.546   1.201 -0.4625 -0.3209 -0.2628
 8039SOL    HW135579   1.696   1.536   1.283 -2.5492 -2.3167  0.7297
 8039SOL    HW235580   1.617   1.456   1.188 -2.2971  0.2385  0.2291
 8040SOL     OW35581   1.643   0.438   6.044  0.3717  0.2091 -0.6111
 8040SOL    HW135582   1.595   0.491   6.107  1.7928 -0.0671  0.7188
 8040SOL    HW235583   1.717   0.408   6.097 -0.2336 -1.9534 -0.9737
 8041SOL     OW35584   3.926   0.417   4.214  0.3225  0.1696  0.1356
 8041SOL    HW135585   4.016   0.452   4.210  0.8671 -0.9521  2.3491
 8041SOL    HW235586   3.901   0.402   4.123 -3.3836  0.7860  1.0642
 8042SOL     OW35587   1.003   0.418  11.373  0.0026  0.2243 -0.7287
 8042SOL    HW135588   0.958   0.467  11.442  0.4643 -0.9999  0.4430
 8042SOL    HW235589   1.087   0.402  11.416 -0.8813  0.5299  1.1276
 8043SOL     OW35590   2.330   4.450   5.811  0.4137  0.2568  0.7195
 8043SOL    HW135591   2.347   4.361   5.843 -0.3768 -0.1082  0.1120
 8043SOL    HW235592   2.238   4.431   5.795  1.0239 -1.1501 -1.1478
 8044SOL     OW35593   2.000   0.988   8.438 -0.4389  0.1325 -0.6973
 8044SOL    HW135594   1.953   1.071   8.441  0.3448  0.5456  0.1864
 8044SOL    HW235595   1.960   0.943   8.513 -0.3419  0.9565 -0.1531
 8045SOL     OW35596   1.796   0.911   4.701  0.0894 -0.3917  0.1271
 8045SOL    HW135597   1.845   0.977   4.652 -3.3090  2.0319  0.0066
 8045SOL    HW235598   1.783   0.957   4.784  0.7921  1.4806 -0.8085
 8046SOL     OW35599   2.278   3.784   3.497  0.3081 -0.4320 -0.3350
 8046SOL    HW135600   2.315   3.742   3.419  1.4918 -0.0045 -0.0119
 8046SOL    HW235601   2.228   3.705   3.518  0.7121 -0.5820  0.0751
 8047SOL     OW35602   2.933   1.101   3.816 -0.2645  0.8213  0.0716
 8047SOL    HW135603   2.880   1.142   3.885 -1.1948  0.5545 -0.4895
 8047SOL    HW235604   2.896   1.133   3.733  1.1904  1.2950 -0.3809
 8048SOL     OW35605   1.734   2.157   7.757  0.1303 -0.2878 -0.2288
 8048SOL    HW135606   1.779   2.079   7.723  2.1452  0.3610  0.9023
 8048SOL    HW235607   1.800   2.177   7.824 -0.0138 -0.4817 -0.0280
 8049SOL     OW35608   0.205   1.183  14.909  0.5225 -0.4290 -0.5130
 8049SOL    HW135609   0.123   1.169  14.862  0.6456 -0.0394 -0.8385
 8049SOL    HW235610   0.187   1.143  14.994  2.3402 -1.6590 -0.7091
 8050SOL     OW35611   4.490   1.988  16.128  0.1011  0.5114 -0.1468
 8050SOL    HW135612   4.506   1.918  16.064 -0.8598  0.9862 -0.9172
 8050SOL    HW235613   4.555   1.967  16.195 -1.0024 -0.4057  0.6352
 8051SOL     OW35614   1.141   3.243   8.218 -0.4428 -0.9470  0.4839
 8051SOL    HW135615   1.179   3.321   8.257 -0.4224  0.4300 -2.3011
 8051SOL    HW235616   1.048   3.260   8.224 -0.0124  0.9128  1.7515
 8052SOL     OW35617   3.825   0.798  10.711  0.6074 -0.1561  0.4255
 8052SOL    HW135618   3.878   0.855  10.654 -0.2395  1.1263  0.9246
 8052SOL    HW235619   3.903   0.751  10.741  0.0222 -1.2725  0.1869
 8053SOL     OW35620   4.558   1.737   4.659  0.1757 -0.0319  0.4507
 8053SOL    HW135621   4.617   1.668   4.631  0.9225  2.4667 -4.2333
 8053SOL    HW235622   4.490   1.686   4.702 -0.5836  0.3450 -0.2880
 8054SOL     OW35623   3.270   4.583  11.930 -0.2681  0.5225  0.7719
 8054SOL    HW135624   3.350   4.636  11.940  0.6568 -0.6556 -0.2815
 8054SOL    HW235625   3.288   4.513  11.993  1.0901  0.3963  0.2547
 8055SOL     OW35626   1.704   3.159   2.462  0.2515 -0.1906  0.3486
 8055SOL    HW135627   1.748   3.095   2.519 -0.0842 -0.1675  0.6310
 8055SOL    HW235628   1.773   3.225   2.450 -0.2959 -0.0531 -1.9730
 8056SOL     OW35629   1.186   1.971   9.659  0.5669 -0.4040  0.3473
 8056SOL    HW135630   1.139   1.966   9.576 -0.1704  3.2517  0.5525
 8056SOL    HW235631   1.204   2.065   9.664 -1.1815 -0.0312 -0.2166
 8057SOL     OW35632   3.260   1.863   2.580  0.2311 -0.1168 -0.7712
 8057SOL    HW135633   3.327   1.931   2.590 -0.1366 -0.0961  1.4745
 8057SOL    HW235634   3.241   1.873   2.487  2.4908  1.2310 -1.1033
 8058SOL     OW35635   0.565   1.853  10.947  0.9606  0.2976  0.2643
 8058SOL    HW135636   0.574   1.814  10.860  1.8001  2.2705 -0.5514
 8058SOL    HW235637   0.595   1.787  11.009 -0.1677  0.4556  0.9757
 8059SOL     OW35638   0.267   4.481   3.060 -0.2043 -0.3749  0.3567
 8059SOL    HW135639   0.301   4.444   3.141  0.3009 -0.2856  0.1868
 8059SOL    HW235640   0.176   4.502   3.083  0.5400  2.4429  0.7404
 8060SOL     OW35641   3.423   3.251   7.603 -0.0187 -0.4020  0.0600
 8060SOL    HW135642   3.513   3.243   7.569 -0.3392 -0.1232 -0.8481
 8060SOL    HW235643   3.428   3.243   7.698 -0.2042  1.6660  0.2277
 8061SOL     OW35644   4.247   0.353   4.964  0.1192  0.1325 -0.4113
 8061SOL    HW135645   4.279   0.300   5.037  0.2541  0.9096  0.1008
 8061SOL    HW235646   4.172   0.395   5.007 -0.6676 -1.5409 -0.1622
 8062SOL     OW35647   4.139   3.792   5.596 -0.3804  0.2278  0.7662
 8062SOL    HW135648   4.176   3.771   5.511 -0.2844 -2.0925  1.3765
 8062SOL    HW235649   4.125   3.705   5.634 -1.6997  0.0276 -0.1711
 8063SOL     OW35650   3.625   3.122   4.168  0.4735 -0.2918  0.2463
 8063SOL    HW135651   3.632   3.061   4.095  1.1224  1.2920 -1.0091
 8063SOL    HW235652   3.682   3.094   4.240 -0.5354 -0.3870  1.0092
 8064SOL     OW35653   1.611   3.830   6.997 -1.0361  0.4354  0.3030
 8064SOL    HW135654   1.525   3.788   6.999 -0.3647 -0.9190  1.0204
 8064SOL    HW235655   1.594   3.903   7.056 -0.9824  1.1698 -0.5782
 8065SOL     OW35656   0.016   0.486  10.858  0.4864  0.0949 -0.4872
 8065SOL    HW135657   4.673   0.487  10.927  2.2658 -1.7842  1.2349
 8065SOL    HW235658   4.690   0.533  10.790  1.4879  0.5432 -0.9047
 8066SOL     OW35659   2.181   1.645   2.962  0.6187 -0.1461  0.1874
 8066SOL    HW135660   2.188   1.551   2.944  1.2912 -0.0865  0.1465
 8066SOL    HW235661   2.260   1.640   3.015  0.2420 -0.6342  0.6946
 8067SOL     OW35662   3.253   1.950   9.332  0.4970 -0.1474 -0.5440
 8067SOL    HW135663   3.288   1.876   9.282 -1.6562 -1.0479 -0.7172
 8067SOL    HW235664   3.294   2.025   9.289 -1.7891 -0.3180 -3.0557
 8068SOL     OW35665   0.957   3.365   7.384  0.4062 -0.0651  0.5374
 8068SOL    HW135666   0.891   3.428   7.355  0.7269  0.9587  1.9992
 8068SOL    HW235667   0.911   3.336   7.463  1.1394  0.2724  1.0826
 8069SOL     OW35668   0.354   1.583  11.689 -0.4218 -0.1396 -0.1286
 8069SOL    HW135669   0.299   1.658  11.711  2.7042  1.2790  2.8677
 8069SOL    HW235670   0.367   1.537  11.771  0.8561  1.5378  0.5999
 8070SOL     OW35671   4.055   0.668   6.748  0.6889 -0.1067 -0.1300
 8070SOL    HW135672   3.999   0.629   6.815 -1.0349  0.5594 -1.1881
 8070SOL    HW235673   4.122   0.600   6.754  1.9557  1.1188 -0.4582
 8071SOL     OW35674   2.282   1.244   1.955 -0.3363 -0.0686 -0.1055
 8071SOL    HW135675   2.339   1.214   1.884 -1.5712  0.8275 -1.4962
 8071SOL    HW235676   2.273   1.161   2.002  0.2518 -0.4420 -0.6435
 8072SOL     OW35677   2.405   2.716  16.178  0.3113  0.4083 -0.1483
 8072SOL    HW135678   2.396   2.680  16.266  2.5429  1.0790  0.3520
 8072SOL    HW235679   2.329   2.775  16.176 -0.4992 -0.7067 -2.4617
 8073SOL     OW35680   4.345   1.759   1.091  0.0643 -0.2596 -0.2058
 8073SOL    HW135681   4.439   1.754   1.109 -0.2783 -2.1163  1.0099
 8073SOL    HW235682   4.325   1.846   1.056 -0.5020 -1.1409 -2.1036
 8074SOL     OW35683   3.725   3.739   5.379  0.2760 -0.0798 -0.2347
 8074SOL    HW135684   3.695   3.696   5.299 -0.4899 -1.9258  1.0482
 8074SOL    HW235685   3.770   3.667   5.423 -1.3517 -0.2520  1.1282
 8075SOL     OW35686   4.192   1.556  15.324  0.0489 -0.2381 -0.1428
 8075SOL    HW135687   4.194   1.646  15.357 -0.6374 -0.2589 -0.0392
 8075SOL    HW235688   4.097   1.547  15.322 -0.2132  1.9300  1.8990
 8076SOL     OW35689   4.199   4.653   5.571  0.2618  0.5037  0.1901
 8076SOL    HW135690   4.249   4.601   5.633 -1.7014 -1.0972  0.4515
 8076SOL    HW235691   4.171   4.722   5.632 -0.2110  0.5115 -0.0295
 8077SOL     OW35692   3.061   3.178   5.980 -0.3526 -0.2957  0.1073
 8077SOL    HW135693   3.078   3.114   6.049  1.2388  0.1196  0.1094
 8077SOL    HW235694   3.004   3.130   5.920  1.6200  2.7253 -4.1802
 8078SOL     OW35695   2.057   1.664   8.445 -0.2576  0.1592 -0.4255
 8078SOL    HW135696   2.137   1.611   8.446 -2.0225 -2.4667 -2.9495
 8078SOL    HW235697   2.055   1.675   8.540 -1.8219  1.6997 -0.6373
 8079SOL     OW35698   1.976   0.730   4.292 -0.0094 -0.1550  0.1792
 8079SOL    HW135699   2.046   0.678   4.251  1.1714 -1.9045  4.4392
 8079SOL    HW235700   2.005   0.719   4.382 -0.3826  0.7811  0.4113
 8080SOL     OW35701   2.819   1.647  13.871 -0.4451 -0.1834 -0.2765
 8080SOL    HW135702   2.769   1.602  13.803 -1.7552  2.1289 -0.8499
 8080SOL    HW235703   2.805   1.580  13.938  0.1522  0.3978  0.4238
 8081SOL     OW35704   4.119   3.314  15.936 -0.1856 -0.6686 -0.3004
 8081SOL    HW135705   4.033   3.280  15.914 -0.0046 -0.7142 -0.9245
 8081SOL    HW235706   4.141   3.363  15.857 -0.5551 -0.9468 -0.5683
 8082SOL     OW35707   4.509   1.698  11.771  0.3939 -0.1809  0.3124
 8082SOL    HW135708   4.599   1.704  11.802  0.0321  0.3819  1.2423
 8082SOL    HW235709   4.456   1.645  11.830  0.5195 -1.0537 -0.3504
 8083SOL     OW35710   3.441   2.188   1.756  0.4547 -0.7880 -0.2029
 8083SOL    HW135711   3.516   2.155   1.708  1.9011 -1.1897  2.3347
 8083SOL    HW235712   3.373   2.170   1.691  0.7451 -2.2468 -0.0927
 8084SOL     OW35713   1.443   0.342  14.419 -0.4688 -0.1323 -0.8169
 8084SOL    HW135714   1.521   0.398  14.422 -1.1374  0.8955 -2.3100
 8084SOL    HW235715   1.424   0.331  14.512  0.7638  0.3122 -0.5152
 8085SOL     OW35716   1.196   4.174  12.744 -0.3940  0.3019  0.5092
 8085SOL    HW135717   1.165   4.084  12.752 -1.2803  0.7636  2.1493
 8085SOL    HW235718   1.113   4.215  12.766 -1.0299 -1.1240  0.7965
 8086SOL     OW35719   1.191   1.013   5.667  0.0321  0.5801  0.1917
 8086SOL    HW135720   1.123   0.952   5.638 -1.1272  0.6404  2.8139
 8086SOL    HW235721   1.139   1.093   5.653  1.1338  1.1249 -0.8114
 8087SOL     OW35722   2.061   4.668  12.123 -0.1534 -0.2610  0.5175
 8087SOL    HW135723   2.131   4.619  12.079  2.0190  0.4080  3.2357
 8087SOL    HW235724   2.048   0.012  12.055 -2.3286 -1.1355  0.0675
 8088SOL     OW35725   4.705   0.756   1.181 -0.3013 -0.5236  0.4132
 8088SOL    HW135726   4.699   0.745   1.276 -2.0344 -0.5860  0.2885
 8088SOL    HW235727   0.077   0.754   1.168 -0.4533 -2.2814 -0.4487
 8089SOL     OW35728   1.407   3.730   6.392 -0.1775 -0.3129 -0.2877
 8089SOL    HW135729   1.356   3.700   6.317  1.2707  0.0765 -1.4172
 8089SOL    HW235730   1.337   3.743   6.456  1.0970  0.8154  0.8806
 8090SOL     OW35731   1.675   0.846   4.014  0.1432 -0.6466  0.1914
 8090SOL    HW135732   1.697   0.811   4.101  0.3566  0.2553  0.4999
 8090SOL    HW235733   1.693   0.935   4.044 -0.0959 -0.6713  0.4166
 8091SOL     OW35734   3.248   4.131   4.624 -0.2477  0.4158  0.1616
 8091SOL    HW135735   3.157   4.101   4.626 -0.8006  2.0395 -1.2519
 8091SOL    HW235736   3.264   4.174   4.541  0.2073  1.4905  0.8061
 8092SOL     OW35737   3.490   4.522  15.684  0.3431 -0.0500  0.3957
 8092SOL    HW135738   3.460   4.438  15.651  1.6955  0.5759 -2.4734
 8092SOL    HW235739   3.519   4.560  15.601 -1.6060 -2.9776 -1.6109
 8093SOL     OW35740   3.999   1.183   8.910  0.1620  0.9452  0.2540
 8093SOL    HW135741   4.027   1.233   8.834  0.2306 -0.5315 -0.6946
 8093SOL    HW235742   3.906   1.165   8.899  0.2945 -0.4528  1.4119
 8094SOL     OW35743   3.848   0.288  13.588  0.9798 -0.6417 -0.1634
 8094SOL    HW135744   3.938   0.269  13.563  1.1327  0.4397 -0.4445
 8094SOL    HW235745   3.794   0.247  13.521  1.0071  1.4010 -1.4103
 8095SOL     OW35746   2.947   1.089   4.334  0.1810 -0.4953 -0.2865
 8095SOL    HW135747   3.029   1.132   4.357  0.6150 -0.7931 -1.2831
 8095SOL    HW235748   2.901   1.114   4.415 -0.4799 -1.2576 -0.4261
 8096SOL     OW35749   3.408   1.762   7.051 -0.1028  0.0999 -0.1242
 8096SOL    HW135750   3.373   1.785   6.965  0.1406  2.1628  0.3267
 8096SOL    HW235751   3.464   1.685   7.049 -0.9194 -0.4996 -0.1324
 8097SOL     OW35752   0.388   1.162   5.287  0.3531 -0.5598 -0.2210
 8097SOL    HW135753   0.381   1.072   5.317  2.6587 -0.9207 -0.7764
 8097SOL    HW235754   0.443   1.145   5.212  0.1554 -1.3059 -0.1976
 8098SOL     OW35755   4.249   0.302   1.343 -0.1849 -0.7969  0.0521
 8098SOL    HW135756   4.263   0.396   1.341  0.1246 -0.8223  1.1509
 8098SOL    HW235757   4.336   0.275   1.315 -0.0720 -0.5931  0.2065
 8099SOL     OW35758   4.188   0.349   0.864  0.3759 -0.0667  0.1818
 8099SOL    HW135759   4.246   0.317   0.933  1.0384 -0.0816 -0.3811
 8099SOL    HW235760   4.221   0.435   0.836 -1.6244 -0.1374 -2.3657
 8100SOL     OW35761   3.993   1.489   7.906  0.6699  0.3646 -0.5890
 8100SOL    HW135762   4.016   1.569   7.952  0.4977  0.4515 -0.6539
 8100SOL    HW235763   4.022   1.502   7.816 -0.9097 -0.2857 -1.1837
 8101SOL     OW35764   1.785   1.582   5.821 -0.8907  0.0633 -0.0899
 8101SOL    HW135765   1.719   1.641   5.857 -1.4029 -0.7317  0.2863
 8101SOL    HW235766   1.820   1.550   5.904  0.8807 -1.5544 -1.4698
 8102SOL     OW35767   1.117   2.152  15.075  0.0553 -0.6818 -0.2257
 8102SOL    HW135768   1.200   2.169  15.120  0.2641  0.3504 -0.9756
 8102SOL    HW235769   1.112   2.219  15.006  2.6637  0.2486  0.4918
 8103SOL     OW35770   3.308   1.328  15.514 -0.0725  0.1660  0.2623
 8103SOL    HW135771   3.333   1.242  15.547  0.6985  0.2859 -0.0180
 8103SOL    HW235772   3.236   1.305  15.456  1.0503 -0.9894 -0.6770
 8104SOL     OW35773   1.460   1.227   4.660  0.6162 -0.3975  0.2118
 8104SOL    HW135774   1.399   1.296   4.635  2.9879  1.3132 -0.8625
 8104SOL    HW235775   1.544   1.241   4.616  0.0144  0.5119 -0.6131
 8105SOL     OW35776   1.744   2.759   0.037 -0.1837 -0.1441 -0.2132
 8105SOL    HW135777   1.725   2.666   0.041 -0.8629  0.1178  2.2924
 8105SOL    HW235778   1.837   2.751   0.017 -0.0145 -1.6520  1.2390
 8106SOL     OW35779   1.324   2.941   1.956  0.0318 -0.1543 -0.0619
 8106SOL    HW135780   1.250   2.883   1.974 -1.6540  1.9649 -0.1880
 8106SOL    HW235781   1.318   2.939   1.860 -0.0192  1.4071 -0.0986
 8107SOL     OW35782   3.343   3.864   4.605  0.3848 -0.4260  0.2072
 8107SOL    HW135783   3.293   3.937   4.643  0.8749 -1.4445  2.8010
 8107SOL    HW235784   3.319   3.788   4.657  0.9337 -0.1736  0.8332
 8108SOL     OW35785   2.218   3.656  11.989  0.8989  0.2817  0.0039
 8108SOL    HW135786   2.235   3.708  11.911 -0.2400 -0.7353 -0.9212
 8108SOL    HW235787   2.174   3.578  11.954  1.4209 -0.1846  0.3775
 8109SOL     OW35788   4.512   2.357   2.557 -0.1882  0.0717  0.6579
 8109SOL    HW135789   4.557   2.335   2.475 -0.5590  1.1741  0.1545
 8109SOL    HW235790   4.420   2.337   2.543  0.2792 -1.3549 -0.4350
 8110SOL     OW35791   1.486   4.668   3.080 -0.1405  0.3786 -0.1099
 8110SOL    HW135792   1.446   0.031   3.065  0.1884  0.6857  0.7610
 8110SOL    HW235793   1.409   4.613   3.061 -1.0148  1.2206  0.9603
 8111SOL     OW35794   1.508   2.107  14.585  0.2764 -0.1934  1.1817
 8111SOL    HW135795   1.498   2.181  14.645  1.1299  1.3927 -0.6235
 8111SOL    HW235796   1.602   2.093  14.597  0.0299 -1.6325  1.4564
 8112SOL     OW35797   1.626   2.489   1.146 -0.3660 -0.3603  0.1782
 8112SOL    HW135798   1.597   2.484   1.237  0.3717 -0.1214  0.4192
 8112SOL    HW235799   1.608   2.398   1.120  0.2239 -0.9664  1.9360
 8113SOL     OW35800   3.854   0.855   8.983 -0.1890 -0.3358 -0.2092
 8113SOL    HW135801   3.884   0.915   8.916  2.4355 -0.3751  0.8951
 8113SOL    HW235802   3.793   0.917   9.022  3.1350  1.7583  1.6797
 8114SOL     OW35803   1.129   2.460   9.312  0.0549 -1.0153  0.1533
 8114SOL    HW135804   1.131   2.383   9.369 -0.2843 -0.0454  1.4943
 8114SOL    HW235805   1.061   2.504   9.364  0.2384 -0.0305 -0.4425
 8115SOL     OW35806   1.669   0.327   3.136  0.9176 -0.3458  0.3523
 8115SOL    HW135807   1.599   0.308   3.074 -0.0278  1.8546  0.7518
 8115SOL    HW235808   1.633   0.294   3.219 -0.1646 -1.2078 -0.4600
 8116SOL     OW35809   2.845   0.437   5.296  0.4424  0.2852  0.2752
 8116SOL    HW135810   2.753   0.464   5.299  0.1002 -0.7591 -0.8475
 8116SOL    HW235811   2.876   0.495   5.366  1.0039 -0.2862  0.5058
 8117SOL     OW35812   0.858   2.304  11.964  0.0325 -0.2499  0.4775
 8117SOL    HW135813   0.820   2.332  11.881 -0.8358 -0.3876  0.8236
 8117SOL    HW235814   0.878   2.383  12.015 -0.5247 -0.9033  1.7126
 8118SOL     OW35815   0.148   3.266   5.029 -0.4446  0.4143 -0.5430
 8118SOL    HW135816   0.117   3.283   5.118  0.0655 -1.9744  0.1101
 8118SOL    HW235817   0.074   3.306   4.984  0.1757  1.7713 -0.3315
 8119SOL     OW35818   0.855   3.086   3.073 -0.7366  0.1775  0.9124
 8119SOL    HW135819   0.774   3.065   3.121 -2.3715  3.9893 -0.2275
 8119SOL    HW235820   0.838   3.035   2.994  1.4623  0.9007  0.0008
 8120SOL     OW35821   1.344   1.577   7.577  0.0283 -0.4192 -0.5866
 8120SOL    HW135822   1.412   1.576   7.510 -0.3415  0.5886 -0.9893
 8120SOL    HW235823   1.374   1.639   7.643 -3.6368 -1.0303  1.6753
 8121SOL     OW35824   0.470   0.059  17.228 -0.3944  0.1202  0.5196
 8121SOL    HW135825   0.544   0.071  17.288 -0.7952 -0.4311  1.1281
 8121SOL    HW235826   0.483   0.128  17.163  1.7638 -2.6281 -1.8880
 8122SOL     OW35827   3.687   1.693   9.763  0.0456  0.4018 -0.0127
 8122SOL    HW135828   3.683   1.760   9.694  0.8837 -0.6475 -1.0804
 8122SOL    HW235829   3.622   1.722   9.827  1.4667 -0.2427  1.7062
 8123SOL     OW35830   0.639   3.487   9.451 -0.0245  0.5575 -0.3915
 8123SOL    HW135831   0.716   3.538   9.475  0.0545 -0.5236  1.6434
 8123SOL    HW235832   0.644   3.501   9.356  0.6707  0.0510 -0.4263
 8124SOL     OW35833   1.453   4.059  10.692 -0.1201  0.3849  0.2899
 8124SOL    HW135834   1.541   4.054  10.729 -0.3744 -0.1788  0.8234
 8124SOL    HW235835   1.464   3.981  10.638 -4.0465  0.0228 -0.0203
 8125SOL     OW35836   2.712   0.349   4.493 -0.1534 -0.0422 -0.1467
 8125SOL    HW135837   2.797   0.391   4.480  0.6376 -1.3724  0.6768
 8125SOL    HW235838   2.681   0.397   4.569  0.0974 -1.6159  0.9443
 8126SOL     OW35839   1.514   4.712  16.977 -0.2259 -0.2916 -0.6381
 8126SOL    HW135840   1.516   4.625  17.017 -0.4646  0.6441  1.4381
 8126SOL    HW235841   1.421   0.009  16.964 -0.9820 -1.2607  3.2015
 8127SOL     OW35842   3.752   0.243   1.482  0.4613  0.0629 -0.0850
 8127SOL    HW135843   3.705   0.313   1.437  0.9114  0.9297  0.8028
 8127SOL    HW235844   3.675   0.189   1.503 -0.2132  0.3301 -1.9026
 8128SOL     OW35845   0.598   1.315  10.119  0.0133 -0.1517 -0.2138
 8128SOL    HW135846   0.632   1.404  10.115  1.1544 -0.6088 -0.4432
 8128SOL    HW235847   0.595   1.290  10.026  0.0267 -0.1449 -0.2159
 8129SOL     OW35848   2.322   2.941   6.741 -0.8473 -0.3375 -0.4134
 8129SOL    HW135849   2.280   2.986   6.668 -0.9461 -0.1012 -0.2068
 8129SOL    HW235850   2.266   2.965   6.814 -1.0524 -0.8917 -0.3890
 8130SOL     OW35851   2.293   4.387  13.056 -0.2046  0.3868  0.1144
 8130SOL    HW135852   2.329   4.354  13.138  0.1031 -0.2190 -0.2643
 8130SOL    HW235853   2.303   4.481  13.072 -0.8975  0.7330 -1.5246
 8131SOL     OW35854   0.155   1.108  11.133  0.6430  0.3533  0.1647
 8131SOL    HW135855   0.237   1.084  11.089 -0.6524  1.6602 -2.9513
 8131SOL    HW235856   0.197   1.162  11.200 -2.4636  0.8972  1.6857
 8132SOL     OW35857   4.179   1.274  14.516  0.1243  0.1536  0.4568
 8132SOL    HW135858   4.180   1.223  14.597 -0.1891 -0.4596  0.0735
 8132SOL    HW235859   4.114   1.242  14.453 -0.9705 -2.7855  3.0616
 8133SOL     OW35860   3.660   2.008  17.134 -0.6446  0.7637  0.3353
 8133SOL    HW135861   3.619   1.983  17.051 -2.2888 -2.3603  2.0873
 8133SOL    HW235862   3.619   1.942  17.190  1.4281 -0.7620  0.0940
 8134SOL     OW35863   4.295   1.667   8.074 -0.6672 -0.1023 -0.5964
 8134SOL    HW135864   4.209   1.693   8.039 -0.1505  2.1902 -0.1785
 8134SOL    HW235865   4.284   1.695   8.164 -0.5024 -0.0497 -0.5944
 8135SOL     OW35866   0.262   1.586  15.507  0.3910 -0.1244  0.0014
 8135SOL    HW135867   0.263   1.659  15.445 -2.0817 -0.6040 -0.6272
 8135SOL    HW235868   0.211   1.628  15.576  2.5021  0.1372  1.3775
 8136SOL     OW35869   2.526   3.678   6.212 -0.2071  0.0747  0.1983
 8136SOL    HW135870   2.442   3.663   6.255 -0.2512 -2.3344 -0.6924
 8136SOL    HW235871   2.508   3.684   6.118 -0.0402  3.8593  0.4328
 8137SOL     OW35872   1.538   0.505   1.123 -0.6456  0.8020 -0.1839
 8137SOL    HW135873   1.513   0.429   1.174  0.6027  0.4392 -0.1218
 8137SOL    HW235874   1.549   0.571   1.191  1.9536  0.4491 -0.2594
 8138SOL     OW35875   3.681   3.663   5.115 -1.1444  0.4172  0.3555
 8138SOL    HW135876   3.770   3.636   5.092 -1.1973  1.0304 -0.5553
 8138SOL    HW235877   3.661   3.737   5.058 -0.9203  0.0219 -0.2266
 8139SOL     OW35878   3.518   0.757   2.352 -0.0126 -0.4008 -0.0884
 8139SOL    HW135879   3.459   0.807   2.296  2.1035 -0.9200 -2.7606
 8139SOL    HW235880   3.552   0.692   2.291 -1.2687  0.9510 -2.2350
 8140SOL     OW35881   2.220   1.405   4.146  0.4131  0.0423 -0.1560
 8140SOL    HW135882   2.278   1.338   4.181  0.6746  0.7544  0.7639
 8140SOL    HW235883   2.139   1.357   4.126  1.4705 -1.6025 -0.3973
 8141SOL     OW35884   1.200   1.924   0.371  0.0043  0.2283  0.6112
 8141SOL    HW135885   1.105   1.919   0.378  0.0871 -1.7013  0.3269
 8141SOL    HW235886   1.223   1.951   0.460  1.4119  1.3682 -0.0838
 8142SOL     OW35887   2.617   3.608   7.495 -0.6809  0.2178  0.0015
 8142SOL    HW135888   2.525   3.635   7.494 -0.2338  1.8396  4.0385
 8142SOL    HW235889   2.638   3.605   7.402 -0.4654  0.7725  0.0343
 8143SOL     OW35890   2.008   4.102   2.653 -0.3406 -0.0807  0.1733
 8143SOL    HW135891   1.983   4.063   2.569 -1.3819  4.9631 -1.8128
 8143SOL    HW235892   1.921   4.127   2.683  0.7413  0.5953  2.7076
 8144SOL     OW35893   0.340   1.896  16.178  0.1776 -0.0276 -0.6710
 8144SOL    HW135894   0.266   1.880  16.236 -2.4228 -0.7537 -4.1734
 8144SOL    HW235895   0.400   1.934  16.242  0.7223  0.0389 -1.2147
 8145SOL     OW35896   3.177   0.374   9.417  0.2882 -0.5253  0.0385
 8145SOL    HW135897   3.246   0.379   9.483  0.1944 -3.2105  0.3633
 8145SOL    HW235898   3.203   0.304   9.357  0.4724  0.9922 -1.6393
 8146SOL     OW35899   3.671   0.657   0.583 -0.1509  0.7946 -0.1490
 8146SOL    HW135900   3.751   0.606   0.595 -0.3700  0.8994  1.7891
 8146SOL    HW235901   3.602   0.603   0.623  1.5746 -1.0235  0.3531
 8147SOL     OW35902   4.515   4.555   9.645  0.1357 -0.0904 -0.6581
 8147SOL    HW135903   4.603   4.537   9.611  0.9356 -0.7693  1.7130
 8147SOL    HW235904   4.525   4.519   9.733 -2.2534 -0.1851 -0.4404
 8148SOL     OW35905   4.674   0.861   4.070 -0.3100  0.1056 -0.5364
 8148SOL    HW135906   4.586   0.896   4.057 -0.1694  0.5366 -0.3649
 8148SOL    HW235907   4.690   0.806   3.994 -0.7106 -1.6587  0.6480
 8149SOL     OW35908   2.562   0.534   4.062 -0.0008 -0.0941  0.0696
 8149SOL    HW135909   2.640   0.496   4.022  0.2956 -0.7824  1.3045
 8149SOL    HW235910   2.483   0.513   4.012 -0.7891  2.0238  0.4295
 8150SOL     OW35911   2.179   2.271   6.667 -0.0154  0.3632  0.4498
 8150SOL    HW135912   2.096   2.246   6.709 -0.1709 -1.6504 -1.0776
 8150SOL    HW235913   2.148   2.344   6.614  1.7144  0.9552  0.2781
 8151SOL     OW35914   4.051   1.955  13.865  0.3999  0.3279  0.1159
 8151SOL    HW135915   4.065   1.885  13.929  0.1875 -0.4280 -0.6640
 8151SOL    HW235916   4.033   2.032  13.919  0.3749  0.6020 -0.2804
 8152SOL     OW35917   3.764   0.960   1.929 -0.1376 -0.4919 -0.0580
 8152SOL    HW135918   3.671   0.942   1.940 -0.0945  0.5885  2.0196
 8152SOL    HW235919   3.770   0.954   1.833  0.0808  1.7230 -0.1812
 8153SOL     OW35920   3.261   3.678   2.631  0.1676  0.2053 -0.7185
 8153SOL    HW135921   3.221   3.714   2.552 -0.2636 -1.7040 -1.3663
 8153SOL    HW235922   3.235   3.586   2.619 -0.1776  0.0706  1.0627
 8154SOL     OW35923   1.521   0.820  16.712 -0.4501  0.5887  0.3024
 8154SOL    HW135924   1.520   0.839  16.619 -0.4147 -0.9840 -0.0176
 8154SOL    HW235925   1.613   0.818  16.737  0.1218  0.9602 -1.8339
 8155SOL     OW35926   2.543   3.654  12.367 -0.5957  0.1065 -0.2341
 8155SOL    HW135927   2.472   3.667  12.304 -1.0224 -1.3510 -0.0466
 8155SOL    HW235928   2.613   3.710  12.332 -1.9511  2.1861  0.4124
 8156SOL     OW35929   3.674   2.622   8.072  0.1623 -0.1922 -0.0675
 8156SOL    HW135930   3.591   2.663   8.046  0.5609  1.5339  1.4075
 8156SOL    HW235931   3.662   2.530   8.048 -1.8267 -0.1603  0.8021
 8157SOL     OW35932   1.132   1.271   3.242  0.0805 -0.3672  0.2160
 8157SOL    HW135933   1.210   1.236   3.286  1.4331  1.5033 -0.6766
 8157SOL    HW235934   1.063   1.242   3.301 -1.5093  2.0000 -0.4984
 8158SOL     OW35935   0.594   1.660   6.469 -0.5508  0.0461  0.5439
 8158SOL    HW135936   0.595   1.620   6.556 -2.1349  1.1351  1.0506
 8158SOL    HW235937   0.611   1.749   6.500 -0.9466 -0.0914  1.1571
 8159SOL     OW35938   4.612   2.240  14.469  0.2400  0.5156  0.2295
 8159SOL    HW135939   4.657   2.322  14.488  0.5078  0.1204  1.2984
 8159SOL    HW235940   4.604   2.245  14.374  1.7778 -0.7753  0.0319
 8160SOL     OW35941   1.507   2.326   2.485 -0.2584  0.5581  0.1131
 8160SOL    HW135942   1.493   2.405   2.537 -0.6114  1.8672 -1.9848
 8160SOL    HW235943   1.421   2.317   2.445 -0.0686 -0.0347 -0.1664
 8161SOL     OW35944   3.928   4.364   6.008 -0.1476  0.6187 -0.3410
 8161SOL    HW135945   3.838   4.388   6.029  0.5522  2.4246  0.5955
 8161SOL    HW235946   3.923   4.380   5.913 -0.0334  0.2441 -0.4100
 8162SOL     OW35947   0.069   0.208  12.821 -0.6278 -0.4435 -0.4146
 8162SOL    HW135948   0.145   0.162  12.786 -0.1205 -0.6171  0.9049
 8162SOL    HW235949   0.026   0.231  12.739  1.6979 -0.9071 -1.7523
 8163SOL     OW35950   1.130   2.206  11.060  0.0837  0.3003  0.6996
 8163SOL    HW135951   1.041   2.170  11.052  0.6474 -0.7626 -0.7906
 8163SOL    HW235952   1.119   2.256  11.141 -1.0385  1.0164  0.0963
 8164SOL     OW35953   4.494   3.349   4.473  0.2922  0.1038 -0.4909
 8164SOL    HW135954   4.510   3.255   4.468  0.5106  0.0204  1.6946
 8164SOL    HW235955   4.565   3.365   4.411  1.1833 -1.5738  0.0874
 8165SOL     OW35956   1.173   1.050   1.967  0.3302 -0.1831  0.3359
 8165SOL    HW135957   1.212   0.969   1.933 -2.0169 -1.2064  0.0575
 8165SOL    HW235958   1.081   1.038   1.943 -0.0471 -1.3425  2.3571
 8166SOL     OW35959   1.128   0.014   1.195 -0.1330  0.1378 -0.1113
 8166SOL    HW135960   1.144   0.102   1.161  0.2940  0.5018  1.0438
 8166SOL    HW235961   1.061   0.038   1.260  1.5810 -0.4092  1.8336
 8167SOL     OW35962   4.287   2.032   3.427  0.2973  0.4088  0.4054
 8167SOL    HW135963   4.213   1.977   3.452 -0.6788  1.8532  0.6803
 8167SOL    HW235964   4.326   1.983   3.354 -0.5287  0.3617 -0.0015
 8168SOL     OW35965   3.972   4.010   1.291  0.0768  0.1137 -0.1196
 8168SOL    HW135966   4.036   4.074   1.260  1.4811 -0.7392  0.9969
 8168SOL    HW235967   3.909   4.065   1.336  0.1353  1.5452 -1.8096
 8169SOL     OW35968   0.585   1.125  12.184  0.3974 -0.2283  0.0725
 8169SOL    HW135969   0.552   1.124  12.094 -1.3721  1.1814  0.7029
 8169SOL    HW235970   0.510   1.105  12.240  0.4987 -1.4760 -0.2588
 8170SOL     OW35971   2.572   1.349   6.920 -0.5692  0.2636  0.2318
 8170SOL    HW135972   2.547   1.264   6.885 -0.7029  0.3350  0.1524
 8170SOL    HW235973   2.573   1.397   6.837 -2.1661  1.1259  0.7063
 8171SOL     OW35974   0.502   3.133   5.655  0.2208 -0.0215 -0.2580
 8171SOL    HW135975   0.452   3.210   5.628 -0.8463 -0.9942 -1.0590
 8171SOL    HW235976   0.474   3.127   5.746  0.9155 -4.2614 -0.3188
 8172SOL     OW35977   0.603   3.357   2.403  0.3860 -0.0070  0.1666
 8172SOL    HW135978   0.511   3.371   2.424  0.0736  0.7950 -1.7760
 8172SOL    HW235979   0.600   3.389   2.313 -0.4159 -0.3626  0.0720
 8173SOL     OW35980   4.031   1.231  10.363 -0.5692 -0.4887 -0.2286
 8173SOL    HW135981   4.041   1.155  10.420 -0.3722 -1.6112 -1.7459
 8173SOL    HW235982   4.077   1.301  10.409 -2.3136  0.2796  0.3216
 8174SOL     OW35983   0.686   3.681   5.537  0.0824  0.2166 -0.2304
 8174SOL    HW135984   0.704   3.683   5.443 -0.1477  2.5485 -0.2279
 8174SOL    HW235985   0.698   3.776   5.538  1.8450  0.0248 -1.9156
 8175SOL     OW35986   3.614   4.513   0.477  0.0450 -0.2325  0.5571
 8175SOL    HW135987   3.587   4.422   0.492  1.6429 -0.3972  2.3778
 8175SOL    HW235988   3.707   4.504   0.494  0.0054  0.4842  1.1333
 8176SOL     OW35989   0.657   3.205   9.118  0.3289  0.3485 -0.2500
 8176SOL    HW135990   0.696   3.141   9.177  0.7105  1.7515  1.0104
 8176SOL    HW235991   0.719   3.275   9.138  0.7956  0.4628 -2.1415
 8177SOL     OW35992   0.060   1.426  11.791 -0.0082  0.1267  0.0875
 8177SOL    HW135993   0.102   1.363  11.850  0.3757  0.7591  0.4916
 8177SOL    HW235994   4.694   1.420  11.826  0.8393 -2.9602  1.7158
 8178SOL     OW35995   0.482   1.153  13.974 -0.5619  0.3494 -0.7059
 8178SOL    HW135996   0.499   1.069  13.931  1.1480 -0.1969  1.0187
 8178SOL    HW235997   0.572   1.162  14.006 -1.5050  1.7834  1.5322
 8179SOL     OW35998   3.963   3.388   6.086 -0.4164 -0.0923  0.7786
 8179SOL    HW135999   3.907   3.391   6.009 -1.0820  2.8863  1.3934
 8179SOL    HW236000   3.977   3.481   6.102 -0.4686  0.0788 -0.1632
 8180SOL     OW36001   3.610   1.203   6.442  0.0077  0.5309  0.1799
 8180SOL    HW136002   3.616   1.178   6.534  0.1317 -0.1923 -0.0229
 8180SOL    HW236003   3.545   1.272   6.440  0.6786  1.1358 -1.2336
 8181SOL     OW36004   4.722   2.711   8.018 -0.6445 -0.1034 -0.4297
 8181SOL    HW136005   4.627   2.724   8.024 -0.6951 -0.0352 -1.3646
 8181SOL    HW236006   0.013   2.729   7.925  0.4640  1.1150 -0.0239
 8182SOL     OW36007   2.255   0.121   9.954 -0.5524  0.0308  0.3857
 8182SOL    HW136008   2.253   0.091   9.863  0.2274  1.1778 -0.0135
 8182SOL    HW236009   2.169   0.095   9.988 -0.1046 -2.8853 -0.7536
 8183SOL     OW36010   4.120   1.154   4.879 -0.2493  0.0390 -0.1173
 8183SOL    HW136011   4.166   1.141   4.962  0.5064 -0.5084 -0.6306
 8183SOL    HW236012   4.170   1.233   4.857  0.0615  0.6185  2.6487
 8184SOL     OW36013   2.083   3.831  11.021  0.0695 -0.2486 -0.4550
 8184SOL    HW136014   1.998   3.788  11.036 -1.1624  2.6642  0.9466
 8184SOL    HW236015   2.118   3.845  11.109 -0.0203  1.0272 -0.6311
 8185SOL     OW36016   3.473   0.492   3.253  0.5635 -0.2090  0.2059
 8185SOL    HW136017   3.415   0.416   3.244  0.6621 -0.2397 -0.1897
 8185SOL    HW236018   3.554   0.448   3.225  0.7440  0.3790 -0.1892
 8186SOL     OW36019   0.265   2.464   8.547 -0.1372  0.4577  0.0204
 8186SOL    HW136020   0.348   2.463   8.595 -1.1346 -0.1222  1.6949
 8186SOL    HW236021   0.249   2.370   8.551 -0.1600  0.3425 -2.4612
 8187SOL     OW36022   2.059   1.365   1.838 -0.1957 -0.9080  0.1543
 8187SOL    HW136023   2.038   1.288   1.785  0.1975  0.2181 -1.6348
 8187SOL    HW236024   2.125   1.326   1.895 -1.1547 -4.3857 -1.1240
 8188SOL     OW36025   1.485   1.646   6.547 -0.6820 -0.5418  0.4027
 8188SOL    HW136026   1.571   1.670   6.582 -0.4702 -0.2578 -0.3156
 8188SOL    HW236027   1.475   1.695   6.466  0.0470 -1.1390 -0.0387
 8189SOL     OW36028   2.221   0.048   2.642  0.0771  0.2409  0.3158
 8189SOL    HW136029   2.175   0.127   2.614  1.8631  0.0659 -3.0335
 8189SOL    HW236030   2.163   4.698   2.625  0.8460 -0.4067  0.4613
 8190SOL     OW36031   0.373   1.604   4.813  0.3049  0.1086 -0.5987
 8190SOL    HW136032   0.393   1.522   4.767 -1.4348  0.5345 -2.1206
 8190SOL    HW236033   0.279   1.598   4.800 -0.0183 -2.3404  2.6825
 8191SOL     OW36034   3.026   1.743  14.265  0.0455  0.2333  0.2943
 8191SOL    HW136035   3.016   1.795  14.185 -0.6468  0.1183  0.3038
 8191SOL    HW236036   3.048   1.659  14.227  0.0188  0.0575  0.6651
 8192SOL     OW36037   4.135   3.229   9.715 -0.1408 -0.6195 -0.3460
 8192SOL    HW136038   4.196   3.252   9.784 -2.7645  2.5488  0.9322
 8192SOL    HW236039   4.188   3.171   9.661  0.5419 -1.1116  0.8540
 8193SOL     OW36040   0.236   3.949   7.769  0.6948 -0.6807  0.3732
 8193SOL    HW136041   0.177   3.966   7.696 -0.0229 -0.3835  1.0163
 8193SOL    HW236042   0.205   4.008   7.838 -0.5757  0.9113 -1.5707
 8194SOL     OW36043   0.742   2.682  14.751  0.0524 -0.7725 -0.1676
 8194SOL    HW136044   0.671   2.691  14.815 -3.0676 -0.8338 -3.6384
 8194SOL    HW236045   0.804   2.659  14.821  1.4789  0.9462 -0.8941
 8195SOL     OW36046   1.781   4.648   2.606  0.0882 -0.5039 -0.1515
 8195SOL    HW136047   1.777   0.013   2.644 -0.0816  0.2462 -1.9163
 8195SOL    HW236048   1.875   4.631   2.607  0.2761  0.4722 -1.0620
 8196SOL     OW36049   2.871   4.120   7.059 -0.1197  0.0467  0.2128
 8196SOL    HW136050   2.877   4.126   7.154  0.5042  0.3275  0.1612
 8196SOL    HW236051   2.908   4.202   7.024  1.5017  0.3297  2.6415
 8197SOL     OW36052   1.695   1.929   5.095  0.5030 -0.4425 -0.7199
 8197SOL    HW136053   1.624   1.873   5.061  0.0037  0.5559 -1.3013
 8197SOL    HW236054   1.663   2.016   5.072  0.3210 -0.5850 -1.0041
 8198SOL     OW36055   1.267   0.384   8.040  0.7952  0.4825  0.2855
 8198SOL    HW136056   1.198   0.428   7.991  0.6349 -0.6734 -0.5019
 8198SOL    HW236057   1.236   0.294   8.046 -1.7493  1.2331 -1.8632
 8199SOL     OW36058   1.200   4.342   9.174 -0.3270 -0.3269  0.7396
 8199SOL    HW136059   1.249   4.260   9.185  0.8513 -0.0041 -1.9908
 8199SOL    HW236060   1.131   4.340   9.240 -1.4054 -0.4411 -0.3650
 8200SOL     OW36061   0.288   0.443   5.824  0.4403  0.2761  0.4269
 8200SOL    HW136062   0.195   0.419   5.829  0.4519 -0.2401 -2.1715
 8200SOL    HW236063   0.336   0.361   5.815 -2.0686 -1.0727 -0.6230
 8201SOL     OW36064   4.246   1.385   4.849 -0.4766  0.3752  0.5587
 8201SOL    HW136065   4.287   1.452   4.794  0.0607  1.2361  2.0280
 8201SOL    HW236066   4.161   1.419   4.876 -1.4437 -0.1611 -1.7407
 8202SOL     OW36067   2.880   1.112  12.851 -0.1737  0.0046  0.1680
 8202SOL    HW136068   2.856   1.194  12.809 -1.4373 -0.1518  0.5989
 8202SOL    HW236069   2.811   1.102  12.917 -0.4115 -0.5330 -0.1651
 8203SOL     OW36070   3.203   4.113   2.469  0.3090 -0.0289 -0.1502
 8203SOL    HW136071   3.207   4.177   2.398  4.2721 -1.3492 -1.1032
 8203SOL    HW236072   3.110   4.097   2.481  0.3379 -1.1009 -1.3365
 8204SOL     OW36073   1.622   3.076   6.620  0.2119 -0.2937 -0.2507
 8204SOL    HW136074   1.675   3.104   6.695  0.6175  1.1512 -1.0912
 8204SOL    HW236075   1.652   2.988   6.598  0.9635 -0.7634  2.6460
 8205SOL     OW36076   1.854   2.067  12.597 -0.4487 -0.4788 -0.7012
 8205SOL    HW136077   1.837   2.067  12.502  1.5018 -0.6774 -1.0381
 8205SOL    HW236078   1.807   1.989  12.627 -2.2985  0.6719 -0.5537
 8206SOL     OW36079   0.040   3.827   1.933  0.0892 -0.6788 -0.2185
 8206SOL    HW136080   0.104   3.760   1.910 -0.5241 -1.1911 -0.4007
 8206SOL    HW236081   4.700   3.805   1.864 -1.5672 -0.9839  1.4081
 8207SOL     OW36082   3.855   2.059  14.373 -0.1721 -0.0529  0.2738
 8207SOL    HW136083   3.931   2.067  14.316 -0.3524  1.1234  0.1999
 8207SOL    HW236084   3.782   2.005  14.341  0.1981  1.3299 -2.9066
 8208SOL     OW36085   0.892   2.944   6.140  0.2645  0.0478 -0.4006
 8208SOL    HW136086   0.981   2.907   6.140  1.0905  2.0337  0.4569
 8208SOL    HW236087   0.843   2.870   6.104 -0.9466 -0.4321  2.2674
 8209SOL     OW36088   3.409   1.172   0.834 -0.0408 -0.0837  0.1939
 8209SOL    HW136089   3.469   1.223   0.888  0.6537  0.2876 -0.9385
 8209SOL    HW236090   3.452   1.087   0.845 -0.9788 -0.4691  0.9539
 8210SOL     OW36091   4.641   0.321  17.204 -0.5268  0.7065 -0.0833
 8210SOL    HW136092   4.604   0.406  17.230 -1.0568  0.2649  0.6135
 8210SOL    HW236093   4.585   0.308  17.128 -1.0815  0.6472  0.3292
 8211SOL     OW36094   3.505   2.092   6.769  0.0192 -0.0529 -0.5824
 8211SOL    HW136095   3.452   2.013   6.761 -0.4704  0.1581  0.6294
 8211SOL    HW236096   3.445   2.154   6.729 -2.5525 -2.3152 -0.2581
 8212SOL     OW36097   0.934   2.432   6.878 -0.2273  0.3214 -0.1915
 8212SOL    HW136098   1.016   2.396   6.912  0.6654  0.3302 -2.3382
 8212SOL    HW236099   0.965   2.514   6.840  1.2247  1.5640  3.6875
 8213SOL     OW36100   3.720   3.918   3.055 -0.0442  0.2814 -0.2954
 8213SOL    HW136101   3.625   3.923   3.044  0.2551  2.3592 -1.8850
 8213SOL    HW236102   3.732   3.856   2.983 -2.1477 -0.6642  0.1855
 8214SOL     OW36103   0.617   4.622   4.382 -0.3731  0.4825 -0.1085
 8214SOL    HW136104   0.603   4.703   4.429 -1.2355 -0.3772  1.1181
 8214SOL    HW236105   0.577   4.552   4.434 -1.7182  1.1873 -0.1916
 8215SOL     OW36106   2.288   3.035   6.465  0.3693 -0.5836  0.6579
 8215SOL    HW136107   2.346   2.965   6.434  2.7366  2.1211 -0.9491
 8215SOL    HW236108   2.330   3.117   6.440 -1.5942  0.8040  1.9434
 8216SOL     OW36109   4.367   4.575   1.249 -0.2815 -0.7579  0.1460
 8216SOL    HW136110   4.280   4.609   1.268  0.1012  0.0623  0.4194
 8216SOL    HW236111   4.373   4.598   1.156 -0.5282 -1.9869 -0.1714
 8217SOL     OW36112   2.347   1.529   7.169 -0.2254 -0.0469 -0.0409
 8217SOL    HW136113   2.366   1.575   7.251 -0.2285  0.6533 -0.4302
 8217SOL    HW236114   2.369   1.600   7.108  5.0575 -0.6496  1.2171
 8218SOL     OW36115   2.157   3.542   4.535 -0.1313  0.0587 -0.6450
 8218SOL    HW136116   2.214   3.511   4.465  0.5435 -2.5474  1.0511
 8218SOL    HW236117   2.090   3.475   4.524 -1.6656  1.4812  0.0493
 8219SOL     OW36118   1.503   4.088   9.231 -0.1147  0.3450 -0.1073
 8219SOL    HW136119   1.556   4.126   9.161  0.2892  0.4005  0.2274
 8219SOL    HW236120   1.456   4.030   9.171 -0.5984  0.9682 -0.3271
 8220SOL     OW36121   4.591   0.042  14.350  0.0050 -0.0428  0.1930
 8220SOL    HW136122   4.509   0.067  14.392 -0.4166 -0.1855 -0.5456
 8220SOL    HW236123   4.652   0.034  14.424 -0.6688  2.9572  1.1133
 8221SOL     OW36124   0.700   1.208   4.380  0.3869  0.3958 -0.1869
 8221SOL    HW136125   0.708   1.300   4.405 -1.2586  0.1491  1.2560
 8221SOL    HW236126   0.609   1.198   4.352 -0.2201  0.7998  1.6524
 8222SOL     OW36127   1.317   0.916   4.130  0.1528  0.3823  0.1038
 8222SOL    HW136128   1.342   0.913   4.038 -4.2331 -0.9763 -1.0578
 8222SOL    HW236129   1.358   0.835   4.160  0.6591  0.8379  0.6301
 8223SOL     OW36130   1.521   3.051   7.689  0.0383  1.0721  0.0383
 8223SOL    HW136131   1.539   3.139   7.723 -0.3723  1.5808 -1.0572
 8223SOL    HW236132   1.596   3.008   7.729 -0.7404 -0.9814 -0.7188
 8224SOL     OW36133   1.012   4.140  10.438  0.1380 -0.5691  0.2020
 8224SOL    HW136134   1.095   4.170  10.477 -0.9186  1.3010  1.0083
 8224SOL    HW236135   0.984   4.066  10.492 -0.4424  1.2860  2.4706
 8225SOL     OW36136   2.055   3.163   7.763  0.3076  0.6766 -0.2626
 8225SOL    HW136137   1.994   3.148   7.835  1.3936  0.6302  0.6604
 8225SOL    HW236138   2.067   3.078   7.722 -1.3771  0.3147  0.0056
 8226SOL     OW36139   4.080   4.625  15.935 -0.0439  0.1732 -0.7942
 8226SOL    HW136140   4.063   4.668  16.019  2.8256 -0.7511  0.2616
 8226SOL    HW236141   4.158   4.574  15.956  0.1699  0.1440 -1.6560
 8227SOL     OW36142   0.436   0.793   3.293  0.5608 -0.4801  0.4811
 8227SOL    HW136143   0.351   0.795   3.337  0.2564 -0.0675 -0.1214
 8227SOL    HW236144   0.482   0.717   3.329  1.3876  0.6813  1.8686
 8228SOL     OW36145   3.925   1.739  15.198  0.3821  0.3516 -0.2956
 8228SOL    HW136146   3.936   1.671  15.264 -1.1336  0.0949 -0.3080
 8228SOL    HW236147   3.942   1.691  15.117 -2.9786 -1.5970  0.1174
 8229SOL     OW36148   3.799   0.188   4.291 -0.7890  0.4139  0.4975
 8229SOL    HW136149   3.834   0.273   4.267 -1.3451 -0.2391 -2.6536
 8229SOL    HW236150   3.743   0.173   4.215  1.6437  1.8302 -1.5527
 8230SOL     OW36151   0.720   1.516   5.726  0.1123  0.0215  0.1250
 8230SOL    HW136152   0.742   1.482   5.812  4.2956 -0.5669 -1.1755
 8230SOL    HW236153   0.711   1.610   5.744  2.0182  0.2997 -0.4103
 8231SOL     OW36154   4.662   4.560   1.304  0.1231 -0.3379  0.1061
 8231SOL    HW136155   4.570   4.539   1.286 -0.5868  1.0467  2.1669
 8231SOL    HW236156   4.673   4.495   1.373 -2.0293  1.5641  2.2096
 8232SOL     OW36157   3.770   0.018   5.932 -0.1949 -0.1003 -0.4623
 8232SOL    HW136158   3.728   0.054   5.854 -1.3551 -3.4521 -1.3714
 8232SOL    HW236159   3.862   0.035   5.912 -0.4733  1.6088 -0.3301
 8233SOL     OW36160   0.660   4.572   7.682 -0.2521  0.1931 -0.1273
 8233SOL    HW136161   0.709   4.655   7.677  1.6310 -0.8370  0.9780
 8233SOL    HW236162   0.654   4.570   7.777  0.7623  0.2273 -0.0556
 8234SOL     OW36163   4.524   4.356   2.337 -0.3878  0.1766  0.1104
 8234SOL    HW136164   4.586   4.289   2.308  0.7154  2.0734 -1.9321
 8234SOL    HW236165   4.580   4.418   2.382  0.0063  0.4193 -0.7008
 8235SOL     OW36166   0.963   3.654   8.246 -0.4162  0.0046  0.4500
 8235SOL    HW136167   0.868   3.652   8.237 -0.3151  0.0502 -0.6147
 8235SOL    HW236168   0.972   3.565   8.213  5.2361  0.5249  0.4917
 8236SOL     OW36169   0.725   4.721  10.390 -0.5309  0.2491  0.2847
 8236SOL    HW136170   0.677   0.045  10.322  0.5376 -0.9121 -1.2622
 8236SOL    HW236171   0.808   0.015  10.346 -0.3385  0.9133  0.8934
 8237SOL     OW36172   3.435   3.567   3.075 -0.4797 -0.2669 -0.1557
 8237SOL    HW136173   3.374   3.521   3.017 -1.0060  0.4346 -0.1618
 8237SOL    HW236174   3.499   3.603   3.013 -0.6230 -0.1477 -0.2338
 8238SOL     OW36175   3.714   0.804   3.278  0.2099  0.5135  0.4722
 8238SOL    HW136176   3.683   0.879   3.330  1.9474  3.0867 -2.2303
 8238SOL    HW236177   3.648   0.815   3.210 -0.3240  1.2741  1.1132
 8239SOL     OW36178   0.623   2.805   3.938  0.6445  0.2618 -0.4427
 8239SOL    HW136179   0.689   2.834   4.002  1.9808 -0.3981 -1.5320
 8239SOL    HW236180   0.642   2.711   3.932  1.5037  0.4675 -0.8700
 8240SOL     OW36181   0.656   3.351   0.829 -0.0792 -0.1468  0.2525
 8240SOL    HW136182   0.582   3.378   0.775  0.3306 -0.4043 -0.4540
 8240SOL    HW236183   0.729   3.368   0.769 -1.3539  1.6794 -0.7797
 8241SOL     OW36184   2.736   2.127   5.536  0.1793  0.3481  0.3381
 8241SOL    HW136185   2.778   2.068   5.598  0.0605 -0.3185 -0.2219
 8241SOL    HW236186   2.708   2.199   5.593 -1.8896 -0.4649  0.3377
 8242SOL     OW36187   3.942   3.725  17.280  0.1110 -0.1277  0.6171
 8242SOL    HW136188   3.879   3.782  17.237  1.7343  0.0228 -1.5530
 8242SOL    HW236189   3.951   3.772  17.363 -1.5367  3.0452 -0.9844
 8243SOL     OW36190   0.519   0.393  11.674 -0.1228  0.4291  0.5861
 8243SOL    HW136191   0.435   0.397  11.627  0.9241  2.5865 -1.1103
 8243SOL    HW236192   0.570   0.468  11.645 -1.5700  0.0614 -2.9424
 8244SOL     OW36193   2.207   0.462   5.792  0.2599 -0.4666  0.2722
 8244SOL    HW136194   2.126   0.480   5.839 -0.1388 -1.8547  0.0986
 8244SOL    HW236195   2.281   0.477   5.850 -0.3976 -1.4743  1.3729
 8245SOL     OW36196   4.128   0.485   2.971 -0.1134 -0.2549 -0.3719
 8245SOL    HW136197   4.136   0.551   2.902  2.2226  0.1393  0.2815
 8245SOL    HW236198   4.033   0.483   2.984 -0.0783 -0.0843 -0.0988
 8246SOL     OW36199   3.162   3.285   2.094 -0.0557 -0.0727  0.2987
 8246SOL    HW136200   3.129   3.343   2.024 -0.7866 -0.0757  0.6394
 8246SOL    HW236201   3.083   3.278   2.148 -0.1509  3.1004  0.5883
 8247SOL     OW36202   2.096   3.929   5.005  0.5271 -0.0642 -0.5606
 8247SOL    HW136203   2.036   3.937   5.080  2.3419  1.4022  0.7256
 8247SOL    HW236204   2.036   3.920   4.931  0.1498  2.0916 -0.5015
 8248SOL     OW36205   1.474   3.493  17.273 -0.2979  0.3652  0.0112
 8248SOL    HW136206   1.457   3.560  17.340 -2.7131 -1.8919  1.6933
 8248SOL    HW236207   1.389   3.456  17.249 -0.2029  0.1914 -0.0515
 8249SOL     OW36208   3.130   0.054   9.677  0.7472  0.1906 -0.3466
 8249SOL    HW136209   3.051   0.045   9.731  0.8019  2.9590  0.2208
 8249SOL    HW236210   3.093   0.082   9.593  1.1796  0.1316 -0.5543
 8250SOL     OW36211   2.766   3.425  12.470  0.0345  0.2508 -0.6445
 8250SOL    HW136212   2.832   3.442  12.537 -0.8551  0.2707  0.2183
 8250SOL    HW236213   2.808   3.445  12.386  1.2993  1.6457  0.3379
 8251SOL     OW36214   3.920   3.247   6.353 -0.6507  0.0247 -0.0945
 8251SOL    HW136215   3.921   3.336   6.317  1.0217 -1.5426 -3.9226
 8251SOL    HW236216   3.825   3.244   6.367 -0.6694 -0.0138 -0.2282
 8252SOL     OW36217   1.424   3.374  13.242 -0.1178  0.0992  0.0467
 8252SOL    HW136218   1.455   3.367  13.333 -2.4574  0.2995  0.8754
 8252SOL    HW236219   1.330   3.395  13.240 -0.6721 -1.9068  3.3510
 8253SOL     OW36220   1.390   0.681   4.224  0.2061  0.3720 -0.0722
 8253SOL    HW136221   1.341   0.670   4.305 -1.4522 -0.3161 -1.1774
 8253SOL    HW236222   1.480   0.660   4.250 -0.1190  0.7999  1.3916
 8254SOL     OW36223   0.718   3.773  11.996  0.3023  0.8710  0.2238
 8254SOL    HW136224   0.791   3.834  11.988  0.1689  1.2019  1.5835
 8254SOL    HW236225   0.761   3.709  11.940 -0.3347  0.7076 -0.0859
 8255SOL     OW36226   0.593   2.159   2.419 -0.2103 -0.1418  0.3693
 8255SOL    HW136227   0.680   2.122   2.433 -1.8989 -3.3105  2.6031
 8255SOL    HW236228   0.548   2.075   2.411  0.3223 -0.3557 -0.3438
 8256SOL     OW36229   2.757   3.765   3.909 -0.2797 -0.0719  0.4968
 8256SOL    HW136230   2.792   3.678   3.928 -0.1738 -0.1369 -0.0005
 8256SOL    HW236231   2.670   3.749   3.947 -0.0715 -0.1791  0.9267
 8257SOL     OW36232   3.012   2.498  15.692 -0.7115  0.6955  0.0166
 8257SOL    HW136233   2.973   2.451  15.619  0.3381  2.2615 -1.5840
 8257SOL    HW236234   3.099   2.509  15.652  0.0976 -1.7674  1.1176
 8258SOL     OW36235   0.892   0.553  11.602  0.5631 -0.6083  0.1236
 8258SOL    HW136236   0.796   0.550  11.600  0.5475 -0.3102  0.4532
 8258SOL    HW236237   0.901   0.644  11.629  0.4028 -0.1320 -1.4055
 8259SOL     OW36238   3.897   4.525   8.344  0.2817  0.3411  0.0780
 8259SOL    HW136239   3.872   4.563   8.260  0.3414  0.3758  0.0762
 8259SOL    HW236240   3.889   4.601   8.401 -2.0782  2.4295 -3.0330
 8260SOL     OW36241   1.253   0.411   8.431 -0.3460  0.3678 -0.0783
 8260SOL    HW136242   1.206   0.444   8.355  0.1353 -0.0715 -0.5735
 8260SOL    HW236243   1.221   0.321   8.434 -1.1965  0.7093  1.1481
 8261SOL     OW36244   2.447   2.524  10.515 -0.0800 -0.2129  0.3463
 8261SOL    HW136245   2.394   2.473  10.578 -1.0153 -0.1803 -0.4150
 8261SOL    HW236246   2.440   2.464  10.441 -2.4201 -0.1887  0.5380
 8262SOL     OW36247   2.911   3.282  14.371 -0.6139 -0.4286 -0.1647
 8262SOL    HW136248   2.973   3.220  14.333  0.8479  0.5789  0.5764
 8262SOL    HW236249   2.852   3.216  14.409  0.7804 -0.7822  1.3933
 8263SOL     OW36250   1.842   3.995   5.962 -0.0923 -0.7168 -0.1851
 8263SOL    HW136251   1.874   3.922   6.015 -2.4932 -1.7805 -0.1646
 8263SOL    HW236252   1.923   4.040   5.937  0.0530 -0.2563  1.1462
 8264SOL     OW36253   2.079   0.922   7.098  0.1254 -0.1405  0.5545
 8264SOL    HW136254   2.153   0.930   7.038 -0.2627  1.4271  0.2764
 8264SOL    HW236255   2.008   0.944   7.038 -0.5034 -2.0969  0.5670
 8265SOL     OW36256   4.474   1.579   1.352 -0.3193  0.1158  0.1825
 8265SOL    HW136257   4.429   1.562   1.435  0.5341 -0.9097  0.4296
 8265SOL    HW236258   4.509   1.666   1.369 -1.5400  0.4758  0.8480
 8266SOL     OW36259   0.403   0.902   5.244 -0.3085 -0.4480 -0.3240
 8266SOL    HW136260   0.418   0.850   5.165  0.4888  0.8813 -1.0460
 8266SOL    HW236261   0.311   0.899   5.271 -0.6225 -0.8481 -1.4263
 8267SOL     OW36262   1.870   1.361   9.180  0.1232 -0.3793  0.2287
 8267SOL    HW136263   1.900   1.285   9.130  0.4024  0.1656 -0.4309
 8267SOL    HW236264   1.926   1.352   9.257 -0.7775 -0.1110  0.9084
 8268SOL     OW36265   3.669   0.805   8.630  0.0518 -0.2084 -0.0714
 8268SOL    HW136266   3.721   0.885   8.630 -0.2545 -0.0090  0.9355
 8268SOL    HW236267   3.649   0.797   8.723 -2.7633  2.3098 -0.4531
 8269SOL     OW36268   2.871   1.738   5.222  0.0358 -0.1727 -0.0047
 8269SOL    HW136269   2.927   1.780   5.287 -1.1293  0.8674  0.3332
 8269SOL    HW236270   2.795   1.719   5.277  0.4412 -0.3948  0.4783
 8270SOL     OW36271   3.556   2.511   9.313 -0.0548 -0.2811  0.4769
 8270SOL    HW136272   3.626   2.555   9.267 -0.4574  0.3838  0.4994
 8270SOL    HW236273   3.602   2.516   9.397 -1.4918  0.3297  1.2363
 8271SOL     OW36274   4.343   2.030   5.034 -0.5697  0.2774  0.6633
 8271SOL    HW136275   4.325   1.987   5.118 -0.5903 -1.3994 -0.2020
 8271SOL    HW236276   4.363   2.114   5.076  0.7063 -0.0276  0.6592
 8272SOL     OW36277   1.132   2.122   5.504  0.3982 -0.2321  0.3781
 8272SOL    HW136278   1.045   2.088   5.522  0.6003 -1.2896 -0.6408
 8272SOL    HW236279   1.133   2.099   5.411  0.8163  0.4581  0.2105
 8273SOL     OW36280   3.772   3.073  14.218  0.2472  0.1525 -0.1164
 8273SOL    HW136281   3.677   3.072  14.216  0.2465 -0.7400  0.0385
 8273SOL    HW236282   3.780   3.165  14.195  2.5113  0.4010  1.6806
 8274SOL     OW36283   3.389   4.229   6.635  0.4469 -0.1416 -0.1693
 8274SOL    HW136284   3.416   4.295   6.571 -2.7068  1.2255 -0.1005
 8274SOL    HW236285   3.308   4.196   6.596  0.2914  0.9959 -0.8319
 8275SOL     OW36286   1.806   3.868  16.380 -0.1531 -0.6203 -0.0412
 8275SOL    HW136287   1.714   3.846  16.392 -0.4699 -0.0783 -1.4974
 8275SOL    HW236288   1.828   3.785  16.337  1.4348 -0.0781 -0.2713
 8276SOL     OW36289   0.047   4.630   5.704 -0.0723  0.3849 -0.1000
 8276SOL    HW136290   0.103   4.639   5.628  0.6132 -1.8429  0.1310
 8276SOL    HW236291   0.093   4.554   5.741  0.0868 -0.1978 -1.5041
 8277SOL     OW36292   1.669   3.638   7.714  0.3016  0.2081  0.1568
 8277SOL    HW136293   1.603   3.702   7.738  0.3722  2.0238 -4.6193
 8277SOL    HW236294   1.683   3.584   7.792  0.2132 -0.9482 -0.6144
 8278SOL     OW36295   3.836   4.339  13.417 -0.3479  0.3386 -0.2591
 8278SOL    HW136296   3.845   4.311  13.326  1.7233  0.4195 -0.0883
 8278SOL    HW236297   3.743   4.362  13.420 -0.7340 -1.4694  2.3899
 8279SOL     OW36298   3.873   2.205   2.210 -0.0251  0.2539 -0.5999
 8279SOL    HW136299   3.862   2.203   2.115 -2.4592  1.4623 -0.3359
 8279SOL    HW236300   3.890   2.298   2.228 -0.7377  0.4014 -0.6908
 8280SOL     OW36301   3.005   1.007   8.090  0.4178  0.2365  0.1079
 8280SOL    HW136302   3.022   0.931   8.146 -2.1741  0.8607  1.7353
 8280SOL    HW236303   3.088   1.040   8.057 -0.4891  1.1754 -1.2317
 8281SOL     OW36304   0.828   1.578  10.682 -0.4758 -0.2956  0.3546
 8281SOL    HW136305   0.785   1.655  10.646 -3.2478 -1.8261  0.3830
 8281SOL    HW236306   0.905   1.564  10.627 -0.6584  0.4838 -0.0890
 8282SOL     OW36307   4.523   0.573  13.318  0.0288  0.8966  0.4386
 8282SOL    HW136308   4.447   0.632  13.322 -0.4360  0.3094  0.3269
 8282SOL    HW236309   4.557   0.604  13.234 -1.2266  0.0347 -0.3821
 8283SOL     OW36310   0.253   3.190   0.579 -0.1084  0.7856  0.3649
 8283SOL    HW136311   0.185   3.232   0.527 -1.6739 -2.1877  0.0288
 8283SOL    HW236312   0.274   3.112   0.528  0.6361  2.5969 -2.1189
 8284SOL     OW36313   3.510   1.831   8.929 -0.0520  0.2131  0.1408
 8284SOL    HW136314   3.455   1.906   8.908 -0.4866 -0.7726 -2.1906
 8284SOL    HW236315   3.465   1.760   8.883 -0.5641  1.1345 -0.7941
 8285SOL     OW36316   2.508   0.311   5.058 -0.5811 -0.2169  0.0695
 8285SOL    HW136317   2.423   0.266   5.061 -1.5104  1.5912  1.0711
 8285SOL    HW236318   2.567   0.236   5.051  1.0095  1.1609 -1.0826
 8286SOL     OW36319   0.818   1.147  12.332  0.4252 -0.3660  0.1106
 8286SOL    HW136320   0.785   1.118  12.417  0.1628  1.1057  0.5257
 8286SOL    HW236321   0.737   1.137  12.282 -0.4846  2.0135  1.1125
 8287SOL     OW36322   2.708   1.585  14.823 -0.2037 -0.2442  0.6435
 8287SOL    HW136323   2.647   1.514  14.804 -1.0198  0.1997  1.5932
 8287SOL    HW236324   2.779   1.555  14.766  0.1788 -2.3331  2.1940
 8288SOL     OW36325   2.617   3.396   8.058  0.4255 -0.2376 -0.7298
 8288SOL    HW136326   2.533   3.371   8.020  0.3632 -1.3942  0.1675
 8288SOL    HW236327   2.587   3.465   8.117 -2.3385 -1.5092 -0.6633
 8289SOL     OW36328   2.095   3.169   0.462  0.5170  0.2208  0.3359
 8289SOL    HW136329   2.085   3.248   0.514  0.1234  0.7354 -0.5212
 8289SOL    HW236330   2.118   3.201   0.374 -0.8526  0.3478  0.0203
 8290SOL     OW36331   2.449   3.503   3.701 -0.1052 -0.8067 -0.1173
 8290SOL    HW136332   2.409   3.559   3.767 -1.4951 -1.5549 -0.3432
 8290SOL    HW236333   2.448   3.417   3.742 -1.7692  0.0573  1.6213
 8291SOL     OW36334   1.152   4.689   2.228 -0.0209  0.2606 -0.3844
 8291SOL    HW136335   1.228   4.646   2.267 -0.9602 -0.0616  1.1092
 8291SOL    HW236336   1.158   0.051   2.272 -0.0969  1.2050 -2.1985
 8292SOL     OW36337   2.291   1.301  12.381 -0.2181  0.1211  0.1381
 8292SOL    HW136338   2.329   1.252  12.308 -2.3558 -0.9393 -0.2842
 8292SOL    HW236339   2.212   1.247  12.393 -1.3529  1.7600  0.0449
 8293SOL     OW36340   4.070   0.909   7.689  0.2601 -0.0718  0.0645
 8293SOL    HW136341   4.069   0.904   7.785  0.0324  1.8004  0.1590
 8293SOL    HW236342   3.980   0.919   7.659  0.6620  0.8083 -0.8549
 8294SOL     OW36343   0.277   0.961  10.542 -0.1274 -0.2242  0.8236
 8294SOL    HW136344   0.200   0.906  10.559 -2.8995  3.4959  0.3627
 8294SOL    HW236345   0.308   0.957  10.633  0.3309 -0.5950  0.6502
 8295SOL     OW36346   3.359   2.537   0.489 -0.1342 -0.5452 -0.1299
 8295SOL    HW136347   3.428   2.489   0.535  2.0297  1.0739 -1.7171
 8295SOL    HW236348   3.331   2.462   0.436 -2.3329 -0.6866  1.2181
 8296SOL     OW36349   2.072   3.657   0.468  0.3056 -0.3264 -0.2256
 8296SOL    HW136350   2.125   3.737   0.465 -0.8278  0.3757 -1.4952
 8296SOL    HW236351   2.080   3.636   0.376 -0.5442 -1.0860 -0.1291
 8297SOL     OW36352   1.698   1.060  11.429 -0.1118 -0.2418  0.4357
 8297SOL    HW136353   1.612   1.025  11.452  0.0586 -0.5221  0.6390
 8297SOL    HW236354   1.731   1.061  11.518  0.0588 -0.0565  0.3712
 8298SOL     OW36355   3.941   3.382  16.829  0.0304 -0.0421 -0.0408
 8298SOL    HW136356   4.012   3.442  16.851  1.5858 -1.5674 -0.9278
 8298SOL    HW236357   3.887   3.437  16.773 -1.0536  1.8614  2.8976
 8299SOL     OW36358   0.720   1.628   2.899 -0.1699 -0.0309  0.4429
 8299SOL    HW136359   0.641   1.640   2.952 -1.1046 -1.6371 -0.6013
 8299SOL    HW236360   0.738   1.714   2.861 -2.2765 -0.6027 -1.8335
 8300SOL     OW36361   0.352   2.816   3.421  0.1902  0.2746  0.6554
 8300SOL    HW136362   0.287   2.754   3.455  0.4894 -0.6894 -0.5083
 8300SOL    HW236363   0.342   2.787   3.330 -4.1257  2.1360  0.4965
 8301SOL     OW36364   2.693   1.012   3.518  0.1201  0.5004  0.5464
 8301SOL    HW136365   2.624   0.999   3.453 -0.7461  2.3898  1.0972
 8301SOL    HW236366   2.770   1.030   3.463 -0.3005 -0.4090 -0.3262
 8302SOL     OW36367   4.713   1.130  16.226  0.1815  0.1175 -0.6011
 8302SOL    HW136368   0.040   1.109  16.146  0.5878  4.2726 -1.4327
 8302SOL    HW236369   4.692   1.220  16.203 -0.4481 -0.2411 -1.4511
 8303SOL     OW36370   0.912   2.245   4.646  0.4836 -0.3266  0.0039
 8303SOL    HW136371   0.996   2.200   4.633 -0.8453 -3.0676  0.8923
 8303SOL    HW236372   0.848   2.177   4.623 -1.9827  0.9528  3.1249
 8304SOL     OW36373   4.257   2.924   1.656 -0.2509  0.2090 -0.3153
 8304SOL    HW136374   4.204   2.871   1.596  0.4741  0.2682 -1.0135
 8304SOL    HW236375   4.249   3.013   1.622  0.0495  0.8053  1.1849
 8305SOL     OW36376   0.115   4.690   7.173 -0.4734 -0.2771  0.1088
 8305SOL    HW136377   0.084   4.638   7.099  0.2314 -0.4857 -0.0365
 8305SOL    HW236378   0.182   4.632   7.209  2.1290  2.3210 -0.5218
 8306SOL     OW36379   1.940   1.890   2.862  0.5549  0.5150  0.3001
 8306SOL    HW136380   1.858   1.845   2.840  0.3916 -0.6822  3.2933
 8306SOL    HW236381   1.900   1.955   2.920 -3.2279 -1.9685  0.4934
 8307SOL     OW36382   3.406   1.258   4.591  0.2363 -0.0737  0.5356
 8307SOL    HW136383   3.367   1.231   4.508 -0.1806  2.8601 -0.2374
 8307SOL    HW236384   3.384   1.350   4.576 -1.5331 -0.6128 -0.2438
 8308SOL     OW36385   0.882   1.116   6.413  0.0598 -0.0796  0.4649
 8308SOL    HW136386   0.901   1.202   6.452  1.5990 -0.1759 -0.0855
 8308SOL    HW236387   0.813   1.071   6.462 -0.8132 -0.8868 -1.4965
 8309SOL     OW36388   2.682   0.973  11.216 -0.2902 -0.0837  0.0240
 8309SOL    HW136389   2.695   1.062  11.249 -2.5754  0.0706  0.5148
 8309SOL    HW236390   2.589   0.979  11.239  0.3905  0.0921  2.6643
 8310SOL     OW36391   1.905   3.026   2.618  0.6024 -0.2551  0.8065
 8310SOL    HW136392   1.957   2.986   2.549  1.3772  4.0424 -1.1193
 8310SOL    HW236393   1.944   2.983   2.695  1.2900 -1.0939 -0.0084
 8311SOL     OW36394   0.855   2.163   5.549  0.2445  0.4443 -0.6466
 8311SOL    HW136395   0.812   2.195   5.470 -1.7677  2.7635  1.4255
 8311SOL    HW236396   0.812   2.216   5.616 -0.0148  0.6991 -1.0171
 8312SOL     OW36397   1.629   2.345   4.344 -0.4481  0.2653 -0.0585
 8312SOL    HW136398   1.711   2.387   4.371  0.0498 -0.3017 -0.7108
 8312SOL    HW236399   1.658   2.261   4.310 -1.0659 -0.8491  2.1267
 8313SOL     OW36400   3.711   2.897   8.893 -0.1746  0.1829  0.4666
 8313SOL    HW136401   3.631   2.898   8.945 -1.2236  0.9752 -1.1786
 8313SOL    HW236402   3.697   2.965   8.827  1.2517  1.8924  1.9164
 8314SOL     OW36403   0.074   4.011  11.442 -0.1861 -0.3688  0.4160
 8314SOL    HW136404   0.145   4.073  11.458 -0.5542  0.6916 -2.0178
 8314SOL    HW236405   0.008   4.051  11.498 -0.7509  0.2198 -0.6773
 8315SOL     OW36406   4.094   3.607  16.844  0.0609  0.2907  0.0148
 8315SOL    HW136407   4.007   3.626  16.880 -0.4165 -0.3765 -0.7707
 8315SOL    HW236408   4.152   3.672  16.881 -0.2738  0.0711  0.9336
 8316SOL     OW36409   3.626   1.091   2.591 -0.0167  0.7893  0.9557
 8316SOL    HW136410   3.541   1.099   2.548  0.0974  1.4066  0.8381
 8316SOL    HW236411   3.664   1.174   2.561  0.8665 -0.7443 -2.1785
 8317SOL     OW36412   0.281   3.724   9.133 -0.0163 -0.1287  0.6602
 8317SOL    HW136413   0.338   3.721   9.056 -0.5508  0.4057  0.2471
 8317SOL    HW236414   0.340   3.709   9.207 -0.4729 -2.7616  0.4920
 8318SOL     OW36415   1.908   4.188   9.316  0.3474 -0.3769  0.4852
 8318SOL    HW136416   1.869   4.112   9.359  0.0445 -0.3078  0.3325
 8318SOL    HW236417   1.905   4.169   9.223 -1.9950 -2.9964  1.1160
 8319SOL     OW36418   0.841   1.010   3.808 -0.7422 -0.0826 -0.1576
 8319SOL    HW136419   0.769   1.003   3.745  0.9188 -0.8922 -1.9643
 8319SOL    HW236420   0.790   1.021   3.888 -1.2828  1.8523 -0.7585
 8320SOL     OW36421   3.509   3.219  10.679  0.4765 -0.3994 -0.0530
 8320SOL    HW136422   3.449   3.294  10.681  0.1785 -0.6248 -0.4785
 8320SOL    HW236423   3.527   3.211  10.772 -0.7458 -0.5928  0.1637
 8321SOL     OW36424   2.080   1.906   7.720  0.3149  0.5642  0.2221
 8321SOL    HW136425   2.067   1.840   7.652 -1.6495  1.7247 -0.5434
 8321SOL    HW236426   2.087   1.984   7.665  0.0062  0.5825  0.2061
 8322SOL     OW36427   2.217   1.406   1.567 -0.4484 -0.1389  0.1399
 8322SOL    HW136428   2.146   1.366   1.616  0.2091  0.3871  1.5345
 8322SOL    HW236429   2.283   1.417   1.636 -0.6163 -1.1214  0.4487
 8323SOL     OW36430   0.903   3.184   0.968  0.1997 -0.3272 -0.4883
 8323SOL    HW136431   0.828   3.125   0.955  0.6619 -0.7299 -1.2869
 8323SOL    HW236432   0.976   3.124   0.981  0.0252 -0.2092  1.1572
 8324SOL     OW36433   4.582   3.605   2.627 -0.2101 -0.4690 -0.9559
 8324SOL    HW136434   4.593   3.645   2.541 -0.4130  0.1644 -0.6872
 8324SOL    HW236435   4.555   3.678   2.683  3.1087 -1.5073  2.0487
 8325SOL     OW36436   0.574   3.674   4.232 -0.0710  0.0251  0.2223
 8325SOL    HW136437   0.501   3.725   4.197 -0.5515 -0.7018  0.1741
 8325SOL    HW236438   0.603   3.614   4.164  2.1813  2.4788 -0.9928
 8326SOL     OW36439   2.065   3.452   8.851 -0.2423 -0.5496  0.3386
 8326SOL    HW136440   2.063   3.454   8.947  0.0021  0.8260  0.3125
 8326SOL    HW236441   2.051   3.358   8.835 -2.0755 -0.3295  0.5867
 8327SOL     OW36442   2.103   1.725   3.995 -0.0436 -0.2615 -0.1078
 8327SOL    HW136443   2.011   1.749   3.987 -0.0429 -0.1929  0.1048
 8327SOL    HW236444   2.091   1.648   4.051  1.2187 -0.6653 -0.3830
 8328SOL     OW36445   1.895   4.569   5.630  0.0464  0.1266 -0.7653
 8328SOL    HW136446   1.861   4.656   5.608 -0.9414 -0.6402 -2.2602
 8328SOL    HW236447   1.876   4.526   5.546  1.2058 -1.3036 -0.2939
 8329SOL     OW36448   1.354   3.746   7.009  0.3474 -0.5645  0.3399
 8329SOL    HW136449   1.323   3.671   6.959 -0.3843  0.1896 -0.3374
 8329SOL    HW236450   1.277   3.803   7.004  0.2475 -0.7719 -0.4513
 8330SOL     OW36451   2.096   0.128   8.895 -0.3218  0.1961 -0.0598
 8330SOL    HW136452   2.006   0.162   8.898 -0.1145  0.7021  0.2603
 8330SOL    HW236453   2.101   0.102   8.803  1.2078 -0.7190  0.2842
 8331SOL     OW36454   4.235   2.634   6.510 -0.7808 -0.5128 -0.5277
 8331SOL    HW136455   4.180   2.684   6.449 -0.3645  0.6561  0.0703
 8331SOL    HW236456   4.314   2.632   6.456  0.2202 -0.4289  0.9338
 8332SOL     OW36457   0.283   4.594   6.654  0.6011 -0.2392 -0.3522
 8332SOL    HW136458   0.219   4.661   6.676  0.7403  0.5724 -2.4386
 8332SOL    HW236459   0.345   4.603   6.727 -0.2981 -0.3223  0.4138
 8333SOL     OW36460   0.645   0.655  13.230 -0.0077 -0.2639  0.0891
 8333SOL    HW136461   0.626   0.572  13.274  0.0845 -0.4132 -0.1500
 8333SOL    HW236462   0.567   0.707  13.250  0.0898 -0.2925  0.5317
 8334SOL     OW36463   0.698   2.085   4.638  0.5100 -0.5230 -0.2507
 8334SOL    HW136464   0.632   2.018   4.619  0.6294 -1.1108  1.4109
 8334SOL    HW236465   0.666   2.104   4.726 -0.5255 -1.5702 -0.4047
 8335SOL     OW36466   1.674   3.339   2.080 -0.2417  0.5059 -0.0143
 8335SOL    HW136467   1.591   3.293   2.072 -0.0669  0.3893 -1.2837
 8335SOL    HW236468   1.745   3.276   2.093  0.7244  1.5724 -0.0350
 8336SOL     OW36469   0.294   0.700   4.345  0.4660  0.0868 -0.0681
 8336SOL    HW136470   0.349   0.623   4.334  0.2429  0.3639 -3.0035
 8336SOL    HW236471   0.219   0.654   4.307  0.1464  0.3589  0.2245
 8337SOL     OW36472   1.109   1.275   0.031 -0.3057 -0.1743 -0.0082
 8337SOL    HW136473   1.118   1.319   0.115 -1.6101 -0.1411  0.1185
 8337SOL    HW236474   1.025   1.231   0.045 -1.2155  1.3440 -0.7637
 8338SOL     OW36475   3.144   2.610   6.609  0.0036  0.0606  0.0169
 8338SOL    HW136476   3.116   2.670   6.677  0.5482  2.1495 -1.6014
 8338SOL    HW236477   3.155   2.678   6.542 -2.0344 -1.0879 -1.4776
 8339SOL     OW36478   4.379   3.501   7.448  0.3781 -0.0491 -0.2392
 8339SOL    HW136479   4.380   3.407   7.467  0.8808 -0.2503 -1.2486
 8339SOL    HW236480   4.470   3.516   7.423  0.5809  1.1881  1.2636
 8340SOL     OW36481   3.898   4.056   8.770 -0.4406  0.1949  0.0305
 8340SOL    HW136482   3.963   4.007   8.820 -0.3385 -0.5103 -0.7865
 8340SOL    HW236483   3.872   4.129   8.826 -1.1939 -0.1896  0.1736
 8341SOL     OW36484   2.543   1.770   4.860  0.1059  0.3407 -0.1124
 8341SOL    HW136485   2.474   1.703   4.859  0.1148  0.3568 -1.9047
 8341SOL    HW236486   2.503   1.847   4.900  2.2375  1.0940  0.5642
 8342SOL     OW36487   3.546   3.236   3.184 -0.1751 -0.5460  0.2659
 8342SOL    HW136488   3.521   3.225   3.092  0.6212 -0.9427  0.0906
 8342SOL    HW236489   3.621   3.296   3.179 -0.6805 -0.0609 -1.6354
 8343SOL     OW36490   3.863   1.961  11.409 -0.4345  0.0166 -0.2280
 8343SOL    HW136491   3.812   2.003  11.478  0.0494  2.2912 -1.2501
 8343SOL    HW236492   3.798   1.915  11.355 -1.1415 -3.3650  3.5157
 8344SOL     OW36493   0.931   4.564  15.261 -0.5544 -0.2278  0.0013
 8344SOL    HW136494   0.881   4.549  15.341  0.4241 -0.8943  0.4937
 8344SOL    HW236495   0.864   4.553  15.194  0.2378  2.7159 -1.2898
 8345SOL     OW36496   1.099   1.239   4.692 -0.3007  0.3406  0.0941
 8345SOL    HW136497   1.013   1.271   4.718  0.0624  0.3677  1.2369
 8345SOL    HW236498   1.156   1.278   4.759 -2.8023  0.5195  2.0948
 8346SOL     OW36499   4.079   3.531  11.630  0.0643  0.2226 -0.6617
 8346SOL    HW136500   4.001   3.527  11.576 -1.4085 -0.9127  1.5318
 8346SOL    HW236501   4.105   3.440  11.615  2.3317  0.6419  0.6975
 8347SOL     OW36502   3.557   1.641   6.816  0.0650 -0.3319  0.4763
 8347SOL    HW136503   3.616   1.680   6.751 -1.0373  0.7829  0.1338
 8347SOL    HW236504   3.626   1.634   6.881 -1.9009  1.2109  2.7574
 8348SOL     OW36505   1.667   1.075   8.312 -0.2953 -0.0782  1.3306
 8348SOL    HW136506   1.606   1.001   8.315  0.4763 -0.7642 -0.6215
 8348SOL    HW236507   1.672   1.100   8.405  0.8178  1.5597  0.8219
 8349SOL     OW36508   0.941   4.623   7.955 -0.4338  0.0222  0.0043
 8349SOL    HW136509   0.947   4.623   8.050 -2.5376  2.2409  0.1341
 8349SOL    HW236510   0.993   4.700   7.934  0.5062 -0.4058  0.7870
 8350SOL     OW36511   3.337   1.868   3.928  0.1124  0.0441 -0.1038
 8350SOL    HW136512   3.395   1.884   4.002 -1.4335  1.7076  0.7525
 8350SOL    HW236513   3.330   1.773   3.917 -0.0947  0.1367 -0.7625
 8351SOL     OW36514   4.237   1.859  14.374  0.4558 -0.4124 -0.2801
 8351SOL    HW136515   4.331   1.854  14.358  0.9666 -0.3618  2.6321
 8351SOL    HW236516   4.227   1.952  14.353  0.0717  0.1000  2.1444
 8352SOL     OW36517   2.476   1.012   5.779 -0.5388  0.1878 -0.8276
 8352SOL    HW136518   2.401   1.044   5.729  3.1488  3.0495 -4.5008
 8352SOL    HW236519   2.549   1.006   5.717 -1.1336 -0.7265 -1.4353
 8353SOL     OW36520   4.669   3.671  16.846  1.1564  0.1582 -0.0911
 8353SOL    HW136521   0.040   3.661  16.832  1.6554  2.1398  2.0180
 8353SOL    HW236522   4.678   3.720  16.927  0.5802 -0.8016  0.5522
 8354SOL     OW36523   0.256   2.837   8.620 -0.0382  0.3231 -0.4538
 8354SOL    HW136524   0.254   2.811   8.712  2.8344  0.1046 -0.4516
 8354SOL    HW236525   0.331   2.895   8.631  0.3766  0.4932 -3.9920
 8355SOL     OW36526   1.062   0.727   3.567  0.2541 -0.3452  0.0397
 8355SOL    HW136527   1.053   0.697   3.477 -2.7113 -0.8355  0.4738
 8355SOL    HW236528   1.111   0.659   3.613  0.8187 -0.6503 -1.0216
 8356SOL     OW36529   1.586   0.659   2.118  0.1296  0.3068 -0.5003
 8356SOL    HW136530   1.612   0.724   2.053  1.0485 -1.1670 -1.6191
 8356SOL    HW236531   1.492   0.665   2.097 -0.2318 -2.3597  0.2911
 8357SOL     OW36532   1.748   3.449  11.199 -0.3894  1.0331 -0.0455
 8357SOL    HW136533   1.804   3.409  11.266 -1.7633 -1.6813 -0.5226
 8357SOL    HW236534   1.664   3.463  11.243 -0.3450 -0.4281  0.4985
 8358SOL     OW36535   1.854   2.171  15.819 -0.2038 -0.3504 -0.1246
 8358SOL    HW136536   1.837   2.219  15.738 -1.8110 -2.7644 -1.2157
 8358SOL    HW236537   1.889   2.239  15.876  0.0447  2.0743 -3.1915
 8359SOL     OW36538   1.391   2.498   1.869  0.5514 -0.2830 -0.0597
 8359SOL    HW136539   1.407   2.592   1.877  1.8113 -0.5994  1.3044
 8359SOL    HW236540   1.404   2.478   1.776 -0.2170  0.6731 -0.3598
 8360SOL     OW36541   0.235   1.313   7.405  0.1301 -0.1172 -0.4103
 8360SOL    HW136542   0.206   1.404   7.397 -0.3769 -0.0434  2.1994
 8360SOL    HW236543   0.232   1.281   7.315 -1.3959  0.7613 -0.6843
 8361SOL     OW36544   1.601   2.152   6.379  0.1598  0.0922  0.0686
 8361SOL    HW136545   1.507   2.155   6.394  0.3021 -1.4570  1.3043
 8361SOL    HW236546   1.604   2.102   6.298  1.1612  0.6623 -0.2564
 8362SOL     OW36547   4.590   3.962   4.566  0.3744  0.7572 -0.5286
 8362SOL    HW136548   4.526   3.891   4.568  0.8678  0.3512  1.6708
 8362SOL    HW236549   4.534   4.037   4.584  0.5769  0.9678 -0.7885
 8363SOL     OW36550   2.037   3.477   9.120  0.0779 -0.3090  0.6962
 8363SOL    HW136551   1.984   3.407   9.158 -0.9678 -0.5304 -1.1621
 8363SOL    HW236552   1.978   3.546   9.149 -1.7057 -1.2777 -0.6494
 8364SOL     OW36553   1.960   0.055   6.469 -0.5935 -0.0539 -0.3170
 8364SOL    HW136554   1.953   0.020   6.558  0.9198 -1.8562 -0.9050
 8364SOL    HW236555   1.974   4.702   6.412 -0.9554 -0.5993  0.3165
 8365SOL     OW36556   2.886   3.348  13.156  0.3800 -0.3297 -0.1146
 8365SOL    HW136557   2.976   3.343  13.188 -0.3577 -0.1221  1.9799
 8365SOL    HW236558   2.882   3.424  13.098  0.8903 -0.2238 -0.0088
 8366SOL     OW36559   0.555   1.927   2.030  0.1685 -0.2004  0.2225
 8366SOL    HW136560   0.642   1.967   2.029 -1.2356  2.8521 -0.9107
 8366SOL    HW236561   0.575   1.835   2.015 -0.3026 -0.1607 -0.6326
 8367SOL     OW36562   1.982   3.993  16.530 -0.2297 -0.5296 -0.0910
 8367SOL    HW136563   1.973   3.960  16.619  1.8255 -0.7847  0.0096
 8367SOL    HW236564   1.919   3.938  16.482 -0.7473  0.3447 -0.4282
 8368SOL     OW36565   3.608   3.091  16.231 -0.0071  0.4016 -0.0373
 8368SOL    HW136566   3.697   3.098  16.266 -0.2013 -4.5226  1.5625
 8368SOL    HW236567   3.569   3.169  16.270  2.2805  0.1771  2.6669
 8369SOL     OW36568   0.131   0.389   0.389 -1.1924  0.2509  0.3058
 8369SOL    HW136569   0.093   0.474   0.368 -0.7200  0.5087  0.4968
 8369SOL    HW236570   0.082   0.327   0.335 -0.0248 -0.2259 -0.2263
 8370SOL     OW36571   0.899   2.459   9.131  0.1890 -0.1914 -0.4607
 8370SOL    HW136572   0.952   2.524   9.176  0.7503 -0.3750 -0.8693
 8370SOL    HW236573   0.904   2.384   9.191 -0.7611  0.1379  0.0295
 8371SOL     OW36574   2.433   3.499   6.754  0.7742 -0.5991  0.2380
 8371SOL    HW136575   2.471   3.519   6.668 -0.8004 -1.0137 -0.5748
 8371SOL    HW236576   2.445   3.404   6.753 -0.5991 -0.7587 -1.7828
 8372SOL     OW36577   1.209   2.202   4.520  0.1732  0.6164 -0.2885
 8372SOL    HW136578   1.181   2.258   4.448 -0.4000 -1.3809 -1.6256
 8372SOL    HW236579   1.298   2.235   4.531  1.1007 -2.4693  1.5497
 8373SOL     OW36580   4.671   4.192  15.239 -0.1562  0.5755  0.2579
 8373SOL    HW136581   0.032   4.231  15.263 -0.2655  1.1042 -0.2072
 8373SOL    HW236582   4.684   4.185  15.145  0.3498 -0.3795  0.4034
 8374SOL     OW36583   1.544   0.037   2.334 -0.6997 -0.1379  0.1263
 8374SOL    HW136584   1.460   0.052   2.378 -0.2451  1.9973  0.2677
 8374SOL    HW236585   1.571   4.676   2.370  0.1004  0.1021  0.0931
 8375SOL     OW36586   2.428   2.725   9.208 -0.1713 -0.3792  0.2258
 8375SOL    HW136587   2.376   2.805   9.202 -0.3519 -0.5879 -0.9160
 8375SOL    HW236588   2.476   2.707   9.127  2.5646  0.5318  1.6512
 8376SOL     OW36589   1.298   1.070   7.858 -0.1637  0.3527  0.1423
 8376SOL    HW136590   1.308   1.117   7.941 -0.6303 -3.3756  2.3262
 8376SOL    HW236591   1.277   1.141   7.796 -0.7091  0.2392  0.1947
 8377SOL     OW36592   3.040   1.758   7.416  0.5132  1.3224  0.4265
 8377SOL    HW136593   3.060   1.833   7.472  0.4833  1.1592  0.6574
 8377SOL    HW236594   2.993   1.799   7.344 -0.0015 -0.3621 -0.2112
 8378SOL     OW36595   3.924   2.514   2.898  0.0747 -0.5103  0.3155
 8378SOL    HW136596   4.007   2.473   2.876  1.1259  0.1849  2.9056
 8378SOL    HW236597   3.862   2.445   2.874 -1.0756  0.3582  0.7698
 8379SOL     OW36598   4.125   4.656   3.188 -0.2423 -0.3856 -0.4934
 8379SOL    HW136599   4.110   4.569   3.224 -1.0618  0.7731  1.9666
 8379SOL    HW236600   4.152   4.640   3.098  2.1587  0.0821  0.1654
 8380SOL     OW36601   2.986   3.529   2.787 -0.4237 -0.0423 -0.2334
 8380SOL    HW136602   2.952   3.440   2.796  0.8379 -0.7542 -2.7431
 8380SOL    HW236603   3.065   3.503   2.740  1.1000  2.0849  1.1272
 8381SOL     OW36604   1.670   3.028   4.579  0.1422 -0.0071 -0.1989
 8381SOL    HW136605   1.748   3.063   4.621  0.2929 -1.3565  0.6563
 8381SOL    HW236606   1.709   2.966   4.517 -1.8095  0.7279 -2.1868
 8382SOL     OW36607   1.306   3.198  13.589 -0.4106  0.2043  1.0741
 8382SOL    HW136608   1.260   3.167  13.511  1.6531  0.9761 -0.4504
 8382SOL    HW236609   1.259   3.148  13.656  0.7064  0.8451  2.3359
 8383SOL     OW36610   1.510   4.296   6.227 -0.6211  0.0138  0.2742
 8383SOL    HW136611   1.525   4.348   6.306 -1.1888  2.6883 -1.3409
 8383SOL    HW236612   1.597   4.288   6.189 -1.0960 -2.3342 -0.3022
 8384SOL     OW36613   3.711   2.925   7.928 -0.7109  0.0257  0.1569
 8384SOL    HW136614   3.670   2.969   7.853 -0.2267  3.1613  1.7035
 8384SOL    HW236615   3.646   2.950   7.994  0.0271 -1.8744  1.6070
 8385SOL     OW36616   3.429   2.039   7.211 -0.1743 -0.1508 -0.2021
 8385SOL    HW136617   3.432   2.131   7.185 -0.8108 -0.3907 -1.1333
 8385SOL    HW236618   3.370   2.001   7.146  0.2867 -0.1992 -0.5919
 8386SOL     OW36619   4.038   2.084   3.819  0.2409 -0.1907 -0.4655
 8386SOL    HW136620   4.129   2.103   3.843  1.1556 -2.5441 -2.0505
 8386SOL    HW236621   4.049   2.038   3.736  0.9883  2.0755 -1.6230
 8387SOL     OW36622   3.078   1.230   5.849 -0.5063  0.2419 -0.1033
 8387SOL    HW136623   3.041   1.257   5.933  0.9443 -1.0779  0.9602
 8387SOL    HW236624   3.018   1.156   5.837  0.7306 -0.9567  1.1333
 8388SOL     OW36625   3.311   4.076   9.090 -0.5226 -0.0778 -0.2727
 8388SOL    HW136626   3.388   4.089   9.145 -1.1049 -1.0018  0.7642
 8388SOL    HW236627   3.327   4.117   9.005 -1.3430 -0.7940 -0.7754
 8389SOL     OW36628   1.238   2.270  17.639  0.5343 -0.2947 -0.0428
 8389SOL    HW136629   1.253   2.192  17.692  0.3552 -0.5891 -0.4285
 8389SOL    HW236630   1.250   2.235  17.551  0.3647 -0.6426  0.0757
 8390SOL     OW36631   3.432   1.796   0.528  0.4914  0.3463  0.4022
 8390SOL    HW136632   3.445   1.807   0.622  0.9460 -1.5844  0.5614
 8390SOL    HW236633   3.348   1.749   0.528  0.3588  0.5801 -0.8230
 8391SOL     OW36634   3.357   2.338   2.346  0.2955 -0.1062  0.2423
 8391SOL    HW136635   3.352   2.388   2.427 -0.0481 -0.3032  0.3403
 8391SOL    HW236636   3.451   2.319   2.347  0.1227 -0.8838  0.7483
 8392SOL     OW36637   1.378   2.026   7.859 -0.1466 -0.0595 -0.3733
 8392SOL    HW136638   1.395   2.077   7.780 -0.8759  0.7769  0.0164
 8392SOL    HW236639   1.425   2.073   7.928 -3.4033 -1.2726  2.6728
 8393SOL     OW36640   3.837   1.363  14.172 -0.0487  0.7139  0.8153
 8393SOL    HW136641   3.773   1.315  14.119  1.4622  0.8216 -1.1047
 8393SOL    HW236642   3.797   1.361  14.259 -1.8266 -1.7239 -0.0673
 8394SOL     OW36643   1.625   0.055   8.109 -0.7334 -0.3997 -0.1900
 8394SOL    HW136644   1.590   0.091   8.191  1.0150 -1.1876  0.9049
 8394SOL    HW236645   1.634   0.136   8.059 -0.4264 -3.2688 -4.7251
 8395SOL     OW36646   2.911   1.519   2.692  0.4048  0.1493 -0.7485
 8395SOL    HW136647   2.836   1.460   2.680 -1.5635  2.1550  1.7366
 8395SOL    HW236648   2.867   1.602   2.674 -0.6511  0.1527  1.7684
 8396SOL     OW36649   3.377   0.552   3.775  0.0852  0.2745  0.5756
 8396SOL    HW136650   3.403   0.625   3.719  1.7342  0.1587  1.1918
 8396SOL    HW236651   3.328   0.599   3.842  2.1650  2.2960  0.6862
 8397SOL     OW36652   1.246   1.496  11.583 -0.1435 -0.5027  0.0154
 8397SOL    HW136653   1.175   1.432  11.583 -1.5436  1.0581 -0.7969
 8397SOL    HW236654   1.318   1.437  11.608 -0.1694 -0.2477  0.7139
 8398SOL     OW36655   1.721   2.414   1.872  0.5046  0.2566  0.2527
 8398SOL    HW136656   1.692   2.492   1.919 -0.6144 -0.7625  1.2471
 8398SOL    HW236657   1.813   2.428   1.849  1.3715 -1.4682  2.6701
 8399SOL     OW36658   1.430   1.159   6.217  0.7321  0.7954 -0.0703
 8399SOL    HW136659   1.407   1.085   6.161  0.1044 -0.6358  2.0632
 8399SOL    HW236660   1.371   1.229   6.190 -0.9864  0.1605  1.9994
 8400SOL     OW36661   0.812   4.393   3.060  0.6381 -0.0337 -0.1456
 8400SOL    HW136662   0.768   4.355   2.984 -0.7585  0.9453  0.1837
 8400SOL    HW236663   0.750   4.375   3.131  2.3529 -2.4337  0.7314
 8401SOL     OW36664   0.662   3.530   7.882 -0.1114 -0.0114 -0.6056
 8401SOL    HW136665   0.568   3.509   7.885 -0.4901  1.5569 -1.3858
 8401SOL    HW236666   0.713   3.453   7.908 -1.2199 -0.3404  0.6499
 8402SOL     OW36667   0.576   0.615   8.354  0.4410  0.1109  0.1181
 8402SOL    HW136668   0.615   0.694   8.390 -1.3188  0.9702  0.1214
 8402SOL    HW236669   0.483   0.628   8.370 -0.0723 -1.0765 -1.8055
 8403SOL     OW36670   3.941   3.992   5.022  0.2530 -0.0699 -0.4227
 8403SOL    HW136671   3.977   3.934   5.089  1.2706  0.6132 -0.3748
 8403SOL    HW236672   3.943   4.069   5.079 -0.0978 -0.2417 -0.1813
 8404SOL     OW36673   4.203   0.676   2.768  0.8347  0.2187  0.4752
 8404SOL    HW136674   4.169   0.637   2.687  0.6730  2.1290 -0.3740
 8404SOL    HW236675   4.295   0.649   2.768  0.6639 -0.3514 -2.5988
 8405SOL     OW36676   4.468   2.426   2.039  0.5152 -0.6685 -0.9298
 8405SOL    HW136677   4.438   2.451   1.952 -0.2508 -1.7679 -0.9916
 8405SOL    HW236678   4.550   2.473   2.053  0.2197 -0.5404  0.4138
 8406SOL     OW36679   0.478   1.384  13.210 -0.3789 -0.1596 -0.2117
 8406SOL    HW136680   0.386   1.367  13.230 -0.4117 -0.7290 -0.8174
 8406SOL    HW236681   0.516   1.298  13.228 -1.5885 -0.9319 -1.3487
 8407SOL     OW36682   0.147   4.587   5.050  0.4348  0.2571  0.4533
 8407SOL    HW136683   0.112   4.667   5.010 -2.1959 -1.9659 -1.7350
 8407SOL    HW236684   0.074   4.562   5.107 -0.8335  1.8671 -0.4810
 8408SOL     OW36685   0.681   4.326  13.160 -0.1535  0.3739 -0.3739
 8408SOL    HW136686   0.669   4.344  13.066  2.0084  1.7572 -0.3707
 8408SOL    HW236687   0.596   4.289  13.185 -1.3974  1.5023 -2.9305
 8409SOL     OW36688   1.694   3.828  11.306 -0.8127 -0.1494  0.4980
 8409SOL    HW136689   1.673   3.920  11.287  2.7026  0.1127 -2.3187
 8409SOL    HW236690   1.659   3.831  11.395  1.7079  1.5375  1.4436
 8410SOL     OW36691   2.072   0.918   6.005 -0.6944  0.0782 -0.2492
 8410SOL    HW136692   2.086   0.836   6.051 -2.2642  0.9678  1.8220
 8410SOL    HW236693   2.163   0.927   5.976  0.1565 -0.2585  2.4015
 8411SOL     OW36694   3.588   4.137  12.424  0.6167 -0.0361  0.0796
 8411SOL    HW136695   3.554   4.212  12.474 -1.6469 -0.2394 -1.1697
 8411SOL    HW236696   3.607   4.069  12.488  0.6891 -1.6664 -1.6895
 8412SOL     OW36697   3.396   0.816   7.912  0.1773  0.3944  0.0712
 8412SOL    HW136698   3.369   0.805   8.003  0.0537  0.7654  0.0809
 8412SOL    HW236699   3.492   0.821   7.910  0.2455 -0.8257  0.4728
 8413SOL     OW36700   0.367   0.260  11.431 -0.3068 -0.0251 -0.4564
 8413SOL    HW136701   0.422   0.182  11.445  1.8041  1.6260  0.4324
 8413SOL    HW236702   0.278   0.225  11.427 -0.6176  0.4062  2.5970
 8414SOL     OW36703   1.962   3.624   4.965 -0.1360  0.3773 -0.1598
 8414SOL    HW136704   2.042   3.589   4.925 -0.8200  0.3074 -1.4830
 8414SOL    HW236705   1.893   3.583   4.913  2.3679 -4.6274  0.4437
 8415SOL     OW36706   0.065   2.386   5.981  0.3840 -0.6848 -0.2564
 8415SOL    HW136707   0.112   2.469   5.992  1.5476 -1.3271 -0.4241
 8415SOL    HW236708   4.702   2.425   5.968  0.7207 -0.4444 -1.7393
 8416SOL     OW36709   2.278   1.412   8.003  0.1233  0.3504 -0.1668
 8416SOL    HW136710   2.232   1.369   7.931 -0.3772 -1.6418  1.3301
 8416SOL    HW236711   2.215   1.406   8.075  0.6722 -1.1512  0.1961
 8417SOL     OW36712   1.631   1.597  11.683 -0.1450  0.3637  0.2123
 8417SOL    HW136713   1.682   1.678  11.684  2.5087 -1.3152 -1.7450
 8417SOL    HW236714   1.551   1.626  11.638 -0.8042  1.0140  1.7736
 8418SOL     OW36715   0.014   3.932   1.417 -0.3907 -0.0816 -0.0378
 8418SOL    HW136716   4.671   3.926   1.347 -1.2847  1.4373  0.6699
 8418SOL    HW236717   0.071   3.856   1.406 -0.3982 -0.1663  0.5066
 8419SOL     OW36718   2.324   0.560  15.471  0.1045 -0.6400 -0.4294
 8419SOL    HW136719   2.338   0.470  15.443 -1.2446 -1.1857  0.6180
 8419SOL    HW236720   2.312   0.600  15.386 -0.7899 -2.3420 -1.0909
 8420SOL     OW36721   4.609   2.954   5.426 -0.1184  0.7417 -0.1709
 8420SOL    HW136722   4.591   2.971   5.333  1.4383 -1.1014 -0.8165
 8420SOL    HW236723   4.642   3.034   5.466 -1.2715  1.0323  0.2121
 8421SOL     OW36724   2.001   3.763   5.622  0.1540 -0.2376  0.2128
 8421SOL    HW136725   2.013   3.816   5.543 -1.1629 -0.5255 -0.1785
 8421SOL    HW236726   1.908   3.740   5.622  0.6643 -2.2755 -0.7338
 8422SOL     OW36727   4.380   1.259   5.091  0.0646 -0.3877  0.1307
 8422SOL    HW136728   4.447   1.207   5.046 -2.0138  0.6811 -4.2061
 8422SOL    HW236729   4.356   1.312   5.015  0.1678  0.2637  0.5602
 8423SOL     OW36730   4.647   3.554   1.333 -0.4322 -0.4549  0.2671
 8423SOL    HW136731   4.697   3.603   1.268 -0.0370 -0.3974  0.6176
 8423SOL    HW236732   4.560   3.587   1.308 -0.9337 -1.8046  0.2362
 8424SOL     OW36733   2.198   3.369   6.361 -0.4118 -0.1265 -0.2695
 8424SOL    HW136734   2.290   3.349   6.377 -1.0147 -1.6673  1.1512
 8424SOL    HW236735   2.205   3.375   6.265 -3.3461  0.4436 -0.4257
 8425SOL     OW36736   4.591   4.584  13.056 -0.6676  0.2723  0.7322
 8425SOL    HW136737   4.608   4.563  13.148 -0.2307  1.2431  0.8644
 8425SOL    HW236738   4.498   4.558  13.051 -0.0626 -1.6442 -0.6929
 8426SOL     OW36739   2.746   2.182  13.192  0.0039 -0.1311 -0.1113
 8426SOL    HW136740   2.754   2.138  13.107  0.1679  0.7071 -0.5367
 8426SOL    HW236741   2.819   2.245  13.189 -0.9237  1.0414  1.9777
 8427SOL     OW36742   3.852   0.020   4.749 -0.8832 -0.0160  0.0550
 8427SOL    HW136743   3.863   0.090   4.685 -0.1515  1.3588  1.6862
 8427SOL    HW236744   3.783   0.047   4.810 -1.1787 -0.7662  0.0527
 8428SOL     OW36745   4.529   1.179  13.032 -0.1729  0.1070  0.1915
 8428SOL    HW136746   4.518   1.221  12.947 -1.3309 -0.0450  0.2714
 8428SOL    HW236747   4.594   1.233  13.076  0.5335 -0.4628 -0.1521
 8429SOL     OW36748   0.223   1.021   7.161 -0.0823 -0.4582  0.4406
 8429SOL    HW136749   0.184   0.937   7.137 -3.2297  1.9094 -2.8018
 8429SOL    HW236750   0.268   1.003   7.243  1.5759 -1.8858 -0.7766
 8430SOL     OW36751   3.520   1.135   8.361 -0.4318  0.0893  0.0741
 8430SOL    HW136752   3.463   1.076   8.410 -2.0316  1.6431  0.0982
 8430SOL    HW236753   3.458   1.190   8.314 -2.0216 -0.8031  1.1469
 8431SOL     OW36754   1.271   0.089   5.037  0.2640  0.3927  0.0418
 8431SOL    HW136755   1.179   0.113   5.046  0.2281 -0.5197  2.0035
 8431SOL    HW236756   1.300   0.124   4.953  0.0938  0.3515 -0.0329
 8432SOL     OW36757   3.037   3.135  10.877 -0.2408  0.1988  0.2362
 8432SOL    HW136758   3.007   3.107  10.964  1.6554 -2.4985 -0.0094
 8432SOL    HW236759   3.015   3.229  10.877  1.9755  0.7163  1.0093
 8433SOL     OW36760   2.594   1.585   1.498 -0.0721  0.7793 -0.0417
 8433SOL    HW136761   2.665   1.633   1.540 -1.8508  2.2647  1.2381
 8433SOL    HW236762   2.607   1.616   1.408  1.6743  0.8586  0.2389
 8434SOL     OW36763   4.316   1.520  11.362  0.3714  0.1100 -0.1013
 8434SOL    HW136764   4.405   1.517  11.326  0.7273 -2.8951  1.0884
 8434SOL    HW236765   4.278   1.452  11.307  0.0088 -0.4786  0.8864
 8435SOL     OW36766   4.443   4.480   3.132  0.6111 -0.0327  0.1106
 8435SOL    HW136767   4.406   4.530   3.059 -1.1403 -0.7514  0.5098
 8435SOL    HW236768   4.369   4.422   3.151  0.7322 -0.8581 -1.9382
 8436SOL     OW36769   4.365   3.024  13.829 -0.5436  0.0975 -0.2706
 8436SOL    HW136770   4.408   3.103  13.794  2.5260 -1.6564 -0.4376
 8436SOL    HW236771   4.358   2.968  13.752 -0.9485  1.1559 -1.0113
 8437SOL     OW36772   4.115   1.625  17.051  0.3177  0.1037  0.4449
 8437SOL    HW136773   4.115   1.698  17.113  1.1476  1.0515 -0.6586
 8437SOL    HW236774   4.021   1.633  17.037  0.7696 -1.3418 -3.5107
 8438SOL     OW36775   1.741   0.906  11.992  0.3564 -0.3490 -0.3494
 8438SOL    HW136776   1.829   0.943  11.989 -0.7886  2.3001 -0.8718
 8438SOL    HW236777   1.692   0.988  11.997  0.2923 -0.3296 -1.2703
 8439SOL     OW36778   1.516   3.796  16.097  0.0863  0.1502  0.0634
 8439SOL    HW136779   1.421   3.788  16.084  0.2332 -0.2847 -0.7443
 8439SOL    HW236780   1.524   3.722  16.157  2.1257  0.9088  0.7086
 8440SOL     OW36781   1.395   0.708   2.961 -0.6467 -0.1436  0.3657
 8440SOL    HW136782   1.307   0.707   2.923 -0.2742 -1.3726 -0.4778
 8440SOL    HW236783   1.385   0.651   3.037 -0.7342 -0.7250 -0.0840
 8441SOL     OW36784   2.430   1.625  14.036 -0.4687 -0.4591 -0.0579
 8441SOL    HW136785   2.380   1.632  14.118  0.2531  1.4044  0.2187
 8441SOL    HW236786   2.491   1.552  14.049  1.1973  0.5525 -2.1859
 8442SOL     OW36787   0.436   2.432  17.515 -0.2977 -0.7580 -0.4277
 8442SOL    HW136788   0.425   2.432  17.610  1.0143 -0.8348 -0.2665
 8442SOL    HW236789   0.471   2.521  17.519 -1.2360 -0.3778 -0.8807
 8443SOL     OW36790   0.821   0.255   3.892  0.3581  0.0836 -0.1902
 8443SOL    HW136791   0.870   0.206   3.958  1.6380  0.5436 -0.7957
 8443SOL    HW236792   0.772   0.182   3.853 -0.9723  0.7939  0.1521
 8444SOL     OW36793   2.344   3.634   0.868 -1.0273 -0.2083 -0.5836
 8444SOL    HW136794   2.268   3.611   0.814 -0.5466  1.4879 -1.9839
 8444SOL    HW236795   2.318   3.692   0.939  2.4164  0.8399 -0.1925
 8445SOL     OW36796   3.463   2.838   8.312  0.2134  0.2065  0.4687
 8445SOL    HW136797   3.380   2.821   8.267  0.6290 -0.1344 -0.1627
 8445SOL    HW236798   3.503   2.911   8.266  1.7031  0.3685  2.0317
 8446SOL     OW36799   4.152   4.195   1.213  0.2092 -0.5589 -0.0021
 8446SOL    HW136800   4.234   4.244   1.204  0.2681 -0.5281  0.7546
 8446SOL    HW236801   4.094   4.233   1.147 -1.9119 -0.2250  2.0910
 8447SOL     OW36802   2.982   4.596   4.962  0.1822  0.4718  0.0532
 8447SOL    HW136803   3.020   4.665   5.017  1.3038  0.1920 -0.3679
 8447SOL    HW236804   3.048   4.582   4.894 -0.0427 -1.0116  0.1354
 8448SOL     OW36805   1.713   2.047   1.417  0.0927  0.1157 -0.0194
 8448SOL    HW136806   1.750   1.986   1.353 -1.8622 -2.1590  0.9810
 8448SOL    HW236807   1.630   2.077   1.380  0.0039  0.2018  0.2523
 8449SOL     OW36808   2.532   3.347   4.207  0.3897 -0.4141  0.9281
 8449SOL    HW136809   2.551   3.253   4.206  0.5860 -0.3719  0.6971
 8449SOL    HW236810   2.619   3.384   4.221 -0.0701  0.4231  1.5991
 8450SOL     OW36811   3.738   1.765   7.719 -0.3385 -0.0630 -0.2122
 8450SOL    HW136812   3.825   1.803   7.708 -1.0946  2.3368  1.8751
 8450SOL    HW236813   3.688   1.846   7.735 -0.5013  0.1932 -2.0224
 8451SOL     OW36814   3.171   3.312  13.237  0.1539 -0.3057  0.2068
 8451SOL    HW136815   3.121   3.309  13.318  0.4557 -1.8936  0.3292
 8451SOL    HW236816   3.221   3.392  13.247 -0.0781 -0.3305  1.5208
 8452SOL     OW36817   2.714   0.906   7.644 -0.3989  0.4356  0.3085
 8452SOL    HW136818   2.740   0.993   7.674 -0.9382  0.8297 -0.3826
 8452SOL    HW236819   2.655   0.933   7.574 -0.0213  1.6383  0.4555
 8453SOL     OW36820   1.025   0.457   7.919  0.0946 -0.1231  0.4367
 8453SOL    HW136821   0.955   0.506   7.961  0.7779  1.1815  0.0747
 8453SOL    HW236822   1.079   0.524   7.876  0.9433  0.0327  1.7184
 8454SOL     OW36823   3.049   0.088  15.330  0.1259  0.5893 -0.8486
 8454SOL    HW136824   3.130   0.128  15.364  1.4609 -2.2875 -0.6531
 8454SOL    HW236825   3.098   0.032  15.270 -1.1828  1.2217 -2.4918
 8455SOL     OW36826   1.908   0.705   3.443  0.7575  0.3370 -0.2003
 8455SOL    HW136827   1.926   0.615   3.471  3.6005  1.3513  1.2963
 8455SOL    HW236828   1.870   0.734   3.526  1.1499  1.2493 -0.3481
 8456SOL     OW36829   4.257   2.446  13.668  0.1756  0.0333  0.5500
 8456SOL    HW136830   4.220   2.385  13.605  0.4723 -2.3623  2.6840
 8456SOL    HW236831   4.349   2.432  13.643 -0.2148 -1.0035 -0.2970
 8457SOL     OW36832   2.615   4.179  16.316  0.1603 -0.4422 -0.0687
 8457SOL    HW136833   2.625   4.133  16.232 -2.8380  3.9816 -2.8550
 8457SOL    HW236834   2.644   4.119  16.384  1.0278 -0.6949 -0.6512
 8458SOL     OW36835   4.525   1.912   8.785 -0.0657  0.7766  0.2343
 8458SOL    HW136836   4.469   1.989   8.775  0.1294  0.8474 -0.3102
 8458SOL    HW236837   4.550   1.921   8.877 -0.3178  0.8298  0.2987
 8459SOL     OW36838   0.918   1.580   7.889 -0.0815  0.2310 -0.4767
 8459SOL    HW136839   0.903   1.489   7.862 -0.0407 -0.2796  1.1835
 8459SOL    HW236840   0.916   1.626   7.805  0.7282 -0.0876 -0.6730
 8460SOL     OW36841   4.055   4.488  15.703  0.1851 -0.3134 -0.3526
 8460SOL    HW136842   4.040   4.542  15.626  0.3429 -0.7522 -0.6839
 8460SOL    HW236843   4.038   4.551  15.774 -0.0299  0.6224 -1.2339
 8461SOL     OW36844   1.826   4.678   8.786  0.3235  0.0549  0.2437
 8461SOL    HW136845   1.869   4.676   8.701 -0.1790  0.6484 -0.0279
 8461SOL    HW236846   1.810   0.049   8.795 -0.2293 -0.1278  1.1611
 8462SOL     OW36847   2.785   0.287   9.592 -0.3587  0.0913 -0.1529
 8462SOL    HW136848   2.839   0.366   9.580  0.3064 -0.2045  0.9291
 8462SOL    HW236849   2.719   0.312   9.657 -0.6532  0.0428 -0.4295
 8463SOL     OW36850   1.260   2.037   0.099 -0.6528  0.3810  0.1180
 8463SOL    HW136851   1.250   2.024   0.193 -0.6364 -0.4804  0.0031
 8463SOL    HW236852   1.191   1.986   0.055 -1.9260  0.4263  2.0286
 8464SOL     OW36853   2.812   0.934  13.179  0.1738  0.0471  0.4418
 8464SOL    HW136854   2.831   0.985  13.258 -0.9412 -0.4830  1.0480
 8464SOL    HW236855   2.721   0.916  13.201  0.2003 -0.8622 -0.1905
 8465SOL     OW36856   3.451   3.869  13.292 -0.2133 -0.3737  0.0150
 8465SOL    HW136857   3.477   3.812  13.219  1.1565  1.1111 -0.6629
 8465SOL    HW236858   3.360   3.847  13.309 -0.3160  2.1327  2.7131
 8466SOL     OW36859   0.726   3.778   5.013  0.1291 -0.4691  0.1819
 8466SOL    HW136860   0.748   3.687   4.992  0.8351  0.1169 -1.6194
 8466SOL    HW236861   0.640   3.790   4.974 -0.3796 -0.9379  1.1588
 8467SOL     OW36862   4.185   3.919   4.532  0.0857  0.1770  0.0230
 8467SOL    HW136863   4.177   4.014   4.523 -0.5194  0.1443  0.2233
 8467SOL    HW236864   4.136   3.889   4.456  0.3099 -2.2181  0.8232
 8468SOL     OW36865   0.983   0.216   5.320  0.4380 -0.0753  0.1299
 8468SOL    HW136866   1.007   0.279   5.252 -0.2767  0.8797  0.7563
 8468SOL    HW236867   0.985   0.135   5.270  0.6286  0.3926 -0.6147
 8469SOL     OW36868   0.393   3.069   4.193  0.2459  0.1991 -0.2483
 8469SOL    HW136869   0.452   3.067   4.269  0.4102 -1.0739 -0.4028
 8469SOL    HW236870   0.423   2.995   4.140 -1.5825 -0.0159 -0.9561
 8470SOL     OW36871   0.494   4.564   2.633 -0.3766 -0.0675  0.0737
 8470SOL    HW136872   0.469   4.636   2.691  4.3051  3.6124 -2.4983
 8470SOL    HW236873   0.434   4.494   2.661 -0.3115 -0.0529  0.2457
 8471SOL     OW36874   2.293   2.977  11.883 -0.1226 -0.0729  0.3515
 8471SOL    HW136875   2.337   3.062  11.895  4.1767 -2.1446 -0.7790
 8471SOL    HW236876   2.210   2.997  11.927  0.2347  1.0909  0.5125
 8472SOL     OW36877   4.388   1.731  17.016 -0.9433  0.1032  0.5377
 8472SOL    HW136878   4.386   1.811  16.964  3.8209  0.9876  1.6406
 8472SOL    HW236879   4.305   1.691  16.993 -0.9538  0.6351 -0.3452
 8473SOL     OW36880   2.594   0.248   8.045  0.1990  0.0430  0.2348
 8473SOL    HW136881   2.579   0.279   8.134 -1.7500  0.2398 -0.1511
 8473SOL    HW236882   2.517   0.280   7.997 -0.2336  0.1694  1.0252
 8474SOL     OW36883   1.298   3.859   2.678 -0.1638  0.2302 -0.3309
 8474SOL    HW136884   1.361   3.814   2.621  1.6005  1.4058  0.6914
 8474SOL    HW236885   1.273   3.935   2.626  0.3535  0.6932  0.1065
 8475SOL     OW36886   3.413   2.366   8.584  0.6202  0.0317 -0.3305
 8475SOL    HW136887   3.427   2.359   8.490  0.1602 -1.3834 -0.2867
 8475SOL    HW236888   3.342   2.305   8.602 -1.1519  1.4136 -2.6148
 8476SOL     OW36889   1.914   3.592   1.025  0.0392  0.0613 -0.0673
 8476SOL    HW136890   1.971   3.544   1.085  1.2092  0.4321 -0.8915
 8476SOL    HW236891   1.855   3.640   1.084 -0.0557  0.9719 -0.8962
 8477SOL     OW36892   4.270   4.664   9.641  0.5554 -0.4391 -0.6643
 8477SOL    HW136893   4.254   4.631   9.729  1.6549  1.4520  0.2382
 8477SOL    HW236894   4.360   4.632   9.640  1.0156  0.8306 -0.7009
 8478SOL     OW36895   0.901   4.232  15.317  0.1693 -0.1125  0.1282
 8478SOL    HW136896   0.921   4.313  15.269 -0.0311  0.8036  1.5960
 8478SOL    HW236897   0.951   4.244  15.397 -0.5636 -0.4262  0.6342
 8479SOL     OW36898   0.237   3.747   6.918 -0.3202  0.0632 -0.6649
 8479SOL    HW136899   0.176   3.715   6.851 -0.5689 -0.3025 -0.2569
 8479SOL    HW236900   0.196   3.712   6.996 -2.8639 -1.2542 -2.6036
 8480SOL     OW36901   2.399   4.602   8.928  0.1814 -0.8164  0.2585
 8480SOL    HW136902   2.364   4.576   8.842 -1.6473  1.0417  0.4216
 8480SOL    HW236903   2.465   4.660   8.891 -1.2827 -0.6028 -2.0524
 8481SOL     OW36904   2.961   0.244   6.226  0.3248  0.3649 -0.1163
 8481SOL    HW136905   2.919   0.159   6.214  0.4134  0.1591  1.0630
 8481SOL    HW236906   3.045   0.239   6.271  0.2837 -1.0345 -0.2060
 8482SOL     OW36907   4.451   1.484   4.115  0.6373  0.2886  0.3290
 8482SOL    HW136908   4.374   1.426   4.116  0.7737  0.0913 -0.4896
 8482SOL    HW236909   4.509   1.428   4.064 -0.2501 -0.9734  0.7090
 8483SOL     OW36910   0.521   1.804   1.684  0.4414  0.0814 -0.0164
 8483SOL    HW136911   0.469   1.754   1.746 -0.6362  3.2514  1.6377
 8483SOL    HW236912   0.483   1.890   1.700  1.0018  0.6336 -1.5593
 8484SOL     OW36913   0.187   1.942   3.379  0.1057 -0.1807  0.1232
 8484SOL    HW136914   0.094   1.959   3.365  0.5868  2.1533 -0.2317
 8484SOL    HW236915   0.207   1.971   3.468 -1.5377  1.8536 -0.1709
 8485SOL     OW36916   4.368   2.534   2.315 -0.1698  0.3151  0.3250
 8485SOL    HW136917   4.374   2.448   2.275 -0.4668  1.1791 -1.5644
 8485SOL    HW236918   4.373   2.589   2.237  0.2968  0.9022  0.7712
 8486SOL     OW36919   4.709   1.403   7.147 -0.2801  0.1019 -0.6050
 8486SOL    HW136920   0.078   1.421   7.171  0.2525 -1.4327 -1.5568
 8486SOL    HW236921   4.707   1.426   7.054 -0.3521  1.0083 -0.3796
 8487SOL     OW36922   4.364   4.246   2.102  0.2858 -0.2867  0.0573
 8487SOL    HW136923   4.441   4.284   2.144  0.4320  0.1790 -0.6467
 8487SOL    HW236924   4.301   4.217   2.168 -0.7534 -0.7798 -1.1566
 8488SOL     OW36925   3.217   0.486  13.885 -0.2020 -0.2036  0.3633
 8488SOL    HW136926   3.298   0.455  13.925 -0.4195 -0.5410  0.5425
 8488SOL    HW236927   3.219   0.581  13.891  0.9324 -0.1377 -1.1632
 8489SOL     OW36928   0.283   3.724   7.886 -0.8198 -0.3714 -0.5354
 8489SOL    HW136929   0.368   3.760   7.912  0.8696 -3.2958 -2.0075
 8489SOL    HW236930   0.246   3.795   7.834 -2.0066 -1.1534 -0.7739
 8490SOL     OW36931   2.479   2.119   6.414  0.5630 -0.0118  0.5636
 8490SOL    HW136932   2.443   2.031   6.429  3.1183 -0.9940  0.9876
 8490SOL    HW236933   2.402   2.167   6.386  1.2091  2.0863  2.3696
 8491SOL     OW36934   4.139   2.774   5.469  0.1575 -0.1647  0.0644
 8491SOL    HW136935   4.208   2.815   5.520 -0.6959 -1.0744  1.9493
 8491SOL    HW236936   4.172   2.685   5.457 -0.6118 -0.6041  1.2815
 8492SOL     OW36937   2.358   3.226   3.682  0.2649 -0.0593 -0.1978
 8492SOL    HW136938   2.303   3.147   3.681  0.0325  0.1126 -1.2375
 8492SOL    HW236939   2.357   3.252   3.589  1.4974 -1.2751 -0.5543
 8493SOL     OW36940   2.958   1.985   7.739  0.5070  0.2101  0.0063
 8493SOL    HW136941   2.995   1.898   7.754 -1.7781 -0.6425  0.7557
 8493SOL    HW236942   2.885   1.989   7.801  0.5294  1.2403 -0.0475
 8494SOL     OW36943   2.173   2.562  10.803  0.0203 -0.4027  0.2625
 8494SOL    HW136944   2.219   2.548  10.886  0.4680 -0.1129  0.0593
 8494SOL    HW236945   2.199   2.652  10.783  1.7751 -0.3473  2.7045
 8495SOL     OW36946   2.313   1.787  13.563 -0.0175 -0.6216  0.7588
 8495SOL    HW136947   2.276   1.870  13.592 -2.4545 -0.3631 -3.0113
 8495SOL    HW236948   2.353   1.748  13.640 -1.6280 -2.7946  0.4781
 8496SOL     OW36949   0.568   4.472   4.934  0.0678 -0.0492  0.4105
 8496SOL    HW136950   0.575   4.539   4.866 -0.5836  0.0636  0.4583
 8496SOL    HW236951   0.540   4.528   5.006  0.1113  1.1676 -0.5138
 8497SOL     OW36952   2.709   1.776   4.639  0.7350  0.0705 -0.1105
 8497SOL    HW136953   2.789   1.765   4.691 -0.1807  1.1175  1.5258
 8497SOL    HW236954   2.646   1.786   4.710 -1.6405 -1.0694 -2.0848
 8498SOL     OW36955   2.432   0.556   5.940  0.2167  0.4699 -0.1152
 8498SOL    HW136956   2.394   0.503   6.010 -0.0452  2.2717  1.1191
 8498SOL    HW236957   2.460   0.630   5.994  1.2902  0.3964 -0.5619
 8499SOL     OW36958   0.002   3.342   4.755  0.3744 -0.1475  0.2972
 8499SOL    HW136959   4.656   3.397   4.718  0.6922  0.8231  1.1448
 8499SOL    HW236960   4.691   3.259   4.720 -0.1787  0.3555 -0.3601
 8500SOL     OW36961   3.361   2.766   8.850 -0.3657 -0.1251  0.0017
 8500SOL    HW136962   3.333   2.784   8.939 -0.5097 -1.3573  0.2126
 8500SOL    HW236963   3.396   2.678   8.863  1.3514  0.6842  0.7581
 8501SOL     OW36964   3.300   4.575   5.030  0.0434  0.4249 -0.4664
 8501SOL    HW136965   3.255   4.574   4.946  0.4495 -2.2700 -0.6495
 8501SOL    HW236966   3.282   4.662   5.065  0.9860  0.6666 -0.5745
 8502SOL     OW36967   0.335   4.702   2.803  0.2634 -0.2025 -0.6085
 8502SOL    HW136968   0.314   0.053   2.860  3.0225 -0.1531  0.3737
 8502SOL    HW236969   0.288   4.626   2.839 -0.1506  0.2925 -0.1030
 8503SOL     OW36970   1.210   2.111  16.360 -0.1546  0.2276 -0.1304
 8503SOL    HW136971   1.206   2.200  16.396  0.7306 -1.3833  3.8472
 8503SOL    HW236972   1.166   2.064  16.431  0.6411 -0.0206  0.1953
 8504SOL     OW36973   2.822   4.412   2.084 -0.6740 -0.5262  0.4605
 8504SOL    HW136974   2.737   4.456   2.077 -0.1881  0.3490  0.1769
 8504SOL    HW236975   2.792   4.326   2.054  0.1902 -0.5317 -0.3829
 8505SOL     OW36976   0.597   4.447   3.804 -0.4210 -0.1343  0.2183
 8505SOL    HW136977   0.617   4.402   3.886 -0.6723 -0.1335  0.2813
 8505SOL    HW236978   0.564   4.374   3.752  1.3490 -0.7164 -0.0941
 8506SOL     OW36979   1.849   3.103   6.297  0.1256  0.4485  0.4810
 8506SOL    HW136980   1.904   3.051   6.355  0.7294  0.4465 -0.1016
 8506SOL    HW236981   1.913   3.117   6.227  2.4211 -2.3252  2.0132
 8507SOL     OW36982   2.606   3.699   7.922 -0.0563  0.1499  0.0996
 8507SOL    HW136983   2.592   3.613   7.962 -2.7341  0.6739  0.2925
 8507SOL    HW236984   2.601   3.764   7.992 -0.4490 -0.8885  1.0341
 8508SOL     OW36985   1.100   1.121   3.996  1.1895  0.2391 -0.0511
 8508SOL    HW136986   1.063   1.035   4.013 -0.3797  0.9843  0.2422
 8508SOL    HW236987   1.024   1.178   4.006  0.3948 -0.5408 -1.7294
 8509SOL     OW36988   3.119   1.900   2.815  0.3281 -0.4002  0.1325
 8509SOL    HW136989   3.027   1.900   2.790  0.0031 -2.7708  1.3224
 8509SOL    HW236990   3.161   1.881   2.731  1.5090  2.2831  0.1117
 8510SOL     OW36991   0.204   1.006   0.949  0.0592  0.5686  0.0557
 8510SOL    HW136992   0.271   0.966   0.894 -0.8715 -1.9008  0.7402
 8510SOL    HW236993   0.204   0.943   1.021 -1.1952  2.4559  1.6959
 8511SOL     OW36994   0.345   0.958  12.589 -0.2283 -0.4927  0.1255
 8511SOL    HW136995   0.262   0.910  12.590 -0.4727 -0.0963 -1.0331
 8511SOL    HW236996   0.341   1.001  12.503 -0.5202  1.3790  1.0666
 8512SOL     OW36997   3.521   0.226   5.167 -0.0675 -0.3857 -0.4325
 8512SOL    HW136998   3.462   0.176   5.110 -0.0845  0.1212 -0.8650
 8512SOL    HW236999   3.597   0.170   5.183 -1.5660 -2.1540  0.5013
 8513SOL     OW37000   1.458   0.325   2.520  0.8169  0.1457 -0.0265
 8513SOL    HW137001   1.503   0.305   2.602 -1.6011  0.8261  1.4688
 8513SOL    HW237002   1.405   0.397   2.555 -0.1977  0.6961 -2.6261
 8514SOL     OW37003   0.786   2.840   7.658  0.2754  0.2722 -0.0531
 8514SOL    HW137004   0.770   2.929   7.626 -0.3146  0.7879  1.7026
 8514SOL    HW237005   0.696   2.813   7.676  0.9343 -2.2053 -0.5204
 8515SOL     OW37006   0.449   4.099   2.644 -0.1884 -0.0507  0.2548
 8515SOL    HW137007   0.386   4.168   2.625 -0.7361 -0.7592 -0.4823
 8515SOL    HW237008   0.522   4.134   2.593  0.4782 -0.4562  0.9269
 8516SOL     OW37009   1.148   2.501   0.869 -0.0676  0.3807  0.3151
 8516SOL    HW137010   1.124   2.588   0.901  1.1063  0.2331  1.5883
 8516SOL    HW237011   1.219   2.464   0.923 -0.6778  0.8163  1.4182
 8517SOL     OW37012   3.835   3.544   7.377 -0.2206 -0.1503  0.4230
 8517SOL    HW137013   3.845   3.486   7.452  1.3311  0.3660  0.6278
 8517SOL    HW237014   3.880   3.619   7.417 -1.3913 -0.6888  2.7141
 8518SOL     OW37015   2.086   4.155   5.954  0.0626  0.2793  0.4445
 8518SOL    HW137016   2.124   4.068   5.943 -1.4402 -0.1779 -1.1042
 8518SOL    HW237017   2.155   4.197   5.902 -1.4453  1.9657 -0.1817
 8519SOL     OW37018   2.699   3.341   6.488 -0.3042 -0.1648 -0.6635
 8519SOL    HW137019   2.751   3.310   6.562  1.3428 -0.5960 -1.9907
 8519SOL    HW237020   2.769   3.322   6.425  1.3022  1.4913  0.6099
 8520SOL     OW37021   4.041   1.204  13.861  0.3716 -0.2925 -0.0867
 8520SOL    HW137022   4.044   1.193  13.766  1.6050 -1.2787  0.0774
 8520SOL    HW237023   3.981   1.135  13.887  1.5238 -1.7853 -1.4178
 8521SOL     OW37024   2.231   2.673  14.386  0.5502 -0.3003  0.5186
 8521SOL    HW137025   2.286   2.605  14.347  0.5576 -0.6351  1.1070
 8521SOL    HW237026   2.159   2.610  14.384  0.4117 -0.1480  0.6726
 8522SOL     OW37027   1.773   2.280  16.844  0.1238 -0.5073 -0.1584
 8522SOL    HW137028   1.859   2.275  16.803 -0.8888 -0.6783 -2.2729
 8522SOL    HW237029   1.731   2.355  16.802  0.3939  0.3240  1.0483
 8523SOL     OW37030   2.575   2.939   6.423 -0.3717 -0.0212 -0.1257
 8523SOL    HW137031   2.664   2.946   6.458 -0.4083  1.9034 -0.4512
 8523SOL    HW237032   2.580   2.950   6.328 -2.7679 -0.8403 -0.3726
 8524SOL     OW37033   0.876   1.255   4.114  0.2986 -0.2187  0.2828
 8524SOL    HW137034   0.828   1.211   4.184 -1.4926  2.2644  0.5968
 8524SOL    HW237035   0.807   1.258   4.047 -1.2556 -2.2063  1.7932
 8525SOL     OW37036   1.054   1.129   2.496 -0.3719 -0.4623  0.4343
 8525SOL    HW137037   1.039   1.216   2.535 -1.0053  0.0328 -0.9061
 8525SOL    HW237038   1.141   1.112   2.534 -0.1703 -1.2059 -0.3674
 8526SOL     OW37039   2.521   2.310   2.317 -0.4373 -0.1495  0.0947
 8526SOL    HW137040   2.497   2.340   2.405 -0.8483  2.1124 -0.8077
 8526SOL    HW237041   2.451   2.248   2.297  0.2554 -0.5228 -1.1672
 8527SOL     OW37042   2.779   4.146   3.207 -0.0425 -0.0784  0.0751
 8527SOL    HW137043   2.835   4.115   3.136  0.8495 -2.2212  1.6953
 8527SOL    HW237044   2.703   4.088   3.208 -1.6183  2.0040 -0.1551
 8528SOL     OW37045   0.609   2.845   2.381  0.6323 -0.3903 -1.1190
 8528SOL    HW137046   0.539   2.905   2.355  1.4981  0.8772 -0.5008
 8528SOL    HW237047   0.672   2.906   2.418  0.5712 -1.0180  0.0199
 8529SOL     OW37048   0.147   3.793  14.115  0.0923  0.0485  0.0866
 8529SOL    HW137049   0.158   3.698  14.121  0.1395  0.0903  0.6660
 8529SOL    HW237050   0.059   3.794  14.151 -1.0710  0.2460 -2.7134
 8530SOL     OW37051   0.371   2.799   1.028  0.5516  0.1312 -0.1156
 8530SOL    HW137052   0.301   2.855   1.061 -0.1339 -0.2283 -0.9505
 8530SOL    HW237053   0.335   2.789   0.940  0.8070 -1.0422 -0.0962
 8531SOL     OW37054   0.195   2.989   4.930  0.7284  0.1988  0.1916
 8531SOL    HW137055   0.227   3.077   4.952  0.8254 -0.1151  1.3087
 8531SOL    HW237056   0.195   2.955   5.020 -1.8009  1.4812  0.6626
 8532SOL     OW37057   0.504   3.964   4.050 -0.1236  0.0666  0.0224
 8532SOL    HW137058   0.554   4.004   3.979 -1.3827  2.6319  0.5580
 8532SOL    HW237059   0.432   3.934   3.995  0.3875 -0.1468 -0.5261
 8533SOL     OW37060   3.265   4.633   6.182  0.6460 -0.7125 -0.3472
 8533SOL    HW137061   3.332   4.585   6.231  2.2206  1.6214 -0.1865
 8533SOL    HW237062   3.198   4.568   6.162 -0.8892  0.1884  1.7962
 8534SOL     OW37063   2.039   2.360  14.529 -0.0502  0.4092  0.2555
 8534SOL    HW137064   2.105   2.402  14.584 -0.3321  2.3436 -0.8489
 8534SOL    HW237065   2.083   2.278  14.507  1.7462  0.2209  4.5822
 8535SOL     OW37066   3.470   2.647   4.297  0.6802  0.2918  0.1732
 8535SOL    HW137067   3.394   2.696   4.264  1.0194  1.5742  1.2909
 8535SOL    HW237068   3.416   2.592   4.353  0.8462 -2.2811 -2.1873
 8536SOL     OW37069   0.935   2.226  14.333  0.4832  0.5573 -0.3453
 8536SOL    HW137070   0.980   2.307  14.307 -1.3336  1.7044  0.0431
 8536SOL    HW237071   1.010   2.167  14.324 -0.6143 -1.0955  1.5941
 8537SOL     OW37072   1.922   0.159   3.720 -0.0170  0.6995  0.2934
 8537SOL    HW137073   1.857   0.099   3.757 -0.9821  0.7427 -1.3055
 8537SOL    HW237074   1.983   0.100   3.676  0.3398  1.5193 -0.2982
 8538SOL     OW37075   2.757   0.718  14.262  0.5052 -0.3787 -0.0154
 8538SOL    HW137076   2.809   0.739  14.185 -0.3456  0.4982 -0.3507
 8538SOL    HW237077   2.669   0.728  14.226  1.3337  3.0775 -1.0043
 8539SOL     OW37078   3.848   0.646  11.625 -0.4491  0.4952  0.1453
 8539SOL    HW137079   3.767   0.610  11.587 -0.6385 -1.3410  2.3188
 8539SOL    HW237080   3.818   0.659  11.715 -0.3483 -0.8250  0.3626
 8540SOL     OW37081   1.542   0.874  10.357  0.0351 -0.1345  0.0510
 8540SOL    HW137082   1.555   0.959  10.315 -0.9607  0.0709  0.1639
 8540SOL    HW237083   1.454   0.880  10.393  0.5506  1.9690  0.9749
 8541SOL     OW37084   2.710   2.948   2.789  0.1873 -0.4292  0.5177
 8541SOL    HW137085   2.804   2.934   2.775 -0.2286 -0.8912 -1.8070
 8541SOL    HW237086   2.678   2.864   2.757 -0.8759  0.1408  0.1145
 8542SOL     OW37087   0.001   0.981   5.635  0.0595 -0.0373  0.0551
 8542SOL    HW137088   0.082   1.007   5.590 -1.8956  1.8157 -2.3601
 8542SOL    HW237089   4.681   1.058   5.671  0.7156  0.8985 -1.1778
 8543SOL     OW37090   0.375   0.373   2.771  0.2555  0.5287  0.1793
 8543SOL    HW137091   0.285   0.402   2.788 -0.2247  1.4360 -3.9278
 8543SOL    HW237092   0.386   0.353   2.678 -2.7926 -0.7616  0.0853
 8544SOL     OW37093   0.131   4.298  11.687 -0.2857  0.5881  0.1539
 8544SOL    HW137094   0.188   4.302  11.610 -0.2420 -0.2585  0.1452
 8544SOL    HW237095   0.071   4.231  11.655  0.2780  0.1799 -0.0617
 8545SOL     OW37096   1.971   1.919   5.064 -0.1561  0.4485 -0.9040
 8545SOL    HW137097   1.880   1.945   5.080  0.2996  0.9571  0.8041
 8545SOL    HW237098   1.956   1.897   4.972 -1.3662  0.7687 -0.7909
 8546SOL     OW37099   4.680   3.756   9.653 -0.6096  0.0657  0.4360
 8546SOL    HW137100   0.029   3.734   9.712 -0.1556  0.8139  0.1652
 8546SOL    HW237101   4.606   3.707   9.689 -0.9270  1.7090  2.0047
 8547SOL     OW37102   1.453   1.311  11.658 -0.0978  0.5455 -0.0819
 8547SOL    HW137103   1.428   1.236  11.711  0.2660 -0.3578 -1.1935
 8547SOL    HW237104   1.508   1.362  11.718 -0.5476 -0.4849  1.1992
 8548SOL     OW37105   4.033   2.750   7.257 -0.3796  0.2514 -0.2604
 8548SOL    HW137106   4.120   2.787   7.277 -0.5575  1.0954 -1.0596
 8548SOL    HW237107   4.016   2.787   7.170  1.9818  1.5176 -0.1924
 8549SOL     OW37108   4.398   1.526  11.988  0.0963 -0.2738  0.7007
 8549SOL    HW137109   4.459   1.454  11.971 -0.4226 -0.5096 -0.1793
 8549SOL    HW237110   4.327   1.504  11.928  1.4547  0.2268 -1.0840
 8550SOL     OW37111   4.006   4.554   2.935 -0.4899  0.3631 -0.2942
 8550SOL    HW137112   4.026   4.498   2.859  1.8031 -0.6829  1.0926
 8550SOL    HW237113   3.976   4.496   3.004 -0.0545 -1.6901 -1.8136
 8551SOL     OW37114   2.056   1.429   8.845  0.2545 -0.1443  0.2555
 8551SOL    HW137115   2.094   1.509   8.807 -0.7088 -0.6913 -1.8838
 8551SOL    HW237116   1.966   1.442   8.813  0.1226 -0.4954  0.4896
 8552SOL     OW37117   1.721   4.612   3.220 -0.4612 -0.3143  0.4293
 8552SOL    HW137118   1.656   4.618   3.149  0.1924 -1.9741 -0.3017
 8552SOL    HW237119   1.683   4.553   3.284  0.3752  1.7677  2.8426
 8553SOL     OW37120   1.817   2.265  13.080 -0.8750  0.8166  0.0110
 8553SOL    HW137121   1.821   2.177  13.117  1.1411  1.1423  0.5899
 8553SOL    HW237122   1.808   2.244  12.987 -0.5307  2.7312 -0.4488
 8554SOL     OW37123   1.370   0.566   5.730  0.5298  0.0658 -0.4345
 8554SOL    HW137124   1.421   0.487   5.749 -0.8434 -0.5034  0.8718
 8554SOL    HW237125   1.435   0.630   5.760 -1.1888  0.6203  2.0970
 8555SOL     OW37126   0.497   3.336   7.662 -0.1885  0.8234 -0.4689
 8555SOL    HW137127   0.403   3.321   7.649  0.2672 -1.7310 -0.7305
 8555SOL    HW237128   0.513   3.425   7.631  0.8443  1.3594  1.5676
 8556SOL     OW37129   2.156   4.408  12.474 -0.1758  0.6026  0.2886
 8556SOL    HW137130   2.184   4.320  12.450 -0.9496  0.0545  1.3873
 8556SOL    HW237131   2.064   4.402  12.448 -0.3908 -1.9781  1.6485
 8557SOL     OW37132   1.601   1.146  16.590 -0.3162 -0.3832  0.3609
 8557SOL    HW137133   1.605   1.063  16.543 -0.2997 -1.1787  1.7472
 8557SOL    HW237134   1.534   1.196  16.544  0.3909  0.3938  0.1620
 8558SOL     OW37135   2.976   2.335   3.333  0.2720 -0.1533  0.0061
 8558SOL    HW137136   2.988   2.241   3.347  3.5894  0.2483 -0.0942
 8558SOL    HW237137   2.932   2.357   3.415  1.9061 -1.2941  1.1896
 8559SOL     OW37138   2.725   3.394  13.454  0.6107 -0.0017  0.4967
 8559SOL    HW137139   2.661   3.375  13.522  0.7981 -1.5884  0.2428
 8559SOL    HW237140   2.667   3.383  13.378  1.2980  0.4419 -0.0927
 8560SOL     OW37141   4.648   1.474   4.576  0.0312  0.6778 -0.3437
 8560SOL    HW137142   4.580   1.408   4.586  1.2926 -0.4580  0.6433
 8560SOL    HW237143   4.645   1.492   4.482  0.1145  0.2474 -0.4290
 8561SOL     OW37144   3.803   4.706   2.739 -0.0512 -0.3735 -0.3231
 8561SOL    HW137145   3.878   4.713   2.679 -2.7051 -0.6849 -3.6797
 8561SOL    HW237146   3.844   4.664   2.815 -0.3789 -2.6976 -1.4351
 8562SOL     OW37147   1.199   4.661  10.090  0.1029 -0.1107  0.1973
 8562SOL    HW137148   1.292   4.651  10.107  0.1198  0.2689  0.3384
 8562SOL    HW237149   1.191   0.008  10.155  0.1133 -1.5934  1.8102
 8563SOL     OW37150   0.762   0.099   7.552  0.4129  0.2262 -0.3554
 8563SOL    HW137151   0.733   0.145   7.474  1.3302 -0.0009 -0.8347
 8563SOL    HW237152   0.818   0.169   7.584  0.6144 -0.1626  0.1412
 8564SOL     OW37153   2.129   1.805  14.399  0.0443 -0.0010  0.2021
 8564SOL    HW137154   2.150   1.863  14.326 -1.6699 -0.9919 -1.0683
 8564SOL    HW237155   2.077   1.862  14.456  2.7061  2.2385  0.4445
 8565SOL     OW37156   3.203   1.282   3.958 -0.1397 -0.0557  0.0458
 8565SOL    HW137157   3.198   1.188   3.945 -1.4874 -0.0693  0.7145
 8565SOL    HW237158   3.220   1.279   4.052 -0.3343 -0.0738  0.0785
 8566SOL     OW37159   1.682   3.469   2.657  0.0166 -0.5284  0.0564
 8566SOL    HW137160   1.769   3.453   2.692  0.1167 -0.1969 -0.0356
 8566SOL    HW237161   1.632   3.387   2.654  0.9307 -1.0947  0.5538
 8567SOL     OW37162   0.563   2.146   3.719  0.4396 -0.0727  0.4033
 8567SOL    HW137163   0.617   2.081   3.765  0.3698  1.4783  2.7116
 8567SOL    HW237164   0.618   2.149   3.641  0.2632  1.4549  0.3359
 8568SOL     OW37165   2.232   0.145  13.497 -0.7219  0.0612  0.0655
 8568SOL    HW137166   2.301   0.086  13.528  0.6116  1.9682  0.7398
 8568SOL    HW237167   2.282   0.227  13.502 -1.7290  0.6756 -0.0143
 8569SOL     OW37168   2.345   0.368   8.247 -0.3024  0.3254  0.2649
 8569SOL    HW137169   2.335   0.436   8.313  0.9556 -0.5045  1.3028
 8569SOL    HW237170   2.335   0.281   8.287  3.6761  0.3095  1.2065
 8570SOL     OW37171   4.562   2.126  17.093 -0.3002  0.3914  0.5476
 8570SOL    HW137172   4.636   2.176  17.127 -0.4468  1.6497 -1.0182
 8570SOL    HW237173   4.502   2.195  17.064 -2.1312 -1.1400  0.6421
 8571SOL     OW37174   3.251   0.512   9.188 -0.3985  0.2374  0.5630
 8571SOL    HW137175   3.224   0.502   9.279  1.0576  1.6984  1.1594
 8571SOL    HW237176   3.196   0.452   9.138 -0.5142  2.0136 -1.4983
 8572SOL     OW37177   2.345   2.387   5.852  0.0031 -0.1680 -0.4331
 8572SOL    HW137178   2.412   2.367   5.918  1.3574 -2.0496 -2.3654
 8572SOL    HW237179   2.287   2.311   5.861 -0.6174  0.3388 -0.1701
 8573SOL     OW37180   2.885   0.849   3.064  0.5744  0.0850 -0.7423
 8573SOL    HW137181   2.845   0.798   3.134 -0.0684  1.3181 -0.2069
 8573SOL    HW237182   2.890   0.779   2.999  0.8730 -1.0519  0.5296
 8574SOL     OW37183   4.583   0.005   8.838  0.1219 -0.4402 -0.0272
 8574SOL    HW137184   4.663   0.035   8.794 -1.1899  0.9015 -1.4974
 8574SOL    HW237185   4.608   0.030   8.927 -1.2088  0.0335  0.2080
 8575SOL     OW37186   3.541   2.364  13.015  0.0775  0.2440 -0.1626
 8575SOL    HW137187   3.482   2.322  12.953  0.7827  0.9367 -1.3059
 8575SOL    HW237188   3.625   2.339  12.976 -0.6012  0.6473 -1.8698
 8576SOL     OW37189   1.490   3.754  16.999 -0.0671 -0.0702  0.0830
 8576SOL    HW137190   1.573   3.748  17.046 -1.0675  1.3976  2.0269
 8576SOL    HW237191   1.476   3.660  17.016  2.1270 -0.3202  0.4882
 8577SOL     OW37192   3.285   1.928   1.007 -0.3287 -0.4442 -0.0040
 8577SOL    HW137193   3.245   1.857   1.056 -0.7923  0.1507  0.4836
 8577SOL    HW237194   3.264   2.006   1.059 -0.2617 -1.6732  1.8247
 8578SOL     OW37195   0.298   1.025   6.220 -0.1633 -0.2816 -0.6339
 8578SOL    HW137196   0.373   1.024   6.160 -0.6571 -0.1836 -1.2562
 8578SOL    HW237197   0.343   1.038   6.303 -1.1720 -1.3079  0.0633
 8579SOL     OW37198   0.126   2.252  12.158 -0.1202 -0.1032  0.1881
 8579SOL    HW137199   0.206   2.204  12.138 -0.2203 -0.9479  1.8786
 8579SOL    HW237200   0.060   2.198  12.114  1.6333 -1.6188 -0.5990
 8580SOL     OW37201   1.188   3.718   0.469 -0.1792 -0.1474 -0.2569
 8580SOL    HW137202   1.099   3.738   0.438 -0.2675 -1.2598 -0.7376
 8580SOL    HW237203   1.168   3.633   0.507  0.5220 -0.3913 -0.4269
 8581SOL     OW37204   2.717   2.631   3.298 -0.3302  0.3666 -0.0141
 8581SOL    HW137205   2.689   2.577   3.372  3.0358 -1.3278  0.0625
 8581SOL    HW237206   2.643   2.629   3.238 -0.7222  0.7026  0.4594
 8582SOL     OW37207   3.780   3.066   3.781 -0.6966  0.1642  0.0331
 8582SOL    HW137208   3.866   3.026   3.787 -1.2132 -0.8584  0.4949
 8582SOL    HW237209   3.723   3.011   3.834 -1.3731  0.9250  0.1043
 8583SOL     OW37210   2.428   1.944   3.456 -0.0393 -0.8249 -0.0126
 8583SOL    HW137211   2.489   1.928   3.385 -1.2063  2.3256 -1.7622
 8583SOL    HW237212   2.494   1.913   3.518  0.3058 -1.8287 -0.8820
 8584SOL     OW37213   1.155   3.496   0.636 -0.2063 -0.2183  0.0801
 8584SOL    HW137214   1.207   3.448   0.700 -1.5875 -2.1993 -0.2894
 8584SOL    HW237215   1.132   3.427   0.573 -1.9295  0.5877 -0.1799
 8585SOL     OW37216   4.440   4.192   3.982 -0.7927 -0.2777  0.3083
 8585SOL    HW137217   4.396   4.108   3.968  0.9717 -1.2208  0.5624
 8585SOL    HW237218   4.377   4.237   4.038 -2.4951 -2.6530  0.3121
 8586SOL     OW37219   3.476   3.766  17.079  0.5990  0.0952  0.2825
 8586SOL    HW137220   3.408   3.832  17.083  0.2337 -0.2956  0.5188
 8586SOL    HW237221   3.450   3.710  17.152 -2.6421  1.7600  0.3831
 8587SOL     OW37222   3.069   1.753   7.791 -0.1273  0.2563  0.3571
 8587SOL    HW137223   3.028   1.742   7.877  0.7634  0.0694  0.7629
 8587SOL    HW237224   3.162   1.751   7.817  0.2162  0.8012 -0.8228
 8588SOL     OW37225   2.118   4.343   9.043  0.3234  0.0655  0.1067
 8588SOL    HW137226   2.147   4.253   9.062 -0.4537 -0.3492 -0.7149
 8588SOL    HW237227   2.146   4.394   9.119  2.6575 -2.3237  0.8674
 8589SOL     OW37228   4.152   2.108   2.083 -0.4876 -0.2518 -0.2149
 8589SOL    HW137229   4.240   2.130   2.113 -0.0928  1.3565 -2.5472
 8589SOL    HW237230   4.123   2.188   2.040  0.9495  1.0054  1.1628
 8590SOL     OW37231   3.490   3.694  15.580 -0.7712 -0.2834 -0.5124
 8590SOL    HW137232   3.424   3.625  15.592  0.5964 -1.2388  1.5536
 8590SOL    HW237233   3.517   3.703  15.672 -1.6769  0.2385 -0.3000
 8591SOL     OW37234   1.845   3.405  13.641  0.2076  0.0824  0.2212
 8591SOL    HW137235   1.799   3.430  13.721  1.5578  0.7806  0.7892
 8591SOL    HW237236   1.790   3.437  13.569  0.1604  1.0727  0.7031
 8592SOL     OW37237   3.567   4.072   7.019  0.4158 -0.4550 -0.5523
 8592SOL    HW137238   3.553   4.145   6.958 -2.1531 -0.5176 -0.0190
 8592SOL    HW237239   3.612   4.126   7.085  0.9442 -0.7139 -0.7009
 8593SOL     OW37240   0.574   0.042   3.396  0.0534 -0.4342 -0.0361
 8593SOL    HW137241   0.588   0.006   3.309 -0.6347  0.9506 -0.7193
 8593SOL    HW237242   0.517   4.696   3.431 -1.1671  1.0313  0.9095
 8594SOL     OW37243   3.583   4.488   7.857  0.4380 -0.2343  0.2963
 8594SOL    HW137244   3.555   4.499   7.766 -4.1315  0.3754  1.7586
 8594SOL    HW237245   3.643   4.414   7.849  1.5234  0.8082 -1.0280
 8595SOL     OW37246   4.359   1.548   1.596 -0.4304  0.1019  0.3805
 8595SOL    HW137247   4.359   1.637   1.632 -2.0275 -0.8233  2.7066
 8595SOL    HW237248   4.340   1.488   1.669 -1.5272 -1.8012 -1.4695
 8596SOL     OW37249   3.932   2.334   9.995  0.4088  0.3399  0.3746
 8596SOL    HW137250   4.011   2.286  10.019  0.0887 -0.4206 -0.1143
 8596SOL    HW237251   3.952   2.423  10.023 -1.3007  0.8976 -0.2007
 8597SOL     OW37252   2.849   3.586  14.735 -0.2465  0.2446  0.3032
 8597SOL    HW137253   2.890   3.510  14.695  0.2178  0.6789 -0.0428
 8597SOL    HW237254   2.831   3.628  14.651  0.7441 -0.2749 -0.1601
 8598SOL     OW37255   1.333   0.939   2.247 -0.1257  0.5331  0.4407
 8598SOL    HW137256   1.301   1.007   2.187 -0.0830  0.6666  0.5699
 8598SOL    HW237257   1.303   0.859   2.204 -0.3580  1.5913 -1.3872
 8599SOL     OW37258   0.542   3.258   9.546 -0.1023  0.0935 -0.0236
 8599SOL    HW137259   0.561   3.341   9.501  0.4048 -0.7704 -1.3758
 8599SOL    HW237260   0.621   3.204   9.538 -0.5139 -0.1142 -2.6466
 8600SOL     OW37261   4.418   2.162   4.361  0.4274 -0.0788 -0.1454
 8600SOL    HW137262   4.477   2.227   4.399  2.8836 -0.8047 -2.6683
 8600SOL    HW237263   4.437   2.076   4.396 -1.8182 -0.1354  0.9568
 8601SOL     OW37264   3.353   3.183   0.145  0.0358  0.4280 -0.1016
 8601SOL    HW137265   3.323   3.093   0.156  1.0803 -0.1256 -1.8815
 8601SOL    HW237266   3.267   3.215   0.174  0.3979  1.5428 -0.2459
 8602SOL     OW37267   0.923   2.499   1.246 -0.4744 -0.0151 -0.3777
 8602SOL    HW137268   0.837   2.488   1.206 -0.4763 -2.2027  0.2586
 8602SOL    HW237269   0.977   2.446   1.188  2.1028  2.1303  0.0461
 8603SOL     OW37270   3.396   2.651   2.456  0.9618  0.2586 -0.2628
 8603SOL    HW137271   3.361   2.695   2.379  1.2588  2.8892  1.1231
 8603SOL    HW237272   3.489   2.642   2.437  0.7377  0.2981 -1.3549
 8604SOL     OW37273   0.501   0.153  11.801  0.6888  0.2626 -0.5083
 8604SOL    HW137274   0.482   0.182  11.712 -1.9461  0.5520  0.1443
 8604SOL    HW237275   0.513   0.243  11.832  0.7050 -0.2095  0.8504
 8605SOL     OW37276   2.541   2.587  16.708  0.5766  0.1832  0.6944
 8605SOL    HW137277   2.594   2.546  16.640  1.3576  1.0063  0.8109
 8605SOL    HW237278   2.604   2.640  16.755  0.8733  0.0080  0.4926
 8606SOL     OW37279   0.617   1.529   7.794 -0.8252 -0.4844 -0.4980
 8606SOL    HW137280   0.691   1.472   7.775 -1.0114 -0.4970 -1.2106
 8606SOL    HW237281   0.582   1.498   7.877 -1.2914  3.2144  0.6856
 8607SOL     OW37282   0.781   1.858   1.724  0.0595 -0.5580  0.3363
 8607SOL    HW137283   0.795   1.946   1.757 -1.5987 -0.3978  0.5900
 8607SOL    HW237284   0.688   1.848   1.703  0.6173 -2.2063 -1.3895
 8608SOL     OW37285   1.917   1.623  16.047  0.1017 -0.5755  0.5168
 8608SOL    HW137286   1.958   1.619  15.961  1.2215  1.1411  0.9572
 8608SOL    HW237287   1.907   1.718  16.060 -0.3758 -0.9173  2.7275
 8609SOL     OW37288   3.570   4.549   5.025  0.5615  0.3686  0.2468
 8609SOL    HW137289   3.576   4.629   4.973  0.1748 -0.0789 -0.4848
 8609SOL    HW237290   3.475   4.548   5.031  0.5813 -0.5998  0.3989
 8610SOL     OW37291   4.380   4.365   7.149  0.0187 -0.0440 -0.4808
 8610SOL    HW137292   4.368   4.270   7.146 -2.8651  0.2601  1.9778
 8610SOL    HW237293   4.449   4.378   7.215 -0.1135 -0.9081 -0.1801
 8611SOL     OW37294   4.341   0.942  15.840 -0.5800 -0.3041  0.0791
 8611SOL    HW137295   4.349   1.026  15.887 -1.8692 -0.7159  1.0558
 8611SOL    HW237296   4.368   0.963  15.751 -0.0448 -0.3896  0.2160
 8612SOL     OW37297   4.478   2.590   4.112  0.2616 -0.2027  0.5882
 8612SOL    HW137298   4.409   2.561   4.171 -0.2512 -0.3044 -0.0602
 8612SOL    HW237299   4.520   2.514   4.072  2.7492  1.5489 -0.1513
 8613SOL     OW37300   1.145   0.961   8.331 -0.0151  0.2553  0.3534
 8613SOL    HW137301   1.065   0.937   8.379 -0.7495  0.0962 -0.9428
 8613SOL    HW237302   1.198   0.882   8.345  0.9737  0.3748 -2.6373
 8614SOL     OW37303   4.079   3.240   3.876  0.4376  0.0990 -0.1562
 8614SOL    HW137304   4.001   3.283   3.842 -0.0028 -0.9281 -0.4623
 8614SOL    HW237305   4.049   3.165   3.929  2.5354  0.4067  1.4378
 8615SOL     OW37306   1.820   0.090   5.200  0.0732  0.2460 -0.2797
 8615SOL    HW137307   1.746   0.139   5.236  0.9515  1.7812 -0.5169
 8615SOL    HW237308   1.818   0.128   5.112 -1.0845  0.2506 -0.2502
 8616SOL     OW37309   2.701   4.578   6.956 -0.3719  0.6159 -0.1507
 8616SOL    HW137310   2.642   4.551   7.026  0.7108  1.2620  1.0137
 8616SOL    HW237311   2.735   4.491   6.939 -0.1296  1.0325 -1.7751
 8617SOL     OW37312   1.029   3.689   4.627 -0.0731 -0.0633 -0.2899
 8617SOL    HW137313   1.021   3.696   4.722 -1.6114 -0.1714 -0.4012
 8617SOL    HW237314   0.975   3.611   4.613 -1.4007  0.2864  2.8045
 8618SOL     OW37315   2.150   1.207  16.492 -0.1558  0.2988 -0.3243
 8618SOL    HW137316   2.078   1.163  16.537  0.9461 -0.9684  0.2153
 8618SOL    HW237317   2.217   1.223  16.559  0.5077  1.7090 -1.3372
 8619SOL     OW37318   1.170   1.411   5.956 -0.4442 -0.1023 -0.0995
 8619SOL    HW137319   1.151   1.456   5.874  1.3351  2.7852  1.0954
 8619SOL    HW237320   1.120   1.470   6.011 -2.9377 -0.2869 -2.1907
 8620SOL     OW37321   4.608   4.401   4.905 -0.5000 -0.6948 -0.1281
 8620SOL    HW137322   4.660   4.323   4.885  1.0322  0.0223  1.0329
 8620SOL    HW237323   4.520   4.370   4.883  0.0070 -2.4542  0.3027
 8621SOL     OW37324   1.089   0.823   4.262 -0.7430 -0.6641 -0.1989
 8621SOL    HW137325   1.029   0.827   4.187 -0.1739  1.3903 -0.5413
 8621SOL    HW237326   1.165   0.851   4.211  0.3227 -1.6262  0.8654
 8622SOL     OW37327   2.683   0.081  12.373 -0.2809  0.2378  0.5653
 8622SOL    HW137328   2.646   0.146  12.314  2.2720 -0.6455 -2.0053
 8622SOL    HW237329   2.625   0.085  12.449 -1.1251 -0.3519 -0.0582
 8623SOL     OW37330   3.643   3.691  17.665 -0.8833 -0.5162  0.2402
 8623SOL    HW137331   3.726   3.687  17.617 -1.3593 -0.1651 -0.6208
 8623SOL    HW237332   3.663   3.619   0.031 -0.0241  0.1790  0.8048
 8624SOL     OW37333   4.333   4.439   1.499 -0.0202 -0.1376 -0.2012
 8624SOL    HW137334   4.238   4.434   1.515 -0.1420  2.4374 -0.1695
 8624SOL    HW237335   4.339   4.493   1.421 -0.3136  1.8060  1.1369
 8625SOL     OW37336   2.874   4.145   5.635  0.8870  0.3432 -0.3456
 8625SOL    HW137337   2.835   4.218   5.684  0.1176 -1.0492  1.1436
 8625SOL    HW237338   2.803   4.080   5.638 -0.4499  1.6817 -2.7397
 8626SOL     OW37339   3.724   2.164   6.278 -0.4084  0.1317  0.1203
 8626SOL    HW137340   3.700   2.185   6.369  0.0479  0.0660  0.2528
 8626SOL    HW237341   3.810   2.202   6.264  0.8447 -2.5136  0.6539
 8627SOL     OW37342   2.036   0.538   2.847  1.2935  0.6931 -0.5545
 8627SOL    HW137343   2.033   0.596   2.771 -0.6999  0.4579 -0.6462
 8627SOL    HW237344   1.944   0.544   2.873  1.1213  0.7899 -1.1820
 8628SOL     OW37345   1.932   3.745   6.048 -0.5377 -0.1031  0.6945
 8628SOL    HW137346   2.000   3.711   5.989 -0.3155  0.3331  0.6954
 8628SOL    HW237347   1.963   3.702   6.128 -0.0351  0.3057  0.7259
 8629SOL     OW37348   4.562   1.499   6.733  0.3698  0.1951 -0.5457
 8629SOL    HW137349   4.643   1.484   6.782 -0.9810 -1.9754  1.0108
 8629SOL    HW237350   4.497   1.506   6.803  1.5642 -3.0542  0.8658
 8630SOL     OW37351   0.721   0.413   7.168  0.2779 -0.4926  0.0373
 8630SOL    HW137352   0.784   0.382   7.103  0.3261 -0.2157 -0.0444
 8630SOL    HW237353   0.639   0.401   7.120  0.4006 -0.6991 -0.1226
 8631SOL     OW37354   1.508   3.240   2.726  0.4514 -0.2365  0.6391
 8631SOL    HW137355   1.578   3.244   2.791 -0.5471  0.2869  1.6896
 8631SOL    HW237356   1.503   3.145   2.719 -2.1445 -0.0906  0.3566
 8632SOL     OW37357   0.083   0.513   4.671 -0.6124 -0.8588  0.1986
 8632SOL    HW137358   0.089   0.447   4.741 -0.5842  0.8452  1.8220
 8632SOL    HW237359   0.003   0.558   4.698  0.1047 -0.9806  2.5733
 8633SOL     OW37360   2.003   2.675   3.850 -0.1712 -0.4304 -0.5745
 8633SOL    HW137361   2.065   2.625   3.797 -0.8901 -0.2150 -1.6000
 8633SOL    HW237362   2.001   2.635   3.937  0.5565 -0.1067 -0.4113
 8634SOL     OW37363   0.783   0.293   4.947 -0.0681 -0.2476  0.0155
 8634SOL    HW137364   0.747   0.381   4.935 -1.3405 -1.2034 -3.1867
 8634SOL    HW237365   0.732   0.261   5.022  0.8262  0.0544  0.7524
 8635SOL     OW37366   4.577   3.342   6.485 -0.3322  0.2312 -0.2401
 8635SOL    HW137367   4.489   3.339   6.448  0.0234 -0.1643 -1.0258
 8635SOL    HW237368   4.626   3.282   6.429 -1.1202  0.5656 -1.2697
 8636SOL     OW37369   2.681   1.528   8.331 -0.3436  0.3138  0.1581
 8636SOL    HW137370   2.647   1.553   8.417  0.0352  2.4806 -0.3140
 8636SOL    HW237371   2.625   1.582   8.275 -0.4199  0.2886  0.2109
 8637SOL     OW37372   1.745   3.349   8.924  0.3280  0.1526 -0.1105
 8637SOL    HW137373   1.734   3.340   9.019 -1.1227 -1.2196 -0.4174
 8637SOL    HW237374   1.701   3.433   8.912  0.9544  0.7088  1.4293
 8638SOL     OW37375   4.344   3.969  17.399  0.8110 -0.2529 -0.9147
 8638SOL    HW137376   4.314   4.059  17.413 -0.7608 -0.3960 -3.4699
 8638SOL    HW237377   4.369   3.946  17.489 -1.2645  1.9990  0.2449
 8639SOL     OW37378   3.946   3.540   6.557 -0.3876 -0.1354 -0.2567
 8639SOL    HW137379   4.011   3.579   6.616  1.8018  1.0682 -3.4345
 8639SOL    HW237380   3.961   3.594   6.480  0.6281 -1.1159 -0.7539
 8640SOL     OW37381   0.274   0.707  10.977 -0.2083 -0.6970 -0.1698
 8640SOL    HW137382   0.289   0.786  10.926  0.3070 -0.1549  0.8178
 8640SOL    HW237383   0.287   0.638  10.912  2.5244  0.2033 -0.5765
 8641SOL     OW37384   3.779   2.929  10.468  0.2219  0.4312 -0.0580
 8641SOL    HW137385   3.785   2.860  10.401 -2.6678  1.8124 -1.7067
 8641SOL    HW237386   3.685   2.940  10.482  1.0020  3.6904  2.5214
 8642SOL     OW37387   3.770   3.022   6.641  0.4095 -0.2101 -0.3865
 8642SOL    HW137388   3.675   3.011   6.630  0.3373 -1.6328  1.8000
 8642SOL    HW237389   3.771   3.117   6.657 -0.0917  0.3853 -3.7918
 8643SOL     OW37390   1.808   4.503   9.615  0.3628  0.8540 -0.2010
 8643SOL    HW137391   1.784   4.411   9.623  1.6687  0.6925  2.0523
 8643SOL    HW237392   1.861   4.507   9.536  0.3028 -0.5981 -0.3018
 8644SOL     OW37393   3.960   1.253   6.453  0.0393  0.0348  0.3037
 8644SOL    HW137394   3.974   1.164   6.485  1.2644  0.4845  1.0410
 8644SOL    HW237395   3.872   1.280   6.480 -1.2726 -2.4085 -1.4929
 8645SOL     OW37396   0.022   3.140   8.120 -0.3864  0.1658 -0.1390
 8645SOL    HW137397   0.015   3.203   8.192 -0.2509  0.9270 -0.7953
 8645SOL    HW237398   4.683   3.077   8.157  0.0681  0.2274  0.7314
 8646SOL     OW37399   3.810   0.191  15.547  0.6200 -0.0244 -0.2728
 8646SOL    HW137400   3.782   0.205  15.456  2.8751 -2.7289 -1.3604
 8646SOL    HW237401   3.728   0.203  15.595  2.1260 -0.6344  2.4101
 8647SOL     OW37402   4.583   2.439   7.046 -0.4867  0.2693 -0.1741
 8647SOL    HW137403   4.648   2.469   6.982  2.2229 -1.2617  1.9160
 8647SOL    HW237404   4.624   2.404   7.125  3.1185  1.0628 -1.7000
 8648SOL     OW37405   0.908   4.031   1.081  0.1647 -0.5227 -0.4050
 8648SOL    HW137406   0.926   4.109   1.027  0.2418  1.6029  2.6854
 8648SOL    HW237407   0.814   4.042   1.092  0.0136 -0.0636 -2.0732
 8649SOL     OW37408   0.873   1.383   3.677  0.3405 -0.1365  0.3815
 8649SOL    HW137409   0.797   1.327   3.661  0.5400 -0.1620 -0.4712
 8649SOL    HW237410   0.850   1.467   3.639  0.9202  0.0822  0.5209
 8650SOL     OW37411   0.424   2.299  13.904  0.0654 -0.7112  0.7145
 8650SOL    HW137412   0.431   2.378  13.851  1.8818 -0.3858  1.4189
 8650SOL    HW237413   0.479   2.338  13.973 -0.6141 -0.2927  1.0136
 8651SOL     OW37414   0.817   2.681   7.407 -0.4165 -0.0190 -0.7644
 8651SOL    HW137415   0.854   2.724   7.484  0.7240  0.4556 -1.5823
 8651SOL    HW237416   0.880   2.706   7.340  0.5473 -0.4924 -0.0475
 8652SOL     OW37417   4.470   3.897   5.310 -0.1572 -0.4583  0.2333
 8652SOL    HW137418   4.527   3.960   5.353 -0.9317  1.0078 -0.8619
 8652SOL    HW237419   4.499   3.811   5.340  0.9842 -0.5018 -1.0113
 8653SOL     OW37420   0.903   4.593   7.463  0.2651  0.2724  0.4327
 8653SOL    HW137421   0.907   4.657   7.393 -1.8713 -0.4857 -0.3759
 8653SOL    HW237422   0.835   4.642   7.509 -1.3209 -1.0314 -0.4986
 8654SOL     OW37423   3.792   3.476   5.408  0.2643  0.6828 -0.0198
 8654SOL    HW137424   3.817   3.395   5.452  1.7764 -0.3121 -2.7340
 8654SOL    HW237425   3.836   3.459   5.325 -2.1307 -1.0815 -0.9436
 8655SOL     OW37426   1.682   4.481   6.421 -0.1705 -0.4105  0.2847
 8655SOL    HW137427   1.769   4.452   6.449  0.3775  0.4398 -0.5245
 8655SOL    HW237428   1.635   4.480   6.504  1.2404  0.2395  1.0906
 8656SOL     OW37429   2.085   4.703   7.187 -0.1505  0.3167  0.2581
 8656SOL    HW137430   2.131   0.054   7.226 -1.0365  1.3655 -0.6745
 8656SOL    HW237431   2.017   0.029   7.140 -2.1872 -1.2804  1.5819
 8657SOL     OW37432   1.918   0.034   3.330  0.1775 -0.2898 -0.3440
 8657SOL    HW137433   1.851   4.693   3.306  0.6554 -0.8831 -0.0959
 8657SOL    HW237434   1.964   4.721   3.406 -0.8828 -0.3528  0.2631
 8658SOL     OW37435   3.230   0.657   1.289  0.5488  0.0864  0.0404
 8658SOL    HW137436   3.217   0.749   1.312  0.6487 -0.1548  1.0516
 8658SOL    HW237437   3.301   0.636   1.350  0.0389  1.9363  1.2712
 8659SOL     OW37438   3.971   0.626   5.446 -0.2110 -0.1780  0.3479
 8659SOL    HW137439   4.044   0.640   5.385  0.3064 -0.7463  0.8363
 8659SOL    HW237440   3.995   0.685   5.517  0.8554  0.9420 -0.9447
 8660SOL     OW37441   4.582   4.325   1.488  0.6923 -0.5625  1.3111
 8660SOL    HW137442   4.487   4.335   1.476  1.0489  0.9063 -0.2795
 8660SOL    HW237443   4.595   4.407   1.537 -0.9131  0.4042  0.1246
 8661SOL     OW37444   0.810   1.896   5.568  0.5437 -0.4858  0.2577
 8661SOL    HW137445   0.827   1.990   5.564  1.0487 -0.6763 -2.1134
 8661SOL    HW237446   0.737   1.892   5.506 -0.2353  2.2249  0.9857
 8662SOL     OW37447   0.238   0.632  14.987 -0.5316 -0.3055 -0.3563
 8662SOL    HW137448   0.264   0.715  14.948 -1.5394 -0.1393 -0.6753
 8662SOL    HW237449   0.188   0.664  15.061 -1.5857 -0.8735 -0.8151
 8663SOL     OW37450   1.799   0.780   2.818  0.1941 -0.3873 -0.5926
 8663SOL    HW137451   1.716   0.814   2.786  0.3913  0.6311 -0.0044
 8663SOL    HW237452   1.788   0.783   2.913  1.7357 -0.1739 -0.4198
 8664SOL     OW37453   0.095   1.550  13.559 -0.0223  0.7477  0.4219
 8664SOL    HW137454   0.097   1.599  13.477 -3.4513  1.7185  0.8967
 8664SOL    HW237455   0.066   1.461  13.539 -0.4203  1.4854 -2.2018
 8665SOL     OW37456   3.206   0.049   2.538  0.1752 -0.6626 -0.3208
 8665SOL    HW137457   3.265   4.700   2.561  2.6400  1.5832  0.3395
 8665SOL    HW237458   3.270   0.108   2.501 -2.0753  2.1559  0.2893
 8666SOL     OW37459   2.240   1.528   7.713 -0.1551 -0.1485  0.0709
 8666SOL    HW137460   2.226   1.555   7.622 -0.0580 -0.2577  0.0246
 8666SOL    HW237461   2.179   1.455   7.722 -1.4249  1.0848  1.5247
 8667SOL     OW37462   3.305   0.335   8.822 -0.6747 -0.6968  0.2418
 8667SOL    HW137463   3.326   0.283   8.744 -0.2261  1.6530 -1.2317
 8667SOL    HW237464   3.387   0.342   8.870 -2.1323  0.8238  2.4897
 8668SOL     OW37465   0.971   1.713   3.892 -0.6225  0.5897 -0.1744
 8668SOL    HW137466   1.048   1.690   3.840  0.5015 -0.6819  2.0575
 8668SOL    HW237467   1.010   1.721   3.979  0.5678  0.0674 -0.6699
 8669SOL     OW37468   0.303   0.261   8.707 -0.1907  0.1764 -0.3754
 8669SOL    HW137469   0.312   0.335   8.766 -3.0825 -1.1733  1.7535
 8669SOL    HW237470   0.344   0.299   8.629  0.8223 -2.2185 -1.0139
 8670SOL     OW37471   2.372   3.716   5.786  0.1092  0.2784 -0.2212
 8670SOL    HW137472   2.405   3.718   5.696  2.7605 -0.1079  0.7334
 8670SOL    HW237473   2.455   3.744   5.825 -1.1459  2.1079  1.1469
 8671SOL     OW37474   4.535   4.692   8.264 -0.4167 -0.2921  0.4563
 8671SOL    HW137475   4.501   4.705   8.352 -3.0353 -0.0930 -0.5942
 8671SOL    HW237476   4.542   0.059   8.230  0.2220 -0.8103 -0.8051
 8672SOL     OW37477   0.543   0.314   3.974  0.2691 -0.1416 -0.5748
 8672SOL    HW137478   0.606   0.312   3.903  2.3635 -1.2441  1.3029
 8672SOL    HW237479   0.589   0.277   4.049 -0.0124 -0.5838 -0.6193
 8673SOL     OW37480   1.984   3.228   5.259 -0.0201  0.4931  0.1421
 8673SOL    HW137481   2.048   3.177   5.309 -1.9151 -1.3374  0.7309
 8673SOL    HW237482   1.905   3.184   5.290 -0.5794  0.0990 -1.8512
 8674SOL     OW37483   2.938   1.253   6.782  0.5602 -0.3516 -0.2029
 8674SOL    HW137484   2.900   1.235   6.869 -0.7228  0.6101 -0.5491
 8674SOL    HW237485   2.903   1.340   6.762  1.3111 -0.2193 -0.9145
 8675SOL     OW37486   2.984   4.032   4.599  0.3055 -0.1916 -0.3573
 8675SOL    HW137487   2.918   4.073   4.655 -0.0500 -1.9813  0.5253
 8675SOL    HW237488   2.991   3.944   4.634 -0.5506  0.1078  0.5965
 8676SOL     OW37489   0.976   0.043   5.098 -0.3503  0.4693 -0.2616
 8676SOL    HW137490   1.024   4.684   5.105  0.9372  1.1073 -1.9072
 8676SOL    HW237491   0.917   0.039   5.023 -0.0526  0.0347 -0.4701
 8677SOL     OW37492   0.071   3.754  13.738 -0.3477 -0.1139 -0.0016
 8677SOL    HW137493   4.704   3.777  13.760 -0.3388  1.2865 -1.3905
 8677SOL    HW237494   0.085   3.788  13.650 -1.2475 -0.4015 -0.2538
 8678SOL     OW37495   3.601   1.478   2.069  0.0231 -0.4050  0.3826
 8678SOL    HW137496   3.557   1.413   2.123  0.5777 -1.7780 -0.8104
 8678SOL    HW237497   3.538   1.483   1.997 -1.6978  0.2377  1.9454
 8679SOL     OW37498   3.784   1.526   9.221  0.0589 -0.2557 -0.1802
 8679SOL    HW137499   3.708   1.468   9.222  0.1293 -0.2994  1.9806
 8679SOL    HW237500   3.741   1.612   9.215  1.2829  0.3769  0.0686
 8680SOL     OW37501   3.196   0.101   6.487  0.9495 -0.3720  0.1164
 8680SOL    HW137502   3.229   0.180   6.445 -0.8989 -1.4621 -3.4033
 8680SOL    HW237503   3.139   0.139   6.553  1.8362  0.9997  0.0935
 8681SOL     OW37504   3.082   2.308   5.637 -0.4482 -0.1252  0.3265
 8681SOL    HW137505   3.087   2.301   5.732 -0.3334  1.4124  0.4371
 8681SOL    HW237506   3.116   2.398   5.635 -0.9223  0.0381 -0.6044
 8682SOL     OW37507   0.893   3.652   9.001 -1.1109 -0.1412 -0.3206
 8682SOL    HW137508   0.957   3.588   9.030  1.2547  2.8864  1.2042
 8682SOL    HW237509   0.937   3.694   8.927 -0.9515  2.0445  1.0181
 8683SOL     OW37510   3.637   2.596  15.641  0.4792 -0.2680  0.3202
 8683SOL    HW137511   3.546   2.601  15.670  0.5037  0.6933  0.2446
 8683SOL    HW237512   3.636   2.506  15.610  1.0986 -0.0109 -0.4349
 8684SOL     OW37513   0.665   3.090   3.274 -1.1938  0.0909 -0.2360
 8684SOL    HW137514   0.600   3.083   3.344 -0.4059 -0.2650  0.4587
 8684SOL    HW237515   0.701   3.003   3.288  0.5950  0.5140 -2.2710
 8685SOL     OW37516   2.601   4.213  10.340  0.5758  0.5035  0.3090
 8685SOL    HW137517   2.601   4.187  10.433 -0.1382  0.8270  0.4016
 8685SOL    HW237518   2.687   4.189  10.306  1.8958  1.0654  3.2268
 8686SOL     OW37519   2.587   2.299   5.227  0.2195 -0.2028  0.3035
 8686SOL    HW137520   2.533   2.228   5.261  2.5651 -2.6879 -1.1865
 8686SOL    HW237521   2.618   2.254   5.149  2.2092  0.4095  0.7480
 8687SOL     OW37522   2.486   3.328   0.543 -0.5548  0.5751  0.0857
 8687SOL    HW137523   2.445   3.257   0.594  1.6354 -0.8946 -0.2336
 8687SOL    HW237524   2.506   3.390   0.613 -1.8943  1.1852 -0.0607
 8688SOL     OW37525   3.080   1.249   8.231 -0.3866  0.6211  0.2931
 8688SOL    HW137526   3.000   1.198   8.221  0.6592 -0.5352 -2.3239
 8688SOL    HW237527   3.102   1.224   8.321 -0.6118  0.5946  0.3409
 8689SOL     OW37528   2.929   3.293   6.279 -0.3437 -0.1720  0.1733
 8689SOL    HW137529   2.876   3.316   6.203  1.2978  3.4986  0.1514
 8689SOL    HW237530   2.996   3.236   6.243 -0.5179  0.3599 -0.9919
 8690SOL     OW37531   0.729   1.548   3.927 -0.9935 -0.1010 -0.3307
 8690SOL    HW137532   0.796   1.504   3.874  1.1380 -0.4835  2.6964
 8690SOL    HW237533   0.733   1.639   3.896 -2.0616 -0.2725 -0.9597
 8691SOL     OW37534   1.257   1.842   5.644 -0.4892  0.4046  0.0760
 8691SOL    HW137535   1.305   1.766   5.678 -0.8501  0.4167  0.6077
 8691SOL    HW237536   1.244   1.906   5.714  0.0796 -1.0798  1.5509
 8692SOL     OW37537   4.572   1.522  12.328 -0.0273 -0.1706  0.4222
 8692SOL    HW137538   4.481   1.493  12.331  0.6677 -2.2668  1.7560
 8692SOL    HW237539   4.561   1.598  12.272  0.6393 -0.5494 -0.2344
 8693SOL     OW37540   0.204   3.952   6.106 -0.5134  0.4787 -0.4116
 8693SOL    HW137541   0.121   3.923   6.068  0.0547  0.7759 -1.8810
 8693SOL    HW237542   0.175   4.019   6.168  0.3188 -2.1040  2.7805
 8694SOL     OW37543   1.133   4.300   3.384  0.1517  0.4744 -0.4714
 8694SOL    HW137544   1.115   4.389   3.355  0.1801  0.2745 -1.0879
 8694SOL    HW237545   1.071   4.249   3.332 -0.5566  1.4451 -0.5693
 8695SOL     OW37546   2.177   1.952   5.653 -0.3500 -0.3688 -0.1717
 8695SOL    HW137547   2.268   1.923   5.657 -0.6829 -1.3675  0.3058
 8695SOL    HW237548   2.161   1.989   5.740 -1.2844  1.2453 -1.0178
 8696SOL     OW37549   3.596   1.300   7.688 -0.6008 -0.1250 -0.4449
 8696SOL    HW137550   3.605   1.224   7.630  1.4436 -0.5946  0.4693
 8696SOL    HW237551   3.682   1.339   7.671 -0.0754 -0.5209  1.2102
 8697SOL     OW37552   1.355   1.878   8.394 -0.4784  0.4787  0.1436
 8697SOL    HW137553   1.362   1.973   8.395  0.9657  0.3726 -0.6445
 8697SOL    HW237554   1.439   1.857   8.433 -0.9402 -1.3687  0.1285
 8698SOL     OW37555   0.798   3.688   1.873 -0.3618  0.0679  0.7127
 8698SOL    HW137556   0.779   3.757   1.809  1.0836  1.0920  1.4023
 8698SOL    HW237557   0.741   3.712   1.947  2.0841  0.1726  2.5444
 8699SOL     OW37558   2.524   4.623   7.398  0.1788 -0.0372  0.5579
 8699SOL    HW137559   2.500   4.570   7.474 -0.9373 -1.6308 -0.9125
 8699SOL    HW237560   2.517   4.571   7.318  1.3099 -0.4148  0.7082
 8700SOL     OW37561   0.286   1.320   2.917  0.2112  0.4006  0.6006
 8700SOL    HW137562   0.236   1.283   2.990 -1.6337  1.5653 -0.0868
 8700SOL    HW237563   0.325   1.247   2.868  2.5636  0.9594  1.6409
 8701SOL     OW37564   2.287   2.365   9.954  0.1559  0.0243  0.5343
 8701SOL    HW137565   2.332   2.299   9.900 -0.4133 -0.1636  0.2927
 8701SOL    HW237566   2.308   2.445   9.905 -0.6686 -0.2252 -0.2344
 8702SOL     OW37567   1.775   3.165   3.469  0.4477 -0.0358 -0.2494
 8702SOL    HW137568   1.778   3.134   3.560 -2.2562  0.0330 -0.1457
 8702SOL    HW237569   1.863   3.144   3.438  0.4326  1.0483 -0.9999
 8703SOL     OW37570   0.663   3.955   5.504 -0.3686 -0.3433  0.4222
 8703SOL    HW137571   0.570   3.934   5.509 -0.2461 -1.0346 -0.2895
 8703SOL    HW237572   0.670   3.973   5.410  0.1089  1.8468  0.8789
 8704SOL     OW37573   4.321   3.013  11.056  0.2977  0.2563 -0.1533
 8704SOL    HW137574   4.353   3.024  10.966  0.0307  0.9128 -0.1628
 8704SOL    HW237575   4.389   2.954  11.087 -0.0111  1.0295  1.9865
 8705SOL     OW37576   0.194   3.606   2.446 -0.0091  0.3237  0.3875
 8705SOL    HW137577   0.142   3.542   2.397  1.4656 -0.0493 -0.6843
 8705SOL    HW237578   0.132   3.676   2.465  0.6103  0.7194  0.9567
 8706SOL     OW37579   2.354   1.563   4.842  0.0438 -0.3515 -0.0487
 8706SOL    HW137580   2.270   1.535   4.805 -0.8474 -0.3718  1.9495
 8706SOL    HW237581   2.409   1.493   4.808  0.4925 -0.7373  1.4551
 8707SOL     OW37582   1.460   2.811   4.255  0.3911 -0.1054 -0.0017
 8707SOL    HW137583   1.548   2.816   4.293  1.1378 -0.2807 -1.7165
 8707SOL    HW237584   1.482   2.775   4.169  3.1850  0.8693  0.2920
 8708SOL     OW37585   3.702   0.822   2.527 -0.4332  0.1774 -0.1415
 8708SOL    HW137586   3.626   0.801   2.471 -2.0379  1.5990  1.5107
 8708SOL    HW237587   3.690   0.915   2.545 -0.0920 -0.0146  1.0702
 8709SOL     OW37588   0.443   4.147  12.699 -0.3027  0.2665  0.6589
 8709SOL    HW137589   0.402   4.202  12.633  2.3718 -0.8957 -1.9764
 8709SOL    HW237590   0.427   4.201  12.776 -0.8806 -0.7094  1.2281
 8710SOL     OW37591   1.925   3.396  16.918 -0.0157  0.4105 -0.0923
 8710SOL    HW137592   1.957   3.481  16.947 -2.1786  1.3182 -0.3950
 8710SOL    HW237593   1.847   3.423  16.870  0.1432 -1.3755 -1.3592
 8711SOL     OW37594   2.257   1.385   3.344 -0.0345  0.1407 -0.7303
 8711SOL    HW137595   2.193   1.455   3.354  1.7496  1.7598 -0.7230
 8711SOL    HW237596   2.202   1.307   3.356  0.4150  0.1832  1.6019
 8712SOL     OW37597   4.265   2.502   7.382  0.4051 -0.0043 -0.6675
 8712SOL    HW137598   4.310   2.544   7.309 -2.7864  2.1436 -1.4124
 8712SOL    HW237599   4.223   2.575   7.428  2.4036  1.0056 -0.4179
 8713SOL     OW37600   4.186   4.017   8.725  0.5829 -0.2835  0.1916
 8713SOL    HW137601   4.159   4.012   8.817 -0.2771  2.0907  0.0763
 8713SOL    HW237602   4.144   3.940   8.687 -1.7973  1.2998 -0.3728
 8714SOL     OW37603   4.669   2.625   4.579  0.0671 -0.4360 -0.1490
 8714SOL    HW137604   4.574   2.628   4.563 -0.1000  0.7629  1.0342
 8714SOL    HW237605   4.696   2.680   4.505 -0.6416  0.5000  0.2876
 8715SOL     OW37606   1.679   3.356   7.561  0.3160  0.2625  0.5991
 8715SOL    HW137607   1.651   3.337   7.650 -0.5657 -1.9964 -0.1679
 8715SOL    HW237608   1.773   3.336   7.563  0.3652  0.7503  2.8494
 8716SOL     OW37609   1.774   3.862   4.569  0.6499  0.1772 -0.6100
 8716SOL    HW137610   1.714   3.829   4.636  2.0710 -3.1017 -0.9391
 8716SOL    HW237611   1.715   3.917   4.517  0.5497 -0.1169 -0.8077
 8717SOL     OW37612   4.663   3.452   4.994  0.1145  0.0662 -0.0144
 8717SOL    HW137613   4.659   3.436   4.900 -3.1700  1.9832 -0.1905
 8717SOL    HW237614   4.689   3.541   5.020 -0.5671 -0.4323  2.4116
 8718SOL     OW37615   1.910   2.374   4.377 -0.3114 -0.2042 -0.1664
 8718SOL    HW137616   1.994   2.420   4.384  0.1507 -1.0902  0.1771
 8718SOL    HW237617   1.929   2.290   4.335  0.1573  0.5401 -1.4159
 8719SOL     OW37618   4.605   2.988   3.696 -0.6565  1.0995 -0.3733
 8719SOL    HW137619   4.582   3.066   3.645 -3.7286 -0.1798 -0.9766
 8719SOL    HW237620   4.544   2.921   3.666  1.2583 -0.2976 -1.1090
 8720SOL     OW37621   2.514   3.762  14.626  0.5999  0.0031  0.2999
 8720SOL    HW137622   2.527   3.673  14.658 -0.0236 -0.2304 -0.1027
 8720SOL    HW237623   2.419   3.770  14.624  0.5796 -0.6655 -2.5651
 8721SOL     OW37624   0.641   1.781  17.613  0.3734  0.2945  0.3600
 8721SOL    HW137625   0.666   1.770   0.011  0.3666 -0.2243  0.2989
 8721SOL    HW237626   0.720   1.738  17.581  0.8148  0.6592  0.9556
 8722SOL     OW37627   0.956   1.644   1.678  0.2467 -0.0316 -0.0947
 8722SOL    HW137628   0.923   1.734   1.684  0.4579 -0.1386  2.6720
 8722SOL    HW237629   0.875   1.609   1.716  0.7385 -0.3155  0.6861
 8723SOL     OW37630   0.706   3.776   7.993  0.2564  0.6632  0.2054
 8723SOL    HW137631   0.689   3.682   7.982 -0.5572  0.8397 -0.0475
 8723SOL    HW237632   0.654   3.816   7.924  0.0665  0.6676  0.3519
 8724SOL     OW37633   2.053   2.798   7.058 -0.3690  0.4916  0.3969
 8724SOL    HW137634   1.958   2.800   7.069 -0.6169  1.6800 -1.9131
 8724SOL    HW237635   2.064   2.880   7.010  1.8109  0.8962  1.5486
 8725SOL     OW37636   3.685   0.346   3.154  0.1576 -0.4043  0.2497
 8725SOL    HW137637   3.724   0.284   3.093 -1.7583 -0.2663 -1.1265
 8725SOL    HW237638   3.663   0.294   3.232 -2.7598  2.2993  1.2279
 8726SOL     OW37639   2.025   3.936   2.853  0.4658 -0.2040 -0.1935
 8726SOL    HW137640   2.014   4.004   2.787  1.7896 -0.1530 -0.3544
 8726SOL    HW237641   2.026   3.993   2.930  1.6404  0.9281 -1.0661
 8727SOL     OW37642   3.270   1.557   8.038 -0.0347  0.0153 -0.6172
 8727SOL    HW137643   3.245   1.483   7.984  0.4655  0.0415 -0.8840
 8727SOL    HW237644   3.224   1.546   8.121  1.6012 -2.7045 -0.0937
 8728SOL     OW37645   0.719   0.102   1.689  0.3790 -0.1413  0.4135
 8728SOL    HW137646   0.638   0.093   1.740  0.4702  4.3470  1.2922
 8728SOL    HW237647   0.710   0.179   1.632 -1.5426 -0.1333  0.7140
 8729SOL     OW37648   0.808   0.882  13.078  0.1634 -0.1595 -0.4274
 8729SOL    HW137649   0.740   0.885  13.145  1.0864 -2.3611  0.6206
 8729SOL    HW237650   0.767   0.877  12.992  0.0621  1.0923 -0.4441
 8730SOL     OW37651   0.068   2.165   2.601 -0.3655  0.1698 -0.3907
 8730SOL    HW137652   0.115   2.105   2.543  0.1599 -0.7444  0.9801
 8730SOL    HW237653   0.064   2.121   2.686 -1.1369  3.0032  1.0550
 8731SOL     OW37654   3.911   4.281   4.611  0.4015  0.2873 -0.8796
 8731SOL    HW137655   3.980   4.228   4.652 -1.0945 -1.3502 -0.4868
 8731SOL    HW237656   3.949   4.368   4.604 -0.5572  0.7525 -0.2259
 8732SOL     OW37657   1.539   2.449   8.261 -0.2209 -0.3265 -0.4305
 8732SOL    HW137658   1.586   2.411   8.336 -2.4754 -0.4786  0.9125
 8732SOL    HW237659   1.609   2.491   8.211 -0.2471 -0.1381 -0.3099
 8733SOL     OW37660   3.652   3.474  12.958  0.1834 -0.3661  0.0960
 8733SOL    HW137661   3.696   3.442  13.037 -0.4789  0.9169  0.9740
 8733SOL    HW237662   3.725   3.479  12.896  1.8173  2.0222  2.2087
 8734SOL     OW37663   4.072   3.335   8.359 -0.4350 -0.3750 -0.2226
 8734SOL    HW137664   4.077   3.262   8.298  1.0014 -0.7911  0.3969
 8734SOL    HW237665   4.013   3.395   8.314 -3.1075 -2.4065  0.5836
 8735SOL     OW37666   4.259   0.560  14.753  0.0918  0.4502  0.1354
 8735SOL    HW137667   4.167   0.543  14.775 -0.5619  3.1379 -0.4811
 8735SOL    HW237668   4.293   0.505  14.823  2.7909  1.0447 -0.7045
 8736SOL     OW37669   3.321   3.518   5.295 -0.0974 -0.3433 -0.1847
 8736SOL    HW137670   3.230   3.543   5.308 -0.1039 -0.2820 -0.3475
 8736SOL    HW237671   3.367   3.597   5.326  1.1840 -0.4656 -1.7686
 8737SOL     OW37672   0.964   0.422   7.340  0.2442  0.1758 -0.3130
 8737SOL    HW137673   0.919   0.506   7.347 -0.4718 -0.1058 -1.4613
 8737SOL    HW237674   1.033   0.442   7.403  1.1460  0.1837 -1.3097
 8738SOL     OW37675   2.034   2.638   5.360  0.1147  0.1170  0.2255
 8738SOL    HW137676   1.969   2.621   5.429  0.4814  0.4050  0.6457
 8738SOL    HW237677   2.031   2.733   5.349 -1.6275 -0.1807 -1.8044
 8739SOL     OW37678   2.879   4.242  14.479 -0.2731 -0.2870 -0.0345
 8739SOL    HW137679   2.803   4.270  14.429 -0.2349 -0.0932  0.0138
 8739SOL    HW237680   2.861   4.148  14.481  1.7662 -0.6104  4.9907
 8740SOL     OW37681   3.134   1.085   7.609  0.8301 -0.2371  0.2260
 8740SOL    HW137682   3.067   1.018   7.593  0.5278  0.0693  0.2092
 8740SOL    HW237683   3.077   1.158   7.586  0.2375 -1.4464 -2.1621
 8741SOL     OW37684   2.888   2.637   8.203  0.3022  0.2216 -0.4650
 8741SOL    HW137685   2.982   2.624   8.203  0.2910  0.2286  2.9765
 8741SOL    HW237686   2.877   2.708   8.265  0.3672 -2.6136  2.8201
 8742SOL     OW37687   4.222   3.468   7.801 -0.0236 -0.3766 -0.0555
 8742SOL    HW137688   4.220   3.561   7.781  1.0757 -0.4037 -0.3274
 8742SOL    HW237689   4.196   3.466   7.893 -1.7114  0.6837 -0.5203
 8743SOL     OW37690   4.205   0.433   7.504 -0.0624 -0.0609  0.1933
 8743SOL    HW137691   4.133   0.469   7.555  0.2442 -1.1753  1.4349
 8743SOL    HW237692   4.273   0.467   7.563 -1.2671  2.5053  0.0669
 8744SOL     OW37693   3.640   3.891   9.058 -0.2808 -0.7577 -0.0768
 8744SOL    HW137694   3.640   3.882   9.154  3.7469  2.7334  0.2034
 8744SOL    HW237695   3.703   3.962   9.046 -0.2744 -0.6100  0.8338
 8745SOL     OW37696   3.102   1.555   7.587  0.0040  0.0478 -0.3482
 8745SOL    HW137697   3.092   1.627   7.650  1.7005 -0.6654  0.7444
 8745SOL    HW237698   3.111   1.608   7.507 -0.4556  1.0953  0.2849
 8746SOL     OW37699   0.859   0.182  17.107 -0.6636  0.4973 -0.2312
 8746SOL    HW137700   0.820   0.200  17.193 -0.8411 -2.2559  0.2572
 8746SOL    HW237701   0.928   0.119  17.130  0.0248  1.2694 -0.1611
 8747SOL     OW37702   0.552   1.251   6.247  0.2918 -0.7023  0.1660
 8747SOL    HW137703   0.595   1.333   6.223 -1.7147 -0.0599 -1.2326
 8747SOL    HW237704   0.593   1.192   6.184 -0.3238 -1.5764  0.5862
 8748SOL     OW37705   2.308   4.451   2.453 -0.0413 -0.3959 -0.5030
 8748SOL    HW137706   2.236   4.403   2.410  0.0895 -0.6666 -0.4220
 8748SOL    HW237707   2.383   4.410   2.410  0.6245  0.1095  0.1974
 8749SOL     OW37708   4.207   0.641   5.296 -0.2802 -0.0349 -0.5361
 8749SOL    HW137709   4.155   0.606   5.224  1.2830 -2.3802 -0.5377
 8749SOL    HW237710   4.296   0.643   5.261  0.7186  1.6000  2.1193
 8750SOL     OW37711   0.059   0.454  11.407  0.1488 -0.3819  0.5932
 8750SOL    HW137712   0.073   0.507  11.328 -1.0842 -0.4683  0.3077
 8750SOL    HW237713   4.694   0.422  11.388 -0.2601  0.2355  1.4453
 8751SOL     OW37714   3.230   3.555   9.048  0.7136  0.2071 -0.3411
 8751SOL    HW137715   3.270   3.580   8.965  1.4766  3.0310  0.8732
 8751SOL    HW237716   3.264   3.632   9.095  1.9331 -0.7078  0.2935
 8752SOL     OW37717   2.298   3.123   5.362  0.1338 -0.3895 -0.3309
 8752SOL    HW137718   2.339   3.144   5.446  1.8861  2.9996 -2.0588
 8752SOL    HW237719   2.283   3.209   5.324  1.6243 -1.2678 -2.9442
 8753SOL     OW37720   0.192   2.953   5.669  0.1260  0.5226 -0.1936
 8753SOL    HW137721   0.192   2.946   5.765  0.1509  0.2859 -0.2107
 8753SOL    HW237722   0.163   2.867   5.639  1.7200 -0.6450  1.5577
 8754SOL     OW37723   3.191   1.539   0.134  0.0102  0.3960 -0.5533
 8754SOL    HW137724   3.284   1.557   0.144  0.2246 -0.5568 -0.7724
 8754SOL    HW237725   3.187   1.486   0.214  0.7598 -0.1983 -0.9064
 8755SOL     OW37726   3.268   0.499  10.213 -0.5394  0.1338 -0.4584
 8755SOL    HW137727   3.255   0.539  10.127 -2.1973  0.5079 -0.0412
 8755SOL    HW237728   3.348   0.446  10.205 -0.4288  0.3191 -0.5636
 8756SOL     OW37729   3.451   1.919   0.286  0.2727 -0.5441 -0.0034
 8756SOL    HW137730   3.357   1.929   0.301  0.0965 -0.0888 -1.4855
 8756SOL    HW237731   3.473   1.880   0.371 -0.6670  1.1574  1.0205
 8757SOL     OW37732   1.680   1.035   6.777 -0.7845 -0.6047 -0.3603
 8757SOL    HW137733   1.668   1.130   6.772  1.6568 -0.2613 -0.0836
 8757SOL    HW237734   1.603   0.999   6.734 -0.9780 -0.1181 -0.4181
 8758SOL     OW37735   2.589   1.149   6.735  0.8421  0.2386  0.0168
 8758SOL    HW137736   2.654   1.189   6.678  0.4615  4.1240  2.3339
 8758SOL    HW237737   2.571   1.071   6.682  2.4055 -1.7825  2.4703
 8759SOL     OW37738   3.418   1.657   1.638 -0.3501  0.3470  0.3989
 8759SOL    HW137739   3.343   1.650   1.579  0.4391 -1.2225 -0.3772
 8759SOL    HW237740   3.479   1.603   1.589 -0.0033  1.6953 -0.6425
 8760SOL     OW37741   3.560   0.187  15.676 -0.1119  0.3336  0.0582
 8760SOL    HW137742   3.528   0.125  15.611  1.4013 -0.8654  0.4533
 8760SOL    HW237743   3.543   0.146  15.761  1.4511  0.1548  0.2889
 8761SOL     OW37744   4.328   4.471   0.047  0.2813  0.4046 -0.0869
 8761SOL    HW137745   4.352   4.393   0.097  1.8390  2.1512  1.8999
 8761SOL    HW237746   4.353   4.450  17.651  0.2809 -0.8140  0.2049
 8762SOL     OW37747   0.511   1.156   7.865  0.2082  0.4870  0.0937
 8762SOL    HW137748   0.495   1.177   7.957  2.4555 -0.1693  0.6094
 8762SOL    HW237749   0.567   1.078   7.865 -1.3967 -0.6662  1.3247
 8763SOL     OW37750   3.706   3.196   0.770  0.3670  0.6490 -0.7033
 8763SOL    HW137751   3.758   3.255   0.825  0.3969  0.2562 -0.3055
 8763SOL    HW237752   3.781   3.145   0.740 -0.7454 -0.4274 -1.6612
 8764SOL     OW37753   2.989   3.407  10.953 -0.0473 -0.2945 -0.4670
 8764SOL    HW137754   2.980   3.429  11.046  1.8003 -0.4061 -0.2569
 8764SOL    HW237755   2.938   3.479  10.916 -0.7896 -0.0335  1.0597
 8765SOL     OW37756   0.888   2.034  16.692 -0.0413 -0.5396  0.0904
 8765SOL    HW137757   0.896   2.117  16.644  1.6532 -0.9480 -0.3249
 8765SOL    HW237758   0.792   2.031  16.695 -0.0741 -1.4678 -1.7190
 8766SOL     OW37759   3.847   0.893   9.726 -0.1041  0.1288  0.1280
 8766SOL    HW137760   3.885   0.935   9.649 -1.3786  0.4966 -0.3050
 8766SOL    HW237761   3.880   0.804   9.725  4.4994  1.8429 -0.0101
 8767SOL     OW37762   2.367   2.678   2.611 -0.1715  0.6639  0.0688
 8767SOL    HW137763   2.345   2.700   2.520  0.1149 -1.5078 -0.5393
 8767SOL    HW237764   2.450   2.724   2.624  0.0461  0.8491 -1.8776
 8768SOL     OW37765   2.033   0.683   2.603 -0.5073  0.1114  0.6609
 8768SOL    HW137766   2.021   0.708   2.512 -2.0579  0.4482  0.9629
 8768SOL    HW237767   2.128   0.689   2.594 -0.3407 -1.4044  1.4668
 8769SOL     OW37768   2.391   3.633  17.579 -0.4048  0.1938 -0.2321
 8769SOL    HW137769   2.469   3.678  17.544 -0.9208  1.5933  0.4293
 8769SOL    HW237770   2.413   3.621  17.671 -0.0266  0.5424 -0.2744
 8770SOL     OW37771   1.203   0.855   3.198  0.2550 -0.4105  0.1625
 8770SOL    HW137772   1.240   0.918   3.259  0.6030 -1.0038  0.5577
 8770SOL    HW237773   1.167   0.910   3.128  0.1021 -5.0510 -3.4155
 8771SOL     OW37774   4.385   4.649   2.025 -0.1744 -0.3195  0.1308
 8771SOL    HW137775   4.373   4.604   2.108 -0.7546  1.5871  1.0777
 8771SOL    HW237776   4.356   0.016   2.039 -2.7066 -1.0698 -0.3904
 8772SOL     OW37777   0.216   3.292   6.541 -0.1005 -0.9904  0.3340
 8772SOL    HW137778   0.248   3.331   6.460  0.0210 -2.0389 -0.1317
 8772SOL    HW237779   0.123   3.310   6.532  0.2641 -0.4812 -2.3037
 8773SOL     OW37780   1.751   3.667   6.497  0.4984 -0.7398 -0.2749
 8773SOL    HW137781   1.741   3.579   6.532 -0.5200 -0.9628 -1.1240
 8773SOL    HW237782   1.695   3.663   6.420 -0.3453 -0.1597  0.3001
 8774SOL     OW37783   4.568   4.598   3.895 -0.2706 -0.4647 -0.1722
 8774SOL    HW137784   4.474   4.602   3.913  0.1911  0.1745  2.0737
 8774SOL    HW237785   4.599   4.641   3.974  0.9012 -0.9589 -0.3736
 8775SOL     OW37786   1.667   2.961  15.965  0.9045  0.1051  0.3567
 8775SOL    HW137787   1.705   3.034  15.915  0.0660 -0.0753 -0.5496
 8775SOL    HW237788   1.738   2.900  15.945 -0.3688 -1.1631 -0.3034
 8776SOL     OW37789   0.467   2.546   8.757  0.0563  0.4527 -0.1006
 8776SOL    HW137790   0.561   2.537   8.771 -0.1847 -0.4866  0.9347
 8776SOL    HW237791   0.429   2.479   8.814 -1.2662  0.0533 -1.4268
 8777SOL     OW37792   4.129   0.990   4.383  0.6879  0.5205 -0.1428
 8777SOL    HW137793   4.050   0.953   4.344  1.4824 -0.1101 -1.1910
 8777SOL    HW237794   4.177   0.909   4.363 -1.9542 -1.1802  0.4277
 8778SOL     OW37795   2.523   2.812   9.964 -0.4297  0.3826  0.2856
 8778SOL    HW137796   2.546   2.887  10.018  2.0967  0.3116 -0.6787
 8778SOL    HW237797   2.560   2.841   9.880 -0.8232  0.9272  0.2981
 8779SOL     OW37798   3.674   0.316   0.506 -0.1037 -0.3893 -0.8074
 8779SOL    HW137799   3.628   0.254   0.449  1.0183  0.0113 -2.1339
 8779SOL    HW237800   3.706   0.270   0.583 -1.1763  0.1997 -0.0083
 8780SOL     OW37801   3.538   3.833   3.535 -0.5206 -0.6317 -0.2148
 8780SOL    HW137802   3.542   3.917   3.581  1.0955 -0.1521 -1.2196
 8780SOL    HW237803   3.444   3.816   3.536 -0.4136 -1.1966  0.4388
 8781SOL     OW37804   2.364   0.962   1.998 -0.0125 -0.0506  0.1623
 8781SOL    HW137805   2.426   0.942   2.068  1.0636  0.1320 -0.7272
 8781SOL    HW237806   2.412   1.023   1.941  0.7813 -1.6361 -0.8781
 8782SOL     OW37807   3.224   2.482   0.716 -0.1476 -0.3511  0.2389
 8782SOL    HW137808   3.204   2.530   0.636 -0.6617 -0.8764  0.0561
 8782SOL    HW237809   3.297   2.428   0.687  0.0533 -0.9066  1.7713
 8783SOL     OW37810   1.911   1.113   7.266 -0.5742 -0.1526 -0.0256
 8783SOL    HW137811   1.968   1.070   7.202 -1.0561  1.1725 -1.3361
 8783SOL    HW237812   1.976   1.141   7.331  0.3542  1.0426 -1.4953
 8784SOL     OW37813   1.147   0.859   0.436  0.4973  0.3954  0.2822
 8784SOL    HW137814   1.141   0.775   0.482 -0.7595 -0.1909 -0.9250
 8784SOL    HW237815   1.230   0.841   0.391  1.2476  0.6844  1.5618
 8785SOL     OW37816   2.332   2.530   0.699 -0.4530 -0.0300 -0.1618
 8785SOL    HW137817   2.284   2.454   0.667  0.2019 -0.6483  0.3327
 8785SOL    HW237818   2.339   2.575   0.615  0.7925 -1.7655 -0.9909
 8786SOL     OW37819   2.783   2.407  16.885  0.0252  0.4955 -0.1045
 8786SOL    HW137820   2.757   2.448  16.968 -0.2046  0.3627 -0.1104
 8786SOL    HW237821   2.869   2.377  16.912  0.6614  2.2062 -0.2144
 8787SOL     OW37822   4.060   4.597   9.134 -0.0590 -0.1054 -0.0682
 8787SOL    HW137823   4.023   4.677   9.172  3.0709  1.5023 -0.4176
 8787SOL    HW237824   4.153   4.607   9.157 -0.8313 -1.7901  3.7817
 8788SOL     OW37825   2.097   4.126   4.209 -0.5552 -0.1328 -0.7619
 8788SOL    HW137826   2.148   4.202   4.179  1.4271 -0.3488  2.1397
 8788SOL    HW237827   2.036   4.163   4.273 -0.7718 -2.7405  0.5397
 8789SOL     OW37828   1.348   2.594  16.081 -0.0495 -0.2298  0.1431
 8789SOL    HW137829   1.304   2.564  16.001 -2.6945  1.2507  1.0377
 8789SOL    HW237830   1.319   2.524  16.140 -1.9133  0.7304  0.3662
 8790SOL     OW37831   3.116   1.543  13.621  0.2323 -0.2776 -0.6148
 8790SOL    HW137832   3.065   1.500  13.552  0.3855  0.3987 -1.1493
 8790SOL    HW237833   3.199   1.497  13.619  1.1747  1.4127 -0.1419
 8791SOL     OW37834   4.644   1.942   5.111 -0.1391 -0.0285  0.0037
 8791SOL    HW137835   4.589   1.916   5.037 -1.1528  1.6618  0.1677
 8791SOL    HW237836   0.003   1.896   5.095  0.4020  0.8577  0.2396
 8792SOL     OW37837   0.511   3.438   1.722 -0.0650 -0.0222 -0.2067
 8792SOL    HW137838   0.437   3.379   1.734 -0.4574  0.1878 -1.6050
 8792SOL    HW237839   0.545   3.429   1.633  1.7747 -0.3919  0.5162
 8793SOL     OW37840   0.217   4.507   3.946 -0.4775 -0.2009  0.5031
 8793SOL    HW137841   0.280   4.534   4.013 -0.2589 -2.2151  1.1078
 8793SOL    HW237842   0.247   4.425   3.907  1.7104  0.8995 -0.1033
 8794SOL     OW37843   2.139   0.331  16.261  0.1555 -0.5160  0.0779
 8794SOL    HW137844   2.102   0.313  16.174 -0.0079  0.3362 -0.0278
 8794SOL    HW237845   2.227   0.360  16.238 -0.2311  1.5493  1.2538
 8795SOL     OW37846   3.757   3.717   8.508  0.0240 -0.0667  0.0270
 8795SOL    HW137847   3.727   3.806   8.523 -2.1829 -0.7602 -0.3093
 8795SOL    HW237848   3.811   3.702   8.586  0.6412  3.1263  0.2042
 8796SOL     OW37849   3.573   0.618  14.848  0.2059 -0.3160 -0.6537
 8796SOL    HW137850   3.655   0.661  14.823  0.5938 -1.4224 -1.2896
 8796SOL    HW237851   3.510   0.688  14.830 -1.8158 -1.9795 -0.0282
 8797SOL     OW37852   2.267   0.450   2.946 -0.1400  0.2067 -0.6893
 8797SOL    HW137853   2.188   0.496   2.917 -1.0223 -3.0426 -3.5100
 8797SOL    HW237854   2.303   0.518   3.003  3.3514 -2.2693  0.0808
 8798SOL     OW37855   0.435   4.028   3.405 -0.2440  0.3905  0.1050
 8798SOL    HW137856   0.389   4.018   3.322 -1.2011  0.3299  0.6466
 8798SOL    HW237857   0.502   3.962   3.388 -1.9763 -1.9431  2.4279
 8799SOL     OW37858   4.554   3.524   3.012  0.0742  1.1329  0.0999
 8799SOL    HW137859   4.625   3.460   3.022  1.1746  2.2353 -0.7548
 8799SOL    HW237860   4.506   3.468   2.950  0.4459  0.5747  0.3153
 8800SOL     OW37861   1.008   2.396   3.751 -0.5050 -0.1123  0.1714
 8800SOL    HW137862   1.084   2.356   3.794  0.9193  2.1438 -0.2445
 8800SOL    HW237863   1.012   2.474   3.807  1.9651 -0.4469  0.4729
 8801SOL     OW37864   0.882   3.492  16.974 -0.1881  0.2667 -0.0410
 8801SOL    HW137865   0.947   3.562  16.971  0.8654 -0.6934 -0.0231
 8801SOL    HW237866   0.819   3.523  16.910 -0.1710 -1.3876 -0.8614
 8802SOL     OW37867   1.213   3.425   7.067 -1.0624 -0.5514 -0.0040
 8802SOL    HW137868   1.257   3.448   6.985 -0.0488  1.5436  1.1348
 8802SOL    HW237869   1.260   3.346   7.094 -2.3343 -1.3630 -0.1208
 8803SOL     OW37870   0.512   2.919   9.013  0.0884 -0.3251 -0.5006
 8803SOL    HW137871   0.558   2.842   9.048  1.8928 -0.0443 -2.2472
 8803SOL    HW237872   0.554   2.986   9.067 -0.2667 -1.4406  1.1619
 8804SOL     OW37873   3.471   3.563   6.873 -0.2392  0.3699  0.3229
 8804SOL    HW137874   3.513   3.597   6.795  0.5679 -1.6724 -0.1290
 8804SOL    HW237875   3.471   3.642   6.927 -3.1549 -0.4246  1.5242
 8805SOL     OW37876   0.878   0.214   2.300  0.0034 -0.0422 -0.0829
 8805SOL    HW137877   0.937   0.265   2.245  1.6539  0.1675  1.8841
 8805SOL    HW237878   0.801   0.220   2.243 -0.3493 -1.5743  0.2243
 8806SOL     OW37879   0.757   2.693   6.802 -0.2247  0.5238 -0.2935
 8806SOL    HW137880   0.852   2.682   6.802 -0.2346  0.3454  1.0869
 8806SOL    HW237881   0.744   2.719   6.893 -0.1094  2.3191 -0.7837
 8807SOL     OW37882   4.291   1.836   8.995 -0.0793  0.3638  0.0033
 8807SOL    HW137883   4.349   1.911   8.981  0.0163  0.2670 -0.1244
 8807SOL    HW237884   4.284   1.830   9.090  0.8309 -0.2413  0.0340
 8808SOL     OW37885   0.193   3.680   2.127  0.2883  0.1012  0.7270
 8808SOL    HW137886   0.159   3.640   2.207 -0.2546  0.3431  0.6165
 8808SOL    HW237887   0.195   3.600   2.074  2.0252  1.6611 -1.5698
 8809SOL     OW37888   3.832   0.803   2.137 -0.0194  0.7213 -0.2577
 8809SOL    HW137889   3.831   0.716   2.096 -1.9725  0.1859  0.9179
 8809SOL    HW237890   3.814   0.870   2.072 -2.4959  0.7435  0.4559
 8810SOL     OW37891   3.174   2.297   8.949 -0.2257  0.2623 -0.6362
 8810SOL    HW137892   3.196   2.206   8.965 -1.4462 -0.0848 -0.8908
 8810SOL    HW237893   3.220   2.336   9.024 -0.3039 -0.4224 -0.2341
 8811SOL     OW37894   4.641   2.083   3.349 -0.0332 -0.1204 -0.3015
 8811SOL    HW137895   4.607   2.019   3.411  0.7008  0.1805  0.4123
 8811SOL    HW237896   4.603   2.161   3.389 -0.3875 -0.3129 -0.2625
 8812SOL     OW37897   4.481   4.490   8.775  0.0119  0.2829  0.6878
 8812SOL    HW137898   4.413   4.515   8.712  1.5599 -2.7324 -2.1435
 8812SOL    HW237899   4.517   4.576   8.798 -0.7255  1.5224 -2.8722
 8813SOL     OW37900   2.481   1.748   3.028  0.5498 -0.3780  0.0483
 8813SOL    HW137901   2.550   1.690   2.996 -0.0090 -0.0431 -1.7712
 8813SOL    HW237902   2.473   1.792   2.943  1.2894  0.8752  0.6366
 8814SOL     OW37903   2.968   0.218   4.644 -0.7784  0.4302 -0.1920
 8814SOL    HW137904   2.913   0.140   4.652  2.4451 -1.5558  2.3890
 8814SOL    HW237905   2.924   0.272   4.710 -1.5424 -1.0537  0.5138
 8815SOL     OW37906   3.041   0.535   6.174 -0.1926  0.1905 -0.3330
 8815SOL    HW137907   3.007   0.447   6.160  1.2082 -0.4116  0.0019
 8815SOL    HW237908   3.021   0.541   6.267  0.9199  0.9755 -0.1410
 8816SOL     OW37909   3.468   2.058   1.439  0.1378 -0.2563  0.3501
 8816SOL    HW137910   3.516   2.044   1.520  0.4566  1.0108  0.3932
 8816SOL    HW237911   3.427   2.144   1.451  0.2320 -0.0690 -0.6418
 8817SOL     OW37912   1.635   2.087   2.272  0.4291 -0.4439 -0.1341
 8817SOL    HW137913   1.663   2.178   2.279 -1.1432 -0.2259  3.0704
 8817SOL    HW237914   1.716   2.036   2.272  0.7465  0.0867  1.7343
 8818SOL     OW37915   1.747   4.477   6.915 -0.5297  0.3835  0.3377
 8818SOL    HW137916   1.720   4.388   6.938 -1.3490  0.8126  1.0548
 8818SOL    HW237917   1.658   4.510   6.903 -1.5935 -2.6404 -0.1231
 8819SOL     OW37918   2.852   0.836  16.469  0.1430  0.3267  0.2947
 8819SOL    HW137919   2.812   0.751  16.493  0.3865 -0.5195 -2.3489
 8819SOL    HW237920   2.922   0.798  16.417 -0.6269 -0.2087 -0.3632
 8820SOL     OW37921   2.797   1.331  12.732  0.3425 -0.3191  0.8159
 8820SOL    HW137922   2.770   1.394  12.799  2.9063  1.8085 -0.1683
 8820SOL    HW237923   2.717   1.278  12.732  0.2085 -0.1151  0.5223
 8821SOL     OW37924   0.422   3.346  12.636  0.3471  0.3311  0.0080
 8821SOL    HW137925   0.345   3.403  12.632 -1.6236 -2.1555  2.7523
 8821SOL    HW237926   0.471   3.372  12.558  0.9344  1.5847  0.7883
 8822SOL     OW37927   0.324   0.118   4.671  0.2131 -0.4041  0.0771
 8822SOL    HW137928   0.332   0.206   4.634 -0.0973 -0.9231 -1.2154
 8822SOL    HW237929   0.278   0.076   4.599 -0.8933  2.8474 -1.1398
 8823SOL     OW37930   4.484   0.454   4.257 -0.2301  0.2159 -0.2190
 8823SOL    HW137931   4.539   0.386   4.297  2.0613  1.2948 -1.5391
 8823SOL    HW237932   4.542   0.482   4.186 -1.7595 -3.1305 -2.7757
 8824SOL     OW37933   1.144   0.743   4.781 -0.0378  0.1435 -0.1159
 8824SOL    HW137934   1.080   0.808   4.809 -1.8122 -1.4344 -0.4870
 8824SOL    HW237935   1.138   0.755   4.686  2.2786 -1.0872 -0.4198
 8825SOL     OW37936   3.961   4.670   7.577 -0.6404  0.1986 -0.6649
 8825SOL    HW137937   3.879   4.676   7.529 -0.3659  0.1378 -1.1375
 8825SOL    HW237938   3.997   0.036   7.586  0.2892 -0.3198  0.7489
 8826SOL     OW37939   3.580   4.129  13.710 -0.6125  0.5623 -0.1544
 8826SOL    HW137940   3.533   4.183  13.773 -1.0331 -2.0790  1.7638
 8826SOL    HW237941   3.668   4.161  13.732 -1.0798  0.5647  1.6984
 8827SOL     OW37942   2.237   3.012   2.699  0.2341  0.3620 -0.2927
 8827SOL    HW137943   2.288   2.953   2.644 -0.2312 -0.5172  0.2232
 8827SOL    HW237944   2.154   2.966   2.710 -0.3884  1.2459 -1.2755
 8828SOL     OW37945   1.721   1.734   2.393  0.2097 -0.2266  0.4612
 8828SOL    HW137946   1.660   1.726   2.466 -0.5222 -1.0925 -0.2473
 8828SOL    HW237947   1.660   1.705   2.326 -0.7098  2.6264  0.0878
 8829SOL     OW37948   1.311   3.674   8.075  0.0487 -0.6057 -0.6341
 8829SOL    HW137949   1.342   3.640   8.160 -1.4816  0.9971  0.5556
 8829SOL    HW237950   1.318   3.769   8.083 -1.3379 -0.4724 -1.0176
 8830SOL     OW37951   1.560   2.149   4.998 -0.0257 -0.4834  0.1923
 8830SOL    HW137952   1.614   2.195   4.933  0.6294 -2.4915 -0.6742
 8830SOL    HW237953   1.481   2.148   4.944 -0.3479  0.2952  0.6499
 8831SOL     OW37954   0.873   2.314   2.158 -0.3439 -0.1516  0.7867
 8831SOL    HW137955   0.890   2.391   2.104 -1.5120  1.0490  2.1225
 8831SOL    HW237956   0.961   2.307   2.195 -0.7602  0.2665  1.8732
 8832SOL     OW37957   0.313   0.632  12.536  0.4665  0.2896 -0.0699
 8832SOL    HW137958   0.311   0.667  12.624 -0.5198 -1.3377  0.5580
 8832SOL    HW237959   0.244   0.688  12.500  1.1210 -0.4872 -2.5448
 8833SOL     OW37960   2.095   2.670  13.021 -0.0311  0.5856  0.6485
 8833SOL    HW137961   2.115   2.674  13.115 -1.8210 -0.8224  1.0985
 8833SOL    HW237962   2.087   2.575  13.009 -3.7458  1.2618 -2.2820
 8834SOL     OW37963   3.829   2.184   7.883  0.1502  0.0677  0.1375
 8834SOL    HW137964   3.802   2.170   7.793  1.6562 -1.7829 -0.0153
 8834SOL    HW237965   3.898   2.249   7.867  1.5955 -1.1475  1.4339
 8835SOL     OW37966   2.750   0.727   5.365 -0.0476 -0.4924 -0.2985
 8835SOL    HW137967   2.722   0.695   5.451 -2.4298 -1.4381 -1.4356
 8835SOL    HW237968   2.682   0.682   5.316 -0.5332  0.3661 -0.4001
 8836SOL     OW37969   3.576   1.387  17.649 -0.5879 -0.1602  0.0942
 8836SOL    HW137970   3.608   1.297  17.652 -0.7962 -0.3097 -2.1559
 8836SOL    HW237971   3.643   1.430  17.596 -2.3487  2.4939  0.0542
 8837SOL     OW37972   0.994   4.087  16.463  0.4350 -0.9690 -0.4369
 8837SOL    HW137973   1.055   4.023  16.499  1.3526  0.7185  1.0550
 8837SOL    HW237974   1.035   4.119  16.383 -0.3448  0.4981 -0.2682
 8838SOL     OW37975   1.726   2.622   8.126 -0.4828  0.2951 -0.1394
 8838SOL    HW137976   1.793   2.594   8.064  0.3505  1.6794  0.1428
 8838SOL    HW237977   1.770   2.686   8.183 -0.2991 -0.1390  0.2064
 8839SOL     OW37978   2.428   4.213   9.212 -0.2001 -0.1472  0.4097
 8839SOL    HW137979   2.391   4.301   9.205  0.8229  0.1675 -1.1258
 8839SOL    HW237980   2.446   4.201   9.305 -1.2032 -1.6849  0.4037
 8840SOL     OW37981   2.505   4.302   1.414  0.4160 -0.5678 -0.0524
 8840SOL    HW137982   2.581   4.256   1.449  0.3638 -0.3594  0.3242
 8840SOL    HW237983   2.431   4.241   1.419  0.3484 -0.6674 -2.2226
 8841SOL     OW37984   3.326   3.584   2.146 -0.3040 -0.5534 -0.4586
 8841SOL    HW137985   3.265   3.657   2.141 -0.7978 -0.9605 -0.3604
 8841SOL    HW237986   3.274   3.505   2.129 -1.0123 -0.6735  2.2812
 8842SOL     OW37987   1.260   3.921  13.445  0.3673  0.3321 -0.0412
 8842SOL    HW137988   1.174   3.954  13.418  0.8959  0.9568 -0.9780
 8842SOL    HW237989   1.231   3.836  13.478 -0.7081  1.5132  2.0800
 8843SOL     OW37990   0.229   0.878   2.999 -0.4001 -0.8168 -0.3668
 8843SOL    HW137991   0.237   0.794   3.046 -0.6722  0.3515  1.7807
 8843SOL    HW237992   0.170   0.846   2.931  1.2021  1.2136 -2.7003
 8844SOL     OW37993   2.887   2.577   7.405  0.2845  0.3191 -0.3854
 8844SOL    HW137994   2.975   2.556   7.376  0.3172  1.4740 -1.1264
 8844SOL    HW237995   2.884   2.501   7.463 -0.5876  0.0373 -0.8011
 8845SOL     OW37996   3.215   1.444  14.897  0.3329 -0.4843  0.1705
 8845SOL    HW137997   3.253   1.469  14.813  0.1303 -1.8267 -0.3158
 8845SOL    HW237998   3.273   1.373  14.923  0.2250  0.1927  2.2261
 8846SOL     OW37999   2.846   0.384  10.481  0.1098 -0.6697  0.3392
 8846SOL    HW138000   2.939   0.404  10.486 -0.1780  0.6487  0.5775
 8846SOL    HW238001   2.840   0.295  10.447 -1.7758 -0.5060  0.1955
 8847SOL     OW38002   3.649   0.210   4.019 -0.1108  0.0499 -0.7165
 8847SOL    HW138003   3.632   0.143   3.953 -0.6638 -1.4811  0.9999
 8847SOL    HW238004   3.558   0.230   4.039  0.5731  2.7533 -0.1926
 8848SOL     OW38005   0.154   2.127   7.428 -0.2099 -0.0297  0.0271
 8848SOL    HW138006   0.063   2.156   7.434 -0.2209 -0.3038  1.1891
 8848SOL    HW238007   0.196   2.212   7.418  2.4631 -1.3012  0.5106
 8849SOL     OW38008   3.337   3.591  17.543  0.4829 -0.0123  0.2892
 8849SOL    HW138009   3.428   3.564  17.559  0.8708  0.5745 -0.9413
 8849SOL    HW238010   3.300   3.594  17.631 -0.8162  1.8356 -0.3152
 8850SOL     OW38011   3.565   3.634   4.430 -0.0322  0.1549  0.1950
 8850SOL    HW138012   3.603   3.633   4.518 -0.2830 -0.1187  0.3005
 8850SOL    HW238013   3.549   3.540   4.428  1.6161 -0.0721 -1.8612
 8851SOL     OW38014   3.906   4.199   4.343 -0.3063 -0.2114 -0.3406
 8851SOL    HW138015   4.001   4.194   4.352 -0.2688 -1.2140 -1.2897
 8851SOL    HW238016   3.892   4.234   4.431 -2.3393 -0.8291 -0.4214
 8852SOL     OW38017   1.951   0.343   2.364  0.4937 -0.2917 -0.0945
 8852SOL    HW138018   1.901   0.318   2.442 -0.1373 -2.7301 -1.2824
 8852SOL    HW238019   1.909   0.427   2.345  1.0889  0.0587  0.1228
 8853SOL     OW38020   3.635   2.476   6.887  0.1752  0.5241 -0.3089
 8853SOL    HW138021   3.545   2.448   6.874 -0.2728  0.4969  2.7440
 8853SOL    HW238022   3.631   2.526   6.969 -0.7231 -0.9562  0.5387
 8854SOL     OW38023   1.731   3.500   5.781 -0.1592 -0.0439  0.0891
 8854SOL    HW138024   1.637   3.511   5.793 -0.4534 -1.6535 -0.6236
 8854SOL    HW238025   1.751   3.425   5.837  0.4293  1.3936  1.7757
 8855SOL     OW38026   1.900   4.606   9.049 -0.5055  0.6672  0.3697
 8855SOL    HW138027   1.871   4.611   8.958 -1.1980 -1.1776  0.4827
 8855SOL    HW238028   1.995   4.595   9.045 -0.6255  0.0975 -1.1880
 8856SOL     OW38029   4.566   2.338   4.474  0.3070  0.7083 -0.3179
 8856SOL    HW138030   4.632   2.400   4.444 -0.3311  2.4621  1.9404
 8856SOL    HW238031   4.618   2.310   4.550 -1.7365  0.6255  1.0727
 8857SOL     OW38032   0.285   1.377  11.539  0.0037 -0.2929 -0.2206
 8857SOL    HW138033   0.323   1.451  11.587  1.3158 -3.1708  3.1738
 8857SOL    HW238034   0.194   1.406  11.530  0.4970  1.5289  0.6189
 8858SOL     OW38035   2.845   2.706   4.791  0.0198 -0.0124 -0.1923
 8858SOL    HW138036   2.813   2.616   4.795 -1.0195  0.4089  1.0123
 8858SOL    HW238037   2.837   2.725   4.885 -1.1356  1.7880 -0.6693
 8859SOL     OW38038   1.780   2.680   5.974  0.4951  0.2329  0.2339
 8859SOL    HW138039   1.707   2.687   6.035 -0.9805 -1.7577 -1.3311
 8859SOL    HW238040   1.836   2.611   6.010  3.4117  1.5026 -1.8584
 8860SOL     OW38041   2.287   0.116  12.027 -0.0912  0.0036 -0.0532
 8860SOL    HW138042   2.314   0.208  12.026 -1.7988  0.4827 -1.0211
 8860SOL    HW238043   2.208   0.115  11.974 -0.5561 -0.0796  0.6456
 8861SOL     OW38044   3.256   2.990   6.767  0.2258  0.2684 -0.2399
 8861SOL    HW138045   3.219   2.971   6.854  0.3833  4.0793  0.6409
 8861SOL    HW238046   3.198   3.059   6.733  1.3478  1.5775  0.5350
 8862SOL     OW38047   2.078   0.092   8.153 -0.4959 -0.3714 -0.0645
 8862SOL    HW138048   2.151   0.124   8.207 -0.2744 -0.3234 -0.3901
 8862SOL    HW238049   2.120   0.048   8.079 -0.6498 -1.3802  0.4565
 8863SOL     OW38050   2.460   3.328   1.341 -0.2096 -0.6608  0.4939
 8863SOL    HW138051   2.385   3.330   1.401 -0.3216 -0.1859  0.3327
 8863SOL    HW238052   2.425   3.264   1.279  1.5551 -0.0738 -1.1125
 8864SOL     OW38053   3.140   3.205   6.678 -0.3092  0.2567 -0.0683
 8864SOL    HW138054   3.057   3.237   6.714 -1.4455 -0.9305 -1.6295
 8864SOL    HW238055   3.173   3.289   6.646 -0.9291  0.7388  0.5587
 8865SOL     OW38056   1.665   3.494   8.186 -0.1640 -0.0318  0.4177
 8865SOL    HW138057   1.650   3.575   8.137 -0.3383 -1.1829 -1.4342
 8865SOL    HW238058   1.577   3.465   8.210  0.0624  0.3696  1.7476
 8866SOL     OW38059   2.241   3.579  15.733  0.3847  0.4249  0.1563
 8866SOL    HW138060   2.293   3.657  15.751 -0.5393  0.9393  0.6244
 8866SOL    HW238061   2.280   3.556  15.648  1.2385  1.3919  0.2938
 8867SOL     OW38062   1.709   1.154   6.206 -0.1870 -0.8636 -0.5951
 8867SOL    HW138063   1.726   1.094   6.279 -3.5116 -1.4843 -0.3564
 8867SOL    HW238064   1.615   1.165   6.216 -0.3323 -1.9043 -0.8664
 8868SOL     OW38065   1.335   0.633  13.432  0.0575 -0.5503 -0.5784
 8868SOL    HW138066   1.265   0.570  13.413 -0.9127  0.8570 -1.5686
 8868SOL    HW238067   1.294   0.716  13.411  1.8214  0.2878 -0.7198
 8869SOL     OW38068   3.970   3.057   4.033  0.4377 -0.0278  0.0584
 8869SOL    HW138069   3.937   3.106   4.109 -0.3300  0.8377 -0.8449
 8869SOL    HW238070   3.921   2.975   4.038  1.8028 -0.7477  2.0022
 8870SOL     OW38071   4.250   1.653   3.095 -0.2340  0.4463 -0.3329
 8870SOL    HW138072   4.266   1.561   3.073 -1.3623 -0.8344  4.1728
 8870SOL    HW238073   4.307   1.702   3.035 -0.3940  0.9937 -0.0329
 8871SOL     OW38074   0.149   2.231  10.975 -0.0106  0.5132 -0.2584
 8871SOL    HW138075   0.214   2.233  10.905 -0.3268 -2.2823 -0.6365
 8871SOL    HW238076   0.182   2.289  11.044 -0.3838 -0.5331  0.8055
 8872SOL     OW38077   4.547   4.639  11.628  0.2700  0.9621  0.3737
 8872SOL    HW138078   4.498   4.629  11.546  0.9484 -0.4743  0.1480
 8872SOL    HW238079   4.508   4.565  11.675 -0.2230  0.7384 -0.3783
 8873SOL     OW38080   1.499   1.776   8.107  0.1861 -0.3892  0.3951
 8873SOL    HW138081   1.560   1.849   8.118 -1.4945  1.2540 -1.0448
 8873SOL    HW238082   1.559   1.703   8.119 -1.9000 -2.2860 -0.7971
 8874SOL     OW38083   2.005   1.013   4.125  0.2304 -0.0215 -0.3540
 8874SOL    HW138084   2.017   0.924   4.156 -0.5103 -0.8026 -2.2955
 8874SOL    HW238085   1.992   0.995   4.032 -1.2338 -0.0888 -0.1354
 8875SOL     OW38086   4.109   3.551   3.915 -0.6944 -0.5800 -0.7168
 8875SOL    HW138087   4.131   3.485   3.981  1.5399  1.5498  0.7045
 8875SOL    HW238088   4.191   3.566   3.868 -0.0555 -1.5328  0.0791
 8876SOL     OW38089   1.320   0.296  16.560 -0.1130 -0.0010  0.1645
 8876SOL    HW138090   1.387   0.364  16.568  0.2175 -0.1334 -1.4757
 8876SOL    HW238091   1.301   0.262  16.647 -0.1925  0.5623  0.3703
 8877SOL     OW38092   1.490   3.106   5.938 -0.5270  0.1723 -0.7723
 8877SOL    HW138093   1.442   3.028   5.966  0.1096  0.0072 -0.1357
 8877SOL    HW238094   1.423   3.153   5.888 -1.7621 -1.1003 -0.3107
 8878SOL     OW38095   0.368   0.764  11.229 -0.3970  0.0058  0.2439
 8878SOL    HW138096   0.375   0.679  11.273  1.2623 -0.4886 -0.9994
 8878SOL    HW238097   0.324   0.734  11.149 -1.2680  0.8658  0.4028
 8879SOL     OW38098   2.583   1.532   7.408 -0.1314  0.1893  0.3187
 8879SOL    HW138099   2.532   1.613   7.407 -0.9485 -0.3197  1.1602
 8879SOL    HW238100   2.658   1.557   7.460  0.8588 -0.0293 -1.0114
 8880SOL     OW38101   4.274   2.943   7.802 -0.3280 -0.4514 -0.0058
 8880SOL    HW138102   4.203   2.886   7.831  1.0068  0.2681  4.6216
 8880SOL    HW238103   4.266   3.018   7.861  0.2650 -0.9054  0.6474
 8881SOL     OW38104   0.710   4.485   7.928  0.3570 -0.4446  0.4502
 8881SOL    HW138105   0.757   4.465   8.009 -0.9426 -0.1574  1.2683
 8881SOL    HW238106   0.750   4.569   7.906  0.8819 -1.3996 -2.2150
 8882SOL     OW38107   1.036   1.599  14.952  0.1909 -0.0268  0.1555
 8882SOL    HW138108   1.064   1.690  14.965 -1.4916  0.7025 -1.3596
 8882SOL    HW238109   0.941   1.600  14.945  0.0215  0.5691  2.4971
 8883SOL     OW38110   2.198   4.438   9.278 -0.2639  0.3121  0.8398
 8883SOL    HW138111   2.266   4.474   9.223 -1.4649  0.7365 -0.3689
 8883SOL    HW238112   2.211   4.494   9.355  1.9037  0.0798  0.6326
 8884SOL     OW38113   1.448   3.371   5.064 -0.4242 -0.4599 -0.1064
 8884SOL    HW138114   1.365   3.399   5.025 -0.3525 -0.0129  0.0743
 8884SOL    HW238115   1.486   3.458   5.058 -1.1303 -0.0452  1.7385
 8885SOL     OW38116   3.882   0.008   8.523  0.0431 -0.3321 -0.1371
 8885SOL    HW138117   3.881   0.061   8.444 -1.5355 -0.0405  0.0797
 8885SOL    HW238118   3.887   0.071   8.594 -0.6988 -0.4237 -0.0110
 8886SOL     OW38119   2.642   0.685  17.301 -0.8500 -0.3158 -0.0336
 8886SOL    HW138120   2.720   0.707  17.352 -1.2042  0.9978 -0.0674
 8886SOL    HW238121   2.585   0.732  17.361 -3.3059  1.0595 -3.4038
 8887SOL     OW38122   3.492   3.911   0.016  0.1345 -0.1501  0.1580
 8887SOL    HW138123   3.554   3.848  17.673  1.0065  0.7322  0.1287
 8887SOL    HW238124   3.491   3.878   0.106 -0.6114 -0.3101  0.0883
 8888SOL     OW38125   0.220   4.151   2.936  0.5903 -0.3397 -0.7015
 8888SOL    HW138126   0.179   4.169   3.020 -1.0256  1.1288 -1.7861
 8888SOL    HW238127   0.290   4.088   2.954  0.5293 -0.4445 -0.8345
 8889SOL     OW38128   2.398   1.818   2.772 -0.6147 -0.3866 -0.5733
 8889SOL    HW138129   2.319   1.872   2.777 -0.6558 -0.4837 -0.1822
 8889SOL    HW238130   2.362   1.755   2.709 -1.1856  0.7454 -1.3674
 8890SOL     OW38131   4.304   1.106   6.775  0.2298 -0.3345  0.0906
 8890SOL    HW138132   4.319   1.031   6.833 -0.7783  1.2277  2.3886
 8890SOL    HW238133   4.258   1.059   6.705 -0.1183 -0.8581  0.6683
 8891SOL     OW38134   0.288   2.039   2.012 -0.2298 -0.1404  0.0715
 8891SOL    HW138135   0.375   1.999   2.011 -1.9085 -3.8406  0.3681
 8891SOL    HW238136   0.312   2.123   2.051  1.5953 -0.5884 -0.0565
 8892SOL     OW38137   2.842   0.803   0.198  0.4984 -0.1305 -0.1875
 8892SOL    HW138138   2.860   0.838   0.111  1.5321  0.2138  0.1610
 8892SOL    HW238139   2.861   0.875   0.258  1.8892  0.3804 -1.2329
 8893SOL     OW38140   3.924   0.733   5.807  0.4896  0.1070 -0.4211
 8893SOL    HW138141   3.945   0.641   5.825  1.2328  0.2395 -0.6492
 8893SOL    HW238142   4.004   0.763   5.765  2.4067 -0.7499  2.6489
 8894SOL     OW38143   1.778   2.255   8.202 -0.0769 -0.1553  0.0316
 8894SOL    HW138144   1.820   2.259   8.115 -0.4293 -0.9920 -0.1714
 8894SOL    HW238145   1.850   2.225   8.257  0.7971  1.2310 -0.3497
 8895SOL     OW38146   4.600   4.222  13.938  0.0115 -0.1930  0.2098
 8895SOL    HW138147   4.636   4.297  13.985 -0.3759  0.4644 -0.5629
 8895SOL    HW238148   4.676   4.164  13.941  0.6102  0.6363  1.0746
 8896SOL     OW38149   1.857   1.305   8.317 -0.4840  0.0285 -0.5334
 8896SOL    HW138150   1.858   1.359   8.238  1.9098  0.6478 -0.0831
 8896SOL    HW238151   1.811   1.224   8.293 -0.7454 -0.9564  3.3125
 8897SOL     OW38152   3.213   3.070   3.549 -0.3993  0.4094 -0.3654
 8897SOL    HW138153   3.128   3.037   3.578 -0.4231 -0.9046 -1.8913
 8897SOL    HW238154   3.187   3.149   3.501  2.4813  1.3957 -0.3033
 8898SOL     OW38155   0.649   1.465   2.674 -0.4485  0.7073 -0.2133
 8898SOL    HW138156   0.605   1.525   2.615  0.0267  1.6687  0.4002
 8898SOL    HW238157   0.653   1.516   2.756  0.9684 -1.5000  1.0981
 8899SOL     OW38158   2.624   2.530   6.297 -0.0314  0.7478 -0.3124
 8899SOL    HW138159   2.643   2.437   6.307 -0.7274  0.6129 -0.1903
 8899SOL    HW238160   2.707   2.575   6.314  0.8505 -0.7793 -0.6128
 8900SOL     OW38161   1.138   1.868  14.999  0.2156 -0.6982 -0.0828
 8900SOL    HW138162   1.077   1.941  15.007  0.0028 -0.7629 -1.1419
 8900SOL    HW238163   1.201   1.895  15.066  4.0143 -1.5249 -3.2872
 8901SOL     OW38164   2.992   4.207   3.927 -0.0100 -0.3709 -0.0226
 8901SOL    HW138165   2.988   4.119   3.888 -2.5205 -0.0612 -0.4937
 8901SOL    HW238166   2.968   4.177   4.015  1.2813 -0.9384  0.1272
 8902SOL     OW38167   2.813   3.625   5.813  0.1261 -0.3027  0.3358
 8902SOL    HW138168   2.887   3.617   5.874  0.5992 -1.8167 -0.4519
 8902SOL    HW238169   2.814   3.541   5.768 -0.5608 -0.7731  1.2046
 8903SOL     OW38170   1.975   2.510   0.060  0.7107 -0.1593 -0.4648
 8903SOL    HW138171   2.023   2.456  17.691  1.3788 -1.3497  1.0694
 8903SOL    HW238172   1.990   2.593   0.015  1.1977 -0.0411 -0.0737
 8904SOL     OW38173   2.966   1.835   6.797 -0.3936  0.2879 -0.1962
 8904SOL    HW138174   3.019   1.772   6.846 -0.6298  0.5020  0.3349
 8904SOL    HW238175   2.882   1.821   6.841 -0.2417  0.8657  0.2719
 8905SOL     OW38176   2.520   0.660   2.398 -0.0659  0.2939 -0.1291
 8905SOL    HW138177   2.517   0.708   2.316  0.3024  0.3623 -0.1023
 8905SOL    HW238178   2.439   0.685   2.443 -0.1500  0.1370 -0.1939
 8906SOL     OW38179   2.979   4.680   3.019  0.0631 -0.0712  0.2878
 8906SOL    HW138180   2.924   4.636   3.083 -1.2691  0.1608 -0.6998
 8906SOL    HW238181   2.945   4.643   2.937  0.8603  1.7446 -0.8702
 8907SOL     OW38182   1.749   0.190   1.836  0.4020  0.3761  0.2532
 8907SOL    HW138183   1.763   0.129   1.908 -0.4335  1.9428  1.7461
 8907SOL    HW238184   1.723   0.271   1.879  2.2956  1.0579  0.1077
 8908SOL     OW38185   0.161   0.114   6.667 -0.0204  0.1621 -0.0216
 8908SOL    HW138186   0.118   0.143   6.747 -1.9560  0.9307 -1.3378
 8908SOL    HW238187   0.128   0.186   6.614 -0.0438  1.6740  2.0454
 8909SOL     OW38188   3.204   1.595  15.164 -0.6199  0.6453 -0.3213
 8909SOL    HW138189   3.249   1.606  15.081  2.3740  1.3658  1.4063
 8909SOL    HW238190   3.124   1.553  15.131 -1.5346  0.7823  1.6688
 8910SOL     OW38191   2.969   1.789   1.430 -0.4575 -0.0435  0.9323
 8910SOL    HW138192   2.887   1.810   1.385 -0.1225  0.4157  0.5417
 8910SOL    HW238193   2.935   1.737   1.503  1.6213  1.5499  3.0469
 8911SOL     OW38194   2.874   3.891  13.558 -0.1680 -0.2956 -0.8034
 8911SOL    HW138195   2.892   3.806  13.518 -3.1793 -1.5207  0.3743
 8911SOL    HW238196   2.821   3.869  13.635  0.7653 -0.8825 -0.3382
 8912SOL     OW38197   4.643   3.431   7.043  0.3477  0.7899 -0.1337
 8912SOL    HW138198   4.606   3.500   6.987 -1.7357  1.4142  1.9976
 8912SOL    HW238199   4.607   3.347   7.014  0.7228  0.4592  0.3700
 8913SOL     OW38200   2.983   3.531   7.537  0.7792 -0.3161 -1.1357
 8913SOL    HW138201   2.907   3.497   7.583  1.2699 -0.2113 -0.2459
 8913SOL    HW238202   2.980   3.627   7.545 -0.1504 -0.5567  1.4738
 8914SOL     OW38203   1.632   1.128   8.610  0.2739  0.4663 -0.7654
 8914SOL    HW138204   1.655   1.099   8.699  0.1722  1.8280 -0.3043
 8914SOL    HW238205   1.581   1.057   8.572  1.5910  0.3986 -2.4264
 8915SOL     OW38206   1.727   2.924   5.471 -0.2541  0.3483 -0.3810
 8915SOL    HW138207   1.663   2.993   5.488  0.4678  0.6295  1.2248
 8915SOL    HW238208   1.749   2.905   5.562  3.6312 -0.5288 -1.5282
 8916SOL     OW38209   2.654   3.642   7.217 -1.0267 -0.2900 -0.1060
 8916SOL    HW138210   2.583   3.621   7.156 -0.8987  0.3079 -0.4565
 8916SOL    HW238211   2.684   3.724   7.178 -1.6824  0.5596  1.1498
 8917SOL     OW38212   4.136   3.047  10.104  0.8623 -0.3360  0.1480
 8917SOL    HW138213   4.049   3.012  10.086  0.6187  1.0732 -1.4665
 8917SOL    HW238214   4.180   3.038  10.019  1.0791 -0.2362  0.2494
 8918SOL     OW38215   1.064   2.783   3.666  0.7757 -0.2916  0.3744
 8918SOL    HW138216   1.090   2.750   3.751 -3.2260  0.6574  1.9822
 8918SOL    HW238217   1.110   2.866   3.674 -1.4218  0.9794  0.0483
 8919SOL     OW38218   3.881   4.284   7.116 -0.2582 -0.2836 -0.6253
 8919SOL    HW138219   3.792   4.278   7.150  0.2136 -0.8407  0.5023
 8919SOL    HW238220   3.933   4.296   7.195 -0.1541 -1.3338 -0.5313
 8920SOL     OW38221   0.269   3.761  11.402  0.5056 -0.1047  0.3281
 8920SOL    HW138222   0.220   3.843  11.412  1.6925  0.8236 -1.3606
 8920SOL    HW238223   0.297   3.754  11.311 -0.9133  2.8765 -0.3559
 8921SOL     OW38224   0.137   2.530   6.740 -0.1145  0.3692  0.4927
 8921SOL    HW138225   0.159   2.571   6.824  0.7554  1.1450 -0.1153
 8921SOL    HW238226   0.086   2.455   6.771 -2.3944  1.0826 -1.5233
 8922SOL     OW38227   3.965   1.968   7.455 -0.3330 -0.1560 -0.7604
 8922SOL    HW138228   3.956   1.892   7.398 -1.0622 -0.0452 -0.7994
 8922SOL    HW238229   3.985   2.041   7.396  0.6014 -0.7487 -1.1773
 8923SOL     OW38230   1.962   1.489   0.883  0.6195 -0.0510  0.4893
 8923SOL    HW138231   1.913   1.568   0.904  0.6304  0.8621 -2.9880
 8923SOL    HW238232   2.005   1.468   0.967  0.5319  1.4011  0.8967
 8924SOL     OW38233   0.290   1.297   7.131  0.2219 -0.6293  0.2040
 8924SOL    HW138234   0.288   1.202   7.131  2.5725 -0.6774  0.3047
 8924SOL    HW238235   0.350   1.311   7.057  2.1024 -0.2607  1.7897
 8925SOL     OW38236   2.554   0.920   3.789 -0.3649 -0.8247  0.0483
 8925SOL    HW138237   2.587   1.003   3.824 -4.2221  0.2170  1.2388
 8925SOL    HW238238   2.563   0.935   3.695 -2.0482  0.9571  0.1787
 8926SOL     OW38239   0.270   3.608   5.845  0.0707 -0.0761  0.2246
 8926SOL    HW138240   0.337   3.562   5.795  0.2731  0.5506 -0.0817
 8926SOL    HW238241   0.256   3.551   5.920 -1.6392  0.5855  0.4150
 8927SOL     OW38242   2.639   0.851   8.260  0.0279 -0.0770 -0.2069
 8927SOL    HW138243   2.673   0.896   8.182 -0.4959 -0.3038 -0.5676
 8927SOL    HW238244   2.711   0.867   8.321  0.0676  0.7684 -0.4732
 8928SOL     OW38245   1.113   2.605  10.695  0.2583  0.6508  0.5307
 8928SOL    HW138246   1.040   2.659  10.664 -0.2135 -0.0668  0.3838
 8928SOL    HW238247   1.174   2.677  10.711  2.8556 -1.4644  0.0122
 8929SOL     OW38248   1.781   0.177  14.842  0.0034  0.3122 -0.0671
 8929SOL    HW138249   1.753   0.216  14.925  1.5539  1.3742 -0.0395
 8929SOL    HW238250   1.792   0.086  14.869  1.3431 -0.8945 -4.7633
 8930SOL     OW38251   3.750   3.874   6.926  0.0956 -0.1673 -0.3765
 8930SOL    HW138252   3.682   3.927   6.968 -0.0138 -0.3295 -0.3487
 8930SOL    HW238253   3.694   3.829   6.863  0.2316 -1.8660  0.7199
 8931SOL     OW38254   4.040   1.654   4.657 -0.3296  0.5211 -0.8251
 8931SOL    HW138255   3.961   1.625   4.611  0.2933  1.0862 -2.2515
 8931SOL    HW238256   4.031   1.601   4.737  1.4628 -0.5551 -1.3334
 8932SOL     OW38257   2.427   0.982   4.247  0.1570  0.8406  0.4013
 8932SOL    HW138258   2.489   0.937   4.305  0.7074 -1.2601 -1.8471
 8932SOL    HW238259   2.444   0.937   4.165 -1.1043  2.0466 -0.5278
 8933SOL     OW38260   0.046   4.227   5.657  0.0318 -0.3710  0.0699
 8933SOL    HW138261   0.078   4.168   5.725 -1.3536  0.8655  1.8056
 8933SOL    HW238262   4.698   4.266   5.709  0.0311  1.9809 -1.6925
 8934SOL     OW38263   4.616   0.541   4.031  0.6895 -0.4397 -0.0264
 8934SOL    HW138264   4.592   0.601   3.961 -0.8392 -0.8257  0.1668
 8934SOL    HW238265   4.561   0.466   4.006 -1.0478  1.5140 -2.0067
 8935SOL     OW38266   3.285   0.195   6.140  0.2772  1.0225  0.3772
 8935SOL    HW138267   3.256   0.117   6.186  0.6748  0.5713 -0.1418
 8935SOL    HW238268   3.377   0.184   6.117  0.1181  1.8295 -0.6665
 8936SOL     OW38269   1.184   2.594   2.184  0.2415 -0.1860  0.7668
 8936SOL    HW138270   1.180   2.645   2.103 -1.7516  0.4217  1.2383
 8936SOL    HW238271   1.229   2.660   2.237 -2.0977  1.1302  1.1160
 8937SOL     OW38272   0.060   3.775   8.505  0.0590  0.3177 -0.0910
 8937SOL    HW138273   0.098   3.795   8.591  0.3374  0.6050 -0.2815
 8937SOL    HW238274   0.096   3.690   8.479  0.4515 -0.1403  1.9672
 8938SOL     OW38275   0.026   1.908  15.879 -0.5392 -0.0423 -0.7610
 8938SOL    HW138276   4.670   1.863  15.909 -0.5047 -1.6570 -3.0310
 8938SOL    HW238277   0.008   2.002  15.878 -2.1352 -0.3599 -1.2561
 8939SOL     OW38278   0.241   3.240  17.205 -0.2988 -0.7346 -0.1912
 8939SOL    HW138279   0.146   3.244  17.199 -0.2023  4.0996  1.6358
 8939SOL    HW238280   0.247   3.242  17.301 -2.0008 -0.6364 -0.0993
 8940SOL     OW38281   3.001   4.398  14.679  0.4538 -0.1739 -0.3042
 8940SOL    HW138282   2.947   4.357  14.747 -0.3236  0.9163 -0.2526
 8940SOL    HW238283   2.979   4.344  14.603 -0.0409  1.1563 -1.1108
 8941SOL     OW38284   3.904   1.514   1.064  0.0182 -0.4720 -0.3293
 8941SOL    HW138285   3.892   1.577   1.135  0.0653  2.0003 -2.5585
 8941SOL    HW238286   3.864   1.436   1.103 -2.8752  0.6783 -1.0004
 8942SOL     OW38287   1.716   2.986   7.837  0.7529  0.5038  0.0599
 8942SOL    HW138288   1.763   3.064   7.866  0.7683  0.1678  0.9566
 8942SOL    HW238289   1.780   2.916   7.852 -0.5043 -0.4723  0.8755
 8943SOL     OW38290   2.030   2.891   9.944  0.0639  0.2068  0.0193
 8943SOL    HW138291   1.953   2.949   9.940  1.4486  1.7603 -3.9919
 8943SOL    HW238292   1.985   2.825   9.892 -1.5883  0.4111  1.1642
 8944SOL     OW38293   0.588   3.073   1.630 -0.1003 -0.4070 -0.2060
 8944SOL    HW138294   0.522   3.006   1.646  1.0237 -1.5037 -0.0890
 8944SOL    HW238295   0.606   3.107   1.718  0.7723  1.9507 -1.2878
 8945SOL     OW38296   3.805   1.286   4.451  0.0737 -0.2062 -0.1597
 8945SOL    HW138297   3.751   1.324   4.382  1.1427  0.7774 -0.4446
 8945SOL    HW238298   3.794   1.191   4.438  1.3498 -0.4319  0.3947
 8946SOL     OW38299   2.599   4.675  15.884 -0.6259  0.6918  0.3512
 8946SOL    HW138300   2.571   4.688  15.794 -1.4889  0.2411  0.5578
 8946SOL    HW238301   2.605   4.580  15.869  4.9471  1.5140 -2.5082
 8947SOL     OW38302   4.721   0.817   7.504  0.2978 -0.3778 -0.5201
 8947SOL    HW138303   0.050   0.748   7.463  0.3947 -0.3916 -0.3749
 8947SOL    HW238304   0.053   0.895   7.497 -0.0469  0.0567  1.4593
 8948SOL     OW38305   1.751   1.534   5.166  0.2611 -0.4412 -0.1829
 8948SOL    HW138306   1.700   1.454   5.149 -0.4585  0.0990 -0.5756
 8948SOL    HW238307   1.757   1.541   5.261  0.5789  1.5494 -0.3469
 8949SOL     OW38308   4.060   2.109   5.584 -0.0814  0.0025 -0.0142
 8949SOL    HW138309   4.003   2.184   5.569  1.7826  1.3883 -0.1167
 8949SOL    HW238310   4.143   2.156   5.588 -1.2893  2.0364  1.5579
 8950SOL     OW38311   0.957   0.237  16.770 -0.3483 -0.0823 -0.6427
 8950SOL    HW138312   0.885   0.270  16.825 -0.2114 -1.1372  0.1824
 8950SOL    HW238313   0.985   0.324  16.742 -3.0066  0.4627 -1.6056
 8951SOL     OW38314   1.705   0.723   4.268  0.0667  0.1683  0.1310
 8951SOL    HW138315   1.688   0.766   4.352  1.3037  0.3876  0.2638
 8951SOL    HW238316   1.800   0.728   4.255 -0.1611  2.8736 -0.5128
 8952SOL     OW38317   3.715   1.434  15.184 -0.0425 -0.4909 -0.5826
 8952SOL    HW138318   3.763   1.483  15.251  2.7080 -2.7897 -0.8851
 8952SOL    HW238319   3.744   1.487  15.110  2.9275 -0.7806  0.4088
 8953SOL     OW38320   3.821   3.694  13.212  0.3429 -0.3052  0.2245
 8953SOL    HW138321   3.895   3.743  13.248 -0.3608  1.0459 -0.1801
 8953SOL    HW238322   3.859   3.614  13.176  0.4118 -0.8833  1.5735
 8954SOL     OW38323   4.521   0.111   3.063 -0.4012 -0.5145 -0.0460
 8954SOL    HW138324   4.500   0.028   3.020  3.2388 -0.3681 -2.1474
 8954SOL    HW238325   4.446   0.169   3.051  0.1294  0.2865  0.5305
 8955SOL     OW38326   4.344   0.800   5.796  0.1541  0.2876 -0.0212
 8955SOL    HW138327   4.400   0.754   5.857 -0.6133 -0.4750  0.1023
 8955SOL    HW238328   4.292   0.853   5.857  1.7033 -1.0319  2.4369
 8956SOL     OW38329   3.122   2.098   7.086 -0.2530  0.5405 -0.3583
 8956SOL    HW138330   3.049   2.057   7.133 -0.3767 -0.2299 -1.2196
 8956SOL    HW238331   3.116   2.192   7.104 -1.1176 -0.0392  2.2925
 8957SOL     OW38332   3.701   3.472   8.431  0.4072 -0.2137 -0.2422
 8957SOL    HW138333   3.736   3.550   8.473 -0.1954  0.2929 -0.6888
 8957SOL    HW238334   3.648   3.425   8.496 -0.4323  1.8590  0.5738
 8958SOL     OW38335   2.258   0.165   6.485  0.2011  0.2962 -0.0112
 8958SOL    HW138336   2.306   0.159   6.568 -2.2030 -0.5105  1.3421
 8958SOL    HW238337   2.173   0.139   6.521  0.9897 -2.5342 -0.1162
 8959SOL     OW38338   1.740   1.566  13.799 -0.9141 -0.4772 -0.0953
 8959SOL    HW138339   1.760   1.472  13.798 -0.6529 -0.4095 -0.8344
 8959SOL    HW238340   1.749   1.583  13.893 -0.3280 -1.3496  0.0082
 8960SOL     OW38341   3.102   4.722   0.937  0.4796  0.5731 -0.0947
 8960SOL    HW138342   3.192   4.700   0.960  0.7816  2.4842  0.5096
 8960SOL    HW238343   3.105   4.720   0.841  0.7416  0.3476 -0.0835
 8961SOL     OW38344   0.263   1.685   2.469  0.4315 -0.2939 -0.0687
 8961SOL    HW138345   0.212   1.702   2.389 -0.3209 -0.3852  0.3945
 8961SOL    HW238346   0.203   1.715   2.537 -1.4090 -0.2018 -1.7201
 8962SOL     OW38347   0.550   3.099   2.744  0.1402 -0.0877 -0.1852
 8962SOL    HW138348   0.463   3.063   2.728  0.5068 -0.5910 -1.0557
 8962SOL    HW238349   0.575   3.114   2.653 -2.4985 -1.6962 -1.1829
 8963SOL     OW38350   1.403   4.189   4.608  0.3641  0.2977  0.6593
 8963SOL    HW138351   1.465   4.260   4.590  0.7339 -0.7021 -1.9807
 8963SOL    HW238352   1.358   4.185   4.524 -2.0022 -0.2305  1.9465
 8964SOL     OW38353   1.080   0.169   9.172 -0.1615  0.2288 -0.2888
 8964SOL    HW138354   1.153   0.124   9.129 -1.2454  0.0532 -1.9179
 8964SOL    HW238355   1.004   0.155   9.116  0.5592 -1.6743 -0.7687
 8965SOL     OW38356   3.405   2.936  12.168  0.5201 -0.7118 -0.4699
 8965SOL    HW138357   3.394   3.026  12.200  0.0109 -1.6512  1.9982
 8965SOL    HW238358   3.321   2.893  12.184 -0.2811  1.3947  1.0385
 8966SOL     OW38359   3.671   2.525   4.140 -0.1195 -0.2046 -0.3400
 8966SOL    HW138360   3.614   2.448   4.137  0.8507 -0.9029 -1.2952
 8966SOL    HW238361   3.618   2.584   4.193 -0.3283 -0.3691 -0.3634
 8967SOL     OW38362   0.511   0.195  13.167 -0.2012 -0.4275  0.0306
 8967SOL    HW138363   0.537   0.282  13.198 -0.0800 -0.4554  0.0056
 8967SOL    HW238364   0.498   0.216  13.075  0.4359 -0.9674 -0.1845
 8968SOL     OW38365   2.790   0.116   7.005  0.4046  0.0427  0.4305
 8968SOL    HW138366   2.744   0.033   7.019 -0.1422  0.1843 -0.5018
 8968SOL    HW238367   2.850   0.102   6.932  0.0925  1.7694 -0.1469
 8969SOL     OW38368   3.545   0.026   7.935  0.2251 -0.3563  0.2820
 8969SOL    HW138369   3.517   0.041   8.025 -1.6664  0.6229 -0.4783
 8969SOL    HW238370   3.577   4.659   7.946  2.7348  0.7417  2.1668
 8970SOL     OW38371   0.787   1.114  15.524 -0.3731 -0.1335 -0.4242
 8970SOL    HW138372   0.767   1.202  15.491 -0.6059  0.3438  1.0226
 8970SOL    HW238373   0.803   1.055  15.449  1.9996  1.9121 -1.4941
 8971SOL     OW38374   0.371   2.157   8.068  0.6409 -0.5581  0.5206
 8971SOL    HW138375   0.324   2.231   8.031 -0.1918 -1.4923 -0.2914
 8971SOL    HW238376   0.366   2.094   7.996  2.1275 -1.4438  1.1852
 8972SOL     OW38377   1.640   0.495   5.516 -0.0930  0.3543  0.2282
 8972SOL    HW138378   1.725   0.508   5.473  0.3107  1.2987  1.3138
 8972SOL    HW238379   1.667   0.475   5.605  0.7560  1.7322  0.2805
 8973SOL     OW38380   1.136   4.101   8.061  0.1707  0.2622  0.5036
 8973SOL    HW138381   1.167   4.157   7.991  0.1875 -2.0547 -1.3375
 8973SOL    HW238382   1.097   4.027   8.014  0.9528 -1.2191  2.1662
 8974SOL     OW38383   0.315   1.364  13.979  0.2699  0.3750  0.2901
 8974SOL    HW138384   0.386   1.427  13.995  2.3274 -1.6586 -0.8762
 8974SOL    HW238385   0.367   1.288  13.952 -0.1990 -0.3428  1.4173
 8975SOL     OW38386   0.473   0.441   0.645 -0.5694 -0.2483  0.5159
 8975SOL    HW138387   0.475   0.487   0.561 -0.7673  1.2797  1.3458
 8975SOL    HW238388   0.422   0.499   0.702 -0.6358 -0.2419  0.4498
 8976SOL     OW38389   3.425   2.882   5.021  0.1821  0.4058  0.5010
 8976SOL    HW138390   3.444   2.868   5.113  0.6756  2.7220  0.7555
 8976SOL    HW238391   3.497   2.841   4.973 -0.9729  0.9318 -1.6729
 8977SOL     OW38392   0.808   2.619   3.677 -0.3096 -0.3989  0.3849
 8977SOL    HW138393   0.836   2.609   3.768  3.3524 -0.4327 -0.7322
 8977SOL    HW238394   0.857   2.699   3.659 -0.9153 -0.1797 -0.2763
 8978SOL     OW38395   3.344   1.853   2.051  0.5566  0.4007  0.3070
 8978SOL    HW138396   3.408   1.817   2.111  1.8073  2.6896  0.3478
 8978SOL    HW238397   3.390   1.841   1.968  1.3492 -0.7023  0.9273
 8979SOL     OW38398   1.267   1.311   7.658  0.1746  0.4321 -0.2778
 8979SOL    HW138399   1.217   1.288   7.580 -0.4173 -2.1114  0.8574
 8979SOL    HW238400   1.284   1.403   7.637 -0.6930  1.1537  2.1917
 8980SOL     OW38401   4.567   2.729   3.124 -0.0699 -0.5751  0.2509
 8980SOL    HW138402   4.503   2.795   3.150  2.2835  1.7981  0.0151
 8980SOL    HW238403   4.634   2.779   3.078 -0.5786  0.5683  0.7606
 8981SOL     OW38404   3.605   1.342   7.036 -0.2073 -0.6982 -0.0907
 8981SOL    HW138405   3.592   1.287   7.114  0.5545 -0.4375  0.2262
 8981SOL    HW238406   3.519   1.323   7.000 -1.6795  2.3847  1.8366
 8982SOL     OW38407   0.625   4.030   4.823 -0.3653 -0.6238  0.3532
 8982SOL    HW138408   0.545   4.075   4.794 -0.0001 -1.3401 -1.7620
 8982SOL    HW238409   0.593   3.985   4.901  2.0390 -0.8340  1.2224
 8983SOL     OW38410   3.258   1.921  11.263  0.2142  1.0123 -0.0509
 8983SOL    HW138411   3.243   1.973  11.342 -1.5604  0.0618  0.2314
 8983SOL    HW238412   3.221   1.840  11.298 -0.3427  0.5650 -1.6637
 8984SOL     OW38413   3.605   2.213   8.948  1.0112  0.7370  0.0151
 8984SOL    HW138414   3.574   2.210   9.038  1.1244  1.5028  0.0761
 8984SOL    HW238415   3.698   2.233   8.958  0.9616  0.5671  0.8196
 8985SOL     OW38416   3.415   1.634  10.001  0.3549  0.6476 -0.1775
 8985SOL    HW138417   3.373   1.682   9.929 -0.7068 -0.1699 -0.1005
 8985SOL    HW238418   3.341   1.584  10.036  1.6828 -1.6226 -0.6100
 8986SOL     OW38419   1.539   3.938   2.549  0.0963 -0.0388 -0.3639
 8986SOL    HW138420   1.586   3.998   2.492  1.1818 -1.8072 -1.3370
 8986SOL    HW238421   1.583   3.856   2.526  0.6403  0.8365 -2.4253
 8987SOL     OW38422   4.375   2.273   3.045  0.2786  0.4823 -0.0003
 8987SOL    HW138423   4.423   2.208   2.993 -0.1832 -0.0472  0.2315
 8987SOL    HW238424   4.444   2.336   3.066  1.2078 -0.9971  1.3941
 8988SOL     OW38425   3.416   4.426   1.650  0.5977 -0.2551 -0.4948
 8988SOL    HW138426   3.378   4.351   1.604  0.1457 -1.2033  1.4350
 8988SOL    HW238427   3.444   4.490   1.584  1.7920  1.0314  1.2330
 8989SOL     OW38428   3.459   0.515   0.739 -0.3446 -0.4720  0.0130
 8989SOL    HW138429   3.526   0.484   0.800  0.9492  1.7195 -0.3094
 8989SOL    HW238430   3.393   0.446   0.742 -0.7521 -0.0644  0.3324
 8990SOL     OW38431   0.180   1.254  11.967  0.4344  0.4607  0.4351
 8990SOL    HW138432   0.202   1.170  11.927 -0.7441  0.0967  0.5534
 8990SOL    HW238433   0.257   1.307  11.946 -0.3044  1.4905  0.3557
 8991SOL     OW38434   4.651   1.603   0.231  0.1203 -0.7599 -0.7542
 8991SOL    HW138435   4.564   1.599   0.270  1.0671 -2.0842  1.2033
 8991SOL    HW238436   4.647   1.686   0.183  1.1578 -0.4036 -0.2115
 8992SOL     OW38437   2.752   1.421  15.878 -0.6985 -0.3928 -0.5943
 8992SOL    HW138438   2.686   1.375  15.826 -1.8586 -0.5115  0.9865
 8992SOL    HW238439   2.785   1.361  15.945  0.4021 -0.2285 -0.9865
 8993SOL     OW38440   4.310   3.357   1.782 -0.5021 -0.0557 -0.1882
 8993SOL    HW138441   4.403   3.335   1.791 -0.8834 -1.0859  1.2546
 8993SOL    HW238442   4.295   3.376   1.875  2.7742  0.6713  0.1832
 8994SOL     OW38443   2.275   3.171   7.475 -0.1188 -0.1731  0.1067
 8994SOL    HW138444   2.368   3.157   7.490  0.3096  0.2067 -2.1922
 8994SOL    HW238445   2.277   3.267   7.475  1.2672 -0.2136 -0.8975
 8995SOL     OW38446   3.346   4.479   6.437  0.3071 -0.4114  0.3877
 8995SOL    HW138447   3.384   4.552   6.485  2.0163 -0.7386 -0.4761
 8995SOL    HW238448   3.252   4.486   6.453  0.3025  1.5966 -0.5502
 8996SOL     OW38449   2.134   2.379   6.140  0.0720 -0.3287 -0.3511
 8996SOL    HW138450   2.180   2.314   6.194 -0.8491 -0.7205 -0.0433
 8996SOL    HW238451   2.123   2.457   6.193 -0.3426 -1.5714  1.3722
 8997SOL     OW38452   3.132   2.594  17.032 -0.3605  0.1250 -0.5904
 8997SOL    HW138453   3.164   2.559  16.949  0.7475  0.5165 -0.3277
 8997SOL    HW238454   3.058   2.655  17.024  0.8168  1.5205 -0.7577
 8998SOL     OW38455   3.103   4.161   9.730 -0.0165 -0.1665 -0.3437
 8998SOL    HW138456   3.186   4.124   9.760  1.0262  2.5427  0.0480
 8998SOL    HW238457   3.129   4.195   9.644  1.8738 -1.8440 -0.4368
 8999SOL     OW38458   4.289   1.000   5.593  0.6589 -0.2976 -0.4006
 8999SOL    HW138459   4.317   0.960   5.675  1.5574  2.2342  0.5317
 8999SOL    HW238460   4.364   0.991   5.534  0.4114  0.4693 -0.8320
 9000SOL     OW38461   0.997   0.679   2.638  0.3529  0.5723 -0.4612
 9000SOL    HW138462   0.961   0.754   2.590 -0.5910  0.3049 -0.1659
 9000SOL    HW238463   1.046   0.644   2.563 -0.2475 -0.1350 -0.5162
 9001SOL     OW38464   1.930   3.655  17.617 -0.6091 -0.1334  0.0421
 9001SOL    HW138465   1.974   3.723  17.667 -0.5481  0.8927 -1.3984
 9001SOL    HW238466   1.840   3.687  17.630 -0.5612 -0.2746  0.7397
 9002SOL     OW38467   1.597   2.404   2.973  0.4187 -0.1632  0.8090
 9002SOL    HW138468   1.605   2.318   2.932 -0.7329  1.4551 -2.8731
 9002SOL    HW238469   1.519   2.395   3.026 -0.0794 -0.3193  0.0526
 9003SOL     OW38470   0.337   0.622   4.683 -0.2631 -0.0529 -0.2086
 9003SOL    HW138471   0.298   0.693   4.632 -1.4068 -0.6459 -0.1537
 9003SOL    HW238472   0.253   0.599   4.723 -1.0239  2.0770 -0.5753
 9004SOL     OW38473   3.862   4.169   9.808 -0.3392  0.2770  0.3331
 9004SOL    HW138474   3.874   4.121   9.726  1.3626 -1.5860  1.6886
 9004SOL    HW238475   3.913   4.115   9.868 -0.4249 -0.4812 -0.2793
 9005SOL     OW38476   1.620   0.185   3.371 -0.0131  0.1212 -0.1012
 9005SOL    HW138477   1.712   0.157   3.369  0.1315  0.6454 -1.2706
 9005SOL    HW238478   1.575   0.130   3.435  0.4252  1.8329  1.6547
 9006SOL     OW38479   1.848   3.729   3.981  0.4592  0.1657 -0.0539
 9006SOL    HW138480   1.896   3.812   3.980 -0.8862  0.9473 -0.0780
 9006SOL    HW238481   1.758   3.760   3.985  0.4903  0.2299  0.1713
 9007SOL     OW38482   3.258   0.670  11.721  0.1480 -0.1340  0.6874
 9007SOL    HW138483   3.170   0.661  11.759  0.2950  3.4338  1.8510
 9007SOL    HW238484   3.270   0.582  11.686 -1.0957  0.2180 -0.6574
 9008SOL     OW38485   2.320   3.031   5.758  0.0432  0.5525 -0.3236
 9008SOL    HW138486   2.408   2.996   5.752 -0.7164 -1.7591  1.9895
 9008SOL    HW238487   2.267   2.968   5.807 -0.0147  0.5419 -0.3989
 9009SOL     OW38488   3.541   4.682   7.136 -0.9501  0.1972 -0.0486
 9009SOL    HW138489   3.520   4.640   7.052  1.4188 -0.9886 -0.0323
 9009SOL    HW238490   3.591   0.033   7.101 -3.0623  0.4995 -2.4903
 9010SOL     OW38491   2.687   4.499   4.107 -0.0971 -0.1455 -0.1749
 9010SOL    HW138492   2.681   4.573   4.047  1.5362  0.4862  0.4483
 9010SOL    HW238493   2.727   4.438   4.046  0.2986 -0.4355  0.3764
 9011SOL     OW38494   2.219   0.133   3.249 -0.1596  1.0299 -1.0250
 9011SOL    HW138495   2.167   0.212   3.237 -2.0407 -0.0306  0.0471
 9011SOL    HW238496   2.254   0.112   3.162  0.5572 -2.9536  0.1939
 9012SOL     OW38497   3.367   3.569   7.973 -0.6752  0.1973  0.0404
 9012SOL    HW138498   3.304   3.530   7.913 -0.8754  1.6804 -0.7111
 9012SOL    HW238499   3.433   3.600   7.912 -0.3950  0.6510  0.5702
 9013SOL     OW38500   2.982   3.690   2.572 -0.4364 -0.1459  0.4047
 9013SOL    HW138501   2.952   3.636   2.645 -3.0051 -0.2737 -0.7664
 9013SOL    HW238502   3.043   3.747   2.620  0.6113  0.4035 -1.5899
 9014SOL     OW38503   0.924   0.630   6.903  0.0503  0.0321 -0.4751
 9014SOL    HW138504   0.938   0.609   6.811  0.8385 -1.7812  0.0549
 9014SOL    HW238505   0.933   0.540   6.934  2.3768  0.6291  0.5902
 9015SOL     OW38506   2.373   1.600   2.532 -0.0833 -0.1605  0.2528
 9015SOL    HW138507   2.435   1.653   2.482 -0.9112  0.2614 -0.3250
 9015SOL    HW238508   2.290   1.624   2.492 -0.3436 -0.1023  0.8270
 9016SOL     OW38509   4.233   0.861   0.214  0.5385  0.4055  0.0585
 9016SOL    HW138510   4.207   0.791   0.274  1.4439  0.2117  0.2257
 9016SOL    HW238511   4.171   0.846   0.143 -0.1857  3.0294  0.1494
 9017SOL     OW38512   3.917   4.316   5.751 -0.1081 -0.3068  0.1369
 9017SOL    HW138513   3.826   4.313   5.781 -0.6620 -0.0890 -1.5336
 9017SOL    HW238514   3.907   4.324   5.656 -2.1134  0.6621  0.4267
 9018SOL     OW38515   3.493   0.206   6.894  0.1505 -0.1784 -0.4173
 9018SOL    HW138516   3.404   0.227   6.925  0.4614  0.8810 -0.2583
 9018SOL    HW238517   3.478   0.114   6.872  1.6775 -0.5775  0.1983
 9019SOL     OW38518   1.971   1.785   7.013 -0.2686 -0.1372 -0.4019
 9019SOL    HW138519   1.882   1.758   7.035 -0.3933 -0.0623 -0.8061
 9019SOL    HW238520   2.024   1.750   7.084  0.9256 -0.1825 -1.3155
 9020SOL     OW38521   1.610   1.154  11.948  0.0305 -0.2147 -0.0721
 9020SOL    HW138522   1.534   1.119  11.902  0.6602 -2.2278  0.4146
 9020SOL    HW238523   1.629   1.242  11.916  2.3351 -0.3341  0.9617
 9021SOL     OW38524   4.021   3.533  11.903  0.0887  0.5403  0.7121
 9021SOL    HW138525   4.000   3.538  11.810  0.5553  0.0925  0.5782
 9021SOL    HW238526   4.099   3.588  11.912  2.9143 -3.2941 -0.2341
 9022SOL     OW38527   3.069   0.243   5.505 -0.0539  0.2767 -0.2710
 9022SOL    HW138528   3.037   0.326   5.540  1.7748  0.6862  0.4293
 9022SOL    HW238529   2.992   0.203   5.465  1.6291 -2.6969 -0.5366
 9023SOL     OW38530   0.756   4.173  13.646  0.3284  0.0436  0.1103
 9023SOL    HW138531   0.840   4.186  13.603  1.3271  3.6648  3.2431
 9023SOL    HW238532   0.693   4.183  13.574  1.5075 -1.2495 -1.1136
 9024SOL     OW38533   1.032   1.171  15.334  0.3245 -0.4930  0.1011
 9024SOL    HW138534   1.096   1.174  15.405 -0.1418 -0.1328  0.5062
 9024SOL    HW238535   1.026   1.257  15.291  1.9803 -1.8366 -2.7803
 9025SOL     OW38536   2.073   0.227  10.846 -0.0042  0.4974  0.1718
 9025SOL    HW138537   2.042   0.152  10.895  0.3275 -0.5276 -1.1719
 9025SOL    HW238538   2.126   0.179  10.781 -0.4917 -0.8690  0.7887
 9026SOL     OW38539   0.619   3.907  16.895 -0.1701 -0.1840 -0.0437
 9026SOL    HW138540   0.538   3.957  16.905 -0.5756 -0.6881 -0.7712
 9026SOL    HW238541   0.664   3.981  16.853 -1.5202  0.4456 -0.3995
 9027SOL     OW38542   2.312   0.372   4.673  0.2923 -0.1867 -0.8429
 9027SOL    HW138543   2.342   0.286   4.703 -0.1934 -0.1722 -0.3085
 9027SOL    HW238544   2.267   0.410   4.749 -0.9705  0.6381 -2.0202
 9028SOL     OW38545   2.969   1.402   3.847  0.3043  0.2482 -0.4787
 9028SOL    HW138546   2.947   1.377   3.757 -1.1819  0.8711 -0.2958
 9028SOL    HW238547   3.047   1.352   3.866 -0.1663  0.2647  1.5214
 9029SOL     OW38548   1.334   2.626   3.068 -0.5063 -0.1254  0.1028
 9029SOL    HW138549   1.245   2.659   3.081 -0.5499 -0.7732  1.5159
 9029SOL    HW238550   1.329   2.530   3.066  0.0765 -0.1210 -1.4452
 9030SOL     OW38551   3.974   2.906   8.974  0.4097 -0.4580  0.7260
 9030SOL    HW138552   3.971   3.001   8.961 -0.2168 -0.7039 -0.9069
 9030SOL    HW238553   3.880   2.885   8.969  0.2159  0.5958  0.0699
 9031SOL     OW38554   1.061   1.250   5.708 -0.1793  0.1275  0.5190
 9031SOL    HW138555   1.039   1.341   5.685  0.8167  0.3179  0.3088
 9031SOL    HW238556   1.028   1.242   5.797  0.8163 -0.5463  0.8168
 9032SOL     OW38557   3.008   3.834   3.497  0.0869  0.0838  0.2179
 9032SOL    HW138558   2.925   3.842   3.544  0.0267 -0.4587  0.2047
 9032SOL    HW238559   2.982   3.837   3.405  1.1089 -1.1057 -0.1236
 9033SOL     OW38560   2.777   1.580   7.860  0.3489 -0.2021 -0.2617
 9033SOL    HW138561   2.681   1.571   7.859  0.4211 -1.3082  2.4448
 9033SOL    HW238562   2.814   1.514   7.919  0.3276  2.2221  2.4411
 9034SOL     OW38563   1.393   3.934   8.105 -0.3785  0.3721  0.4590
 9034SOL    HW138564   1.379   3.960   8.196  1.8726  0.5669  0.7448
 9034SOL    HW238565   1.422   4.010   8.055  0.8518  0.5224  1.3945
 9035SOL     OW38566   3.617   2.816  12.342 -0.5402 -0.0751  0.3280
 9035SOL    HW138567   3.575   2.730  12.347 -1.8143  0.5584  0.4675
 9035SOL    HW238568   3.545   2.865  12.302 -0.2129 -0.2486 -0.4702
 9036SOL     OW38569   1.524   2.108  16.539  0.4195 -0.9115 -0.5905
 9036SOL    HW138570   1.486   2.176  16.594  1.4738 -1.2616  0.5625
 9036SOL    HW238571   1.475   2.039  16.584  1.5350 -0.8736  0.6628
 9037SOL     OW38572   3.727   0.183   0.726 -0.3498 -0.0054 -0.2320
 9037SOL    HW138573   3.768   0.099   0.708  0.2713 -0.3541  2.7267
 9037SOL    HW238574   3.801   0.215   0.779 -1.9369  0.3455  1.7610
 9038SOL     OW38575   0.017   1.884  12.242 -0.2610 -0.0370 -0.4669
 9038SOL    HW138576   4.677   1.818  12.212  0.5018 -0.7386 -0.4990
 9038SOL    HW238577   0.019   1.928  12.157  0.0288  2.0293  0.6137
 9039SOL     OW38578   2.395   0.697  14.404  0.3996  0.7384 -0.1061
 9039SOL    HW138579   2.346   0.659  14.477  2.4739 -0.1289  0.8352
 9039SOL    HW238580   2.479   0.652  14.416  0.3018  1.0034  1.5317
 9040SOL     OW38581   4.703   4.390   6.143  0.0341  0.2079  0.6036
 9040SOL    HW138582   0.060   4.347   6.173  1.0665  1.6048 -0.1361
 9040SOL    HW238583   4.671   4.411   6.230  2.1380 -0.8663  1.6366
 9041SOL     OW38584   0.323   3.139  11.822  0.9159 -0.2830  0.1405
 9041SOL    HW138585   0.302   3.078  11.752  0.1551  0.1895 -0.0439
 9041SOL    HW238586   0.391   3.191  11.780 -1.2216  2.7221  0.3990
 9042SOL     OW38587   0.853   2.019   0.078  0.1312  0.5139 -0.2006
 9042SOL    HW138588   0.857   2.016   0.173  2.3051 -1.9486 -0.3702
 9042SOL    HW238589   0.758   2.027   0.067  0.0333 -0.4493 -0.0026
 9043SOL     OW38590   2.320   0.896  13.463  0.2365  0.4021 -0.3215
 9043SOL    HW138591   2.266   0.959  13.415  0.5919  0.2997 -0.8633
 9043SOL    HW238592   2.378   0.954  13.513 -0.1703 -0.5039  1.1774
 9044SOL     OW38593   1.760   0.716  12.337  0.4066  0.4845 -0.1627
 9044SOL    HW138594   1.679   0.675  12.309 -0.5586  1.7786  0.7417
 9044SOL    HW238595   1.761   0.678  12.425  0.3801 -1.0875 -0.8335
 9045SOL     OW38596   3.817   1.152   5.157 -0.9333 -0.5541 -0.1963
 9045SOL    HW138597   3.751   1.130   5.222  0.2441 -2.8400  0.2154
 9045SOL    HW238598   3.865   1.220   5.204 -1.5137 -0.3118  0.0426
 9046SOL     OW38599   0.200   3.288   0.913 -0.4797 -0.0034 -0.2302
 9046SOL    HW138600   0.154   3.230   0.852  0.1070  0.9059 -1.5453
 9046SOL    HW238601   0.124   3.317   0.964 -1.3332 -0.2807 -1.3400
 9047SOL     OW38602   2.773   2.044   3.101  0.6850 -0.2902 -0.0207
 9047SOL    HW138603   2.782   2.135   3.072  3.3111 -0.3710  0.5174
 9047SOL    HW238604   2.859   2.019   3.135  0.1286 -0.5448  1.1959
 9048SOL     OW38605   1.740   2.797  12.754  0.6648  0.1656  0.2431
 9048SOL    HW138606   1.782   2.718  12.787  0.4069  0.8061  2.0647
 9048SOL    HW238607   1.797   2.862  12.794 -2.1634  1.7127  1.7321
 9049SOL     OW38608   3.232   0.328   8.432  0.3842  0.0145 -0.0278
 9049SOL    HW138609   3.228   0.248   8.379  0.7004 -0.5378  0.7697
 9049SOL    HW238610   3.156   0.375   8.398  0.3661 -0.2455 -0.3498
 9050SOL     OW38611   2.901   1.300   9.682 -0.1180 -0.2304  0.3570
 9050SOL    HW138612   2.895   1.326   9.590 -0.6212  1.2613  0.8150
 9050SOL    HW238613   2.807   1.297   9.698  0.3642 -1.6190  2.9386
 9051SOL     OW38614   0.634   0.968   3.641 -0.1413  0.1848 -0.3179
 9051SOL    HW138615   0.632   0.960   3.546 -1.0158 -1.2579 -0.1772
 9051SOL    HW238616   0.657   0.876   3.645  0.3836  0.3757  1.0520
 9052SOL     OW38617   2.281   4.391   8.047 -0.2784 -0.4083  0.2643
 9052SOL    HW138618   2.303   4.439   7.967  0.5298 -2.8753 -1.0035
 9052SOL    HW238619   2.345   4.323   8.070  1.3417  1.1421  0.3428
 9053SOL     OW38620   3.041   0.935   6.726 -0.0355  0.3173  0.3700
 9053SOL    HW138621   3.047   0.996   6.800 -1.4071  0.5825  0.2521
 9053SOL    HW238622   2.946   0.927   6.721  0.0774 -0.1527 -0.9271
 9054SOL     OW38623   0.128   0.716   1.519  0.8134  0.6047  0.0156
 9054SOL    HW138624   0.057   0.671   1.565  1.4060 -0.7571 -0.4065
 9054SOL    HW238625   0.187   0.644   1.496 -0.6595 -1.6636  3.3384
 9055SOL     OW38626   0.280   0.430   7.702 -0.4320  0.0586  0.2090
 9055SOL    HW138627   0.353   0.433   7.640 -2.2563 -1.1846 -1.9553
 9055SOL    HW238628   0.315   0.368   7.766 -1.2380 -0.0769  0.5224
 9056SOL     OW38629   0.367   1.641   1.856  0.0055  0.0712  0.0028
 9056SOL    HW138630   0.306   1.650   1.929 -0.2481 -0.5923 -0.1369
 9056SOL    HW238631   0.329   1.575   1.799 -1.3734  1.7851 -1.0730
 9057SOL     OW38632   4.411   0.173  12.067  0.0472  0.4991  0.8371
 9057SOL    HW138633   4.335   0.220  12.032 -0.2636  0.2430  1.1765
 9057SOL    HW238634   4.485   0.232  12.053  1.4934 -1.3105  0.7554
 9058SOL     OW38635   2.733   0.435   2.708 -0.1839  0.0416  0.1177
 9058SOL    HW138636   2.804   0.480   2.755  2.4947 -2.0077 -2.0212
 9058SOL    HW238637   2.655   0.450   2.762 -0.1828 -1.5908  0.5532
 9059SOL     OW38638   1.355   0.386  12.285  0.5423 -0.1931 -0.8782
 9059SOL    HW138639   1.260   0.385  12.282  0.4976  1.3717  0.2903
 9059SOL    HW238640   1.365   0.307  12.338 -1.3174  0.3402  0.2520
 9060SOL     OW38641   1.232   2.236   4.964 -0.4274 -0.1774 -0.4233
 9060SOL    HW138642   1.239   2.167   4.898  1.2343 -1.8744  1.5138
 9060SOL    HW238643   1.141   2.261   4.954 -0.7051 -0.1373  2.0388
 9061SOL     OW38644   0.960   0.767   0.210  0.4467 -0.3587 -0.2786
 9061SOL    HW138645   1.046   0.767   0.253  0.4566  0.6182 -0.3023
 9061SOL    HW238646   0.971   0.815   0.128  0.7107 -1.1961 -0.7247
 9062SOL     OW38647   0.316   1.990   1.757  0.1196 -0.4799  0.2536
 9062SOL    HW138648   0.348   2.075   1.726  1.6793 -0.7321  1.1479
 9062SOL    HW238649   0.291   2.013   1.846 -0.3604 -3.4114  0.8798
 9063SOL     OW38650   3.209   4.061   2.755  0.9555 -0.3323  0.0054
 9063SOL    HW138651   3.200   3.966   2.761  0.3602 -0.3023 -0.4543
 9063SOL    HW238652   3.243   4.068   2.666 -0.8266 -1.3643 -0.7499
 9064SOL     OW38653   2.199   2.287   5.417 -0.3354  0.0543  0.0806
 9064SOL    HW138654   2.212   2.336   5.335 -0.0068  0.9311  0.6552
 9064SOL    HW238655   2.286   2.265   5.449 -0.8512 -1.3267  0.5082
 9065SOL     OW38656   0.681   1.524   1.695  0.6309  0.0062  0.1703
 9065SOL    HW138657   0.662   1.525   1.789 -0.5496 -1.2094 -0.0486
 9065SOL    HW238658   0.620   1.593   1.669 -0.7445 -0.6439  1.6210
 9066SOL     OW38659   0.782   1.779   6.049  0.2048 -0.2828  0.3265
 9066SOL    HW138660   0.789   1.760   5.956  0.4834  0.9900  0.0834
 9066SOL    HW238661   0.815   1.869   6.044  0.9549 -0.5031  1.1876
 9067SOL     OW38662   1.973   0.815  13.508  0.0361  0.3951 -0.5859
 9067SOL    HW138663   1.909   0.748  13.534  0.9377  0.3795  1.5336
 9067SOL    HW238664   2.037   0.810  13.578 -0.4010 -2.7322 -0.3919
 9068SOL     OW38665   3.379   3.721   7.256 -0.6159 -0.1416 -0.6006
 9068SOL    HW138666   3.361   3.632   7.289 -0.0317  0.9655  2.7004
 9068SOL    HW238667   3.473   3.708   7.241 -0.8399  0.7221 -2.7844
 9069SOL     OW38668   1.979   0.203   0.708  0.4253  0.0312  0.6574
 9069SOL    HW138669   1.970   0.233   0.799 -1.1443 -0.6260  0.7256
 9069SOL    HW238670   2.068   0.226   0.681  0.0654  0.3911 -0.1980
 9070SOL     OW38671   3.702   1.187  15.506 -0.7203 -0.5113  0.1253
 9070SOL    HW138672   3.652   1.267  15.519  1.9409  1.2855 -0.8022
 9070SOL    HW238673   3.781   1.232  15.475  0.7674 -2.1532  1.4437
 9071SOL     OW38674   2.425   0.212  14.262 -0.2322 -0.0991  1.1438
 9071SOL    HW138675   2.501   0.153  14.262 -1.2613 -1.4139  2.3912
 9071SOL    HW238676   2.374   0.188  14.184  1.3520  0.5988 -0.1270
 9072SOL     OW38677   3.627   1.606   8.397  0.0977 -0.7458  0.1237
 9072SOL    HW138678   3.551   1.662   8.417 -0.2082 -0.6474 -1.3297
 9072SOL    HW238679   3.611   1.561   8.314  0.6869 -0.6776 -0.0282
 9073SOL     OW38680   2.442   0.412  13.798  0.1890  0.2722  0.2193
 9073SOL    HW138681   2.444   0.506  13.815  0.0440  0.5245 -1.1430
 9073SOL    HW238682   2.416   0.413  13.706 -0.4746  2.6363  0.4485
 9074SOL     OW38683   2.188   4.043   9.054  0.2714  0.0892 -0.3184
 9074SOL    HW138684   2.183   4.028   9.148  0.1472 -0.7652 -0.4609
 9074SOL    HW238685   2.168   3.955   9.020 -0.5631  1.5814 -3.6739
 9075SOL     OW38686   0.423   2.771   6.150 -0.0052 -0.5062  0.2676
 9075SOL    HW138687   0.432   2.676   6.160  1.0725 -0.0782  3.3143
 9075SOL    HW238688   0.514   2.799   6.163  0.2660 -0.5485 -1.5049
 9076SOL     OW38689   3.480   0.449   8.459 -0.2044 -0.1254  0.3393
 9076SOL    HW138690   3.487   0.496   8.542  2.3367 -0.1212  0.1125
 9076SOL    HW238691   3.387   0.424   8.457  0.1237 -1.3724  0.6705
 9077SOL     OW38692   0.231   4.519  12.342 -0.1072  0.2534 -0.2080
 9077SOL    HW138693   0.252   4.573  12.266 -1.1639 -0.3921 -0.9623
 9077SOL    HW238694   0.226   4.585  12.412  1.6037 -1.8295  1.8727
 9078SOL     OW38695   1.454   4.166   5.234 -0.7602 -0.4674 -0.2473
 9078SOL    HW138696   1.461   4.148   5.328 -0.2136  0.5106 -0.1050
 9078SOL    HW238697   1.535   4.211   5.209 -1.6219  0.3587 -1.5443
 9079SOL     OW38698   0.100   3.547   7.964 -0.1612 -0.5440 -0.0447
 9079SOL    HW138699   0.171   3.601   7.928 -2.5294  1.8644 -1.1950
 9079SOL    HW238700   0.152   3.471   7.987 -3.6562 -1.5995  4.3280
 9080SOL     OW38701   2.982   0.509   5.573  0.0145  0.7042  0.0296
 9080SOL    HW138702   3.037   0.555   5.637  1.9862 -0.4969 -0.7896
 9080SOL    HW238703   2.906   0.567   5.572  0.7095  1.6416  2.1502
 9081SOL     OW38704   2.663   1.601   2.870  0.0528  0.4076 -0.0005
 9081SOL    HW138705   2.682   1.650   2.790  3.6674 -1.0223 -0.0142
 9081SOL    HW238706   2.636   1.516   2.835 -0.1111  0.6126 -0.3753
 9082SOL     OW38707   1.536   1.584  11.280 -0.0521 -0.7140  0.0839
 9082SOL    HW138708   1.452   1.556  11.242 -0.1667  0.4820 -0.5259
 9082SOL    HW238709   1.546   1.526  11.356  1.0322  0.3361  0.7408
 9083SOL     OW38710   1.436   2.724  15.154  0.1941  0.1614  0.3335
 9083SOL    HW138711   1.493   2.768  15.090 -1.7370 -0.1501 -1.6099
 9083SOL    HW238712   1.374   2.669  15.106  1.5278 -0.2669 -0.9285
 9084SOL     OW38713   3.918   2.439   8.680 -0.2723  0.2197 -0.2260
 9084SOL    HW138714   3.878   2.453   8.595  1.9347  0.7909 -1.1703
 9084SOL    HW238715   3.946   2.528   8.701 -2.0982  0.8698 -0.5638
 9085SOL     OW38716   3.048   4.148   9.094 -0.5478 -0.3403 -0.4262
 9085SOL    HW138717   3.135   4.120   9.123 -0.7067 -0.0872  0.2999
 9085SOL    HW238718   3.001   4.066   9.085 -1.1511 -0.0699  0.3161
 9086SOL     OW38719   1.425   2.736  12.974  0.5770 -0.3118 -0.5497
 9086SOL    HW138720   1.502   2.786  12.999  0.7803 -0.3080 -1.1768
 9086SOL    HW238721   1.379   2.726  13.057 -2.2243 -0.9225 -2.1795
 9087SOL     OW38722   1.147   1.032   5.373 -0.5651 -0.0623  0.1738
 9087SOL    HW138723   1.237   1.021   5.343 -0.7562  2.6115 -1.3474
 9087SOL    HW238724   1.128   0.939   5.385  1.0611 -0.3036  0.8684
 9088SOL     OW38725   0.303   1.016  15.179 -0.6814 -0.5911  0.1021
 9088SOL    HW138726   0.346   0.936  15.147 -0.1372 -0.4378  0.4514
 9088SOL    HW238727   0.344   1.083  15.124  1.2849 -2.1783 -0.3681
 9089SOL     OW38728   0.043   1.019  11.847 -0.5957  0.1238 -0.1952
 9089SOL    HW138729   0.084   0.942  11.809 -1.6884  0.1352 -1.4154
 9089SOL    HW238730   0.035   1.070  11.766 -0.3562  2.2991  1.1589
 9090SOL     OW38731   1.242   3.462  13.660  0.2122 -0.3609  0.9018
 9090SOL    HW138732   1.247   3.383  13.606 -0.5982 -0.1812  0.5672
 9090SOL    HW238733   1.258   3.424  13.746 -2.4745 -3.5108 -0.0046
 9091SOL     OW38734   0.501   2.600   6.840 -0.2612 -0.1586  0.4494
 9091SOL    HW138735   0.438   2.666   6.809  0.4326  0.8413  1.1925
 9091SOL    HW238736   0.582   2.638   6.807  0.0148 -0.6120  0.6144
 9092SOL     OW38737   2.948   0.315   5.053 -0.4409 -0.5329 -0.3040
 9092SOL    HW138738   2.909   0.344   5.136 -0.4248 -1.4782  0.0440
 9092SOL    HW238739   2.929   0.392   5.000 -4.2249 -1.5267 -0.3410
 9093SOL     OW38740   2.180   3.794  11.719 -0.7309 -0.1517  0.0598
 9093SOL    HW138741   2.158   3.737  11.646  1.5926 -1.0381  0.0737
 9093SOL    HW238742   2.092   3.826  11.741 -0.0257  2.3415 -0.6999
 9094SOL     OW38743   2.459   2.380   7.113  0.0347  0.2394  0.5144
 9094SOL    HW138744   2.422   2.320   7.049  1.4141  0.0074 -0.0562
 9094SOL    HW238745   2.552   2.360   7.102  0.1093  1.4149 -0.8935
 9095SOL     OW38746   0.282   1.341  15.348 -0.3162  0.1986  0.0633
 9095SOL    HW138747   0.270   1.422  15.399 -1.3937  1.1384 -1.6585
 9095SOL    HW238748   0.364   1.354  15.300 -0.7922  0.3603 -0.7221
 9096SOL     OW38749   0.162   4.152   7.927  0.2446 -0.0287 -0.2866
 9096SOL    HW138750   0.133   4.180   8.014 -1.9933  1.8948 -1.6293
 9096SOL    HW238751   0.253   4.182   7.924  0.6899 -1.3004  0.4335
 9097SOL     OW38752   1.524   0.479  17.625 -0.0508 -0.1720 -0.5567
 9097SOL    HW138753   1.515   0.425   0.011  2.3110  1.6067  0.9002
 9097SOL    HW238754   1.614   0.454  17.605  0.0214 -1.2064  0.9919
 9098SOL     OW38755   4.402   1.195  16.048  0.3480 -0.2823 -0.1011
 9098SOL    HW138756   4.438   1.276  16.083 -1.5589  0.0854  1.0127
 9098SOL    HW238757   4.336   1.223  15.984 -0.8503  0.8046  1.6055
 9099SOL     OW38758   0.194   1.153  16.404  0.0373 -0.6947  0.0089
 9099SOL    HW138759   0.125   1.128  16.343 -0.7449  1.6603 -0.0545
 9099SOL    HW238760   0.259   1.085  16.385  0.2452 -0.5830  0.3318
 9100SOL     OW38761   4.327   3.983   7.590  0.0741 -0.4123 -0.4778
 9100SOL    HW138762   4.305   3.901   7.634  0.3289 -1.9368 -3.2149
 9100SOL    HW238763   4.273   4.053   7.629  1.3246  0.8888 -1.0830
 9101SOL     OW38764   2.225   1.946   2.440  1.5531  0.6416  0.2046
 9101SOL    HW138765   2.175   1.934   2.521 -0.1429 -0.2623 -0.9836
 9101SOL    HW238766   2.205   1.860   2.403  1.6557  1.2597 -1.2849
 9102SOL     OW38767   0.392   0.237   8.401 -0.4393  0.4197  0.0878
 9102SOL    HW138768   0.311   0.225   8.351 -0.9064 -2.2400  1.4600
 9102SOL    HW238769   0.372   0.322   8.442  1.1055  1.4092 -1.1925
 9103SOL     OW38770   2.689   2.158   5.010 -0.4693  0.5380 -0.1133
 9103SOL    HW138771   2.617   2.102   4.981  0.2297 -0.3995 -0.0517
 9103SOL    HW238772   2.756   2.089   5.012  0.0676  1.1047  1.4988
 9104SOL     OW38773   1.056   4.090   1.956 -0.0599 -0.6243 -0.1439
 9104SOL    HW138774   1.081   4.031   1.885  0.2805  0.6533 -1.0893
 9104SOL    HW238775   1.112   4.165   1.936 -1.4819  0.1779 -1.0467
 9105SOL     OW38776   0.192   2.105  11.801 -0.5707 -0.7950 -0.0377
 9105SOL    HW138777   0.124   2.042  11.826 -0.9302 -0.6755 -0.7217
 9105SOL    HW238778   0.240   2.112  11.883 -1.5646  1.4151  0.3534
 9106SOL     OW38779   3.773   1.296   2.277  0.0991 -0.7059 -0.3025
 9106SOL    HW138780   3.772   1.201   2.272  1.4803 -0.6484 -1.6191
 9106SOL    HW238781   3.750   1.305   2.369 -0.5385  0.3178 -0.5606
 9107SOL     OW38782   2.515   3.421  10.162 -0.6198 -0.3069 -0.5033
 9107SOL    HW138783   2.471   3.363  10.100 -0.7685 -0.8847  0.1373
 9107SOL    HW238784   2.445   3.485  10.175 -0.4335 -0.2077 -0.0163
 9108SOL     OW38785   2.366   4.067   7.670 -0.3389 -0.2926 -0.1034
 9108SOL    HW138786   2.453   4.037   7.644 -2.6647 -2.6494 -5.0430
 9108SOL    HW238787   2.319   4.083   7.589 -1.2120 -3.2743 -0.1736
 9109SOL     OW38788   4.351   3.966  13.667 -0.4932 -0.0689  0.3769
 9109SOL    HW138789   4.301   3.911  13.607 -1.9400  1.0169  0.5850
 9109SOL    HW238790   4.293   4.036  13.698 -1.4052 -0.7804  0.2559
 9110SOL     OW38791   4.372   0.741   6.695 -0.0044 -0.6423  0.4241
 9110SOL    HW138792   4.297   0.714   6.641  0.5333  1.1136 -1.2098
 9110SOL    HW238793   4.437   0.731   6.626  0.9710 -0.3427  1.3147
 9111SOL     OW38794   0.305   3.567   4.198  0.2949 -0.0342 -0.2384
 9111SOL    HW138795   0.359   3.492   4.173 -1.7829 -2.0993  1.4043
 9111SOL    HW238796   0.241   3.527   4.257 -0.5718  0.5607 -0.7800
 9112SOL     OW38797   4.165   1.888  17.614 -0.0939  0.3655 -1.0778
 9112SOL    HW138798   4.207   1.832  17.679 -0.9331 -0.1160 -0.9380
 9112SOL    HW238799   4.134   1.953  17.677 -0.1375 -1.6767  1.0103
 9113SOL     OW38800   3.638   4.099   5.489  0.4396 -0.1640 -0.0184
 9113SOL    HW138801   3.658   4.112   5.397 -3.4455 -0.6087 -0.9408
 9113SOL    HW238802   3.646   4.193   5.506 -0.3750  0.1153 -1.2013
 9114SOL     OW38803   3.763   2.194   9.823 -0.5160  0.0550 -0.3397
 9114SOL    HW138804   3.757   2.111   9.872  2.8031 -0.2025 -0.3696
 9114SOL    HW238805   3.827   2.248   9.870  0.5140 -1.8362  0.4695
 9115SOL     OW38806   0.314   1.860   9.170 -0.2593  0.4325 -0.0554
 9115SOL    HW138807   0.284   1.948   9.149  0.5103  0.3398 -1.5778
 9115SOL    HW238808   0.372   1.876   9.244 -0.3054 -0.7155  0.2348
 9116SOL     OW38809   0.151   3.708   9.913  0.7244 -0.4233 -0.5924
 9116SOL    HW138810   0.189   3.702  10.000 -0.2440 -2.2799 -0.3104
 9116SOL    HW238811   0.093   3.632   9.916 -0.7437  0.7652  1.1888
 9117SOL     OW38812   2.053   2.103   1.212  0.1340 -0.6841 -0.0759
 9117SOL    HW138813   2.106   2.127   1.135  0.8395 -3.0968 -0.3455
 9117SOL    HW238814   2.109   2.138   1.280 -1.1678  1.9764 -0.3924
 9118SOL     OW38815   4.704   1.057   2.453 -0.4142 -0.0818  0.3840
 9118SOL    HW138816   0.023   0.972   2.460 -1.0436 -0.2228  2.3134
 9118SOL    HW238817   4.616   1.042   2.419 -1.2233 -0.1921  2.5922
 9119SOL     OW38818   0.724   4.004   8.166  0.6443  0.0526 -0.4405
 9119SOL    HW138819   0.699   3.920   8.128  1.8909 -1.1458  1.3241
 9119SOL    HW238820   0.776   4.039   8.094  2.8337  1.7767  1.9557
 9120SOL     OW38821   2.355   2.136   8.120  0.6479 -0.0699 -0.5247
 9120SOL    HW138822   2.352   2.078   8.197 -1.0149 -1.0802 -1.3505
 9120SOL    HW238823   2.436   2.106   8.079 -0.8011 -2.5838 -1.5004
 9121SOL     OW38824   2.321   1.575   5.646 -0.5925  0.4649  0.3541
 9121SOL    HW138825   2.228   1.592   5.663 -1.1711 -0.2154 -2.0689
 9121SOL    HW238826   2.350   1.660   5.678 -0.3408  0.2548  0.6794
 9122SOL     OW38827   1.452   3.319   1.873  0.1703  0.0425 -0.2429
 9122SOL    HW138828   1.546   3.326   1.859  0.6170 -3.4520  0.8483
 9122SOL    HW238829   1.420   3.285   1.790 -4.4784 -0.6064  1.7800
 9123SOL     OW38830   0.816   3.976   3.497  0.2103 -0.1210  0.8253
 9123SOL    HW138831   0.841   3.904   3.556  0.0715  0.4322  1.5567
 9123SOL    HW238832   0.728   3.944   3.475  1.4889 -1.8693 -1.7168
 9124SOL     OW38833   3.276   1.268   5.248 -0.4819  0.4396  0.3976
 9124SOL    HW138834   3.284   1.249   5.155 -2.2050  1.4730  0.0413
 9124SOL    HW238835   3.270   1.184   5.293  2.1044  0.7933  1.3929
 9125SOL     OW38836   3.257   3.768   4.052  0.5367  0.1105 -0.1598
 9125SOL    HW138837   3.352   3.762   4.057  0.5416 -1.0805 -1.7178
 9125SOL    HW238838   3.241   3.848   4.103  5.0412  1.9451 -1.6829
 9126SOL     OW38839   0.110   0.557  11.149  0.6233 -0.2154  0.3520
 9126SOL    HW138840   0.141   0.626  11.090  2.3206 -1.5635 -0.3427
 9126SOL    HW238841   0.148   0.479  11.108 -0.6091 -1.2213  1.1501
 9127SOL     OW38842   4.557   1.832   2.272 -0.1265  0.0356  0.4851
 9127SOL    HW138843   4.620   1.881   2.220 -0.6041  0.7106  0.5407
 9127SOL    HW238844   4.476   1.872   2.241  0.5661  0.0669 -1.2908
 9128SOL     OW38845   3.345   0.793   8.200 -0.8151 -0.0147  0.1958
 9128SOL    HW138846   3.294   0.715   8.222 -0.8875  0.0847  0.3830
 9128SOL    HW238847   3.430   0.765   8.235 -0.2170  0.3822 -0.9268
 9129SOL     OW38848   3.996   3.888   3.558 -0.9409 -0.0840 -0.2034
 9129SOL    HW138849   3.913   3.849   3.533  0.2290 -1.2032 -2.3324
 9129SOL    HW238850   3.977   3.981   3.552 -0.8582 -0.0930 -0.5723
 9130SOL     OW38851   0.447   4.312   0.670 -0.3086  0.2904  0.3325
 9130SOL    HW138852   0.357   4.286   0.648 -0.2126 -0.1081  0.4134
 9130SOL    HW238853   0.487   4.226   0.685  1.9726  1.1364 -0.9573
 9131SOL     OW38854   2.732   4.662   2.552 -0.2868  0.2270 -0.0699
 9131SOL    HW138855   2.655   4.633   2.501  0.0140 -3.4311  1.5322
 9131SOL    HW238856   2.694   0.015   2.595  2.2623  2.5398 -1.9772
 9132SOL     OW38857   0.994   1.670   1.420  0.7934 -0.9610  0.4258
 9132SOL    HW138858   1.084   1.702   1.419  0.8322 -1.1083 -0.4077
 9132SOL    HW238859   0.995   1.651   1.514 -1.3170  1.1968  0.9103
 9133SOL     OW38860   0.250   0.351   6.911  0.2778  0.3229 -0.2543
 9133SOL    HW138861   0.262   0.377   6.819  2.3005 -2.7376 -0.8421
 9133SOL    HW238862   0.170   0.299   6.901  1.5881 -1.4126 -1.6904
 9134SOL     OW38863   2.199   4.683   3.889 -0.0597 -0.0812 -0.2144
 9134SOL    HW138864   2.252   4.665   3.966 -1.1894  0.9040  0.7888
 9134SOL    HW238865   2.111   4.650   3.909  0.2146 -0.3526  0.5564
 9135SOL     OW38866   0.832   4.380  10.980 -0.1238  0.2590  0.0142
 9135SOL    HW138867   0.747   4.422  10.967 -0.3868 -0.0807  0.6290
 9135SOL    HW238868   0.835   4.311  10.914 -2.7636  0.8799 -0.7414
 9136SOL     OW38869   1.576   0.222   2.754  0.2837  0.2360 -0.5290
 9136SOL    HW138870   1.539   0.136   2.736 -2.2455  0.9494  1.3556
 9136SOL    HW238871   1.530   0.243   2.835  0.4769  0.2501 -0.4234
 9137SOL     OW38872   1.807   2.391   4.674 -0.9252 -0.0604 -0.3457
 9137SOL    HW138873   1.896   2.428   4.673 -0.7586 -0.4505  0.4311
 9137SOL    HW238874   1.811   2.308   4.626 -1.3873 -0.4862  0.3603
 9138SOL     OW38875   4.131   3.090   6.973  0.0470  0.7296 -0.9422
 9138SOL    HW138876   4.159   3.123   7.059  0.7454 -0.4424 -0.7331
 9138SOL    HW238877   4.091   3.006   6.995  0.1216  1.2175  1.1032
 9139SOL     OW38878   2.116   2.741   5.666 -0.2952  0.1566  0.7735
 9139SOL    HW138879   2.171   2.757   5.589  0.3819  0.6930  1.3572
 9139SOL    HW238880   2.055   2.815   5.664 -0.0846  0.2242 -2.3189
 9140SOL     OW38881   1.665   0.036   9.132  0.9305 -0.1995  0.3290
 9140SOL    HW138882   1.736   4.698   9.112  0.9516  0.6703 -2.2774
 9140SOL    HW238883   1.658   0.017   9.225 -1.3893 -1.6440 -0.1583
 9141SOL     OW38884   0.009   0.643   3.487 -0.0168  0.3651 -0.3351
 9141SOL    HW138885   0.092   0.691   3.490  0.4376 -0.3328 -1.9636
 9141SOL    HW238886   0.021   0.580   3.558 -1.1629 -1.8612 -2.1103
 9142SOL     OW38887   3.391   4.087  15.746 -0.2475 -0.1178  0.3850
 9142SOL    HW138888   3.475   4.041  15.746 -0.2340 -0.0837 -0.9623
 9142SOL    HW238889   3.344   4.038  15.679 -0.6516 -0.3092  0.8067
 9143SOL     OW38890   1.742   0.393   8.322  0.2295 -0.1666 -0.0098
 9143SOL    HW138891   1.807   0.463   8.317 -2.1915  2.0163 -1.0143
 9143SOL    HW238892   1.686   0.428   8.252 -0.4537 -2.9657 -0.8695
 9144SOL     OW38893   2.355   3.296  17.302  0.1475  0.3672  0.0825
 9144SOL    HW138894   2.374   3.314  17.394 -0.5432 -0.5333  0.4085
 9144SOL    HW238895   2.290   3.227  17.317  0.2427 -0.3319 -2.7519
 9145SOL     OW38896   2.418   4.613   3.397  0.2559  0.0538  0.6043
 9145SOL    HW138897   2.409   4.707   3.385  0.5170  0.3021  2.3709
 9145SOL    HW238898   2.494   4.611   3.456  0.2307 -0.7359  0.6182
 9146SOL     OW38899   1.679   1.954  16.792 -0.3432  0.2130  0.5272
 9146SOL    HW138900   1.734   2.016  16.745  0.0703  0.5740  1.4833
 9146SOL    HW238901   1.595   1.936  16.749 -0.8251  1.0405  1.1278
 9147SOL     OW38902   1.190   2.266   3.449  0.2461  0.2779 -0.7977
 9147SOL    HW138903   1.205   2.201   3.380 -0.1825  0.3113 -0.9269
 9147SOL    HW238904   1.221   2.347   3.410  0.3366  0.2332 -0.8184
 9148SOL     OW38905   0.713   3.808   3.707 -0.5118 -0.6156  0.7919
 9148SOL    HW138906   0.662   3.786   3.629  3.4217  1.8539 -2.4891
 9148SOL    HW238907   0.692   3.730   3.758 -0.5219 -0.0146  1.6989
 9149SOL     OW38908   4.404   0.957  10.940  0.7302  0.0384  0.2067
 9149SOL    HW138909   4.331   0.961  10.879  0.9785  0.4319 -0.0610
 9149SOL    HW238910   4.378   0.880  10.992  0.5021  0.5222  0.8030
 9150SOL     OW38911   1.599   3.579   2.186  0.1299  0.8529  0.3723
 9150SOL    HW138912   1.614   3.490   2.153 -2.6128 -0.3491  2.3271
 9150SOL    HW238913   1.660   3.621   2.125 -0.1125  2.7774  1.4637
 9151SOL     OW38914   3.467   4.685   3.187 -0.4328  0.6787  0.6729
 9151SOL    HW138915   3.486   4.592   3.174 -0.0642  0.7918  0.4132
 9151SOL    HW238916   3.381   4.698   3.145 -0.7085  1.1392  1.3900
 9152SOL     OW38917   4.335   0.004   5.933  0.1179 -0.2736  0.0022
 9152SOL    HW138918   4.273   0.055   5.985  1.8155  1.9117 -0.1216
 9152SOL    HW238919   4.394   4.682   5.993  1.5723  0.4317 -0.8892
 9153SOL     OW38920   1.534   4.000   8.454 -0.0227 -0.2608  0.2185
 9153SOL    HW138921   1.551   3.907   8.438 -0.8217 -0.4436  0.4686
 9153SOL    HW238922   1.622   4.037   8.446 -1.1140  2.0930 -0.9104
 9154SOL     OW38923   3.210   1.669  13.275 -0.1870 -0.1623 -0.5535
 9154SOL    HW138924   3.277   1.643  13.337 -0.6241 -0.3760 -0.1701
 9154SOL    HW238925   3.157   1.737  13.316  2.4477  1.0250  0.8695
 9155SOL     OW38926   1.473   2.150   2.033 -0.6828  0.4774 -0.3787
 9155SOL    HW138927   1.527   2.163   2.111 -0.2839 -0.9387 -0.4152
 9155SOL    HW238928   1.413   2.083   2.065  2.5173 -1.2474  2.0171
 9156SOL     OW38929   0.492   4.608  10.582 -0.0735 -0.4129  0.0453
 9156SOL    HW138930   0.430   4.634  10.650  0.9679 -0.1262  0.8822
 9156SOL    HW238931   0.434   4.580  10.511  1.3048 -0.9015 -0.8922
 9157SOL     OW38932   2.016   1.558   4.583 -0.0386  0.4428 -0.1272
 9157SOL    HW138933   2.070   1.601   4.649  1.0819  2.0690 -2.1293
 9157SOL    HW238934   2.081   1.549   4.513  0.8703  1.6460  0.5628
 9158SOL     OW38935   4.081   3.411   5.261 -0.3570 -0.0539  0.0252
 9158SOL    HW138936   4.042   3.459   5.188 -1.4730 -1.2819 -0.1827
 9158SOL    HW238937   4.124   3.477   5.316 -1.5981  0.9778 -0.2447
 9159SOL     OW38938   4.036   2.009   7.890  0.0209 -0.0690 -0.3715
 9159SOL    HW138939   3.964   2.072   7.895 -0.8502 -0.9465 -2.0041
 9159SOL    HW238940   4.007   1.950   7.820 -0.0406  1.1665 -1.3845
 9160SOL     OW38941   3.920   3.364   7.853  0.2291  0.3988  0.1189
 9160SOL    HW138942   3.932   3.299   7.922 -2.8285  1.3118  1.5120
 9160SOL    HW238943   3.971   3.440   7.883 -0.5447 -0.4139  3.4451
 9161SOL     OW38944   3.993   3.406   4.415  0.0612 -0.3010  0.0797
 9161SOL    HW138945   3.983   3.328   4.361 -2.0823 -1.2993  1.9146
 9161SOL    HW238946   4.086   3.417   4.396 -0.0580  1.1148  0.3119
 9162SOL     OW38947   4.209   2.652   4.303 -0.1550  0.4734 -0.2765
 9162SOL    HW138948   4.200   2.736   4.258 -0.9756  0.2009 -0.6318
 9162SOL    HW238949   4.128   2.605   4.283 -1.1423  2.4137 -0.8510
 9163SOL     OW38950   4.540   2.523   5.973 -0.1519  0.8190 -0.0467
 9163SOL    HW138951   4.457   2.476   5.965 -0.3501  1.9210 -4.6026
 9163SOL    HW238952   4.533   2.553   6.064  1.1955 -0.0261  0.3282
 9164SOL     OW38953   1.028   0.696   0.660 -0.3070  0.2193  0.4698
 9164SOL    HW138954   1.057   0.732   0.744 -0.3058  1.0616  0.1010
 9164SOL    HW238955   0.954   0.756   0.654 -1.1272 -0.8755 -0.4640
 9165SOL     OW38956   0.571   2.879   5.038  0.3593  0.4340 -0.1963
 9165SOL    HW138957   0.569   2.915   4.950  1.7880 -0.9745 -0.8077
 9165SOL    HW238958   0.496   2.819   5.036 -0.1397  1.2196 -4.0553
 9166SOL     OW38959   1.296   1.415   4.575  0.1287  0.1932  0.0759
 9166SOL    HW138960   1.293   1.487   4.512  3.3382  0.9487  0.7711
 9166SOL    HW238961   1.213   1.369   4.563  0.1962  0.2747 -0.7067
 9167SOL     OW38962   0.470   2.988   8.740  0.2437  0.0501 -0.7963
 9167SOL    HW138963   0.476   2.965   8.832 -0.7719  0.2261 -0.6903
 9167SOL    HW238964   0.564   2.997   8.724  0.3689 -1.3262 -0.8355
 9168SOL     OW38965   1.241   4.068   7.571 -0.1036 -0.3020 -0.1295
 9168SOL    HW138966   1.208   3.988   7.610 -1.3187  1.2905  2.1111
 9168SOL    HW238967   1.296   4.048   7.495  0.2485  2.4724 -0.6245
 9169SOL     OW38968   4.110   4.370   1.656  0.4483 -0.0394 -0.2433
 9169SOL    HW138969   4.028   4.419   1.655  0.1826 -0.5044 -2.0371
 9169SOL    HW238970   4.142   4.410   1.736  0.2450 -1.6932  0.6564
 9170SOL     OW38971   4.495   0.502   4.982 -0.1767 -0.7389 -0.4037
 9170SOL    HW138972   4.447   0.557   5.044 -0.9775 -2.2244  0.2980
 9170SOL    HW238973   4.424   0.453   4.940 -1.5210  0.4435  0.5071
 9171SOL     OW38974   0.879   4.705   2.469 -0.6775  0.1375  0.2204
 9171SOL    HW138975   0.790   4.683   2.439 -1.2864  0.3146  1.9121
 9171SOL    HW238976   0.904   0.054   2.411  2.6595 -0.6960  0.6419
 9172SOL     OW38977   4.340   0.798   4.034 -0.0424  0.5461 -0.3050
 9172SOL    HW138978   4.359   0.861   3.964  1.3477  0.1153 -0.3130
 9172SOL    HW238979   4.295   0.723   3.996  0.1482  0.1306  0.2890
 9173SOL     OW38980   4.105   4.558  11.219  0.2839 -0.2777  0.4371
 9173SOL    HW138981   4.016   4.524  11.231 -0.2633  1.5594  1.6166
 9173SOL    HW238982   4.110   4.633  11.279 -2.3736 -0.1216  0.4793
 9174SOL     OW38983   3.669   0.940  17.155  0.5677  0.9187  0.0628
 9174SOL    HW138984   3.762   0.922  17.168 -0.0390  0.5244  3.8017
 9174SOL    HW238985   3.650   0.925  17.062  0.2444  0.1944  0.2450
 9175SOL     OW38986   0.381   1.137   6.444  0.7010 -0.1534 -0.4125
 9175SOL    HW138987   0.417   1.211   6.395 -0.3566  0.3088 -0.4908
 9175SOL    HW238988   0.291   1.162   6.460  1.3460  1.9823 -0.1469
 9176SOL     OW38989   3.511   4.650   8.441 -0.0304 -0.5006  0.0590
 9176SOL    HW138990   3.499   4.569   8.490  0.2635 -0.8222 -0.3974
 9176SOL    HW238991   3.542   4.706   8.511 -3.1678 -1.5225  2.2589
 9177SOL     OW38992   4.671   4.500   8.375 -0.6181  0.1327 -0.3030
 9177SOL    HW138993   4.620   4.571   8.336  0.1692  0.9502  0.1391
 9177SOL    HW238994   4.620   4.428   8.339  0.8193 -0.2728 -1.5352
 9178SOL     OW38995   2.257   0.795  14.189 -0.0172 -0.5807  0.8928
 9178SOL    HW138996   2.199   0.856  14.235 -0.2705 -0.6054  0.6044
 9178SOL    HW238997   2.313   0.762  14.259 -0.0833 -1.5552  0.4770
 9179SOL     OW38998   1.789   3.873  10.036  0.0441 -0.0260 -0.1788
 9179SOL    HW138999   1.742   3.916   9.965 -3.3255 -0.0107  2.0435
 9179SOL    HW239000   1.809   3.949  10.091  1.0009  0.4648 -1.2237
 9180SOL     OW39001   0.757   0.518   7.810  0.1296  0.4968  0.3441
 9180SOL    HW139002   0.752   0.539   7.903  1.2619  0.5850  0.3857
 9180SOL    HW239003   0.801   0.597   7.777 -0.3088 -0.4361 -2.4449
 9181SOL     OW39004   3.691   0.033   9.206  0.0390  0.1955  0.1602
 9181SOL    HW139005   3.770   0.077   9.177 -0.2674 -0.1384 -1.1515
 9181SOL    HW239006   3.698   0.026   9.302  1.8809  1.6692  0.1147
 9182SOL     OW39007   1.319   1.753   3.189 -0.7045  0.0071  0.1347
 9182SOL    HW139008   1.278   1.671   3.163  0.1215 -0.1216 -0.7637
 9182SOL    HW239009   1.291   1.746   3.280 -1.8471 -0.9640 -0.3091
 9183SOL     OW39010   3.370   1.948   5.230 -0.2877 -0.0948  0.2492
 9183SOL    HW139011   3.368   1.884   5.301  0.4929  0.6285  0.9112
 9183SOL    HW239012   3.434   1.924   5.163 -0.4919 -0.7293  0.2801
 9184SOL     OW39013   1.149   3.265  13.862 -0.6601 -1.2265 -0.0514
 9184SOL    HW139014   1.188   3.249  13.948 -1.9073  1.1599  0.9650
 9184SOL    HW239015   1.065   3.306  13.882 -0.3037  0.9079 -2.9617
 9185SOL     OW39016   3.065   0.309   8.931  0.0754 -0.0886  0.2706
 9185SOL    HW139017   3.152   0.314   8.892  0.5145  0.9896  1.3883
 9185SOL    HW239018   3.027   0.379   8.876 -0.6413  0.4975  1.5242
 9186SOL     OW39019   1.247   1.726   1.458  0.2378  0.0143  0.9108
 9186SOL    HW139020   1.273   1.807   1.413 -0.8830 -1.0652 -1.6925
 9186SOL    HW239021   1.336   1.695   1.471  0.3762  0.8782  2.0467
 9187SOL     OW39022   1.268   2.586  10.069 -0.1130  0.3169  0.8230
 9187SOL    HW139023   1.296   2.677  10.079 -0.9523  0.7536 -0.7007
 9187SOL    HW239024   1.254   2.565  10.161  2.1519  1.7401  1.4829
 9188SOL     OW39025   3.400   4.162   8.810 -0.1089  0.0586 -0.0503
 9188SOL    HW139026   3.425   4.077   8.774 -1.3944 -0.3882  0.1136
 9188SOL    HW239027   3.308   4.157   8.782 -0.3365 -1.6442  1.0472
 9189SOL     OW39028   4.681   1.139  14.155  0.2342 -0.3249 -0.2163
 9189SOL    HW139029   4.653   1.052  14.183 -2.0874  0.2207 -0.8329
 9189SOL    HW239030   0.050   1.116  14.142  0.0347 -0.0107 -2.1903
 9190SOL     OW39031   2.903   1.855  16.149  0.0294 -0.0543  0.6947
 9190SOL    HW139032   2.945   1.867  16.064 -0.7589  1.3175  0.4868
 9190SOL    HW239033   2.822   1.815  16.116 -0.4292  1.7904 -0.4054
 9191SOL     OW39034   1.850   1.758   3.955  0.2567  0.1712 -0.0754
 9191SOL    HW139035   1.806   1.708   4.024  0.8759 -1.4852 -0.8756
 9191SOL    HW239036   1.840   1.706   3.875  2.2002  0.8968 -0.7783
 9192SOL     OW39037   2.215   2.068   5.102  0.2473  0.6186  0.9753
 9192SOL    HW139038   2.147   2.021   5.054 -1.7527  1.0446  3.3590
 9192SOL    HW239039   2.178   2.058   5.190  1.2981  0.7031  1.4276
 9193SOL     OW39040   4.221   0.919   8.263 -0.0109 -0.0804 -0.0357
 9193SOL    HW139041   4.184   0.945   8.347 -0.6297  1.4382 -0.7660
 9193SOL    HW239042   4.286   0.988   8.245  0.0249 -0.0507  0.2100
 9194SOL     OW39043   1.154   4.511   7.650 -0.2362  1.1119  0.2150
 9194SOL    HW139044   1.221   4.570   7.685 -0.2276  0.2542  1.6617
 9194SOL    HW239045   1.103   4.556   7.583  1.5865  1.3270 -1.0159
 9195SOL     OW39046   0.431   3.567   3.400 -0.2999 -0.3180 -0.0237
 9195SOL    HW139047   0.430   3.560   3.304  1.8178  0.8605 -0.1255
 9195SOL    HW239048   0.453   3.478   3.430  0.2154  0.3732  1.6159
 9196SOL     OW39049   0.805   3.110   8.388 -0.5314  0.0878 -0.0117
 9196SOL    HW139050   0.731   3.050   8.399  0.4644 -0.6435  2.8390
 9196SOL    HW239051   0.844   3.073   8.309  0.0677 -1.4809  1.0015
 9197SOL     OW39052   4.348   0.593  16.436  0.1411  1.1093 -0.3888
 9197SOL    HW139053   4.442   0.582  16.451 -0.0545 -0.3001 -0.2490
 9197SOL    HW239054   4.350   0.678  16.391 -1.8001  0.9813 -0.7176
 9198SOL     OW39055   0.287   2.370  11.150 -0.3137 -0.4919 -0.2058
 9198SOL    HW139056   0.289   2.438  11.218 -0.0429 -1.9386  1.2546
 9198SOL    HW239057   0.302   2.291  11.203 -0.4031  0.3151  1.0280
 9199SOL     OW39058   4.409   1.096   7.656 -0.6068 -0.1329 -0.0512
 9199SOL    HW139059   4.332   1.138   7.695 -0.8793 -0.0956 -0.6260
 9199SOL    HW239060   4.420   1.160   7.586  0.8183 -0.0274  0.2737
 9200SOL     OW39061   3.324   0.971   0.507  0.7080  0.2656 -0.1948
 9200SOL    HW139062   3.301   1.049   0.558 -1.1217  0.7955 -1.8557
 9200SOL    HW239063   3.418   0.965   0.528  0.4928  0.4299  0.8278
 9201SOL     OW39064   3.652   4.344   2.844  0.2930 -0.2732  0.3513
 9201SOL    HW139065   3.737   4.302   2.854  1.3413  2.0267  1.1799
 9201SOL    HW239066   3.613   4.333   2.931 -1.1175 -0.8505 -0.3601
 9202SOL     OW39067   3.707   2.987   7.248 -0.0612 -0.2589  0.1635
 9202SOL    HW139068   3.657   2.994   7.330 -0.7359  2.2544 -0.4512
 9202SOL    HW239069   3.774   3.053   7.268  1.1004 -0.5768 -2.7477
 9203SOL     OW39070   2.593   0.552   0.573 -0.0126  0.3123 -0.4408
 9203SOL    HW139071   2.612   0.469   0.530  0.9606  0.4421 -0.2568
 9203SOL    HW239072   2.498   0.544   0.582  0.1806 -2.3743 -0.9007
 9204SOL     OW39073   0.400   2.142   8.755  1.0646  0.3641 -0.3328
 9204SOL    HW139074   0.424   2.217   8.811  0.6593 -1.3444  2.1575
 9204SOL    HW239075   0.316   2.172   8.721 -0.0918 -0.1460  2.0242
 9205SOL     OW39076   2.975   2.890   2.859  0.0641  1.0766  0.5177
 9205SOL    HW139077   3.014   2.831   2.924 -2.3424 -1.8605 -0.6754
 9205SOL    HW239078   3.053   2.928   2.819 -0.3120 -0.1612 -1.4143
 9206SOL     OW39079   2.554   2.757   8.539 -0.1969 -0.1574 -0.2439
 9206SOL    HW139080   2.622   2.691   8.552  0.0167 -0.0354 -0.7438
 9206SOL    HW239081   2.476   2.702   8.541 -0.1199 -0.2956 -1.1920
 9207SOL     OW39082   2.391   0.124   9.689 -0.5461 -0.3047  0.5600
 9207SOL    HW139083   2.434   0.093   9.769 -1.0176 -1.3528  0.4158
 9207SOL    HW239084   2.422   0.057   9.628  1.7970  0.6548  0.6861
 9208SOL     OW39085   3.598   3.390   1.735 -0.2066 -0.4407  0.0855
 9208SOL    HW139086   3.657   3.321   1.767  0.3066 -0.9415 -1.9803
 9208SOL    HW239087   3.649   3.442   1.674 -0.7040 -0.7352 -0.5715
 9209SOL     OW39088   0.836   2.713   2.728 -0.7093 -0.0274  0.2480
 9209SOL    HW139089   0.771   2.706   2.658 -0.7273  2.3096  0.0159
 9209SOL    HW239090   0.834   2.808   2.741  0.2153 -0.0546  0.6063
 9210SOL     OW39091   2.789   4.470   3.104  0.4157  0.1521  0.8899
 9210SOL    HW139092   2.732   4.431   3.038  0.0834  0.5865  0.9269
 9210SOL    HW239093   2.807   4.395   3.162 -1.5752  0.0780  1.4076
 9211SOL     OW39094   1.847   1.325  16.849 -0.1581 -0.0215  0.0214
 9211SOL    HW139095   1.762   1.350  16.884 -0.0170  0.2387  0.1771
 9211SOL    HW239096   1.910   1.390  16.879 -2.3734  2.5790 -1.0240
 9212SOL     OW39097   1.902   0.816   1.499  0.4287  0.8023  0.3553
 9212SOL    HW139098   1.934   0.902   1.475  1.4780  0.2059 -0.3730
 9212SOL    HW239099   1.830   0.809   1.436 -0.3245  1.7207  1.1132
 9213SOL     OW39100   0.852   3.316   8.685  0.4110  0.3334 -1.0227
 9213SOL    HW139101   0.815   3.321   8.774 -0.1776  1.0077 -1.3008
 9213SOL    HW239102   0.864   3.409   8.667 -1.0197  0.6570 -0.3508
 9214SOL     OW39103   2.944   0.589   7.420 -0.7861 -0.4603  0.3052
 9214SOL    HW139104   3.038   0.586   7.407 -0.5106 -0.1235  2.1124
 9214SOL    HW239105   2.942   0.543   7.504  1.6128 -0.1174  0.5377
 9215SOL     OW39106   1.027   1.074  10.525 -0.3777  0.1722 -0.0637
 9215SOL    HW139107   0.995   1.165  10.530 -1.1519 -0.1551  1.0232
 9215SOL    HW239108   0.957   1.040  10.469 -1.1304  1.2930  0.1764
 9216SOL     OW39109   2.913   3.714  15.265  0.2742  0.0134 -0.2274
 9216SOL    HW139110   2.925   3.703  15.171  1.6794  0.3127 -0.0885
 9216SOL    HW239111   2.818   3.722  15.269  0.3379  1.7509 -2.7108
 9217SOL     OW39112   4.019   4.596  10.613  0.1689  0.1043 -0.0687
 9217SOL    HW139113   4.020   4.505  10.641  0.4776 -1.0173 -3.7172
 9217SOL    HW239114   3.996   4.589  10.520 -0.7004  0.3682  0.1254
 9218SOL     OW39115   4.396   1.348   5.527  0.8526  0.5005 -0.3681
 9218SOL    HW139116   4.440   1.427   5.556 -0.4492 -0.1549  3.4396
 9218SOL    HW239117   4.468   1.285   5.523  2.9894  2.8997  0.9267
 9219SOL     OW39118   4.482   2.463   5.319 -0.3659 -0.1082  0.8495
 9219SOL    HW139119   4.442   2.537   5.273  0.9161 -1.1013 -1.8426
 9219SOL    HW239120   4.476   2.385   5.264 -0.7292  1.1450 -0.9017
 9220SOL     OW39121   2.372   3.110   7.122  0.0529 -0.3085 -0.0362
 9220SOL    HW139122   2.382   3.025   7.164 -0.2801  0.9242  2.5521
 9220SOL    HW239123   2.456   3.110   7.077  0.5312 -0.1590  0.8602
 9221SOL     OW39124   0.779   3.204  16.231  0.2382  0.0876  0.6174
 9221SOL    HW139125   0.777   3.130  16.292 -1.1604 -1.0005 -0.7538
 9221SOL    HW239126   0.856   3.165  16.189 -0.5730 -0.4730 -0.3440
 9222SOL     OW39127   2.385   2.017  17.682 -0.1651 -0.5023  0.2799
 9222SOL    HW139128   2.466   2.024  17.631 -0.8681  2.2974 -0.4424
 9222SOL    HW239129   2.319   1.972  17.630  2.2616 -2.8519 -0.7408
 9223SOL     OW39130   4.308   3.610   2.239 -0.1059  0.1026  0.4580
 9223SOL    HW139131   4.304   3.646   2.328 -1.2655  1.2425 -0.0542
 9223SOL    HW239132   4.400   3.623   2.218 -0.6766 -1.6533 -3.1605
 9224SOL     OW39133   1.905   4.449  15.056 -0.7234  0.3790 -0.1896
 9224SOL    HW139134   1.827   4.501  15.040 -0.6157  1.0861  1.5373
 9224SOL    HW239135   1.971   4.512  15.027  0.3853 -0.4761  0.4496
 9225SOL     OW39136   2.313   0.072   8.305 -0.0150  0.3468 -0.7933
 9225SOL    HW139137   2.289   0.121   8.384  1.2131 -2.6653  1.4900
 9225SOL    HW239138   2.370   4.723   8.332  1.1656  1.6423  0.1601
 9226SOL     OW39139   0.178   3.463  13.422 -0.0967 -0.0044 -0.0222
 9226SOL    HW139140   0.123   3.491  13.348 -1.2621 -0.2168  0.7658
 9226SOL    HW239141   0.255   3.516  13.402 -1.1087  1.0953 -1.1062
 9227SOL     OW39142   2.290   0.721   7.303 -0.3290 -0.8705 -0.4103
 9227SOL    HW139143   2.351   0.788   7.273 -1.8065  0.1345 -1.1635
 9227SOL    HW239144   2.222   0.782   7.329  0.7717  0.4056 -0.5209
 9228SOL     OW39145   2.766   3.470   5.396  0.0108  0.3080  0.0202
 9228SOL    HW139146   2.764   3.418   5.315  0.1858  1.1878 -0.5449
 9228SOL    HW239147   2.729   3.555   5.374 -0.9320  0.5726  2.6573
 9229SOL     OW39148   1.431   4.427  15.462  0.6036  0.8718  0.5619
 9229SOL    HW139149   1.488   4.475  15.523  2.3982 -1.2968  0.5830
 9229SOL    HW239150   1.503   4.418  15.399  0.5164 -0.6550  0.6779
 9230SOL     OW39151   0.043   1.659   5.401  0.3296  0.7546 -0.3597
 9230SOL    HW139152   0.110   1.655   5.333 -0.3447  2.0145 -1.0942
 9230SOL    HW239153   0.050   1.749   5.434  2.0757  0.2354  0.7124
 9231SOL     OW39154   2.117   4.247   8.782 -0.3165 -0.0416  0.5261
 9231SOL    HW139155   2.121   4.299   8.862  0.1575 -0.1965  0.6034
 9231SOL    HW239156   2.166   4.173   8.818  0.2990  0.9057  1.6177
 9232SOL     OW39157   4.604   0.624   7.017  0.2072  0.1894 -0.2185
 9232SOL    HW139158   4.521   0.672   7.009 -0.4827 -0.9351  0.0297
 9232SOL    HW239159   4.591   0.569   7.094  0.6697 -0.1850 -0.4027
 9233SOL     OW39160   4.624   3.814  17.574  0.4579  0.2595 -0.1864
 9233SOL    HW139161   4.636   3.772  17.659  0.5480  0.8184  0.0802
 9233SOL    HW239162   4.530   3.832  17.579 -0.0523 -2.6815  0.3478
 9234SOL     OW39163   2.507   3.754   4.031  0.1384  0.2358 -0.0250
 9234SOL    HW139164   2.434   3.721   3.978 -0.0168  2.1836 -0.9961
 9234SOL    HW239165   2.473   3.835   4.068  1.7917  0.2943  1.3482
 9235SOL     OW39166   1.955   1.066  11.312 -0.2228  0.0061 -0.0192
 9235SOL    HW139167   1.951   1.162  11.320 -2.0057 -0.1414  0.9181
 9235SOL    HW239168   1.889   1.041  11.377 -0.7036  1.7617  0.1672
 9236SOL     OW39169   4.097   3.486   8.042  0.2646  0.3306  0.0052
 9236SOL    HW139170   4.181   3.507   8.083  1.0199 -1.7736 -0.5024
 9236SOL    HW239171   4.047   3.510   8.121 -0.7453 -1.6044 -0.0444
 9237SOL     OW39172   3.229   3.087  11.858  0.1944  0.6871 -0.3512
 9237SOL    HW139173   3.318   3.088  11.822 -0.4957 -0.8237 -2.1378
 9237SOL    HW239174   3.249   3.104  11.950  0.8177 -1.8898 -0.0176
 9238SOL     OW39175   3.468   1.074  11.742  0.4120  0.0455 -0.3053
 9238SOL    HW139176   3.537   1.016  11.710  1.5087  0.8812  0.5271
 9238SOL    HW239177   3.453   1.134  11.670 -1.7148  1.1549  1.0651
 9239SOL     OW39178   1.839   1.816  14.232  0.3837 -0.2087  0.0937
 9239SOL    HW139179   1.877   1.822  14.319 -2.7847 -1.8101  1.5892
 9239SOL    HW239180   1.846   1.907  14.205 -1.1519 -0.0701  0.1471
 9240SOL     OW39181   4.202   3.315  16.204  0.5741 -1.1348 -0.5982
 9240SOL    HW139182   4.116   3.292  16.240  0.1534  1.2096 -0.1221
 9240SOL    HW239183   4.177   3.312  16.111 -2.8078  1.2867  0.2018
 9241SOL     OW39184   1.836   3.426   0.329  0.1573  0.1804  0.3759
 9241SOL    HW139185   1.926   3.419   0.297 -0.8227 -1.1966 -2.1018
 9241SOL    HW239186   1.839   3.492   0.399 -0.7172 -2.2946  2.7252
 9242SOL     OW39187   0.058   2.310   6.872 -0.0326 -0.2095 -0.1450
 9242SOL    HW139188   0.087   2.336   6.959  1.5343 -2.7492  0.0832
 9242SOL    HW239189   0.072   2.217   6.855  2.4100 -0.0292  0.8691
 9243SOL     OW39190   2.690   1.714   5.406 -0.3285 -0.2515 -0.4344
 9243SOL    HW139191   2.614   1.767   5.381  0.6728  0.7450 -1.3168
 9243SOL    HW239192   2.672   1.721   5.500 -0.3672 -0.0865 -0.4545
 9244SOL     OW39193   1.854   2.970   4.154 -0.4446  0.5640 -0.1665
 9244SOL    HW139194   1.861   3.065   4.149  2.5603  0.4235  0.8437
 9244SOL    HW239195   1.892   2.942   4.071 -1.3453  0.1699 -0.4382
 9245SOL     OW39196   3.641   4.230   7.226  0.4017  0.0188  0.2034
 9245SOL    HW139197   3.672   4.174   7.296  2.9620  0.1957 -0.7681
 9245SOL    HW239198   3.558   4.263   7.259  1.3852  0.7427  1.9285
 9246SOL     OW39199   0.124   3.558   6.442  0.0740  0.2409  0.6618
 9246SOL    HW139200   0.042   3.564   6.393 -0.0335 -1.6590  0.6135
 9246SOL    HW239201   0.158   3.645   6.422  1.2371 -0.1265  1.0408
 9247SOL     OW39202   1.042   0.398   2.216 -0.7439 -0.0812 -0.2715
 9247SOL    HW139203   1.105   0.370   2.150  0.2234 -1.4280  1.2010
 9247SOL    HW239204   1.097   0.453   2.273  1.2651  1.5660 -3.8194
 9248SOL     OW39205   0.523   0.304  17.081  0.4892  0.3050  0.0276
 9248SOL    HW139206   0.578   0.306  17.159 -2.2501 -1.1968  1.9920
 9248SOL    HW239207   0.498   0.396  17.069 -1.9152 -0.2444  0.7681
 9249SOL     OW39208   3.619   3.776   8.108  0.5945 -0.7239 -0.1842
 9249SOL    HW139209   3.552   3.842   8.090  0.8817 -0.0392  1.3082
 9249SOL    HW239210   3.636   3.748   8.018 -0.0717  1.2254 -0.9235
 9250SOL     OW39211   3.561   2.324   5.101 -0.0065  0.3703  1.1875
 9250SOL    HW139212   3.557   2.342   5.007  1.8209  2.5077  1.5285
 9250SOL    HW239213   3.480   2.356   5.140  0.2335  2.0649  0.2963
 9251SOL     OW39214   4.029   4.149  11.840  0.6804  0.1679 -0.5184
 9251SOL    HW139215   4.100   4.108  11.791  1.3803  2.4718 -1.4367
 9251SOL    HW239216   4.078   4.175  11.919 -0.3569 -0.2285  0.2597
 9252SOL     OW39217   3.583   4.193   3.393 -0.1634  0.2525 -0.1810
 9252SOL    HW139218   3.497   4.152   3.399 -0.8475  1.6693 -0.3626
 9252SOL    HW239219   3.570   4.272   3.446 -1.3416  2.1299 -3.2333
 9253SOL     OW39220   4.178   0.629  11.594 -0.3506 -0.4561 -0.2467
 9253SOL    HW139221   4.232   0.586  11.660 -1.7677 -1.0448  0.5219
 9253SOL    HW239222   4.245   0.635  11.526  0.7680 -0.8073  0.8302
 9254SOL     OW39223   4.031   2.659   3.727 -0.3467 -0.0098 -0.3150
 9254SOL    HW139224   3.972   2.607   3.674 -2.3751  1.3089  0.6593
 9254SOL    HW239225   4.095   2.686   3.661 -1.3633  1.3716 -0.7218
 9255SOL     OW39226   1.899   4.435   0.837 -0.0512 -0.0758  0.1005
 9255SOL    HW139227   1.978   4.489   0.831  0.4822 -1.2964 -3.7891
 9255SOL    HW239228   1.865   4.449   0.749  1.2965  0.6912 -0.3014
 9256SOL     OW39229   1.936   1.830   9.868  0.2338  0.2305 -0.3825
 9256SOL    HW139230   1.842   1.813   9.871 -0.0035  1.4328 -1.0221
 9256SOL    HW239231   1.922   1.906   9.812 -0.2613  1.7742  1.8516
 9257SOL     OW39232   3.774   4.291   8.959  0.7923  0.5368  0.7116
 9257SOL    HW139233   3.855   4.293   9.010  0.2030  1.9643  1.6028
 9257SOL    HW239234   3.800   4.343   8.883  0.5723 -1.6341 -0.8397
 9258SOL     OW39235   2.757   4.127   7.790 -0.0434  0.2840  0.7959
 9258SOL    HW139236   2.788   4.055   7.736 -0.5731  0.4125  0.3287
 9258SOL    HW239237   2.836   4.176   7.815  0.3058 -0.0052  0.2488
 9259SOL     OW39238   2.874   0.213   2.946  0.0472 -0.5249 -0.2064
 9259SOL    HW139239   2.919   0.286   2.904 -0.7132 -0.7435 -1.3812
 9259SOL    HW239240   2.944   0.156   2.978  1.1821  0.3893 -1.0414
 9260SOL     OW39241   2.188   4.514   3.569  0.6168 -0.0604  0.1190
 9260SOL    HW139242   2.161   4.425   3.544 -1.5525  0.3066  1.1562
 9260SOL    HW239243   2.266   4.526   3.515  2.8289 -2.5869  2.7360
 9261SOL     OW39244   1.376   1.221   8.087  0.0577  0.3465 -0.2156
 9261SOL    HW139245   1.306   1.285   8.072  0.3545  1.2244  2.0992
 9261SOL    HW239246   1.355   1.191   8.175 -1.5748 -1.9645 -1.4076
 9262SOL     OW39247   4.045   2.403   6.601 -0.2492  0.5354 -0.2265
 9262SOL    HW139248   4.097   2.473   6.560  0.0071  0.0591 -0.7218
 9262SOL    HW239249   3.960   2.446   6.606  0.3352  1.5645  0.7681
 9263SOL     OW39250   2.287   0.826   3.417  0.1972  0.3444 -0.8580
 9263SOL    HW139251   2.263   0.835   3.509 -0.1672  3.1110 -1.2225
 9263SOL    HW239252   2.368   0.775   3.419  0.0587  0.1895  0.9148
 9264SOL     OW39253   3.495   3.840   7.518 -0.2884  0.4380  0.2441
 9264SOL    HW139254   3.556   3.907   7.488  0.1857 -1.1976 -2.4468
 9264SOL    HW239255   3.507   3.776   7.448  4.7968  3.0654 -1.3209
 9265SOL     OW39256   2.489   1.443  11.475 -0.0724  0.2624 -0.2450
 9265SOL    HW139257   2.548   1.392  11.530 -0.7630 -0.2999 -0.0250
 9265SOL    HW239258   2.550   1.495  11.423 -0.5777 -0.2477 -1.3592
 9266SOL     OW39259   4.655   1.994   5.878  0.1539  0.0857 -0.1422
 9266SOL    HW139260   4.705   2.074   5.864 -1.3206  0.8226 -1.1821
 9266SOL    HW239261   4.688   1.971   5.965 -2.0661  0.8499  0.9049
 9267SOL     OW39262   3.638   2.763   7.602 -0.4644  0.1086  0.7885
 9267SOL    HW139263   3.680   2.728   7.524  2.2126  1.7018  1.5177
 9267SOL    HW239264   3.564   2.810   7.565  0.5942  1.2684  0.1297
 9268SOL     OW39265   3.111   2.301   5.917  0.1333 -0.3099 -0.2160
 9268SOL    HW139266   3.087   2.208   5.912  0.6981 -0.3868 -1.4788
 9268SOL    HW239267   3.051   2.336   5.982 -0.9523 -0.5669 -1.0720
 9269SOL     OW39268   1.618   1.246   3.713 -0.1902  0.2389  0.6978
 9269SOL    HW139269   1.560   1.322   3.717  0.3994  0.7139  0.4231
 9269SOL    HW239270   1.560   1.180   3.676  1.6272 -0.1698 -1.4634
 9270SOL     OW39271   2.106   4.517   5.215 -0.0285 -0.2127  0.1658
 9270SOL    HW139272   2.183   4.487   5.166  0.0743  0.8865 -0.3499
 9270SOL    HW239273   2.135   4.608   5.223  0.6658 -0.2975 -1.2408
 9271SOL     OW39274   0.008   4.679   7.845  0.0354  0.7894 -0.1533
 9271SOL    HW139275   0.095   4.695   7.809 -0.6237 -0.8929 -2.5123
 9271SOL    HW239276   0.006   0.007   7.926  2.8171 -0.9608  1.0278
 9272SOL     OW39277   2.195   1.677   2.324  0.0060 -0.2548 -0.1189
 9272SOL    HW139278   2.189   1.651   2.232  1.5305 -0.4057 -0.1851
 9272SOL    HW239279   2.104   1.663   2.350  0.0606  0.4647  0.4728
 9273SOL     OW39280   0.030   3.772   0.418 -0.1369 -0.4509 -0.0794
 9273SOL    HW139281   0.072   3.845   0.463  0.6322 -0.7056 -0.3780
 9273SOL    HW239282   4.685   3.808   0.362 -0.4441 -2.5789 -1.0911
 9274SOL     OW39283   2.259   4.625   9.483 -0.6618  0.4014  0.0427
 9274SOL    HW139284   2.226   4.697   9.430 -2.1884 -1.2983 -1.3247
 9274SOL    HW239285   2.214   4.637   9.567 -1.1340 -0.7100 -0.0523
 9275SOL     OW39286   1.344   0.452  15.221  0.2320 -0.3221  0.0333
 9275SOL    HW139287   1.431   0.491  15.221  0.7781 -1.5529 -2.2133
 9275SOL    HW239288   1.321   0.423  15.133 -0.3279  0.5392 -0.1048
 9276SOL     OW39289   1.589   2.979   7.000  0.3460  0.1288  0.0893
 9276SOL    HW139290   1.567   3.005   7.089  1.5408 -0.5683  0.5942
 9276SOL    HW239291   1.650   3.051   6.980  0.4034 -0.0067 -0.2232
 9277SOL     OW39292   0.043   3.810  16.230  0.7898 -0.5106  1.0239
 9277SOL    HW139293   0.005   3.723  16.244 -0.5730 -0.0346  0.3075
 9277SOL    HW239294   4.700   3.867  16.270  1.5374  1.4305 -0.5481
 9278SOL     OW39295   1.012   4.406   5.461  0.0207  0.0314  0.1347
 9278SOL    HW139296   1.063   4.396   5.381  3.3881  1.5433  2.0986
 9278SOL    HW239297   1.081   4.420   5.526  0.8481  1.8817 -1.1588
 9279SOL     OW39298   1.020   3.356   5.617 -0.2152  0.3455  0.1298
 9279SOL    HW139299   1.047   3.444   5.593  1.7636 -0.4860 -0.7015
 9279SOL    HW239300   0.962   3.334   5.544  0.3306  2.2768 -0.8835
 9280SOL     OW39301   3.849   2.977  17.430  0.4405  0.0610 -0.2727
 9280SOL    HW139302   3.906   2.945  17.360  0.7601  0.5848 -0.2537
 9280SOL    HW239303   3.806   3.052  17.389  0.3941 -0.2582 -0.7961
 9281SOL     OW39304   0.924   2.739   1.784 -0.3288 -0.1476  0.2349
 9281SOL    HW139305   0.839   2.754   1.743 -0.1481  1.2543  0.3631
 9281SOL    HW239306   0.980   2.802   1.738  0.8088 -0.3959  1.2772
 9282SOL     OW39307   0.029   0.014  12.261  0.2891 -0.1716  0.5305
 9282SOL    HW139308   0.104   4.707  12.209 -0.7822  0.4018 -1.3725
 9282SOL    HW239309   0.017   4.667  12.324 -1.4528 -0.2583  0.0945
 9283SOL     OW39310   4.439   4.206  15.006 -0.6646 -0.3961  0.1913
 9283SOL    HW139311   4.532   4.186  14.990 -0.1314  1.1273  1.4001
 9283SOL    HW239312   4.422   4.226  14.914 -1.2086  0.0530  0.3906
 9284SOL     OW39313   2.970   0.410   8.277 -0.0112 -0.1417  0.4946
 9284SOL    HW139314   2.934   0.352   8.210  0.9135 -1.2565  0.9586
 9284SOL    HW239315   2.890   0.435   8.324  0.7630 -0.0701  1.7919
 9285SOL     OW39316   0.496   1.451   8.020  0.2752  0.4867 -0.0715
 9285SOL    HW139317   0.532   1.373   8.062  1.8119  1.9052  1.2381
 9285SOL    HW239318   0.552   1.519   8.058 -0.9240  0.6461  1.4194
 9286SOL     OW39319   4.565   3.228   5.690 -0.2405 -0.9349 -0.1422
 9286SOL    HW139320   4.568   3.191   5.778 -1.9997  1.4148  0.8871
 9286SOL    HW239321   4.650   3.210   5.649 -2.1107 -3.5934 -2.8355
 9287SOL     OW39322   3.843   1.373   0.200 -0.3117 -0.5581 -0.4924
 9287SOL    HW139323   3.830   1.413   0.114  1.8611 -0.6526 -0.8550
 9287SOL    HW239324   3.786   1.297   0.208 -1.7080  0.7133  1.8046
 9288SOL     OW39325   1.247   2.107  12.600  0.1878 -0.4946  0.4777
 9288SOL    HW139326   1.232   2.176  12.535  0.6916  0.3143  1.2126
 9288SOL    HW239327   1.312   2.151  12.654  1.5366 -1.5907 -0.2714
 9289SOL     OW39328   1.345   4.200   8.443  0.6339  0.0711 -0.3778
 9289SOL    HW139329   1.409   4.130   8.453 -0.0530 -0.9257 -2.8937
 9289SOL    HW239330   1.378   4.250   8.369  1.8874 -0.6940 -0.3371
 9290SOL     OW39331   3.202   3.587   4.299 -0.2637 -0.0369  0.1487
 9290SOL    HW139332   3.242   3.501   4.315 -2.7898 -1.0137  1.2527
 9290SOL    HW239333   3.166   3.626   4.379  0.7119  0.4373  0.3461
 9291SOL     OW39334   1.582   3.037   6.197 -0.7581  0.1667  0.4747
 9291SOL    HW139335   1.562   3.064   6.107  1.2062  3.4047  1.0019
 9291SOL    HW239336   1.668   3.074   6.218  0.3874 -3.4103  2.0542
 9292SOL     OW39337   2.541   3.977   3.429  0.5342  0.0824  0.0161
 9292SOL    HW139338   2.605   4.014   3.489  1.4315 -0.0221 -0.8802
 9292SOL    HW239339   2.509   3.912   3.491 -0.6142  0.0823 -0.5616
 9293SOL     OW39340   3.579   1.474  11.009  0.5446 -0.5214  0.0885
 9293SOL    HW139341   3.605   1.554  11.053  0.7117 -0.3849 -0.2614
 9293SOL    HW239342   3.536   1.520  10.937 -0.2651 -0.7658  0.4087
 9294SOL     OW39343   3.088   1.594   1.744  0.3160  0.3877 -0.4480
 9294SOL    HW139344   3.077   1.661   1.812  2.4110  0.0723  0.1903
 9294SOL    HW239345   3.107   1.518   1.799  0.3482  1.7795  1.4507
 9295SOL     OW39346   0.561   3.607   3.843 -0.6838 -0.3412  0.6997
 9295SOL    HW139347   0.518   3.537   3.794 -2.3370  1.6575 -0.6832
 9295SOL    HW239348   0.491   3.668   3.864 -0.1492  0.0503  1.3612
 9296SOL     OW39349   1.187   0.095   4.191  0.2023 -0.4226  0.2633
 9296SOL    HW139350   1.108   0.101   4.138 -0.4366  1.1784  1.4043
 9296SOL    HW239351   1.220   0.006   4.176  1.0786 -0.3924  1.9609
 9297SOL     OW39352   4.375   2.014   7.494  0.1450  0.1339  0.0786
 9297SOL    HW139353   4.314   2.086   7.509  0.7888  0.8888 -0.9564
 9297SOL    HW239354   4.355   1.988   7.404 -0.5682 -2.5152  0.9971
 9298SOL     OW39355   1.721   0.943   7.249 -0.2407 -0.2460  0.0847
 9298SOL    HW139356   1.803   0.893   7.253  0.7516  1.2108 -1.6986
 9298SOL    HW239357   1.762   1.029   7.255  1.0472 -0.7511 -1.2074
 9299SOL     OW39358   4.306   1.318   1.940  0.1891 -0.0214  0.1173
 9299SOL    HW139359   4.367   1.388   1.919 -0.6561  0.4869 -0.6249
 9299SOL    HW239360   4.251   1.307   1.863  2.2311 -0.6185 -1.2421
 9300SOL     OW39361   0.589   0.999   7.023 -0.1043 -0.0647 -0.0522
 9300SOL    HW139362   0.659   0.937   7.003 -0.7384 -0.1563 -1.9501
 9300SOL    HW239363   0.540   1.005   6.941  1.0298 -0.0528 -0.7291
 9301SOL     OW39364   2.329   1.883   2.079 -0.2893 -0.5606 -0.4014
 9301SOL    HW139365   2.288   1.805   2.042 -3.1099  0.1306  1.2084
 9301SOL    HW239366   2.262   1.948   2.054  0.8540  1.0438  0.6768
 9302SOL     OW39367   1.383   2.148   3.653  0.2362 -0.5744  0.6387
 9302SOL    HW139368   1.313   2.187   3.600  2.1890 -0.7563 -2.1085
 9302SOL    HW239369   1.358   2.057   3.637  0.4634 -0.8135  1.6419
 9303SOL     OW39370   1.737   1.261  10.768  0.3095 -0.0031 -0.3804
 9303SOL    HW139371   1.669   1.223  10.711  1.1136  1.0124 -2.0146
 9303SOL    HW239372   1.783   1.179  10.786 -3.4105 -1.4020  2.7587
 9304SOL     OW39373   0.548   1.934   6.590 -0.6879  0.1705 -0.5373
 9304SOL    HW139374   0.599   1.929   6.671 -1.9836 -1.5250  0.1570
 9304SOL    HW239375   0.462   1.939   6.630  0.1064 -1.1013  1.3165
 9305SOL     OW39376   4.628   1.986   6.288  0.0869 -0.0036 -0.1232
 9305SOL    HW139377   4.548   1.939   6.265 -0.6768  1.6062 -0.7630
 9305SOL    HW239378   4.603   2.018   6.375 -0.3873 -1.0953  0.1336
 9306SOL     OW39379   0.254   0.687   2.794 -0.6974  0.1784 -0.0728
 9306SOL    HW139380   0.341   0.653   2.814 -1.2104 -0.4083  1.1560
 9306SOL    HW239381   0.208   0.609   2.823  1.9894 -1.3616  0.0494
 9307SOL     OW39382   4.161   0.322   9.485 -0.2278  0.8686  0.3447
 9307SOL    HW139383   4.143   0.344   9.576  0.0103 -0.3734  0.6950
 9307SOL    HW239384   4.179   0.406   9.444 -0.9089  1.3799  1.1022
 9308SOL     OW39385   0.344   4.524   7.266  0.1093 -1.0055  0.5394
 9308SOL    HW139386   0.355   4.524   7.361  0.6801  0.2757  0.4828
 9308SOL    HW239387   0.377   4.436   7.249  0.4751 -0.8781  0.5816
 9309SOL     OW39388   2.771   4.589  13.084  0.5328  0.0114 -0.5779
 9309SOL    HW139389   2.756   4.569  12.992 -0.4766 -1.8864 -0.0084
 9309SOL    HW239390   2.688   4.568  13.129  0.4400  1.6667 -0.0010
 9310SOL     OW39391   1.229   4.466   6.258  0.5667  1.1569 -0.2390
 9310SOL    HW139392   1.292   4.532   6.230  1.1358  1.1834  1.1176
 9310SOL    HW239393   1.175   4.478   6.180  0.5417  0.0317 -0.3984
 9311SOL     OW39394   4.140   2.156  17.290 -0.1785  0.1056  0.3929
 9311SOL    HW139395   4.062   2.117  17.330 -0.8839  0.8806 -0.2229
 9311SOL    HW239396   4.118   2.170  17.198  0.3730 -2.1698 -0.0641
 9312SOL     OW39397   2.707   2.686   4.146  0.2204  0.0406  0.0872
 9312SOL    HW139398   2.636   2.634   4.106  0.9461 -0.7809 -0.1428
 9312SOL    HW239399   2.685   2.763   4.094 -1.3670 -0.4598 -0.0024
 9313SOL     OW39400   0.964   1.218   0.449  0.2265 -0.1752  0.0169
 9313SOL    HW139401   0.943   1.165   0.372  2.8282  0.7989 -1.3757
 9313SOL    HW239402   0.958   1.304   0.408 -1.8109  0.3398  1.4076
 9314SOL     OW39403   2.170   0.143   3.504  0.1702  0.4820  0.6056
 9314SOL    HW139404   2.189   0.141   3.410 -0.0670 -1.9339  0.5989
 9314SOL    HW239405   2.124   0.059   3.509  0.8969  0.1806  2.2038
 9315SOL     OW39406   2.312   2.000  14.227  0.0711  0.6386 -0.4314
 9315SOL    HW139407   2.325   2.009  14.133  2.0460  1.6937 -0.0542
 9315SOL    HW239408   2.397   1.965  14.256 -1.6933 -1.3315  2.3606
 9316SOL     OW39409   3.874   2.627   4.869  0.5842 -0.2258  0.4012
 9316SOL    HW139410   3.955   2.592   4.834  0.6108 -0.2830  0.5183
 9316SOL    HW239411   3.909   2.686   4.936 -0.7038 -0.2305  1.0841
 9317SOL     OW39412   0.396   2.916   7.557 -0.1043 -0.0547  0.0500
 9317SOL    HW139413   0.425   2.941   7.469  0.0034 -0.5330 -0.0502
 9317SOL    HW239414   0.301   2.927   7.555  0.1393  2.0235 -0.5803
 9318SOL     OW39415   0.120   3.516   2.830  0.7768 -0.1955  0.4416
 9318SOL    HW139416   0.121   3.549   2.920 -2.3226  1.5133 -0.1390
 9318SOL    HW239417   0.176   3.579   2.784 -0.2134  1.1508  1.0736
 9319SOL     OW39418   4.293   3.348   6.461  0.0768 -0.2231 -0.2082
 9319SOL    HW139419   4.256   3.262   6.439  2.5300 -1.4655  0.4818
 9319SOL    HW239420   4.276   3.398   6.381 -1.0167  0.7909  0.6626
 9320SOL     OW39421   1.790   1.897   0.785 -0.7068  0.3444  0.0724
 9320SOL    HW139422   1.884   1.891   0.764 -1.2939 -1.6031 -1.9982
 9320SOL    HW239423   1.771   1.817   0.834  2.5643 -0.4038  0.1518
 9321SOL     OW39424   1.711   0.837   2.542 -0.0487 -0.1420 -0.2556
 9321SOL    HW139425   1.642   0.880   2.593 -1.6070 -0.9682 -1.6769
 9321SOL    HW239426   1.685   0.854   2.452  0.1301 -0.2055 -0.3187
 9322SOL     OW39427   1.734   3.629   3.014 -0.0696 -0.2480  0.1983
 9322SOL    HW139428   1.784   3.668   2.943 -1.3639 -0.7815 -1.0125
 9322SOL    HW239429   1.649   3.649   2.975  0.4379 -2.5541 -2.0591
 9323SOL     OW39430   3.325   1.651   2.770  0.4953 -0.0510 -0.3191
 9323SOL    HW139431   3.347   1.742   2.752 -0.2564  0.2086  0.1053
 9323SOL    HW239432   3.270   1.647   2.848 -1.7681 -0.1170 -1.9440
 9324SOL     OW39433   2.982   1.601  13.109  0.3017 -0.2314  0.0419
 9324SOL    HW139434   3.027   1.597  13.193  0.2590 -0.0007  0.0758
 9324SOL    HW239435   2.941   1.688  13.113 -0.0788 -0.3507 -1.2437
 9325SOL     OW39436   2.573   2.442  11.032 -0.1760 -0.7344  0.0850
 9325SOL    HW139437   2.642   2.416  11.092 -0.9138 -2.8682 -0.0011
 9325SOL    HW239438   2.530   2.356  11.026  0.0829 -0.7195 -2.2881
 9326SOL     OW39439   0.053   0.341   7.922 -0.2709  0.2965 -0.2353
 9326SOL    HW139440   0.024   0.364   7.834  1.2340  1.1935 -0.4959
 9326SOL    HW239441   0.147   0.327   7.913 -0.2737 -0.1744  0.3764
 9327SOL     OW39442   0.091   3.137   5.531  0.5245  0.3831  0.2683
 9327SOL    HW139443   0.128   3.067   5.584 -1.1016 -1.4151 -0.9581
 9327SOL    HW239444   0.175   3.182   5.518  0.9803 -0.4482  0.3718
 9328SOL     OW39445   2.274   0.471   4.421 -0.4533  0.8921 -0.0756
 9328SOL    HW139446   2.278   0.433   4.509 -0.8348 -1.1607 -0.9308
 9328SOL    HW239447   2.362   0.466   4.382 -0.3536  1.8616  0.0289
 9329SOL     OW39448   1.316   1.445   6.277  0.2320 -0.0566  0.1455
 9329SOL    HW139449   1.410   1.445   6.294  0.1986  2.6008  0.3506
 9329SOL    HW239450   1.270   1.491   6.347 -0.8404  0.2232 -0.7505
 9330SOL     OW39451   4.620   3.651   5.450  0.1432 -0.1149  0.2756
 9330SOL    HW139452   4.674   3.705   5.391  0.4234 -0.8140 -0.1047
 9330SOL    HW239453   4.686   3.613   5.508 -0.4389  0.1296  1.1035
 9331SOL     OW39454   4.021   3.234  12.869 -0.3110 -0.5034  0.2008
 9331SOL    HW139455   3.980   3.306  12.821  0.4122  0.5125  1.1198
 9331SOL    HW239456   4.028   3.167  12.802  1.1591 -0.0496 -0.0858
 9332SOL     OW39457   3.811   3.026   5.705  0.1774 -0.6013 -0.0346
 9332SOL    HW139458   3.875   2.971   5.751  3.4828  1.0708 -2.6261
 9332SOL    HW239459   3.740   2.965   5.687  1.3059 -1.9902  0.1614
 9333SOL     OW39460   2.989   1.248   9.186  0.4564 -0.1761 -0.3914
 9333SOL    HW139461   3.014   1.158   9.165 -1.8984 -0.7054 -0.9624
 9333SOL    HW239462   3.048   1.288   9.123  0.5769 -0.0485 -0.1964
 9334SOL     OW39463   1.249   0.563  17.693  0.2820 -0.4522  0.2759
 9334SOL    HW139464   1.249   0.611   0.082  0.6788  4.9692 -2.8491
 9334SOL    HW239465   1.342   0.577  17.676  0.0570  2.5202  1.6278
 9335SOL     OW39466   3.679   2.017   3.199 -0.0384 -0.0295  0.0840
 9335SOL    HW139467   3.702   2.058   3.115  1.6170  0.3113  0.6989
 9335SOL    HW239468   3.750   1.955   3.186 -0.7921 -0.6042 -1.2326
 9336SOL     OW39469   0.913   1.871  10.771  0.2767 -0.2736  0.0960
 9336SOL    HW139470   0.965   1.950  10.753  1.8323 -1.4772 -0.7558
 9336SOL    HW239471   0.963   1.833  10.843  0.3905  2.6703  1.5443
 9337SOL     OW39472   4.293   3.394  14.047 -0.9239  0.1597  0.2844
 9337SOL    HW139473   4.333   3.397  13.961 -1.8186 -0.4961 -0.1565
 9337SOL    HW239474   4.265   3.304  14.061 -0.8604  0.5814  3.3319
 9338SOL     OW39475   2.540   3.386   3.926  0.1880  1.1244 -0.5011
 9338SOL    HW139476   2.616   3.444   3.920  1.9275 -0.9842  1.1030
 9338SOL    HW239477   2.535   3.383   4.022  1.5557  0.8827 -0.4345
 9339SOL     OW39478   0.744   1.124   2.939  0.6863 -0.0594  0.5335
 9339SOL    HW139479   0.742   1.162   3.027  1.9008  2.2714 -0.4125
 9339SOL    HW239480   0.677   1.057   2.950 -0.1806  0.8986  1.0534
 9340SOL     OW39481   4.524   0.578   4.651  0.2346  0.4565 -0.2841
 9340SOL    HW139482   4.495   0.489   4.671 -2.4621  1.9216  2.2961
 9340SOL    HW239483   4.440   0.622   4.644  0.9135  1.8962  0.6764
 9341SOL     OW39484   0.690   3.811  17.151 -0.0288  0.5164  0.0390
 9341SOL    HW139485   0.629   3.737  17.140  0.4225 -0.0034  1.0169
 9341SOL    HW239486   0.680   3.843  17.062  0.3100  1.2778  0.2773
 9342SOL     OW39487   4.630   0.157   7.200 -0.2218  0.0638 -0.7332
 9342SOL    HW139488   4.644   0.212   7.277 -2.2581  2.2100 -1.8718
 9342SOL    HW239489   4.703   0.096   7.209 -2.0455 -1.9716  0.1176
 9343SOL     OW39490   4.602   0.853   3.341  0.0502  0.3950 -0.2131
 9343SOL    HW139491   4.652   0.910   3.400  0.4928 -1.2550  0.9915
 9343SOL    HW239492   4.645   0.772   3.366  1.5030  1.6674  1.3938
 9344SOL     OW39493   1.444   4.205  13.813  0.2974 -0.0049  0.4685
 9344SOL    HW139494   1.504   4.159  13.871 -0.2136 -1.5917 -0.2683
 9344SOL    HW239495   1.428   4.282  13.867  0.3113 -1.5024  2.5879
 9345SOL     OW39496   2.036   4.677   1.508 -0.0013 -0.5903 -0.5015
 9345SOL    HW139497   2.071   4.719   1.586 -0.5953 -2.1405  0.6117
 9345SOL    HW239498   1.942   4.668   1.526  0.4781 -1.1675  1.7468
 9346SOL     OW39499   2.469   2.897   2.457 -0.5959 -0.1815  0.0151
 9346SOL    HW139500   2.471   2.857   2.370  0.3239 -0.8438  0.3404
 9346SOL    HW239501   2.560   2.927   2.464 -0.6578 -0.0885  0.4319
 9347SOL     OW39502   1.109   3.711   7.402 -0.0910  0.2174 -0.7994
 9347SOL    HW139503   1.132   3.629   7.358  0.6884  0.1005 -0.1849
 9347SOL    HW239504   1.166   3.777   7.364  1.3189 -1.9916 -2.5438
 9348SOL     OW39505   0.091   0.991  14.735  0.3274  0.1506  0.2747
 9348SOL    HW139506   0.176   1.017  14.700 -1.1524 -1.0085 -4.2061
 9348SOL    HW239507   0.105   0.977  14.829  1.6694  1.9256  0.3359
 9349SOL     OW39508   3.702   0.419   6.985 -0.0182  0.1667 -0.0625
 9349SOL    HW139509   3.651   0.436   6.906  0.9783  1.9189 -0.3255
 9349SOL    HW239510   3.640   0.429   7.058  1.5341 -0.7473  1.3618
 9350SOL     OW39511   0.288   2.079   3.625  0.4011  1.1630 -0.1765
 9350SOL    HW139512   0.359   2.054   3.684  0.1972 -0.1500 -0.4769
 9350SOL    HW239513   0.318   2.160   3.585 -0.5484  1.9402  0.6883
 9351SOL     OW39514   2.911   3.041   6.868  0.3690  0.1333  0.1387
 9351SOL    HW139515   2.821   3.061   6.840  0.4203 -2.9970 -2.3473
 9351SOL    HW239516   2.937   3.133   6.873 -0.1997  0.4213 -1.9005
 9352SOL     OW39517   2.493   1.620   8.522  0.0479  0.1076 -0.2613
 9352SOL    HW139518   2.459   1.709   8.528  1.1751  0.4691  0.8237
 9352SOL    HW239519   2.439   1.585   8.452  2.1130  0.8604 -2.2336
 9353SOL     OW39520   2.081   2.309   1.626  0.3885  0.1251 -0.4949
 9353SOL    HW139521   2.158   2.314   1.682 -0.6348  1.9457  0.7385
 9353SOL    HW239522   2.025   2.369   1.675  3.0523  1.2544  1.1490
 9354SOL     OW39523   2.217   0.706   6.355 -0.0739 -0.5164 -0.5282
 9354SOL    HW139524   2.159   0.762   6.405 -0.2167 -0.8193 -0.3552
 9354SOL    HW239525   2.243   0.645   6.424  0.8588 -1.6150 -1.8460
 9355SOL     OW39526   3.962   1.808  10.386 -0.0191 -0.4108 -0.4843
 9355SOL    HW139527   4.038   1.782  10.439  0.5061  1.2621 -0.3999
 9355SOL    HW239528   3.981   1.899  10.361 -1.8313  0.4665  1.3332
 9356SOL     OW39529   1.693   3.248   4.998  0.0589 -1.1852 -0.6494
 9356SOL    HW139530   1.706   3.233   5.092  0.9434  0.9514 -0.4283
 9356SOL    HW239531   1.602   3.281   5.000  0.1959 -0.7388 -1.9099
 9357SOL     OW39532   3.668   3.963   3.870  0.4304 -0.3829  0.3382
 9357SOL    HW139533   3.638   4.023   3.802 -0.9540  1.9365  2.9981
 9357SOL    HW239534   3.659   4.014   3.950 -0.8111 -1.7341  1.0639
 9358SOL     OW39535   2.638   0.057   5.095 -1.1161  0.1199 -0.5790
 9358SOL    HW139536   2.648   4.702   5.041 -0.8569 -0.3649  0.1724
 9358SOL    HW239537   2.703   0.034   5.160 -1.1379  0.8428 -0.3033
 9359SOL     OW39538   3.086   2.197   2.575 -0.7080  0.1823  0.1537
 9359SOL    HW139539   3.071   2.218   2.667 -3.3631  0.8951 -0.4238
 9359SOL    HW239540   3.008   2.150   2.543  1.3200 -2.4744 -0.8732
 9360SOL     OW39541   0.849   3.650   7.382  0.4550 -0.0176  0.1977
 9360SOL    HW139542   0.848   3.645   7.477  0.7951  0.3656  0.2183
 9360SOL    HW239543   0.938   3.677   7.360  0.8245 -1.8037 -0.5280
 9361SOL     OW39544   0.310   1.310   4.284 -0.0538 -0.0777  0.3941
 9361SOL    HW139545   0.240   1.255   4.320 -0.7788  0.6945  0.1563
 9361SOL    HW239546   0.251   1.365   4.234  1.7933 -0.8497 -2.6122
 9362SOL     OW39547   1.373   0.131   6.954  0.2873 -0.5323 -0.0566
 9362SOL    HW139548   1.396   0.084   6.874  1.5064 -1.0293  0.5931
 9362SOL    HW239549   1.385   0.070   7.027  1.5024 -2.4573 -1.8629
 9363SOL     OW39550   0.858   2.593   6.061 -0.2699  0.3626 -0.2656
 9363SOL    HW139551   0.809   2.651   6.003 -0.2156  0.1673 -0.5052
 9363SOL    HW239552   0.848   2.514   6.009  1.7355 -0.2164  0.1974
 9364SOL     OW39553   4.289   2.156   5.314 -0.2830  0.7854 -0.0830
 9364SOL    HW139554   4.233   2.225   5.276 -1.0918 -0.3331 -0.9373
 9364SOL    HW239555   4.251   2.138   5.400  0.4438 -0.9133 -0.1378
 9365SOL     OW39556   4.428   0.868   7.488  0.2804 -0.0208  0.4215
 9365SOL    HW139557   4.519   0.849   7.464  0.0494 -1.9669  1.0386
 9365SOL    HW239558   4.436   0.925   7.564  0.7668  1.2436 -0.5783
 9366SOL     OW39559   0.075   2.314   7.178  0.2155 -0.1928  0.0549
 9366SOL    HW139560   0.117   2.340   7.260 -1.4220  0.5747  0.6570
 9366SOL    HW239561   0.155   2.290   7.131  0.9069 -0.5843  1.4100
 9367SOL     OW39562   2.819   0.181   8.911  0.5281 -0.0979  0.1492
 9367SOL    HW139563   2.904   0.221   8.892  0.6394  0.7545  2.5395
 9367SOL    HW239564   2.790   0.205   8.999  2.2893 -1.2541  1.0449
 9368SOL     OW39565   3.453   3.217   7.258 -0.1344 -0.0600  0.3587
 9368SOL    HW139566   3.486   3.244   7.172  1.5672 -0.8040  0.7875
 9368SOL    HW239567   3.365   3.197   7.227 -0.1559  3.5229 -1.9136
 9369SOL     OW39568   1.260   4.214   6.127 -0.0137 -0.1608 -0.1308
 9369SOL    HW139569   1.217   4.293   6.161 -2.9416 -2.4281  1.4227
 9369SOL    HW239570   1.352   4.235   6.147 -0.3433  2.1889 -1.0800
 9370SOL     OW39571   1.655   1.473   2.153  0.1974  0.1512 -0.3857
 9370SOL    HW139572   1.731   1.516   2.113 -0.0227 -0.0642 -1.0206
 9370SOL    HW239573   1.598   1.549   2.162  0.6515  0.4471  0.0349
 9371SOL     OW39574   1.758   4.081   1.529  0.3615 -0.3456 -0.2389
 9371SOL    HW139575   1.782   4.173   1.533 -1.1949  0.0637 -0.3473
 9371SOL    HW239576   1.663   4.080   1.515  0.4627 -3.6011 -0.7176
 9372SOL     OW39577   0.223   3.480   5.339 -0.5012  0.3557  0.2253
 9372SOL    HW139578   0.216   3.551   5.274  0.5982  1.4033  1.2417
 9372SOL    HW239579   0.307   3.441   5.317 -1.2061 -1.5323  0.9544
 9373SOL     OW39580   2.707   4.696   2.252  0.0574  0.5212 -0.5343
 9373SOL    HW139581   2.656   4.626   2.211 -1.9416  1.3790  0.5233
 9373SOL    HW239582   2.640   0.025   2.295 -0.2000 -0.8437  0.7452
 9374SOL     OW39583   1.630   0.186  15.847  0.3236 -0.2048 -0.1401
 9374SOL    HW139584   1.585   0.268  15.826 -0.0140  0.2298  2.1930
 9374SOL    HW239585   1.600   0.170  15.937  2.9614  1.4028  1.0526
 9375SOL     OW39586   0.698   0.187   8.325 -0.4717  0.6216 -0.5924
 9375SOL    HW139587   0.709   0.266   8.378  0.3699 -0.1259  0.3598
 9375SOL    HW239588   0.603   0.177   8.337  0.2021 -2.4053  2.0911
 9376SOL     OW39589   2.558   4.411   4.317 -0.5156  0.1653 -0.0707
 9376SOL    HW139590   2.565   4.473   4.390  0.6379  0.7757 -0.7101
 9376SOL    HW239591   2.600   4.451   4.241 -0.4426 -0.5063 -0.3855
 9377SOL     OW39592   2.060   1.733   8.701  0.4674 -0.2069 -0.2390
 9377SOL    HW139593   2.097   1.769   8.782  1.1267  1.5292 -1.3031
 9377SOL    HW239594   1.967   1.730   8.723  0.2288 -0.1217 -1.2414
 9378SOL     OW39595   3.984   2.949   5.910 -0.0468  0.0617  0.7028
 9378SOL    HW139596   4.048   2.886   5.878  0.7249  1.3348 -0.2654
 9378SOL    HW239597   4.034   3.027   5.934  2.6976 -1.9020  1.3835
 9379SOL     OW39598   3.176   1.834   2.299 -0.4080 -0.5146  0.4160
 9379SOL    HW139599   3.115   1.895   2.258 -0.5233  0.8460  2.6085
 9379SOL    HW239600   3.251   1.830   2.240  0.3365  1.3307  1.2635
 9380SOL     OW39601   1.596   4.181   6.654 -0.4639 -0.3221 -0.0461
 9380SOL    HW139602   1.579   4.108   6.595 -0.6143 -0.7212  0.4922
 9380SOL    HW239603   1.677   4.158   6.701 -2.5075 -0.3287  3.4718
 9381SOL     OW39604   3.953   3.739   7.518 -0.2953 -0.1890  0.9080
 9381SOL    HW139605   4.046   3.717   7.506 -0.1501  1.0053 -0.2933
 9381SOL    HW239606   3.958   3.835   7.515  0.2290 -0.1712  2.3352
 9382SOL     OW39607   2.951   1.271  15.160 -0.7951 -0.3531  0.1638
 9382SOL    HW139608   2.891   1.241  15.228 -0.7851  0.4783  0.5415
 9382SOL    HW239609   2.907   1.248  15.078 -0.1345  1.8734 -0.8362
 9383SOL     OW39610   3.255   3.330   5.829  0.1815  1.0243  0.5576
 9383SOL    HW139611   3.334   3.308   5.880 -0.3007 -0.0916  0.8221
 9383SOL    HW239612   3.200   3.268   5.876 -0.1093  1.0847  0.2919
 9384SOL     OW39613   1.706   3.816   6.146 -0.1029 -0.2593 -0.5453
 9384SOL    HW139614   1.634   3.795   6.086 -0.4027 -1.5188  0.2527
 9384SOL    HW239615   1.786   3.781   6.106 -0.9163 -2.1520 -0.5582
 9385SOL     OW39616   0.992   1.529   5.363 -0.3903 -0.3670 -0.6026
 9385SOL    HW139617   1.021   1.587   5.433  2.0873 -1.3341 -0.8347
 9385SOL    HW239618   0.901   1.560   5.362 -0.2731  0.1596  3.7090
 9386SOL     OW39619   3.527   4.546   8.203  0.0517  0.5129 -0.4721
 9386SOL    HW139620   3.514   4.594   8.284 -0.9075 -0.2869 -0.1436
 9386SOL    HW239621   3.605   4.591   8.171 -0.4015  0.3069 -1.8685
 9387SOL     OW39622   0.661   1.314   6.501 -0.6013 -0.0930 -0.0853
 9387SOL    HW139623   0.637   1.320   6.409 -0.3901  0.5404 -0.1023
 9387SOL    HW239624   0.657   1.220   6.518 -0.9089 -0.3811 -1.7924
 9388SOL     OW39625   4.472   0.579   7.542  0.1080  0.1116 -0.0777
 9388SOL    HW139626   4.541   0.645   7.540  0.9659 -0.6835  2.7068
 9388SOL    HW239627   4.402   0.625   7.588 -0.4232 -1.9403  1.1701
 9389SOL     OW39628   2.369   4.288  17.387  0.0096 -0.1803  0.9994
 9389SOL    HW139629   2.403   4.308  17.474  2.2365  1.6105 -0.2759
 9389SOL    HW239630   2.274   4.287  17.401 -0.1317  0.2701  0.0900
 9390SOL     OW39631   3.853   0.527   3.007  0.9163 -0.2847  0.6118
 9390SOL    HW139632   3.816   0.512   2.921  0.0680  0.9428  0.7698
 9390SOL    HW239633   3.802   0.464   3.058  0.4458  0.7615  1.4360
 9391SOL     OW39634   0.989   1.036   6.878  0.2751 -0.7072 -0.3482
 9391SOL    HW139635   0.905   0.990   6.880  0.7072 -1.3963  2.3287
 9391SOL    HW239636   0.961   1.127   6.888  0.3414 -0.3595 -3.5292
 9392SOL     OW39637   2.974   2.626   5.902  0.2747  0.2750 -0.5952
 9392SOL    HW139638   2.940   2.551   5.853  0.0017 -0.0328  0.0676
 9392SOL    HW239639   2.899   2.654   5.953  0.7788  0.8289 -0.1514
 9393SOL     OW39640   3.799   0.096   9.945  0.4009 -1.0291 -0.0515
 9393SOL    HW139641   3.839   0.180   9.967 -0.8961 -0.8446  1.7066
 9393SOL    HW239642   3.877   0.063   9.902 -0.6284 -1.3536 -1.6772
 9394SOL     OW39643   3.478   0.967   7.657 -0.0702 -0.1792 -0.2403
 9394SOL    HW139644   3.424   0.896   7.621  0.8547  0.2670 -2.5110
 9394SOL    HW239645   3.547   0.914   7.698 -2.1716 -1.6808  1.3554
 9395SOL     OW39646   4.524   1.106   9.749  0.1406 -0.4386 -0.0849
 9395SOL    HW139647   4.480   1.042   9.805 -0.1352 -0.9059 -0.8361
 9395SOL    HW239648   4.447   1.154   9.720  0.0371 -0.4168  0.2274
 9396SOL     OW39649   2.973   3.830   0.373 -1.1212  0.1544  0.3809
 9396SOL    HW139650   2.979   3.741   0.337 -0.4657  0.4991 -0.3647
 9396SOL    HW239651   2.985   3.883   0.294  0.5073 -0.9444 -0.1273
 9397SOL     OW39652   0.174   3.042  16.450  0.4133  0.6443 -0.4471
 9397SOL    HW139653   0.202   3.133  16.442  0.7185  0.6487  0.6162
 9397SOL    HW239654   0.155   3.020  16.359  0.2472 -2.6993  0.4022
 9398SOL     OW39655   1.897   1.840   7.914  0.5496  0.2482 -0.4374
 9398SOL    HW139656   1.967   1.844   7.849  0.2034 -0.6971 -0.8665
 9398SOL    HW239657   1.943   1.859   7.996  0.6656  0.8772 -0.6530
 9399SOL     OW39658   3.676   4.203   5.239 -0.0480 -0.8772  0.2729
 9399SOL    HW139659   3.756   4.254   5.226  0.2838 -1.4892 -0.0522
 9399SOL    HW239660   3.607   4.268   5.255 -2.5965 -3.0985 -1.8053
 9400SOL     OW39661   2.628   2.922   4.048 -0.2552  0.1625 -0.2917
 9400SOL    HW139662   2.660   3.007   4.017  0.1955  0.6420  1.4890
 9400SOL    HW239663   2.541   2.920   4.009 -0.3085 -0.8059 -0.1254
 9401SOL     OW39664   3.121   3.461   1.897 -0.2158 -0.1524  0.1182
 9401SOL    HW139665   3.055   3.496   1.837 -0.8624 -0.0221  0.9156
 9401SOL    HW239666   3.199   3.452   1.842 -0.2673 -1.1345  0.2053
 9402SOL     OW39667   1.190   2.370  16.145  0.4434 -0.2999  0.2656
 9402SOL    HW139668   1.253   2.324  16.201  1.3875  0.0723 -0.4946
 9402SOL    HW239669   1.154   2.291  16.103  2.4164 -0.4769 -1.0553
 9403SOL     OW39670   2.270   2.126   4.235  0.0074 -0.2871  0.0751
 9403SOL    HW139671   2.289   2.032   4.227 -2.3753 -0.6235 -1.4905
 9403SOL    HW239672   2.344   2.162   4.284 -0.3159  2.1616 -1.2983
 9404SOL     OW39673   3.407   3.870   6.296  0.1014  0.0816  0.0490
 9404SOL    HW139674   3.322   3.827   6.294  1.4623 -2.6833  1.2229
 9404SOL    HW239675   3.430   3.879   6.204  0.6117  1.4424  0.3121
 9405SOL     OW39676   4.263   1.655   8.816  0.1684  0.1183  0.3071
 9405SOL    HW139677   4.184   1.612   8.848  0.3315 -0.7467 -0.4788
 9405SOL    HW239678   4.255   1.739   8.862  2.9067 -1.1583  3.1074
 9406SOL     OW39679   4.315   2.469   5.025  0.1956 -0.1432 -0.6374
 9406SOL    HW139680   4.277   2.385   4.997  0.4867 -0.6363  0.4490
 9406SOL    HW239681   4.231   2.515   5.025  1.3518  1.9456 -0.1593
 9407SOL     OW39682   3.205   2.969   7.027  0.4392  0.2377 -0.0828
 9407SOL    HW139683   3.157   3.043   7.064  1.0306  0.7684 -0.3637
 9407SOL    HW239684   3.205   2.898   7.090 -0.3878 -0.2177 -0.6054
 9408SOL     OW39685   1.027   3.853   2.138  0.5427  0.3387  0.5981
 9408SOL    HW139686   1.101   3.875   2.196  1.8940  2.4616 -1.9101
 9408SOL    HW239687   1.060   3.870   2.050 -0.6237  0.4535  0.1851
 9409SOL     OW39688   1.311   0.981   5.921  0.0632 -0.4334  0.3267
 9409SOL    HW139689   1.271   1.050   5.973  0.7842  0.4351 -0.2810
 9409SOL    HW239690   1.262   0.996   5.840 -0.1416  0.4531  0.6253
 9410SOL     OW39691   1.815   0.705  14.115 -0.4800 -0.9743 -0.3948
 9410SOL    HW139692   1.754   0.771  14.149  1.1044  1.0814 -1.5587
 9410SOL    HW239693   1.896   0.717  14.164 -0.2569 -1.1345 -0.7245
 9411SOL     OW39694   3.611   2.888   4.352  0.0561 -0.3216 -0.5671
 9411SOL    HW139695   3.517   2.904   4.362  0.4210  2.4197 -1.6102
 9411SOL    HW239696   3.610   2.800   4.314  0.2490 -0.0686 -1.1587
 9412SOL     OW39697   2.284   2.133   4.755 -0.2919 -0.0557 -0.0905
 9412SOL    HW139698   2.263   2.065   4.691  1.6475  0.1883 -0.9720
 9412SOL    HW239699   2.209   2.191   4.746  1.1518  1.5144 -1.7694
 9413SOL     OW39700   1.411   2.189   1.614 -0.3464  0.0440 -0.6592
 9413SOL    HW139701   1.344   2.170   1.680  1.2511 -1.1164  0.6590
 9413SOL    HW239702   1.486   2.181   1.674 -0.0661 -1.7727 -1.2379
 9414SOL     OW39703   3.145   2.377   7.153  0.2151 -0.1973 -0.3120
 9414SOL    HW139704   3.231   2.413   7.128 -0.0962 -0.8839 -2.4116
 9414SOL    HW239705   3.138   2.417   7.239  2.1735  1.0543 -0.7315
 9415SOL     OW39706   0.038   0.022   6.001  0.1410  1.2116 -0.3505
 9415SOL    HW139707   0.128   0.052   6.013  0.4709  0.8011 -1.8780
 9415SOL    HW239708   0.025   0.020   5.906 -2.0419  0.1364 -0.0235
 9416SOL     OW39709   3.254   1.644   6.484  0.0420  0.1492  0.4387
 9416SOL    HW139710   3.247   1.590   6.563  2.3473  0.8281  1.1137
 9416SOL    HW239711   3.347   1.665   6.479  0.2926 -0.9956  0.1006
 9417SOL     OW39712   0.947   1.649   2.506 -0.2954  0.6813 -0.2050
 9417SOL    HW139713   0.917   1.721   2.562  1.8595  1.1348  0.3843
 9417SOL    HW239714   1.038   1.677   2.491  0.6372 -0.8427  2.6330
 9418SOL     OW39715   4.561   2.223   5.091 -0.4978  0.3180 -0.1015
 9418SOL    HW139716   4.641   2.272   5.068  0.3121 -1.1601 -0.4888
 9418SOL    HW239717   4.596   2.135   5.107 -1.9954  0.1236  2.0483
 9419SOL     OW39718   3.329   1.513   6.721 -0.0632 -0.5259  0.0840
 9419SOL    HW139719   3.410   1.534   6.767 -1.3536  3.2437  0.6103
 9419SOL    HW239720   3.276   1.571   6.775 -2.1525 -1.8990 -0.5032
 9420SOL     OW39721   3.661   0.897  17.442 -0.3808  0.1058  0.4904
 9420SOL    HW139722   3.670   0.805  17.464 -2.0254 -0.8294 -2.6295
 9420SOL    HW239723   3.624   0.884  17.354 -1.7661 -1.2956  1.2804
 9421SOL     OW39724   0.334   0.133   3.951 -0.0664  0.5531 -0.5850
 9421SOL    HW139725   0.293   0.103   3.870  0.8769  0.6839 -1.1146
 9421SOL    HW239726   0.411   0.180   3.919  1.2123 -1.3952 -0.3439
 9422SOL     OW39727   3.752   1.284   5.452  0.1866 -0.0356  0.5401
 9422SOL    HW139728   3.758   1.188   5.455  0.1154 -0.0726 -0.8843
 9422SOL    HW239729   3.804   1.314   5.526  0.2576 -0.2063  0.5583
 9423SOL     OW39730   1.711   3.361  17.248 -0.2879 -0.2044 -0.7098
 9423SOL    HW139731   1.628   3.395  17.280  0.8264  0.3708  1.5156
 9423SOL    HW239732   1.683   3.280  17.206  1.0007 -0.6436 -0.7478
 9424SOL     OW39733   0.831   0.730  15.381  0.3653 -0.0098  0.7076
 9424SOL    HW139734   0.842   0.816  15.341 -1.4202  0.4883  1.2875
 9424SOL    HW239735   0.921   0.698  15.376 -0.3238 -1.9530  0.7533
 9425SOL     OW39736   3.259   1.072   3.126 -0.0326  0.2061 -0.0758
 9425SOL    HW139737   3.330   1.056   3.065  2.0024 -0.1452  2.3548
 9425SOL    HW239738   3.196   1.027   3.070 -0.3043 -1.7301  1.7748
 9426SOL     OW39739   1.294   2.016   6.543  0.4959  0.3782  0.0695
 9426SOL    HW139740   1.238   2.015   6.465 -0.6330 -0.9068  0.8900
 9426SOL    HW239741   1.245   2.077   6.597 -1.0156  1.8983 -3.0295
 9427SOL     OW39742   4.416   0.144   8.493  0.3147  0.1273 -0.6207
 9427SOL    HW139743   4.506   0.136   8.522  0.6230 -0.2457 -1.6823
 9427SOL    HW239744   4.429   0.211   8.426  2.4451  3.0523  2.7049
 9428SOL     OW39745   2.222   3.767   1.079 -0.0206  0.4998  0.3565
 9428SOL    HW139746   2.195   3.758   1.171 -1.9964  1.4606 -0.1325
 9428SOL    HW239747   2.159   3.835   1.056 -2.0294 -1.0856  1.1868
 9429SOL     OW39748   3.439   0.869   3.982 -0.0973  0.1663  0.0102
 9429SOL    HW139749   3.445   0.933   3.911 -1.7369 -1.0077 -1.1855
 9429SOL    HW239750   3.355   0.824   3.970  0.3490 -0.7044  0.1768
 9430SOL     OW39751   4.565   1.433  16.836 -0.5794 -0.1142 -0.0053
 9430SOL    HW139752   4.476   1.397  16.841  1.3676 -4.5451  3.0565
 9430SOL    HW239753   4.600   1.380  16.764 -0.9180 -0.0530 -0.2159
 9431SOL     OW39754   2.427   0.089   6.999 -0.3318  0.0843 -0.2722
 9431SOL    HW139755   2.369   0.025   6.957  0.0171 -2.5970  3.3093
 9431SOL    HW239756   2.395   0.093   7.089  1.3714 -0.0903  0.3442
 9432SOL     OW39757   3.909   1.568   4.158 -0.3705  0.3949  0.0264
 9432SOL    HW139758   3.985   1.510   4.158 -0.0284  0.8457  1.3111
 9432SOL    HW239759   3.864   1.532   4.081 -0.7869  1.9138 -0.4580
 9433SOL     OW39760   0.067   3.171  13.452  0.0286  0.3843  0.2437
 9433SOL    HW139761   0.042   3.209  13.368  2.6835 -2.0311 -1.6300
 9433SOL    HW239762   0.039   3.084  13.423 -0.8326  0.2354  1.5359
 9434SOL     OW39763   4.255   1.310   7.745  0.2495  0.0437 -0.0120
 9434SOL    HW139764   4.189   1.373   7.716 -2.7350 -1.4898  3.4160
 9434SOL    HW239765   4.220   1.287   7.831 -1.0106 -3.1404 -1.3607
 9435SOL     OW39766   3.329   2.324   1.400  0.6927 -0.2174  0.0555
 9435SOL    HW139767   3.277   2.367   1.469  0.2979 -1.5561  0.5898
 9435SOL    HW239768   3.396   2.391   1.389  0.1014  0.2476 -0.7153
 9436SOL     OW39769   3.985   3.294   3.537 -0.5432  0.3020 -0.0708
 9436SOL    HW139770   4.025   3.378   3.514  1.2370 -0.7410 -0.7794
 9436SOL    HW239771   4.046   3.231   3.498  1.4787  0.8941  2.2173
 9437SOL     OW39772   2.147   0.345  11.688 -0.2481  0.1420 -0.2862
 9437SOL    HW139773   2.211   0.368  11.755  0.8264 -0.1806 -1.1994
 9437SOL    HW239774   2.098   0.427  11.696 -1.2103 -0.4659  0.0771
 9438SOL     OW39775   2.489   2.278  10.380  0.2396  0.0018  0.0225
 9438SOL    HW139776   2.394   2.271  10.370 -0.1419  3.1325  1.4524
 9438SOL    HW239777   2.499   2.223  10.457 -1.5625  1.3763  1.2565
 9439SOL     OW39778   3.995   1.494   3.701 -0.0661 -0.1746  0.3479
 9439SOL    HW139779   3.971   1.586   3.706 -1.3911 -0.4831 -0.5388
 9439SOL    HW239780   4.060   1.491   3.772 -0.7757 -0.6161  0.9861
 9440SOL     OW39781   1.795   1.588   5.442 -0.1762  0.1653 -0.2616
 9440SOL    HW139782   1.813   1.678   5.470 -0.8101 -0.6750  2.9213
 9440SOL    HW239783   1.703   1.578   5.467 -0.2167 -1.5236 -1.1629
 9441SOL     OW39784   1.316   1.490   2.488 -0.2098  0.1930 -0.1434
 9441SOL    HW139785   1.328   1.419   2.425  3.0327 -0.5565  1.2698
 9441SOL    HW239786   1.267   1.551   2.432  0.8182 -0.8248 -2.1376
 9442SOL     OW39787   1.725   1.778   0.487 -0.4793  0.3109 -0.0195
 9442SOL    HW139788   1.672   1.820   0.554 -1.7622 -1.5621  0.1708
 9442SOL    HW239789   1.674   1.803   0.410 -0.4517  0.0353 -0.1292
 9443SOL     OW39790   0.824   1.765   8.230 -0.0032  0.0447 -0.4273
 9443SOL    HW139791   0.812   1.693   8.168 -0.9170  0.3092 -0.5595
 9443SOL    HW239792   0.803   1.838   8.171 -2.8716 -1.4712 -1.2586
 9444SOL     OW39793   4.428   2.756   3.675 -0.5780  0.0925 -0.4890
 9444SOL    HW139794   4.399   2.763   3.766  1.0503 -0.0193  0.0471
 9444SOL    HW239795   4.518   2.725   3.688 -0.8534 -0.6118 -0.2685
 9445SOL     OW39796   1.124   1.041   7.134  0.5441  0.4258 -0.2522
 9445SOL    HW139797   1.032   1.039   7.105 -0.2951  0.0997  2.3618
 9445SOL    HW239798   1.178   1.004   7.065 -0.6139 -2.9045  0.6153
 9446SOL     OW39799   3.751   2.741   7.095  0.0482  0.5961 -0.5525
 9446SOL    HW139800   3.757   2.834   7.118 -0.3423  0.3908  0.4215
 9446SOL    HW239801   3.753   2.754   7.001  1.5534  1.3183 -0.4159
 9447SOL     OW39802   1.511   1.119   4.947 -0.0371  0.1203  0.3311
 9447SOL    HW139803   1.534   1.194   5.002  0.8529  0.3062 -0.2869
 9447SOL    HW239804   1.504   1.161   4.862 -0.6785 -1.4870 -0.4211
 9448SOL     OW39805   2.126   0.989  14.912 -0.6939  0.4310  0.8000
 9448SOL    HW139806   2.048   0.934  14.915 -0.0067 -0.7047 -1.7058
 9448SOL    HW239807   2.087   1.075  14.896  0.0321  0.4723 -0.7675
 9449SOL     OW39808   3.687   4.624   4.547  0.0513  0.1131  0.8070
 9449SOL    HW139809   3.744   4.622   4.624  1.0469 -0.8829  0.0450
 9449SOL    HW239810   3.635   4.551   4.582 -0.7748  0.1600 -0.3410
 9450SOL     OW39811   2.655   0.805   8.602 -0.0877 -0.1453  0.1375
 9450SOL    HW139812   2.728   0.781   8.546  0.2406 -1.6465  1.1838
 9450SOL    HW239813   2.611   0.720   8.601 -1.0258  0.3105  1.5588
 9451SOL     OW39814   2.660   3.323   8.551  0.3819 -0.1450 -0.3062
 9451SOL    HW139815   2.681   3.406   8.595 -0.2466  0.2705 -0.7953
 9451SOL    HW239816   2.577   3.349   8.510 -0.9462 -1.9211  1.2660
 9452SOL     OW39817   3.835   0.188   6.400 -0.2668  0.0559  0.3688
 9452SOL    HW139818   3.827   0.114   6.460 -1.3982  0.6437  0.9488
 9452SOL    HW239819   3.741   0.200   6.386 -0.0119 -0.0032 -1.3858
 9453SOL     OW39820   0.183   4.555  14.677 -0.1923  0.2658  0.2287
 9453SOL    HW139821   0.199   4.540  14.770  0.1481 -0.6651  0.0124
 9453SOL    HW239822   0.270   4.550  14.638  0.7850 -0.1839  2.4780
 9454SOL     OW39823   1.174   4.500  11.550  0.7287  0.1458  0.3693
 9454SOL    HW139824   1.230   4.577  11.557 -0.4420  1.2862 -2.7276
 9454SOL    HW239825   1.088   4.531  11.579 -0.3494 -2.0790 -0.5165
 9455SOL     OW39826   2.626   1.504  17.028 -0.0647 -0.4148  0.0248
 9455SOL    HW139827   2.709   1.460  17.013  0.2776  0.3142 -0.2106
 9455SOL    HW239828   2.621   1.566  16.956 -0.6670 -1.2408 -0.6410
 9456SOL     OW39829   3.478   4.490  15.123 -0.3236 -0.4235  0.2762
 9456SOL    HW139830   3.463   4.395  15.119  1.2620 -0.6546 -0.1872
 9456SOL    HW239831   3.564   4.494  15.081 -0.7724 -2.9593 -0.8504
 9457SOL     OW39832   4.102   1.723  14.031 -0.2794 -0.2910  0.3317
 9457SOL    HW139833   4.060   1.680  14.106 -1.7841 -0.7859 -0.7923
 9457SOL    HW239834   4.114   1.649  13.971 -1.0503 -1.1971  1.2962
 9458SOL     OW39835   3.752   2.449   8.441  0.6843 -0.0212 -0.2528
 9458SOL    HW139836   3.716   2.421   8.357 -1.3212 -2.5518  1.4270
 9458SOL    HW239837   3.709   2.535   8.441 -0.3280 -0.5361  3.6598
 9459SOL     OW39838   0.998   3.341   1.415  0.2498 -0.1746 -0.3309
 9459SOL    HW139839   0.913   3.320   1.453  0.5091 -1.5482 -0.5038
 9459SOL    HW239840   1.009   3.265   1.357  2.3695  0.6151 -0.9804
 9460SOL     OW39841   0.852   0.421  15.307 -0.1070 -0.6343  0.1026
 9460SOL    HW139842   0.937   0.440  15.348  0.8798 -1.9084 -1.3757
 9460SOL    HW239843   0.814   0.509  15.307  4.0813  1.2034  0.6284
 9461SOL     OW39844   2.713   4.496   8.901  0.3978  0.6811  0.1793
 9461SOL    HW139845   2.682   4.495   8.992 -2.0671  3.1879 -0.6268
 9461SOL    HW239846   2.805   4.471   8.909  0.9648  2.0571 -2.0313
 9462SOL     OW39847   4.501   2.607   6.665 -0.2624 -0.3440  0.0928
 9462SOL    HW139848   4.532   2.522   6.695 -0.1126 -0.4222 -0.2875
 9462SOL    HW239849   4.496   2.661   6.744 -0.6357 -1.3683  0.7741
 9463SOL     OW39850   3.896   2.132   8.708  0.1828  0.1012 -0.1452
 9463SOL    HW139851   3.814   2.112   8.663  0.9610 -1.6788 -0.7618
 9463SOL    HW239852   3.909   2.221   8.676  1.4319  0.1373  0.4558
 9464SOL     OW39853   4.474   0.716  14.663  0.3572  0.0650 -0.2840
 9464SOL    HW139854   4.429   0.783  14.613 -1.0694 -0.1332  0.7479
 9464SOL    HW239855   4.399   0.660  14.683  0.2486 -0.1394 -1.2868
 9465SOL     OW39856   0.042   3.194   9.114  0.1802 -0.0102  0.2709
 9465SOL    HW139857   0.116   3.162   9.063  0.8050  1.1132  0.4644
 9465SOL    HW239858   0.077   3.178   9.202 -0.9172  0.2691  0.7619
 9466SOL     OW39859   0.825   3.913   0.705  0.0005 -0.1567  0.0809
 9466SOL    HW139860   0.869   3.995   0.727 -1.0067  0.5484 -0.4980
 9466SOL    HW239861   0.838   3.917   0.611  0.0633 -0.7292  0.0673
 9467SOL     OW39862   2.986   2.233   2.841  0.0338 -0.5677  0.1158
 9467SOL    HW139863   2.908   2.272   2.879 -0.6737 -1.1620 -0.7179
 9467SOL    HW239864   2.950   2.150   2.809 -1.7672  0.1138  0.3740
 9468SOL     OW39865   0.160   2.867  12.423 -0.1271  0.5040  0.7979
 9468SOL    HW139866   0.137   2.910  12.340  0.7175  0.4860  0.5534
 9468SOL    HW239867   0.157   2.944  12.480  1.8433 -1.3145  3.3431
 9469SOL     OW39868   3.348   4.282   3.249  0.2335  0.2088  0.5341
 9469SOL    HW139869   3.353   4.300   3.343  1.7847  0.4081  0.4146
 9469SOL    HW239870   3.257   4.254   3.239  0.6566 -0.1442 -2.5672
 9470SOL     OW39871   0.950   0.841   5.613 -0.1234  0.1073 -0.2133
 9470SOL    HW139872   0.987   0.786   5.544  0.7133  1.3320 -0.7418
 9470SOL    HW239873   0.857   0.818   5.608  0.3243 -1.8173  0.3567
 9471SOL     OW39874   2.338   0.435   9.820  0.5358 -0.4732 -0.2396
 9471SOL    HW139875   2.274   0.484   9.872  0.2771 -1.5439  0.4494
 9471SOL    HW239876   2.289   0.353   9.816 -0.4687  0.0689  0.8380
 9472SOL     OW39877   0.791   2.993   2.797 -0.4849  0.3223  0.3570
 9472SOL    HW139878   0.849   3.052   2.748 -0.6130  0.5266  0.4511
 9472SOL    HW239879   0.708   3.033   2.771 -0.2847 -0.6044 -1.7113
 9473SOL     OW39880   4.195   3.132  14.042  0.2504  0.8985 -0.0298
 9473SOL    HW139881   4.141   3.071  14.091 -0.8460  2.3559  0.5575
 9473SOL    HW239882   4.244   3.070  13.988 -0.5505  0.8822 -0.7361
 9474SOL     OW39883   1.062   3.946   8.269  0.0413  0.8018 -0.5227
 9474SOL    HW139884   1.095   3.992   8.191  3.5478  2.4493  1.9194
 9474SOL    HW239885   1.018   3.870   8.232  2.9075 -0.5438 -1.1957
 9475SOL     OW39886   0.618   2.103   3.429 -0.5030 -0.5759  0.1879
 9475SOL    HW139887   0.536   2.090   3.381  0.1579 -1.0186 -0.8245
 9475SOL    HW239888   0.655   2.187   3.401 -1.8982 -0.6198 -1.7689
 9476SOL     OW39889   2.641   1.261   9.008  0.3616 -0.5421 -0.2511
 9476SOL    HW139890   2.608   1.173   8.995  0.8939 -0.8258  0.3202
 9476SOL    HW239891   2.730   1.253   8.973 -0.2553  0.6645 -2.0500
 9477SOL     OW39892   3.661   4.224   7.966 -0.3515  0.1610 -0.1850
 9477SOL    HW139893   3.666   4.257   8.055 -2.3287 -0.4520  0.1516
 9477SOL    HW239894   3.573   4.189   7.979  0.4419 -1.5485  0.6036
 9478SOL     OW39895   2.056   4.718  10.520 -0.2876 -0.2696 -0.4767
 9478SOL    HW139896   2.008   4.700  10.601 -0.0508 -1.3921 -0.5879
 9478SOL    HW239897   2.141   0.019  10.557 -0.2733  0.3195 -0.8964
 9479SOL     OW39898   3.813   2.790   2.597 -0.0871 -0.7954 -0.0024
 9479SOL    HW139899   3.730   2.743   2.587  0.5888 -1.7321 -1.2289
 9479SOL    HW239900   3.812   2.856   2.527  1.3610 -0.3119  0.4370
 9480SOL     OW39901   3.734   2.120  10.321  0.0134  0.3704  0.5054
 9480SOL    HW139902   3.829   2.125  10.313  0.0868 -1.8724 -0.1981
 9480SOL    HW239903   3.704   2.197  10.273  1.5557 -0.6518 -2.1368
 9481SOL     OW39904   4.670   4.061   5.422 -0.2924 -0.0654  0.5788
 9481SOL    HW139905   4.707   4.116   5.491  0.1613  0.6259 -0.2103
 9481SOL    HW239906   4.623   4.135   5.383  0.4444 -0.0294 -0.2460
 9482SOL     OW39907   1.271   3.690   8.666  0.1987  0.6792 -0.1012
 9482SOL    HW139908   1.367   3.687   8.672  0.1930  0.9625  0.1637
 9482SOL    HW239909   1.257   3.597   8.649 -2.1006  0.7145  1.6455
 9483SOL     OW39910   0.914   3.641  10.250  0.5122 -0.7153 -0.2347
 9483SOL    HW139911   0.965   3.687  10.317 -0.6803  0.5403 -0.1771
 9483SOL    HW239912   0.826   3.675  10.264  0.4071 -0.2356 -2.0437
 9484SOL     OW39913   4.672   2.059   8.216 -0.0470 -0.0441 -0.1060
 9484SOL    HW139914   0.007   2.011   8.156 -0.4891 -0.1806 -0.4259
 9484SOL    HW239915   4.614   1.988   8.243  0.3067  0.1643  1.1739
 9485SOL     OW39916   3.782   1.066   4.188 -0.3667 -0.0054  0.2917
 9485SOL    HW139917   3.705   1.120   4.206  0.4501  1.0296  0.6656
 9485SOL    HW239918   3.802   1.041   4.278  0.1778 -1.8432 -0.3582
 9486SOL     OW39919   1.919   3.601   8.669  0.2873  0.4217  0.5133
 9486SOL    HW139920   1.855   3.638   8.730  0.6670  3.4202 -0.8871
 9486SOL    HW239921   1.972   3.547   8.728 -1.5953 -1.8169  0.1669
 9487SOL     OW39922   3.754   3.189  16.822  0.1651  0.0253  0.0606
 9487SOL    HW139923   3.755   3.177  16.917  1.9066  0.1182  0.0556
 9487SOL    HW239924   3.806   3.269  16.831 -0.5126  0.6049 -1.0708
 9488SOL     OW39925   4.208   1.575   8.542  0.0920  0.1850 -0.4141
 9488SOL    HW139926   4.218   1.648   8.602 -1.7315  1.3903 -1.5582
 9488SOL    HW239927   4.252   1.505   8.590 -0.7958 -0.6954 -0.8760
 9489SOL     OW39928   2.701   3.730   5.331  0.3805 -0.0225  0.1550
 9489SOL    HW139929   2.752   3.810   5.341  0.7517 -0.2053 -0.3065
 9489SOL    HW239930   2.682   3.724   5.237 -0.7863 -1.0258  0.4433
 9490SOL     OW39931   1.350   0.494   5.140 -0.6921 -0.3812 -0.3214
 9490SOL    HW139932   1.409   0.429   5.102  1.9430  0.1248  2.9289
 9490SOL    HW239933   1.296   0.507   5.062 -2.4194  2.2139  1.3249
 9491SOL     OW39934   0.834   3.671   9.539 -0.4280  0.0166  0.5112
 9491SOL    HW139935   0.864   3.723   9.465  2.9900  0.5523  2.2926
 9491SOL    HW239936   0.880   3.714   9.611  0.7211  3.2372 -2.1949
 9492SOL     OW39937   2.948   3.888   6.171 -0.2444  0.1318 -0.6337
 9492SOL    HW139938   2.962   3.945   6.246 -1.7907  1.1958 -1.1428
 9492SOL    HW239939   2.885   3.930   6.112 -0.3556  1.5914  0.5441
 9493SOL     OW39940   0.837   3.177  15.661  0.1492  0.2252 -0.6515
 9493SOL    HW139941   0.747   3.171  15.630  0.2480 -2.1970 -0.4926
 9493SOL    HW239942   0.876   3.182  15.574  0.6009 -0.5330 -0.5040
 9494SOL     OW39943   1.195   0.569   6.039 -0.1939  0.5352 -0.0181
 9494SOL    HW139944   1.113   0.535   6.073  1.4293 -1.0310  2.3659
 9494SOL    HW239945   1.257   0.507   6.076  1.5068  1.6904 -0.8898
 9495SOL     OW39946   4.552   0.063   3.687 -0.0522 -0.1021  0.2028
 9495SOL    HW139947   4.509   0.013   3.756 -0.7481 -1.0845 -0.9243
 9495SOL    HW239948   4.539   0.005   3.612 -0.5736 -0.4957  0.5968
 9496SOL     OW39949   2.585   0.396   3.609 -0.0032  0.6300  0.3328
 9496SOL    HW139950   2.666   0.436   3.578 -0.2302  0.8157 -0.0253
 9496SOL    HW239951   2.616   0.359   3.691 -0.1098  2.9886  1.4241
 9497SOL     OW39952   2.937   2.289   4.904  0.2556  0.1999  0.0312
 9497SOL    HW139953   2.868   2.224   4.914 -0.6423  1.5039  2.2866
 9497SOL    HW239954   3.012   2.251   4.950  1.2162  0.4676 -1.2959
 9498SOL     OW39955   4.188   1.316   3.863  0.3386  0.0760 -0.1843
 9498SOL    HW139956   4.266   1.264   3.881 -0.6566 -1.8285 -1.4139
 9498SOL    HW239957   4.175   1.288   3.772 -2.3725  0.1873  0.1623
 9499SOL     OW39958   4.537   1.028  17.137 -0.0498  0.5636 -0.2192
 9499SOL    HW139959   4.568   0.938  17.152 -0.9045  0.8278  3.0432
 9499SOL    HW239960   4.591   1.052  17.061  0.4210 -2.6693 -0.9327
 9500SOL     OW39961   4.267   0.523   9.340 -0.7943 -0.3226  0.4571
 9500SOL    HW139962   4.303   0.451   9.288  1.9644  0.5746  1.1417
 9500SOL    HW239963   4.347   0.546   9.387  1.3653 -1.0522 -2.9003
 9501SOL     OW39964   2.448   3.179   7.922 -0.3909  0.1476 -0.1002
 9501SOL    HW139965   2.508   3.173   7.996 -2.5220  0.8418  1.7030
 9501SOL    HW239966   2.358   3.172   7.954 -0.3842  1.6864  0.2524
 9502SOL     OW39967   2.196   2.499  11.254 -0.0822  0.2083  0.0562
 9502SOL    HW139968   2.134   2.429  11.273  1.3583 -0.6519  1.5633
 9502SOL    HW239969   2.137   2.570  11.228  0.3443  0.4987 -0.1006
 9503SOL     OW39970   2.468   3.307  15.310  0.0663  0.1080  0.5190
 9503SOL    HW139971   2.436   3.217  15.309  3.5112 -1.1095  1.8092
 9503SOL    HW239972   2.410   3.356  15.252  0.9537 -0.6496 -0.9973
 9504SOL     OW39973   3.122   1.868  15.299 -0.0451  0.4497  0.1679
 9504SOL    HW139974   3.132   1.869  15.394 -0.6422 -1.0000  0.2560
 9504SOL    HW239975   3.199   1.832  15.255 -0.6376  0.9399 -1.2448
 9505SOL     OW39976   1.091   4.289   8.596 -0.3269  0.2127  0.2436
 9505SOL    HW139977   1.135   4.274   8.513  0.3008  3.4881 -0.0111
 9505SOL    HW239978   1.017   4.342   8.565 -0.0271  0.5807  0.1561
 9506SOL     OW39979   4.322   0.157   7.972  0.3066  0.0864 -0.5638
 9506SOL    HW139980   4.330   0.089   7.905  0.3448  0.5212 -1.0040
 9506SOL    HW239981   4.254   0.117   8.026  1.1257  1.0340  1.1417
 9507SOL     OW39982   1.514   3.674  17.527 -0.1319  0.0035 -0.0190
 9507SOL    HW139983   1.556   3.588  17.524  1.4721  0.8453 -1.7482
 9507SOL    HW239984   1.577   3.718  17.584 -1.6680  1.0819  0.8379
 9508SOL     OW39985   0.496   1.285   1.087  0.0811 -0.8519 -0.3492
 9508SOL    HW139986   0.569   1.227   1.062  0.3669 -0.3953 -0.5752
 9508SOL    HW239987   0.456   1.243   1.163 -0.0051  1.7819  1.0355
 9509SOL     OW39988   4.005   0.578   4.610 -0.3935  0.8725 -0.0310
 9509SOL    HW139989   4.025   0.582   4.517  0.9280 -1.7085  0.1298
 9509SOL    HW239990   3.918   0.618   4.608 -0.6360  0.3975  0.7963
 9510SOL     OW39991   3.616   0.278   1.753 -0.3504 -0.1315  0.1493
 9510SOL    HW139992   3.563   0.209   1.712  1.5086 -0.5645 -1.4805
 9510SOL    HW239993   3.661   0.318   1.679  1.5199  2.1784  2.5174
 9511SOL     OW39994   3.689   2.002   0.608 -0.0310  0.4407 -0.1329
 9511SOL    HW139995   3.636   2.015   0.686 -0.9080  1.7132 -0.9347
 9511SOL    HW239996   3.694   1.907   0.595  2.3088  0.7292 -1.3653
 9512SOL     OW39997   1.159   1.648   7.984  0.1776  0.1297  0.0626
 9512SOL    HW139998   1.066   1.652   7.961 -0.9459 -2.4860  4.0672
 9512SOL    HW239999   1.181   1.557   7.963  0.5160 -0.0157  1.0236
 9513SOL     OW40000   0.342   2.815   9.690 -0.3394  0.1160  0.2206
 9513SOL    HW140001   0.310   2.741   9.637  1.1873 -1.1620  1.0680
 9513SOL    HW240002   0.355   2.884   9.625 -1.3680 -0.2467 -0.3760
 9514SOL     OW40003   2.078   2.624   3.212 -0.0831 -0.3395 -0.4760
 9514SOL    HW140004   2.007   2.615   3.276  1.1455  0.4211  1.0165
 9514SOL    HW240005   2.082   2.719   3.203 -1.6582 -0.1071  1.1623
 9515SOL     OW40006   1.659   4.396   9.275  0.0503 -0.0187 -0.0086
 9515SOL    HW140007   1.754   4.388   9.274 -0.0550 -1.0750 -0.5020
 9515SOL    HW240008   1.620   4.431   9.195  2.1192  0.6766 -0.7024
 9516SOL     OW40009   1.657   0.131   4.379  0.0358 -0.2169 -0.0420
 9516SOL    HW140010   1.707   0.101   4.455  0.7473 -2.8603 -1.5894
 9516SOL    HW240011   1.618   0.213   4.412  0.3828 -0.1108  0.1057
 9517SOL     OW40012   4.662   2.870   0.798 -0.0318 -0.5121 -0.2480
 9517SOL    HW140013   4.638   2.826   0.717  0.1515 -0.0862 -0.5322
 9517SOL    HW240014   4.655   2.964   0.781 -1.7756 -0.6644 -0.3607
 9518SOL     OW40015   3.194   1.984  12.569  0.3786  0.0129 -0.4607
 9518SOL    HW140016   3.134   1.951  12.635  1.0431 -1.8455 -0.7839
 9518SOL    HW240017   3.162   1.948  12.486 -0.2774 -1.8821  0.6213
 9519SOL     OW40018   0.956   1.123  13.533  0.5224  0.3292  0.1565
 9519SOL    HW140019   0.979   1.094  13.445  0.2369 -1.3400  0.6293
 9519SOL    HW240020   0.891   1.191  13.516  0.5437 -0.0228 -1.3113
 9520SOL     OW40021   3.743   4.669  15.161  0.3963 -0.0157 -0.1136
 9520SOL    HW140022   3.681   4.722  15.111  1.2802  0.5601 -0.6108
 9520SOL    HW240023   3.814   4.674  15.096 -1.1477 -1.1045 -1.8958
 9521SOL     OW40024   2.552   1.147   2.603 -0.3952  0.5086 -0.4719
 9521SOL    HW140025   2.564   1.112   2.514 -3.0663 -4.6053  1.1757
 9521SOL    HW240026   2.640   1.149   2.639  0.1201 -2.7932 -1.5269
 9522SOL     OW40027   2.905   4.429   4.695  0.0981  0.2004 -0.3143
 9522SOL    HW140028   2.859   4.407   4.777 -0.6417  1.2181 -0.4627
 9522SOL    HW240029   2.992   4.432   4.733 -0.0822 -0.2657  0.1457
 9523SOL     OW40030   1.467   1.776  11.559 -0.4125  0.5243 -0.4989
 9523SOL    HW140031   1.386   1.754  11.512 -0.6539 -1.3091  0.7892
 9523SOL    HW240032   1.425   1.828  11.627  0.7489 -0.9148  1.3358
 9524SOL     OW40033   1.537   3.632   4.971 -0.2601 -0.0892  0.4965
 9524SOL    HW140034   1.583   3.699   4.919  0.8660 -0.2684  1.2592
 9524SOL    HW240035   1.483   3.597   4.900 -0.4349  2.5940 -0.7186
 9525SOL     OW40036   3.395   2.436  14.006 -0.1283  0.3219 -0.3809
 9525SOL    HW140037   3.414   2.364  14.065  1.3183 -0.2382 -1.5307
 9525SOL    HW240038   3.452   2.424  13.930 -2.6936 -1.6200 -1.9980
 9526SOL     OW40039   1.075   1.766   8.336  0.1004  0.3471  0.0261
 9526SOL    HW140040   1.068   1.844   8.391  1.5121  0.5135 -0.0200
 9526SOL    HW240041   0.989   1.764   8.293  0.3054 -3.9995 -0.1765
 9527SOL     OW40042   2.860   3.675  14.991 -0.0383 -0.0299  0.0259
 9527SOL    HW140043   2.854   3.648  14.899 -0.1114  0.8532 -0.2288
 9527SOL    HW240044   2.935   3.735  14.985  0.0630 -0.0920  0.6974
 9528SOL     OW40045   0.125   3.191  11.349  0.8737 -0.3636  0.2070
 9528SOL    HW140046   0.191   3.229  11.291  0.1630 -1.3366 -1.2516
 9528SOL    HW240047   0.158   3.214  11.435 -0.9135  0.2431  0.7348
 9529SOL     OW40048   2.253   0.683   6.777  0.4872 -0.0151 -0.8678
 9529SOL    HW140049   2.177   0.740   6.770  0.8136  0.6415  1.0051
 9529SOL    HW240050   2.322   0.746   6.796 -0.2130  0.7416 -0.8270
 9530SOL     OW40051   0.216   0.310  11.044 -0.0769 -0.0507  0.1065
 9530SOL    HW140052   0.298   0.310  11.095  0.4870  1.7793 -0.7988
 9530SOL    HW240053   0.182   0.223  11.065  1.1295 -1.1298 -2.3414
 9531SOL     OW40054   4.708   1.458  14.593  0.3557  0.1421  0.4317
 9531SOL    HW140055   0.026   1.529  14.545 -0.3725 -0.3849 -0.9803
 9531SOL    HW240056   4.683   1.497  14.677  1.2113 -0.2871  0.8823
 9532SOL     OW40057   2.440   0.355  11.792 -0.2480 -0.3452 -0.2537
 9532SOL    HW140058   2.430   0.355  11.888  0.2040  0.9419 -0.2086
 9532SOL    HW240059   2.496   0.430  11.774  0.7288 -0.8919  0.5269
 9533SOL     OW40060   2.827   4.119   9.697  0.3587  0.3469  0.2454
 9533SOL    HW140061   2.805   4.199   9.649 -0.0496 -0.4869 -0.9581
 9533SOL    HW240062   2.922   4.120   9.697  0.3457  2.3991 -0.6503
 9534SOL     OW40063   4.373   1.866   6.691  0.3634  0.1282 -0.2890
 9534SOL    HW140064   4.440   1.843   6.755 -0.9265 -0.9064  0.7024
 9534SOL    HW240065   4.363   1.781   6.649 -1.1174  0.6872 -1.0679
 9535SOL     OW40066   4.019   0.526   7.230 -0.0830 -0.1599  0.1177
 9535SOL    HW140067   3.980   0.583   7.296 -1.2356 -1.2780  0.4029
 9535SOL    HW240068   4.106   0.527   7.270  0.7597 -0.2592 -1.7191
 9536SOL     OW40069   0.197   2.715   4.125  0.5810  0.7227  0.3230
 9536SOL    HW140070   0.186   2.737   4.032  1.6910  2.2701  0.5630
 9536SOL    HW240071   0.288   2.745   4.135 -0.0201  2.3752  0.8568
 9537SOL     OW40072   3.092   4.318   0.034 -0.8238  0.3183  0.5130
 9537SOL    HW140073   3.059   4.334  17.640  1.0512 -1.0217 -0.4450
 9537SOL    HW240074   3.182   4.344   0.014 -0.2428 -1.0958  1.2766
 9538SOL     OW40075   4.319   3.605  11.019  0.4437  0.6400 -0.9015
 9538SOL    HW140076   4.271   3.683  10.991  0.6973  0.8931 -0.6313
 9538SOL    HW240077   4.281   3.598  11.107 -1.0204  0.8011 -1.5182
 9539SOL     OW40078   1.946   1.093   4.558 -0.3905 -0.5336 -0.3179
 9539SOL    HW140079   1.885   1.164   4.538 -0.1936 -0.7400 -1.6031
 9539SOL    HW240080   2.001   1.080   4.481  1.2362  0.8204  0.6270
 9540SOL     OW40081   2.375   2.002   8.365 -0.1572 -0.8477  0.5371
 9540SOL    HW140082   2.351   2.084   8.408 -2.0370 -1.8405  1.3644
 9540SOL    HW240083   2.349   1.940   8.433 -2.6852  0.9776  1.2335
 9541SOL     OW40084   2.938   1.247   3.572  0.1812 -0.8510  0.4770
 9541SOL    HW140085   2.859   1.300   3.556  1.0800  0.8846  1.8166
 9541SOL    HW240086   2.943   1.197   3.491 -1.2360  0.6943 -0.5708
 9542SOL     OW40087   4.154   4.474   8.285  0.8108 -0.1947 -0.0520
 9542SOL    HW140088   4.067   4.490   8.322 -0.2947 -0.9218 -2.4078
 9542SOL    HW240089   4.152   4.379   8.280 -1.5227 -0.2086  0.8378
 9543SOL     OW40090   1.827   0.030  15.699  0.0347  0.2978 -0.0958
 9543SOL    HW140091   1.769   0.095  15.739 -1.6526 -1.6021  0.5401
 9543SOL    HW240092   1.818   4.683  15.764  0.0431 -0.6343 -1.0822
 9544SOL     OW40093   2.306   3.254  11.922  0.2356  0.0397  0.0986
 9544SOL    HW140094   2.256   3.315  11.977 -0.1056  1.2672 -1.5765
 9544SOL    HW240095   2.389   3.290  11.952  0.9737 -1.4172 -0.1862
 9545SOL     OW40096   3.201   1.619   3.916 -0.4251 -0.2268  0.1665
 9545SOL    HW140097   3.174   1.530   3.936 -0.5880 -0.1977  0.0759
 9545SOL    HW240098   3.187   1.675   3.993 -0.5661 -0.5467  0.3751
 9546SOL     OW40099   0.935   0.110   4.081  0.2418 -0.4478 -0.4444
 9546SOL    HW140100   0.886   0.031   4.055 -0.2920  0.1763 -1.3351
 9546SOL    HW240101   0.881   0.136   4.156  1.9227 -0.8878  0.9308
 9547SOL     OW40102   1.196   3.880  16.583 -0.5386 -0.3801 -0.2701
 9547SOL    HW140103   1.261   3.857  16.517 -1.9293 -0.2014 -1.7056
 9547SOL    HW240104   1.248   3.863  16.661 -1.1444  0.4295  0.2977
 9548SOL     OW40105   0.476   4.658   6.830 -0.4448  0.7290 -0.1778
 9548SOL    HW140106   0.442   4.678   6.918 -0.3184 -3.3296  0.8129
 9548SOL    HW240107   0.566   4.690   6.830  0.0204 -0.5800  0.1335
 9549SOL     OW40108   2.894   0.593   0.776 -0.1059 -0.4580  0.2519
 9549SOL    HW140109   2.977   0.599   0.729  0.7543  2.1029  2.1352
 9549SOL    HW240110   2.920   0.543   0.854  0.8166 -0.1909  0.1113
 9550SOL     OW40111   1.745   3.158   6.850  0.5227  0.0402  0.2759
 9550SOL    HW140112   1.759   3.185   6.941 -1.8424  1.3925  0.2458
 9550SOL    HW240113   1.836   3.177   6.827  0.2518 -0.6533 -1.3154
 9551SOL     OW40114   3.537   1.435  14.836 -1.1198  0.2626 -0.4370
 9551SOL    HW140115   3.508   1.383  14.911  4.0993  0.1166  1.5256
 9551SOL    HW240116   3.500   1.382  14.766  1.3345  0.3039 -1.7639
 9552SOL     OW40117   0.707   1.075  10.144  0.1668  0.6742  0.4166
 9552SOL    HW140118   0.678   1.166  10.153 -2.1638 -0.0352 -0.0442
 9552SOL    HW240119   0.782   1.078  10.203 -0.0481  0.4889  0.7016
 9553SOL     OW40120   1.878   0.455   3.543 -0.5877  0.2084 -0.5026
 9553SOL    HW140121   1.898   0.417   3.628 -1.2059  0.4963 -0.2324
 9553SOL    HW240122   1.787   0.434   3.525 -0.5026 -1.4379  1.0176
 9554SOL     OW40123   2.011   3.025   4.668 -0.0987 -0.2036  0.0103
 9554SOL    HW140124   1.993   3.047   4.759  1.1852  1.8435 -0.2248
 9554SOL    HW240125   1.983   3.107   4.628  3.2442  0.6999 -0.4865
 9555SOL     OW40126   3.315   2.457   4.430 -0.1475 -0.3370  0.3619
 9555SOL    HW140127   3.230   2.489   4.398 -0.8050 -0.7828  1.6717
 9555SOL    HW240128   3.276   2.415   4.507  0.1815 -1.5914 -0.1641
 9556SOL     OW40129   0.332   4.009   1.542  0.2008  0.2019  0.1116
 9556SOL    HW140130   0.275   3.999   1.619 -0.5048  0.6855 -0.3581
 9556SOL    HW240131   0.302   4.094   1.511 -0.5310  0.1699  0.7203
 9557SOL     OW40132   1.666   0.312  14.624  0.3635 -0.0181 -0.1645
 9557SOL    HW140133   1.715   0.262  14.689  0.9423 -2.8315 -2.7904
 9557SOL    HW240134   1.625   0.384  14.672  1.0410 -1.9449  3.2961
 9558SOL     OW40135   1.785   3.119   1.614 -0.5165  0.8781  0.4439
 9558SOL    HW140136   1.869   3.136   1.657  0.3848 -2.0116 -0.1746
 9558SOL    HW240137   1.724   3.095   1.684 -0.4401 -3.0810 -0.8180
 9559SOL     OW40138   1.995   0.387   3.821  0.3103  0.4426 -0.0303
 9559SOL    HW140139   1.922   0.379   3.882 -0.7291 -1.0273 -1.4468
 9559SOL    HW240140   1.984   0.299   3.784 -0.6108 -0.9936  3.6432
 9560SOL     OW40141   4.253   3.139   2.420  0.4268  0.7229  0.4540
 9560SOL    HW140142   4.216   3.223   2.449  1.6083  1.1216  0.8042
 9560SOL    HW240143   4.202   3.123   2.341 -0.0950 -1.9002  1.2978
 9561SOL     OW40144   0.013   0.155   1.743 -0.1433  0.1921  0.3244
 9561SOL    HW140145   0.009   0.145   1.648  2.1074  0.6082  0.1755
 9561SOL    HW240146   4.676   0.229   1.757  1.5382  1.9998 -1.9790
 9562SOL     OW40147   1.819   4.193   8.797  0.0269  0.4727  0.1549
 9562SOL    HW140148   1.798   4.247   8.721 -3.2128 -0.7223  0.1758
 9562SOL    HW240149   1.907   4.218   8.824  1.2118 -2.5546 -0.9483
 9563SOL     OW40150   0.524   2.350   8.469 -0.1045  0.4204 -0.0235
 9563SOL    HW140151   0.558   2.288   8.534 -0.1425  0.9258  0.4745
 9563SOL    HW240152   0.590   2.349   8.400 -1.1239 -1.6689 -0.9740
 9564SOL     OW40153   0.461   0.718  11.774 -0.4396 -0.3288 -0.0342
 9564SOL    HW140154   0.496   0.687  11.690  1.6688 -0.0652  0.7384
 9564SOL    HW240155   0.490   0.809  11.769  1.7454 -0.8459  3.3882
 9565SOL     OW40156   4.425   3.662   8.455 -0.3349  0.7914  0.5797
 9565SOL    HW140157   4.507   3.669   8.406 -0.7897 -0.7986 -0.4246
 9565SOL    HW240158   4.448   3.610   8.532 -2.4842 -1.9641 -0.6265
 9566SOL     OW40159   3.635   3.514  15.251 -0.8411  0.3369 -0.3211
 9566SOL    HW140160   3.596   3.427  15.238  1.8294 -1.1526  1.5397
 9566SOL    HW240161   3.708   3.518  15.189  0.1799 -0.2738  0.8259
 9567SOL     OW40162   0.843   2.534   1.998  0.0277  0.0955  0.5270
 9567SOL    HW140163   0.873   2.614   1.956 -1.9199  0.9815  0.8526
 9567SOL    HW240164   0.775   2.563   2.058  0.1296 -2.3271  1.8384
 9568SOL     OW40165   1.998   1.351   3.998  0.0795 -0.3672  0.2259
 9568SOL    HW140166   2.028   1.318   3.914  1.3722 -1.1912  1.0060
 9568SOL    HW240167   1.905   1.329   3.995  0.2676 -1.1150 -0.0979
   4.72293   4.72293  17.69363
