Membrane in water
40167
    1TCq1    O1    1   3.572   1.949  10.100 -0.2283  0.2016  0.3316
    1TCq1    C1    2   3.708   1.956  10.073 -0.1713  0.5850 -0.1431
    1TCq1    O2    3   3.762   1.960   9.961  0.1960  0.7509 -0.9481
    1TCq1    C2    4   3.761   2.050  10.172  0.2933  1.3401  0.2004
    1TCq1    C3    5   3.852   2.151  10.142  0.3053 -0.6314 -0.3898
    1TCq1    C4    6   3.885   2.232  10.246 -0.3018  0.3255 -0.1613
    1TCq1    C5    7   3.838   2.215  10.373  0.0029  0.4663 -0.5557
    1TCq1    C6    8   3.756   2.111  10.403 -0.1024 -1.1484  0.3946
    1TCq1    C7    9   3.708   2.030  10.299 -0.6733 -0.4943 -0.2129
    1TCq1    C8   10   3.718   2.076  10.538 -0.3342 -0.3616 -0.7559
    1TCq1    O4   11   3.803   2.100  10.622  0.3596 -0.2257 -0.1449
    1TCq1    C9   12   3.991   2.328  10.224  0.3341 -0.4730  0.6758
    1TCq1    O5   13   4.034   2.392  10.320  0.0054 -0.4241  0.0940
    1TCq1    O6   14   4.035   2.344  10.108 -0.2698 -0.3436  0.1996
    1TCq1    H1   15   3.544   1.978  10.189 -1.1499  0.0441  0.0851
    1TCq1    H2   16   3.895   2.144  10.043  1.0884 -1.7561  0.0401
    1TCq1    H3   17   3.876   2.274  10.455 -0.7784  0.3064 -0.0836
    1TCq1    H4   18   3.658   1.938  10.327 -1.4542  0.2789  0.9427
    2MPD2     C   19   3.433   1.843  10.897 -0.3859  0.1387  0.3347
    2MPD2    C1   20   3.547   1.924  10.909  0.2747 -1.0387  0.1591
    2MPD2    C2   21   3.598   1.973  10.793  0.5259 -0.5685 -0.2818
    2MPD2    C3   22   3.543   1.951  10.664 -0.9619 -0.5508  0.3794
    2MPD2    C4   23   3.424   1.876  10.659 -0.3916 -0.4704 -0.1662
    2MPD2    C5   24   3.374   1.820  10.778  0.1427  0.0002  0.3611
    2MPD2     H   25   3.674   2.046  10.819  1.8295 -2.4075  1.0670
    2MPD2    H1   26   3.381   1.835  10.569  0.8214  1.6570 -1.7091
    2MPD2    H2   27   3.395   1.786  10.982  0.3155 -0.6219  0.1354
    2MPD2    H3   28   3.293   1.748  10.770  0.3557  0.0546 -2.1729
    2MPD2     N   29   3.595   2.015  10.552 -0.0937  0.8961  0.0225
    2MPD2    H5   30   3.545   1.998  10.465 -0.4991 -0.5733  0.5569
    2MPD2    N1   31   3.613   1.949  11.021  0.3918 -0.4017 -0.6976
    2MPD2    H7   32   3.692   2.012  11.011 -0.7075  1.1840  0.5632
    3TCq1    O1   33   4.207   4.192  10.403  0.0753 -0.5188 -0.1644
    3TCq1    C1   34   4.259   4.264  10.503 -0.8436  0.3135  0.6234
    3TCq1    O2   35   4.342   4.347  10.481 -0.2004  0.0848  0.3657
    3TCq1    C2   36   4.181   4.264  10.623 -0.3645  0.0595  0.2052
    3TCq1    C3   37   4.179   4.376  10.697  0.4086  0.0046  0.6161
    3TCq1    C4   38   4.075   4.388  10.785  0.2754  0.1919  0.0062
    3TCq1    C5   39   3.972   4.303  10.802  0.2731  0.3734 -0.7471
    3TCq1    C6   40   3.985   4.184  10.735 -0.1163 -0.1954 -0.2164
    3TCq1    C7   41   4.084   4.167  10.643 -0.2126  0.3778  0.0117
    3TCq1    C8   42   3.901   4.073  10.762  0.3767  0.2829  0.7407
    3TCq1    O4   43   3.930   3.965  10.711  0.0205  0.6346  0.2277
    3TCq1    C9   44   4.075   4.499  10.878 -0.1807 -0.4405 -0.2946
    3TCq1    O5   45   4.168   4.583  10.871 -0.1580 -0.3598  0.1060
    3TCq1    O6   46   3.981   4.510  10.961  0.4126  0.0793  0.1958
    3TCq1    H1   47   4.123   4.143  10.412 -0.6718  1.1584  2.1430
    3TCq1    H2   48   4.252   4.456  10.700 -0.2181  0.5751  0.6807
    3TCq1    H3   49   3.902   4.322  10.882  1.0067 -0.4221  0.1011
    3TCq1    H4   50   4.089   4.074  10.589 -1.3145 -0.4864  1.4025
    4MPD2     C   51   3.467   3.864  10.967  0.1845 -0.5917 -0.6568
    4MPD2    C1   52   3.474   4.001  10.990  0.0142 -0.3798 -0.4342
    4MPD2    C2   53   3.584   4.076  10.950  1.2606  0.1202 -0.4661
    4MPD2    C3   54   3.686   4.015  10.875  0.5645 -0.5529 -0.2099
    4MPD2    C4   55   3.687   3.880  10.846  0.4745 -0.4720  0.4612
    4MPD2    C5   56   3.575   3.803  10.892  0.9537  0.2721  0.3796
    4MPD2     H   57   3.584   4.182  10.977  1.1366 -0.1366  0.5607
    4MPD2    H1   58   3.769   3.827  10.799 -1.7173 -1.9257 -1.7630
    4MPD2    H2   59   3.387   3.795  10.991  0.4332 -1.5967 -2.7840
    4MPD2    H3   60   3.555   3.698  10.871 -1.3631  0.6099  0.8875
    4MPD2     N   61   3.789   4.105  10.839 -0.0780  0.1532  0.3417
    4MPD2    H5   62   3.771   4.200  10.868 -1.2819  0.3032 -0.9250
    4MPD2    N1   63   3.380   4.073  11.062 -0.5999 -0.2238  0.0140
    4MPD2    H7   64   3.397   4.173  11.054 -0.5300 -0.3511 -1.5474
    5TCq1    O1   65   3.725   0.165  12.025  0.4742 -0.2506 -0.3512
    5TCq1    C1   66   3.761   0.127  11.898 -0.0254 -0.2809 -0.1867
    5TCq1    O2   67   3.786   0.202  11.803 -0.1562  0.5078  0.3162
    5TCq1    C2   68   3.717   4.714  11.879  0.1330  0.1052  0.8286
    5TCq1    C3   69   3.623   4.649  11.955  0.3279  0.1031  0.2327
    5TCq1    C4   70   3.559   4.532  11.903 -0.4640  0.2424 -0.6702
    5TCq1    C5   71   3.615   4.468  11.796 -0.6419 -0.3153 -0.1444
    5TCq1    C6   72   3.702   4.543  11.721 -0.1087 -0.0836  0.3750
    5TCq1    C7   73   3.742   4.668  11.757  0.1943 -0.0252 -0.3836
    5TCq1    C8   74   3.762   4.480  11.606 -0.0614 -0.5670  0.4097
    5TCq1    O4   75   3.877   4.513  11.575  0.4380  0.2448  0.0288
    5TCq1    C9   76   3.465   4.470  11.980  0.6075 -0.1785  0.5320
    5TCq1    O5   77   3.420   4.528  12.082  0.2467  0.7357  0.3641
    5TCq1    O6   78   3.450   4.343  11.964  0.2887  0.2380 -0.3822
    5TCq1    H1   79   3.722   0.090  12.088  1.6643  0.2147  0.2614
    5TCq1    H2   80   3.575   4.692  12.042  1.5589  3.5458 -0.7803
    5TCq1    H3   81   3.588   4.367  11.766 -0.2091 -0.8255  1.1625
    5TCq1    H4   82   3.809   0.002  11.695  1.7231  2.0710  3.2709
    6MPD2     C   83   3.633   4.215  11.383  0.4180  0.1710 -0.5878
    6MPD2    C1   84   3.723   4.295  11.442 -1.2035 -0.3129 -0.0595
    6MPD2    C2   85   3.852   4.295  11.387  0.5364 -1.0079 -0.1505
    6MPD2    C3   86   3.886   4.207  11.292  0.3160 -0.4311  0.7778
    6MPD2    C4   87   3.788   4.131  11.229  0.2779  0.0033 -0.2110
    6MPD2    C5   88   3.661   4.140  11.280  0.0089 -0.7425 -0.5139
    6MPD2     H   89   3.929   4.346  11.444 -0.2438  0.3648 -0.3189
    6MPD2    H1   90   3.816   4.079  11.139 -0.7347 -0.0656 -0.4855
    6MPD2    H2   91   3.532   4.210  11.423  0.3662 -2.5436 -0.9964
    6MPD2    H3   92   3.585   4.080  11.232 -1.5429 -0.4636  1.5957
    6MPD2     N   93   4.025   4.219  11.243 -0.2957 -0.0427  0.1915
    6MPD2    H5   94   4.079   4.296  11.280  0.1725 -0.2135 -0.1506
    6MPD2    N1   95   3.685   4.385  11.545  0.1512 -0.2671  0.3422
    6MPD2    H7   96   3.585   4.390  11.565  0.1169 -0.2727  0.1735
    7TCq1    O1   97   1.221   4.660  12.982  0.2509  0.2467 -0.6131
    7TCq1    C1   98   1.305   0.032  12.952 -1.0803 -0.1907  0.7890
    7TCq1    O2   99   1.289   0.141  12.903 -0.0495 -0.3320 -0.3816
    7TCq1    C2  100   1.439   4.697  12.972 -0.2306  0.2302  0.0586
    7TCq1    C3  101   1.544   0.057  12.971 -0.0660 -0.6688  0.6256
    7TCq1    C4  102   1.669   0.008  12.981 -0.3782 -0.1402 -0.1141
    7TCq1    C5  103   1.691   4.602  13.003 -0.3112 -0.4480 -0.4202
    7TCq1    C6  104   1.581   4.514  13.000  0.2746  0.3837  0.0153
    7TCq1    C7  105   1.453   4.566  12.991 -0.1447  0.3085 -0.3877
    7TCq1    C8  106   1.590   4.367  13.003  0.1815  0.4160  0.2904
    7TCq1    O4  107   1.480   4.311  13.019  0.4663  0.3489 -0.0669
    7TCq1    C9  108   1.779   0.101  12.994 -0.3829  0.0030  0.5850
    7TCq1    O5  109   1.772   0.190  12.901  0.3993  0.5306 -0.1736
    7TCq1    O6  110   1.872   0.075  13.073 -0.3287  0.2479 -0.5816
    7TCq1    H1  111   1.234   4.627  13.073  1.2849  0.9202 -0.5213
    7TCq1    H2  112   1.534   0.165  12.966  2.9373 -0.3476  1.3310
    7TCq1    H3  113   1.794   4.573  13.016  0.5805  3.3596  0.8810
    7TCq1    H4  114   1.371   4.496  12.977 -1.0217  1.0729  0.9060
    8MPD2     C  115   1.834   3.980  13.228 -0.3464  0.5555 -0.9612
    8MPD2    C1  116   1.701   3.989  13.197  0.0842 -0.6956 -0.3971
    8MPD2    C2  117   1.662   4.111  13.140  0.8348 -0.2161  0.1284
    8MPD2    C3  118   1.752   4.216  13.112 -0.1906 -0.4731 -0.4333
    8MPD2    C4  119   1.880   4.201  13.152 -0.2972  0.0045 -0.1647
    8MPD2    C5  120   1.926   4.080  13.196  0.4852  1.0554  0.0224
    8MPD2     H  121   1.557   4.118  13.115  0.8165 -1.5107 -0.1670
    8MPD2    H1  122   1.950   4.279  13.126  1.1322 -1.9471 -2.1584
    8MPD2    H2  123   1.874   3.892  13.278 -1.7286 -0.6614 -2.0281
    8MPD2    H3  124   2.031   4.062  13.214 -0.2691 -0.1135  3.2490
    8MPD2     N  125   1.713   4.332  13.044 -0.1688  0.2042 -0.3418
    8MPD2    H5  126   1.780   4.409  13.045 -1.0109  0.8968  1.8127
    8MPD2    N1  127   1.612   3.877  13.206  0.1787 -0.3872  0.3541
    8MPD2    H7  128   1.641   3.793  13.255 -1.2668 -1.2630 -0.2833
    9TCq1    O1  129   0.231   2.500  10.135 -0.3092 -0.2354  0.2589
    9TCq1    C1  130   0.127   2.552  10.067 -0.0931 -0.0618 -0.4950
    9TCq1    O2  131   0.129   2.620   9.967 -0.0604  0.5619 -0.5622
    9TCq1    C2  132   0.034   2.570  10.179 -0.7042 -0.3715  0.0335
    9TCq1    C3  133   4.624   2.576  10.148 -0.4822  0.1133  0.2904
    9TCq1    C4  134   4.540   2.578  10.253  0.1145 -0.1473  1.2177
    9TCq1    C5  135   4.581   2.556  10.380 -0.2337  0.2121 -0.4800
    9TCq1    C6  136   4.718   2.554  10.401  0.1176 -0.1814  0.3516
    9TCq1    C7  137   0.089   2.563  10.307 -0.1340 -0.1821 -0.1126
    9TCq1    C8  138   0.042   2.523  10.535  0.1220 -0.0007 -0.2146
    9TCq1    O4  139   0.153   2.475  10.548  0.2566  0.6772 -0.1869
    9TCq1    C9  140   4.402   2.576  10.228  0.1330 -0.6680 -0.2197
    9TCq1    O5  141   4.327   2.595  10.328  0.1915 -0.2451  0.2453
    9TCq1    O6  142   4.374   2.527  10.114  0.0737 -0.1818 -0.2493
    9TCq1    H1  143   0.212   2.450  10.217  0.4047 -1.7423 -0.4889
    9TCq1    H2  144   4.592   2.588  10.045  1.7024 -0.6312 -0.4571
    9TCq1    H3  145   4.505   2.542  10.456 -0.0930  2.1246  0.0140
    9TCq1    H4  146   0.193   2.581  10.334 -0.1790 -0.0693 -0.0187
   10MPD2     C  147   0.042   2.466  10.835  0.3850 -0.1120  0.2393
   10MPD2    C1  148   4.686   2.552  10.771 -0.1076  0.1328 -0.0336
   10MPD2    C2  149   4.601   2.633  10.847 -1.0779 -0.4957 -0.0529
   10MPD2    C3  150   4.606   2.623  10.987  0.0663 -0.0323 -0.6782
   10MPD2    C4  151   4.686   2.530  11.047  0.1652 -0.5129  0.6664
   10MPD2    C5  152   0.038   2.450  10.967 -0.6922 -0.5112  0.3153
   10MPD2     H  153   4.550   2.708  10.787 -0.2915 -0.7424 -1.0250
   10MPD2    H1  154   4.701   2.519  11.154 -1.9455  0.0969  1.0234
   10MPD2    H2  155   0.105   2.401  10.774 -0.3002 -1.4720  0.9944
   10MPD2    H3  156   0.100   2.370  11.008  1.5551  1.2563  0.3631
   10MPD2     N  157   4.531   2.708  11.069  0.3932  0.2636 -0.1965
   10MPD2    H5  158   4.531   2.691  11.170 -0.6661 -0.7136 -0.3494
   10MPD2    N1  159   4.678   2.563  10.631  0.3135 -0.0030  0.3952
   10MPD2    H7  160   4.603   2.623  10.597  0.9465  0.0258 -0.9792
   11TCq1    O1  161   0.532   2.928  13.594 -0.0964 -0.4478 -0.7692
   11TCq1    C1  162   0.587   2.889  13.713  0.3128 -0.1563  0.2459
   11TCq1    O2  163   0.703   2.857  13.737 -0.4697  0.0216 -0.1708
   11TCq1    C2  164   0.488   2.912  13.816 -0.1834 -0.2801  0.0260
   11TCq1    C3  165   0.545   2.932  13.937 -0.3877  0.2299  0.2310
   11TCq1    C4  166   0.467   2.908  14.048  0.0599  0.7290  0.0210
   11TCq1    C5  167   0.333   2.884  14.039  0.5391 -0.0644  1.1335
   11TCq1    C6  168   0.280   2.864  13.921  0.0019 -0.3017  0.0200
   11TCq1    C7  169   0.356   2.873  13.808 -0.0700 -0.1283  0.3348
   11TCq1    C8  170   0.135   2.851  13.919  0.3969 -0.6548  0.3127
   11TCq1    O4  171   0.069   2.893  14.008 -0.0282  0.0813 -0.1408
   11TCq1    C9  172   0.521   2.930  14.175  0.2901 -0.3870  0.0931
   11TCq1    O5  173   0.645   2.938  14.171 -0.0065  0.2664  1.0436
   11TCq1    O6  174   0.446   2.956  14.272  0.2275 -0.0457  0.2359
   11TCq1    H1  175   0.440   2.960  13.596 -0.2626 -1.0699  1.1217
   11TCq1    H2  176   0.647   2.970  13.942  0.0183 -0.6331 -1.3774
   11TCq1    H3  177   0.279   2.859  14.130 -0.7108  0.4977  0.5447
   11TCq1    H4  178   0.310   2.859  13.711 -2.3292 -0.7109  1.4947
   12MPD2     C  179   4.575   2.815  13.830 -0.2622 -0.5061 -0.4938
   12MPD2    C1  180   4.674   2.730  13.795 -0.8353  0.0976  0.7566
   12MPD2    C2  181   4.656   2.622  13.712  0.0164 -0.9360  0.0564
   12MPD2    C3  182   4.531   2.593  13.668 -0.3942  0.3345 -1.0664
   12MPD2    C4  183   4.425   2.672  13.699 -0.1446  0.6950  0.1370
   12MPD2    C5  184   4.447   2.780  13.781 -0.1408 -1.0280  0.0827
   12MPD2     H  185   0.013   2.560  13.677  1.8012  0.0162  2.5400
   12MPD2    H1  186   4.324   2.665  13.659 -0.2072  0.5587  0.3181
   12MPD2    H2  187   4.595   2.909  13.881 -0.3176 -0.6509 -0.2059
   12MPD2    H3  188   4.374   2.856  13.801  2.0555  0.6899  1.5526
   12MPD2     N  189   4.497   2.474  13.599  0.0830  0.6841 -0.5568
   12MPD2    H5  190   4.401   2.469  13.567 -0.3124  1.4048  0.5133
   12MPD2    N1  191   0.086   2.762  13.828 -0.3049  0.4006  0.3156
   12MPD2    H7  192   0.158   2.723  13.768  1.0356  2.6295  0.4809
   13TCq1    O1  193   3.730   2.857  10.002  0.1055 -0.2538 -0.5525
   13TCq1    C1  194   3.728   2.824  10.133 -0.5641  0.4952  0.2911
   13TCq1    O2  195   3.769   2.902  10.220 -0.7360  0.0364  0.0689
   13TCq1    C2  196   3.688   2.690  10.151  0.3828 -0.3201  0.9645
   13TCq1    C3  197   3.642   2.611  10.050 -0.3529  0.0372 -0.5986
   13TCq1    C4  198   3.583   2.494  10.084 -0.1006 -0.1025 -0.3647
   13TCq1    C5  199   3.574   2.450  10.213 -0.5738 -0.3129  0.5334
   13TCq1    C6  200   3.622   2.531  10.313  0.3431 -0.0701  0.7057
   13TCq1    C7  201   3.683   2.653  10.284  0.4738  0.5005  0.3315
   13TCq1    C8  202   3.634   2.491  10.449  0.3995 -0.7407  0.1300
   13TCq1    O4  203   3.716   2.542  10.526 -0.0653 -0.0265 -0.2655
   13TCq1    C9  204   3.532   2.411   9.974  0.3648 -0.2866  0.4501
   13TCq1    O5  205   3.567   2.452   9.859  0.0108  0.1704  0.3931
   13TCq1    O6  206   3.445   2.321  10.002  0.4888 -0.4337 -0.2301
   13TCq1    H1  207   3.671   2.801   9.947  0.3994  0.0989 -1.2248
   13TCq1    H2  208   3.622   2.645   9.949  3.6755  0.2848 -1.3168
   13TCq1    H3  209   3.538   2.349  10.226  0.7533 -0.8275  0.1390
   13TCq1    H4  210   3.714   2.716  10.366  0.2360 -0.5122  1.1971
   14MPD2     C  211   3.419   2.266  10.628 -0.5436 -0.7386 -0.3458
   14MPD2    C1  212   3.497   2.373  10.613  0.0480  0.6216  0.0919
   14MPD2    C2  213   3.522   2.454  10.728 -0.2233 -0.2894 -0.6561
   14MPD2    C3  214   3.482   2.416  10.856  0.2935  0.5014 -0.1508
   14MPD2    C4  215   3.416   2.299  10.867 -0.4991  0.0696  0.0278
   14MPD2    C5  216   3.384   2.230  10.760 -0.1591  0.4824  1.1560
   14MPD2     H  217   3.578   2.546  10.710  0.7991 -0.1362  3.3680
   14MPD2    H1  218   3.381   2.257  10.961  1.2855  1.4322  1.3228
   14MPD2    H2  219   3.387   2.202  10.546 -0.9845  1.3603 -1.8143
   14MPD2    H3  220   3.321   2.143  10.770  1.8843 -0.9284  1.7437
   14MPD2     N  221   3.506   2.500  10.974  0.2139 -0.5587 -0.5907
   14MPD2    H5  222   3.551   2.589  10.960  0.1449 -0.3880  0.2824
   14MPD2    N1  223   3.530   2.405  10.477  0.5803 -0.7119 -0.3792
   14MPD2    H7  224   3.470   2.374  10.402 -0.1153  1.0372 -0.5581
   15TCq1    O1  225   1.736   1.089   0.825 -0.8757 -0.3918  0.5123
   15TCq1    C1  226   1.743   1.219   0.861  0.3656 -0.4068 -0.1165
   15TCq1    O2  227   1.747   1.267   0.972  0.0800  0.2827 -0.5426
   15TCq1    C2  228   1.663   1.274   0.752 -0.2228 -0.0164 -0.2512
   15TCq1    C3  229   1.710   1.395   0.699 -0.0950  0.2951  0.6215
   15TCq1    C4  230   1.615   1.486   0.647 -0.0928  0.8108  0.6702
   15TCq1    C5  231   1.482   1.449   0.647  0.5298 -0.4232  0.1088
   15TCq1    C6  232   1.441   1.330   0.700 -0.2088 -1.2534  0.5124
   15TCq1    C7  233   1.532   1.240   0.752 -0.1248  0.2498  0.8055
   15TCq1    C8  234   1.302   1.300   0.669  0.0331 -0.3617 -0.0206
   15TCq1    O4  235   1.219   1.391   0.682  0.6297  0.0340 -0.5686
   15TCq1    C9  236   1.652   1.613   0.586  0.8803 -0.8372  0.0007
   15TCq1    O5  237   1.575   1.666   0.501 -0.4826 -0.3396  1.0617
   15TCq1    O6  238   1.768   1.657   0.610 -0.0253 -0.0799 -0.6089
   15TCq1    H1  239   1.727   1.067   0.730 -0.9885 -0.2499  0.4893
   15TCq1    H2  240   1.815   1.421   0.709  0.2718 -2.2988  3.4122
   15TCq1    H3  241   1.418   1.520   0.596  0.3814 -0.2891  0.4779
   15TCq1    H4  242   1.497   1.141   0.777  0.6371 -0.3811 -0.6439
   16MPD2     C  243   1.053   1.185   0.571  0.4984 -0.1257  0.2187
   16MPD2    C1  244   1.170   1.119   0.561 -0.1569 -0.4706 -0.0734
   16MPD2    C2  245   1.165   0.992   0.510 -0.1566 -0.3063  0.6325
   16MPD2    C3  246   1.056   0.928   0.455 -0.0284 -0.0147  0.4284
   16MPD2    C4  247   0.941   0.999   0.462  0.9993 -0.4017 -0.4280
   16MPD2    C5  248   0.941   1.122   0.519  0.5249 -0.1285 -0.3977
   16MPD2     H  249   1.262   0.948   0.531 -1.1054 -1.7585  2.0190
   16MPD2    H1  250   0.854   0.961   0.411  0.8163  0.8209 -1.0196
   16MPD2    H2  251   1.042   1.284   0.614  1.7857 -0.1429  0.5806
   16MPD2    H3  252   0.849   1.170   0.549  1.0411  0.5766  0.0553
   16MPD2     N  253   1.070   0.800   0.395  0.2928  0.0136 -0.1489
   16MPD2    H5  254   1.162   0.763   0.415  0.9000  0.6219 -1.9045
   16MPD2    N1  255   1.292   1.171   0.611 -0.2903 -0.1965  0.4082
   16MPD2    H7  256   1.366   1.102   0.611  0.7931  0.9516 -1.2114
   17TCq1    O1  257   3.423   1.388  11.075 -0.6427  0.0574  0.4395
   17TCq1    C1  258   3.447   1.382  10.950  0.1430 -0.3815  0.0859
   17TCq1    O2  259   3.429   1.283  10.878 -0.0515  0.1607 -0.0525
   17TCq1    C2  260   3.559   1.466  10.922  0.2516 -0.1225 -0.3624
   17TCq1    C3  261   3.637   1.523  11.022 -0.3014  0.0157 -0.5256
   17TCq1    C4  262   3.740   1.605  10.981 -0.3591 -0.2632 -0.6771
   17TCq1    C5  263   3.760   1.630  10.849  0.8423 -0.1640 -0.5215
   17TCq1    C6  264   3.684   1.571  10.752  0.2739 -0.2682  0.0797
   17TCq1    C7  265   3.585   1.491  10.791  0.0239  0.0609  0.5076
   17TCq1    C8  266   3.700   1.596  10.606 -0.2397 -0.1607 -0.0232
   17TCq1    O4  267   3.631   1.532  10.526  0.3303 -0.3678 -0.1004
   17TCq1    C9  268   3.828   1.666  11.072  0.4781 -0.6360  0.7708
   17TCq1    O5  269   3.893   1.759  11.034  0.4632  0.5408  0.4497
   17TCq1    O6  270   3.808   1.644  11.189  0.1004  0.0713 -0.0120
   17TCq1    H1  271   3.412   1.480  11.105  1.6283  0.4922 -0.0472
   17TCq1    H2  272   3.628   1.509  11.129 -3.6169  3.6106 -0.3479
   17TCq1    H3  273   3.841   1.697  10.819  0.6103  0.3356 -0.0350
   17TCq1    H4  274   3.539   1.431  10.713 -0.3427  1.9712 -0.7421
   18MPD2     C  275   3.791   1.664  10.331  0.0994 -0.2034 -1.1736
   18MPD2    C1  276   3.847   1.718  10.444  0.4866 -0.0972 -0.6755
   18MPD2    C2  277   3.949   1.811  10.441  0.5746  0.0607 -0.4022
   18MPD2    C3  278   3.993   1.850  10.321 -0.0411 -0.1529 -0.4424
   18MPD2    C4  279   3.944   1.787  10.206 -0.6222 -0.8620  0.3734
   18MPD2    C5  280   3.848   1.693  10.213  0.9095 -0.5588  0.1689
   18MPD2     H  281   3.991   1.842  10.537  2.9944 -0.9527 -1.1472
   18MPD2    H1  282   3.977   1.820  10.108 -2.5343 -0.6805 -0.2078
   18MPD2    H2  283   3.710   1.592  10.330  0.2523 -0.4187  1.6052
   18MPD2    H3  284   3.823   1.628  10.130  0.3677 -0.7265  0.4619
   18MPD2     N  285   4.091   1.952  10.299 -0.6956 -0.5591  0.1445
   18MPD2    H5  286   4.111   1.973  10.202  0.1738  0.7271  0.6117
   18MPD2    N1  287   3.800   1.687  10.574 -0.1792 -0.0626 -0.3778
   18MPD2    H7  288   3.838   1.739  10.652  0.1605 -0.5289 -0.2295
   19TMC2    C1  289   0.704   2.460  13.461 -0.5523  0.0583  0.2756
   19TMC2    C2  290   0.584   2.530  13.454 -0.0120  0.3614  0.0553
   19TMC2    C3  291   0.471   2.460  13.495  0.8988 -0.1357  0.1249
   19TMC2    C4  292   0.713   2.335  13.503 -0.0569  0.0798 -0.0889
   19TMC2    C5  293   0.595   2.273  13.546 -0.2939  0.0247 -0.3360
   19TMC2    C6  294   0.471   2.331  13.540  0.2701 -0.5732 -0.0882
   19TMC2     C  295   0.822   2.539  13.437  0.0380  0.2165 -0.0290
   19TMC2     O  296   0.816   2.642  13.368  0.6814 -0.1615  0.7345
   19TMC2     H  297   0.571   2.634  13.429  0.9787 -0.3201 -3.3079
   19TMC2    H1  298   0.805   2.280  13.491 -0.6180 -0.5543 -1.5094
   19TMC2    H2  299   0.386   2.285  13.588  0.4436  0.7940  1.5138
   19TMC2    C7  300   0.598   2.134  13.595  0.0225 -0.5850 -0.1129
   19TMC2    C8  301   0.360   2.536  13.528  0.1176 -0.1674  0.7339
   19TMC2    O1  302   0.491   2.093  13.644 -0.1522 -0.3137 -0.4008
   19TMC2    O2  303   0.368   2.646  13.583 -0.0113  0.1892 -0.1233
   19TMC2    O5  304   0.272   2.512  13.428  0.3142  0.5066  0.2109
   19TMC2    H5  305   0.267   2.414  13.418  1.8228  0.4311  0.1086
   20MPD2     C  306   1.108   2.647  13.407  1.1283  0.1393 -0.2455
   20MPD2    C1  307   1.068   2.541  13.488  0.0291  0.3392  0.2256
   20MPD2    C2  308   1.161   2.481  13.568 -0.4694  0.0590  0.5517
   20MPD2    C3  309   1.286   2.538  13.585  0.5562  0.2609  0.1436
   20MPD2    C4  310   1.319   2.649  13.510 -0.1406 -0.3750  0.3385
   20MPD2    C5  311   1.232   2.695  13.412  0.4786  0.6916 -0.3666
   20MPD2     H  312   1.131   2.390  13.619  1.4405 -2.2055 -2.3582
   20MPD2    H1  313   1.416   2.695  13.519 -0.3666 -0.2413  1.9793
   20MPD2    H2  314   1.036   2.684  13.336 -0.1234  1.0247  1.4870
   20MPD2    H3  315   1.271   2.752  13.329 -1.0349  0.2847 -1.3574
   20MPD2     N  316   1.389   2.492  13.674  0.3600  0.4558 -0.0777
   20MPD2    H5  317   1.479   2.540  13.675  3.3425 -5.0421 -2.5056
   20MPD2    N1  318   0.936   2.491  13.496  0.5267 -0.0153 -0.3896
   20MPD2    H7  319   0.917   2.430  13.576  1.2020  0.5682  0.2156
   21MPD2     C  320   2.997   2.575  13.828  0.0588 -0.3429  0.3556
   21MPD2    C1  321   3.107   2.540  13.901 -0.4315 -0.0114  0.8538
   21MPD2    C2  322   3.108   2.561  14.038 -0.1240 -0.2331  0.2083
   21MPD2    C3  323   3.000   2.617  14.104 -0.0035  0.6785 -0.0256
   21MPD2    C4  324   2.895   2.655  14.027 -0.1944  0.4135 -0.7581
   21MPD2    C5  325   2.888   2.626  13.894  0.1991 -0.5742 -0.1434
   21MPD2     H  326   3.208   2.550  14.078  0.0010 -1.2206 -0.3713
   21MPD2    H1  327   2.802   2.697  14.063  0.9769  1.0275  1.5734
   21MPD2    H2  328   2.985   2.562  13.721  1.8264 -0.2606  0.1431
   21MPD2    H3  329   2.801   2.658  13.839  0.6417  0.9679  0.0628
   21MPD2     N  330   2.994   2.642  14.244  0.6810 -0.1167  0.2880
   21MPD2    H5  331   2.923   2.697  14.291  1.4552  1.8277 -0.8429
   21MPD2    N1  332   3.215   2.468  13.845 -0.9601 -0.0607  0.5577
   21MPD2    H7  333   3.282   2.413  13.898  0.3396 -0.1270 -1.1820
   22TCq2    C1  334   3.085   2.582  14.332 -0.2505  0.3816 -0.2876
   22TCq2    O2  335   3.174   2.509  14.307  0.0546 -0.7806 -0.8490
   22TCq2    C2  336   3.069   2.608  14.482  0.8632  0.3543 -0.1296
   22TCq2    C3  337   3.148   2.522  14.553  0.3378  0.7851 -0.7656
   22TCq2    C4  338   3.120   2.512  14.683  0.0688  0.1921  0.5675
   22TCq2    C5  339   3.027   2.589  14.739  1.1032 -0.2189 -0.1878
   22TCq2    C6  340   2.943   2.671  14.664  0.3030  0.0801 -0.1110
   22TCq2    C7  341   2.965   2.679  14.533 -0.9101 -0.4397 -0.2583
   22TCq2    C8  342   2.905   2.798  14.730 -0.3156  0.0020 -0.2599
   22TCq2    O4  343   2.952   2.797  14.841  0.6375  0.6575  0.3858
   22TCq2    C9  344   3.193   2.417  14.763  0.3634  0.0021  0.6805
   22TCq2    O5  345   3.166   2.405  14.886  0.0339  0.0242 -0.1915
   22TCq2    O6  346   3.283   2.348  14.709  0.2592  0.0416  0.0389
   22TCq2    H2  347   3.229   2.462  14.512 -0.5087  0.1195 -1.4693
   22TCq2    H3  348   3.012   2.593  14.847 -0.9343 -1.3794 -0.4379
   22TCq2    H4  349   2.913   2.754  14.475  1.6926 -0.1682 -2.2504
   23MPD2     C  350   0.291   3.677  14.123 -0.1387  0.0492 -0.1227
   23MPD2    C1  351   0.203   3.720  14.218 -0.0820 -0.1514 -0.0947
   23MPD2    C2  352   0.094   3.790  14.185  0.2795  0.8090 -0.3516
   23MPD2    C3  353   0.069   3.818  14.051  0.5473 -1.1213  0.1240
   23MPD2    C4  354   0.157   3.785  13.945  0.3262  0.5137 -0.0400
   23MPD2    C5  355   0.263   3.702  13.987  0.4058 -0.3876  0.1719
   23MPD2     H  356   0.019   3.821  14.257  0.9514  0.7243  0.3876
   23MPD2    H1  357   0.144   3.823  13.844 -0.7978 -1.3937 -0.6255
   23MPD2    H2  358   0.383   3.625  14.146 -0.6844 -1.1699 -0.6733
   23MPD2    H3  359   0.326   3.672  13.904 -2.7724 -4.0831 -0.9074
   23MPD2     N  360   4.680   3.894  14.005  0.4134 -0.2777  0.2038
   23MPD2    H5  361   4.647   3.872  13.911  0.0876 -1.4499  0.5890
   23MPD2    N1  362   0.225   3.699  14.355 -0.3484  0.4018 -0.4267
   23MPD2    H7  363   0.162   3.757  14.410  1.1550  3.1694 -1.6584
   24TCq2    C1  364   4.616   3.989  14.082 -0.7388  0.1180  0.5259
   24TCq2    O2  365   4.635   4.019  14.197  0.5928 -0.1478 -0.2415
   24TCq2    C2  366   4.530   4.072  14.001 -0.4543  0.2834  0.5909
   24TCq2    C3  367   4.515   4.206  14.045  0.5046  0.5024 -0.5662
   24TCq2    C4  368   4.438   4.294  13.973  0.4951  0.0613 -0.5377
   24TCq2    C5  369   4.366   4.247  13.866 -0.5281  0.3058  0.3356
   24TCq2    C6  370   4.377   4.113  13.825  0.6346  0.1859  0.8335
   24TCq2    C7  371   4.467   4.029  13.889  0.3235  0.1740 -0.0172
   24TCq2    C8  372   4.272   4.051  13.751 -0.1486  0.1785 -0.3000
   24TCq2    O4  373   4.289   3.942  13.700  0.1843 -0.4390 -0.3326
   24TCq2    C9  374   4.431   4.434  14.006  0.8015 -0.3187 -0.1916
   24TCq2    O5  375   4.370   4.510  13.927 -0.0447 -0.2335  0.3902
   24TCq2    O6  376   4.479   4.470  14.120  0.2491  0.1490  0.3693
   24TCq2    H2  377   4.570   4.247  14.129 -1.4329 -1.4053  1.6259
   24TCq2    H3  378   4.306   4.308  13.800  0.4244  0.2310 -0.5993
   24TCq2    H4  379   4.482   3.929  13.849  0.7315  0.5511 -0.8166
   25TMC2    C1  380   3.635   1.343  11.337  0.0505 -0.0619 -0.3301
   25TMC2    C2  381   3.717   1.451  11.375 -0.9094 -0.5304  0.0692
   25TMC2    C3  382   3.670   1.522  11.485 -0.0880  0.3095 -0.5444
   25TMC2    C4  383   3.506   1.326  11.379 -0.0205 -1.0007  0.2209
   25TMC2    C5  384   3.461   1.418  11.476  0.1476 -0.1365  0.1159
   25TMC2    C6  385   3.543   1.508  11.535  0.8420  1.0515 -0.6143
   25TMC2     C  386   3.710   1.226  11.289  0.8380  0.5493  0.3072
   25TMC2     O  387   3.828   1.231  11.311 -0.6096 -0.2039  0.0138
   25TMC2     H  388   3.820   1.467  11.346 -1.4379  1.8070 -0.4829
   25TMC2    H1  389   3.450   1.236  11.355  1.0128 -1.8711  1.1398
   25TMC2    H2  390   3.505   1.574  11.611  0.2568 -2.9675  2.5963
   25TMC2    C7  391   3.329   1.402  11.544  0.1722 -0.1026 -0.5026
   25TMC2    C8  392   3.761   1.622  11.544  0.1232  0.4739  1.1215
   25TMC2    O1  393   3.319   1.457  11.649 -0.2718  0.6074 -0.3055
   25TMC2    O2  394   3.739   1.669  11.658 -0.0498  0.3209  0.4257
   25TMC2    O5  395   3.789   1.698  11.437 -0.1313 -0.4367 -0.6644
   25TMC2    H5  396   3.783   1.654  11.349 -2.9543 -0.7907 -0.2754
   26MPD2     C  397   3.751   0.789  11.042  0.3916  0.0961 -0.6397
   26MPD2    C1  398   3.622   0.792  11.092  0.1977  0.0491 -0.0133
   26MPD2    C2  399   3.587   0.901  11.172 -0.2395 -0.3581  0.6420
   26MPD2    C3  400   3.677   1.005  11.186 -0.4896 -0.9546 -0.3235
   26MPD2    C4  401   3.800   1.003  11.133 -0.3042  0.6600 -0.0924
   26MPD2    C5  402   3.837   0.889  11.066 -0.1872 -0.2757 -0.1312
   26MPD2     H  403   3.490   0.907  11.221 -0.2276 -2.1076  0.8918
   26MPD2    H1  404   3.870   1.086  11.124 -0.2489  0.6502  0.2403
   26MPD2    H2  405   3.786   0.708  10.980 -0.8863  2.1738 -4.0456
   26MPD2    H3  406   3.941   0.888  11.033  0.6937  1.0824  2.6580
   26MPD2     N  407   3.629   1.121  11.250  0.1791 -0.1204 -0.2379
   26MPD2    H5  408   3.529   1.130  11.266  0.1138  1.6637 -1.7901
   26MPD2    N1  409   3.533   0.685  11.063 -0.5963  0.3734 -0.0875
   26MPD2    H7  410   3.565   0.610  11.002  3.0521  1.4748  0.4911
   27TMC2    C1  411   2.138   3.199  12.081  0.9414 -0.9705 -0.2758
   27TMC2    C2  412   2.239   3.271  12.031  0.8670 -0.1072  0.2602
   27TMC2    C3  413   2.208   3.337  11.915  1.0109  0.4212  0.5712
   27TMC2    C4  414   2.014   3.187  12.030  0.2526 -0.6778 -0.2815
   27TMC2    C5  415   1.984   3.268  11.929 -0.1228  0.5014  0.0797
   27TMC2    C6  416   2.085   3.340  11.860  1.0590  0.1935  1.0824
   27TMC2     C  417   2.150   3.185  12.224 -0.4526 -0.6293 -0.6208
   27TMC2     O  418   2.254   3.158  12.277 -0.3214  0.5423  0.0986
   27TMC2     H  419   2.336   3.273  12.079  1.3875 -1.2004 -0.7606
   27TMC2    H1  420   1.937   3.131  12.081  0.0470 -0.2784 -0.1539
   27TMC2    H2  421   2.069   3.375  11.758 -1.7908 -0.4630  1.3200
   27TMC2    C7  422   1.874   3.355  11.968  0.0814  0.6755  0.7696
   27TMC2    C8  423   2.310   3.365  11.816  0.6811 -0.1620  0.1161
   27TMC2    O1  424   1.807   3.314  12.060 -0.0751  0.3068  0.2805
   27TMC2    O2  425   2.311   3.449  11.725  0.1531  0.0530  0.1177
   27TMC2    O5  426   2.409   3.280  11.850  0.2120  0.0026 -0.6134
   27TMC2    H5  427   2.384   3.206  11.909  0.9265  0.0364 -0.2589
   28MPD2     C  428   1.955   3.179  12.699  0.2915  0.8744 -0.1923
   28MPD2    C1  429   1.857   3.235  12.612  0.7581 -0.1049  0.6119
   28MPD2    C2  430   1.883   3.240  12.475  0.6626  0.1803  0.3878
   28MPD2    C3  431   2.006   3.206  12.431 -0.8653 -0.7274 -0.2816
   28MPD2    C4  432   2.098   3.147  12.517  0.3416  0.0089  0.4021
   28MPD2    C5  433   2.074   3.125  12.653  0.1473 -0.0019  0.1360
   28MPD2     H  434   1.809   3.269  12.401 -1.5011 -2.8235  1.3505
   28MPD2    H1  435   2.195   3.108  12.486 -0.2625 -0.9608 -0.2546
   28MPD2    H2  436   1.933   3.184  12.805  0.7571  3.5411 -0.2196
   28MPD2    H3  437   2.154   3.078  12.710 -0.2735 -0.3759  0.4282
   28MPD2     N  438   2.029   3.219  12.291  0.5257 -0.0602 -0.0537
   28MPD2    H5  439   1.952   3.262  12.242  0.6005  0.7343  0.5230
   28MPD2    N1  440   1.744   3.283  12.661 -0.3029 -0.9377 -0.0042
   28MPD2    H7  441   1.715   3.254  12.754  0.1065  0.0168  0.4258
   29MPD2     C  442   1.888   0.639  13.898 -0.5834 -0.0699  0.3293
   29MPD2    C1  443   1.973   0.616  13.997 -0.4463 -0.0201 -0.2288
   29MPD2    C2  444   1.967   0.698  14.111  0.6453 -0.4528  0.3895
   29MPD2    C3  445   1.872   0.796  14.126  0.1803  0.6153  0.3007
   29MPD2    C4  446   1.791   0.824  14.020  0.3103 -0.5922 -0.2216
   29MPD2    C5  447   1.797   0.744  13.906  0.8489  0.1364 -0.1353
   29MPD2     H  448   2.056   0.687  14.173  1.6528 -0.7569 -1.1200
   29MPD2    H1  449   1.719   0.905  14.021  1.1657  0.1560  0.6877
   29MPD2    H2  450   1.902   0.584  13.805  0.4223  2.2763 -0.9152
   29MPD2    H3  451   1.732   0.767  13.823  1.0654 -3.1842 -1.2102
   29MPD2     N  452   1.874   0.879  14.237 -0.0996  0.0380 -0.4694
   29MPD2    H5  453   1.832   0.972  14.231 -0.4904 -0.2099 -1.5816
   29MPD2    N1  454   2.073   0.517  14.000 -0.2192  0.0778 -0.3860
   29MPD2    H7  455   2.143   0.534  14.072  0.5062  0.4900 -1.1982
   30TCq2    C1  456   1.929   0.839  14.360 -0.4493  0.7771 -1.0498
   30TCq2    O2  457   1.962   0.723  14.389 -0.6696  0.1712  0.2623
   30TCq2    C2  458   1.936   0.951  14.448  0.0854  0.0059 -0.7370
   30TCq2    C3  459   1.959   0.926  14.584 -0.3650  0.6320  0.2677
   30TCq2    C4  460   1.958   1.031  14.672 -0.3377  0.0274  0.1259
   30TCq2    C5  461   1.943   1.164  14.635  0.3973  0.3482 -0.7858
   30TCq2    C6  462   1.932   1.184  14.497 -0.1087 -0.6695 -0.6725
   30TCq2    C7  463   1.927   1.086  14.406 -0.1687 -0.0410  0.4329
   30TCq2    C8  464   1.907   1.318  14.450  0.8945 -0.5218 -0.0893
   30TCq2    O4  465   1.843   1.332  14.347  0.2253 -0.2408 -0.1092
   30TCq2    C9  466   1.987   1.005  14.808  0.1010 -0.2151  0.5437
   30TCq2    O5  467   1.942   0.900  14.861 -0.1370 -0.5330  0.7920
   30TCq2    O6  468   2.057   1.093  14.870 -0.1602 -0.8089 -0.5630
   30TCq2    H2  469   1.982   0.828  14.624 -1.1299  0.2418 -0.2320
   30TCq2    H3  470   1.944   1.239  14.713  2.2404  0.0804 -0.5480
   30TCq2    H4  471   1.931   1.119  14.303  0.0055  1.6747  0.9911
   31MPD2     C  472   4.450   0.445  14.748 -0.1431 -0.6177 -0.5181
   31MPD2    C1  473   4.362   0.386  14.653  0.3282  0.2162 -0.4223
   31MPD2    C2  474   4.271   0.283  14.687  1.2100  0.4331  0.2754
   31MPD2    C3  475   4.283   0.229  14.823 -0.3868  0.0825  0.8770
   31MPD2    C4  476   4.377   0.279  14.907  0.8440 -0.8603 -0.6855
   31MPD2    C5  477   4.456   0.385  14.872 -0.2501  0.4103  0.1139
   31MPD2     H  478   4.206   0.243  14.611 -1.7058  3.0715  1.3552
   31MPD2    H1  479   4.382   0.247  15.011  3.2157 -0.4695 -0.6786
   31MPD2    H2  480   4.517   0.528  14.730  0.5907 -0.9526  0.6843
   31MPD2    H3  481   4.520   0.414  14.954 -0.2892  0.5796  0.0838
   31MPD2     N  482   4.202   0.123  14.867 -0.2539 -0.2884  0.7680
   31MPD2    H5  483   4.211   0.096  14.965 -1.7395  1.6151  1.4161
   31MPD2    N1  484   4.362   0.437  14.523 -0.0670  0.2936 -0.2901
   31MPD2    H7  485   4.448   0.486  14.500  2.0492 -3.7665 -1.0466
   32TCq2    C1  486   4.112   0.045  14.792 -0.0480  0.6934 -0.5742
   32TCq2    O2  487   4.100   0.040  14.671  0.1005 -0.2188  0.0898
   32TCq2    C2  488   4.061   4.658  14.869  0.4197 -0.4889 -0.2179
   32TCq2    C3  489   3.959   4.595  14.812 -0.3957 -0.1020  0.5701
   32TCq2    C4  490   3.920   4.475  14.862  0.0267  0.9655 -0.2264
   32TCq2    C5  491   3.997   4.414  14.959  0.1443 -0.2778 -0.9598
   32TCq2    C6  492   4.098   4.482  15.017 -0.0858 -0.6521  0.5582
   32TCq2    C7  493   4.133   4.608  14.973  0.5052  0.0380 -0.3184
   32TCq2    C8  494   4.165   4.434  15.141 -0.4186  0.5406 -0.3728
   32TCq2    O4  495   4.155   4.314  15.158 -0.4161 -0.5999  0.7003
   32TCq2    C9  496   3.807   4.405  14.804  0.0265 -0.9388 -0.7979
   32TCq2    O5  497   3.791   4.292  14.854 -0.2551 -0.4198  0.6091
   32TCq2    O6  498   3.778   4.447  14.688  0.2014 -0.3474  0.1063
   32TCq2    H2  499   3.897   4.642  14.736  0.4170  0.2022  0.0995
   32TCq2    H3  500   3.974   4.317  15.002  3.4081  0.7181  3.0301
   32TCq2    H4  501   4.230   4.650  15.000  0.8937 -0.0236 -1.6127
   33MPD2     C  502   0.078   2.255   9.934 -0.4479 -0.0748  0.0954
   33MPD2    C1  503   4.662   2.251   9.924 -0.6141  0.0924  0.9488
   33MPD2    C2  504   4.594   2.317   9.816  0.4182  0.5863  0.4642
   33MPD2    C3  505   4.671   2.401   9.731 -0.3323 -0.1727  0.0352
   33MPD2    C4  506   0.085   2.397   9.738 -0.6117  0.7144  0.3696
   33MPD2    C5  507   0.149   2.323   9.839  0.0703 -0.4306 -0.6468
   33MPD2     H  508   4.486   2.315   9.812  0.3991 -0.2663  1.6516
   33MPD2    H1  509   0.137   2.464   9.670 -0.6327  1.7371  1.3564
   33MPD2    H2  510   0.140   2.205  10.008  0.6223  0.2643 -0.5834
   33MPD2    H3  511   0.257   2.320   9.841  0.0932  1.5649  0.5132
   33MPD2     N  512   4.606   2.483   9.640  0.1421  0.3682 -0.4244
   33MPD2    H5  513   4.660   2.544   9.579  0.3755  1.7051  1.1250
   33MPD2    N1  514   4.588   2.207  10.033 -0.3623  0.0500 -0.1577
   33MPD2    H7  515   4.644   2.193  10.116 -0.8016 -1.0005 -0.0490
   34TCq2    C1  516   4.475   2.473   9.598  0.5089  0.3139 -0.4011
   34TCq2    O2  517   4.394   2.383   9.613 -0.1014  0.2651  0.4926
   34TCq2    C2  518   4.449   2.587   9.512  0.0719 -0.4716  0.1154
   34TCq2    C3  519   4.354   2.580   9.418 -0.1396  0.4128 -0.2136
   34TCq2    C4  520   4.353   2.685   9.326  0.1426 -0.4629  0.0015
   34TCq2    C5  521   4.425   2.799   9.336  0.1311  0.1874  0.4137
   34TCq2    C6  522   4.502   2.808   9.450 -0.5200 -0.2658 -0.8918
   34TCq2    C7  523   4.518   2.701   9.531 -0.0897 -0.1219 -0.0999
   34TCq2    C8  524   4.607   2.906   9.460  0.4700 -0.1532  0.6838
   34TCq2    O4  525   4.714   2.870   9.511 -0.0019  0.3923 -0.0345
   34TCq2    C9  526   4.280   2.677   9.200  0.4450 -0.1828 -0.1742
   34TCq2    O5  527   4.249   2.564   9.153 -0.1340 -0.3154  0.4583
   34TCq2    O6  528   4.272   2.782   9.138 -0.1820  0.4376  0.3445
   34TCq2    H2  529   4.299   2.491   9.392  1.6316 -1.2069  1.5765
   34TCq2    H3  530   4.439   2.868   9.254 -0.6634  0.7504  0.7525
   34TCq2    H4  531   4.571   2.720   9.623 -0.9055 -1.4083  0.6299
   35MPD2     C  532   1.556   4.037  11.917  0.4800  0.1845 -0.4931
   35MPD2    C1  533   1.525   3.902  11.907  0.2611  0.1141  0.4961
   35MPD2    C2  534   1.460   3.857  11.786  0.2569 -0.8042  0.1094
   35MPD2    C3  535   1.442   3.939  11.677 -0.6998 -0.0356 -0.1144
   35MPD2    C4  536   1.472   4.072  11.694 -0.3199  0.1966  0.2805
   35MPD2    C5  537   1.526   4.117  11.810  0.1507  0.2190  0.1814
   35MPD2     H  538   1.411   3.760  11.790 -0.9461 -0.1979  0.2277
   35MPD2    H1  539   1.460   4.141  11.611 -1.7108 -0.1908  0.1538
   35MPD2    H2  540   1.589   4.081  12.010  0.8512 -1.8087  0.2971
   35MPD2    H3  541   1.545   4.224  11.814 -1.7542  0.5455  0.5575
   35MPD2     N  542   1.389   3.889  11.561  0.3736 -0.3287 -0.1203
   35MPD2    H5  543   1.368   3.790  11.565  0.2930 -0.3663 -1.7808
   35MPD2    N1  544   1.524   3.826  12.025 -0.4641 -0.2383 -0.4684
   35MPD2    H7  545   1.535   3.881  12.110 -0.7677  0.1600 -0.6908
   36TCq2    C1  546   1.389   3.949  11.439 -0.1392 -0.3462 -1.1581
   36TCq2    O2  547   1.437   4.059  11.408  0.3649 -0.0369  0.3418
   36TCq2    C2  548   1.327   3.866  11.339  0.2129 -0.1597  0.6116
   36TCq2    C3  549   1.351   3.903  11.210 -0.0436  0.0830 -0.3418
   36TCq2    C4  550   1.299   3.834  11.106  0.0329  0.0602 -0.4121
   36TCq2    C5  551   1.233   3.720  11.123 -0.1421 -0.0749  0.3556
   36TCq2    C6  552   1.223   3.678  11.252  0.2048  0.4617  0.6732
   36TCq2    C7  553   1.264   3.745  11.361 -0.2486  0.5646 -0.2347
   36TCq2    C8  554   1.179   3.537  11.275 -0.1943  0.2242 -0.3827
   36TCq2    O4  555   1.080   3.514  11.347  0.1133  0.2813  0.0470
   36TCq2    C9  556   1.328   3.880  10.978  0.1592 -0.0958 -0.8222
   36TCq2    O5  557   1.317   3.798  10.884  0.2026  0.0457  0.1735
   36TCq2    O6  558   1.385   3.991  10.966 -0.5212 -0.0726 -0.2402
   36TCq2    H2  559   1.415   3.987  11.187 -0.6395  0.5372 -0.3299
   36TCq2    H3  560   1.203   3.661  11.037  0.2045  0.2448  0.0150
   36TCq2    H4  561   1.253   3.711  11.463  0.9885  1.4279  0.1805
   37TMC2    C1  562   3.360   3.774  11.478  0.6456 -0.3704 -0.0184
   37TMC2    C2  563   3.387   3.710  11.363  0.8836 -0.0522 -0.1762
   37TMC2    C3  564   3.507   3.726  11.307  0.5116 -0.6065  0.2339
   37TMC2    C4  565   3.445   3.867  11.535 -0.3814  0.1670 -0.2108
   37TMC2    C5  566   3.567   3.881  11.465 -0.6888  0.1083  0.4853
   37TMC2    C6  567   3.598   3.812  11.350  0.7735  0.3748 -0.1716
   37TMC2     C  568   3.282   3.717  11.586 -0.4050 -0.0526  0.6106
   37TMC2     O  569   3.196   3.642  11.547 -0.2030 -0.0597  0.4942
   37TMC2     H  570   3.314   3.636  11.333  1.8297 -0.7257 -0.8030
   37TMC2    H1  571   3.405   3.945  11.599 -0.1356  0.8621 -0.9029
   37TMC2    H2  572   3.687   3.838  11.294  1.2504  2.1720  1.4073
   37TMC2    C7  573   3.671   3.909  11.561 -0.2971  0.2687 -0.3248
   37TMC2    C8  574   3.544   3.628  11.205  0.2223 -0.2238 -0.3482
   37TMC2    O1  575   3.642   3.926  11.677 -1.1413 -0.1593  0.0819
   37TMC2    O2  576   3.460   3.553  11.156 -0.0478 -0.4627 -0.0339
   37TMC2    O5  577   3.679   3.615  11.192  0.0347 -0.4078 -0.2640
   37TMC2    H5  578   3.711   3.659  11.274 -1.3093 -0.3302  0.2164
   38MPD2     C  579   3.135   3.661  12.059  0.2156  0.3826  0.0640
   38MPD2    C1  580   3.269   3.684  12.068 -0.6275 -0.0636 -0.2242
   38MPD2    C2  581   3.332   3.716  11.949 -0.6745  0.0547  0.4856
   38MPD2    C3  582   3.263   3.720  11.829 -0.2881 -0.2528 -0.1615
   38MPD2    C4  583   3.130   3.697  11.825 -0.5733 -0.8863  0.2888
   38MPD2    C5  584   3.067   3.665  11.942 -0.1519  0.6332  0.7531
   38MPD2     H  585   3.437   3.744  11.952 -0.8185  0.6809 -0.4821
   38MPD2    H1  586   3.070   3.734  11.742 -0.3683 -0.1022  0.4872
   38MPD2    H2  587   3.075   3.624  12.141 -0.7092  0.6615 -0.4905
   38MPD2    H3  588   2.961   3.644  11.939  0.2857 -1.2036 -1.8638
   38MPD2     N  589   3.334   3.745  11.707 -0.2338 -0.5200  0.1643
   38MPD2    H5  590   3.425   3.789  11.710  0.8011 -2.5079 -1.8954
   38MPD2    N1  591   3.339   3.672  12.188 -0.2188  0.6254 -0.5419
   38MPD2    H7  592   3.439   3.678  12.177 -0.1514  1.6110  0.5535
   39MPD2     C  593   1.613   0.736   1.219  0.4291 -0.0445  0.6207
   39MPD2    C1  594   1.578   0.628   1.297  0.4212 -0.3355 -0.2460
   39MPD2    C2  595   1.440   0.601   1.308 -0.0071 -0.0721  0.1175
   39MPD2    C3  596   1.348   0.677   1.238 -0.0344  0.0820 -0.3614
   39MPD2    C4  597   1.391   0.787   1.163 -0.2199  0.4516  0.3180
   39MPD2    C5  598   1.525   0.815   1.155  0.5030 -0.4658  0.3527
   39MPD2     H  599   1.402   0.521   1.370  2.0669 -0.2102  1.2225
   39MPD2    H1  600   1.330   0.851   1.100  0.3409 -1.5534 -2.2768
   39MPD2    H2  601   1.717   0.757   1.197  0.8486 -0.8063  1.8659
   39MPD2    H3  602   1.567   0.894   1.094  0.0096  1.8211  2.9758
   39MPD2     N  603   1.211   0.654   1.244 -0.8614 -0.1264 -0.0444
   39MPD2    H5  604   1.155   0.718   1.188  0.0115  1.4004  0.8057
   39MPD2    N1  605   1.687   0.541   1.335  0.0340  0.8690 -0.1194
   39MPD2    H7  606   1.778   0.561   1.296 -0.5687  1.3938 -1.2697
   40TCq2    C1  607   1.675   0.431   1.413  0.6229 -0.1684  0.3068
   40TCq2    O2  608   1.582   0.386   1.480 -0.6593 -0.9364 -0.4830
   40TCq2    C2  609   1.806   0.362   1.416 -0.1442  0.0495  1.5008
   40TCq2    C3  610   1.844   0.305   1.530 -0.7586  1.0305  0.3546
   40TCq2    C4  611   1.966   0.244   1.539 -0.3794 -0.1150 -0.4717
   40TCq2    C5  612   2.046   0.251   1.429  0.4341  0.1919  0.2495
   40TCq2    C6  613   1.993   0.303   1.310  0.8892  0.0061  0.3040
   40TCq2    C7  614   1.865   0.359   1.297  0.0493  0.0216  0.0901
   40TCq2    C8  615   2.084   0.312   1.201  0.1853 -0.5405 -0.6102
   40TCq2    O4  616   2.180   0.235   1.199  0.5418 -0.0650 -0.0039
   40TCq2    C9  617   2.020   0.207   1.669  0.3832  0.5127 -0.1729
   40TCq2    O5  618   2.144   0.181   1.677  0.1682  0.0257 -0.8678
   40TCq2    O6  619   1.940   0.197   1.767  0.1199  0.1185 -0.8448
   40TCq2    H2  620   1.784   0.304   1.620  0.4955  1.7066  1.1938
   40TCq2    H3  621   2.140   0.198   1.436 -0.6447 -1.6175  1.1722
   40TCq2    H4  622   1.832   0.410   1.207  0.1999  1.3157  0.7712
   41TMC2    C1  623   0.698   3.797  13.508 -0.5196  0.3424  0.2986
   41TMC2    C2  624   0.724   3.929  13.544 -0.2465 -0.1468  0.0950
   41TMC2    C3  625   0.712   4.024  13.443  0.6941  0.7717 -0.1679
   41TMC2    C4  626   0.671   3.755  13.381 -0.2714  0.1912 -0.3665
   41TMC2    C5  627   0.653   3.856  13.289 -0.0331  0.3058 -0.2601
   41TMC2    C6  628   0.672   3.992  13.318 -0.6871  0.0734  0.1979
   41TMC2     C  629   0.710   3.690  13.603 -0.5898  0.7506 -0.4010
   41TMC2     O  630   0.744   3.580  13.558 -0.1287 -0.1370 -0.8219
   41TMC2     H  631   0.760   3.948  13.644  1.2351 -0.1142 -0.4505
   41TMC2    H1  632   0.638   3.654  13.361  0.6150 -0.2860  0.5881
   41TMC2    H2  633   0.642   4.065  13.243  0.7532 -0.8062 -1.2419
   41TMC2    C7  634   0.582   3.831  13.166 -0.5626  0.1604 -0.4438
   41TMC2    C8  635   0.804   4.132  13.455 -0.3237  0.3099 -0.6999
   41TMC2    O1  636   0.481   3.902  13.156  0.3661 -0.2900  0.2413
   41TMC2    O2  637   0.838   4.157  13.569 -0.4939 -0.2033 -0.5242
   41TMC2    O5  638   0.886   4.133  13.347 -0.3872  0.6466 -0.1661
   41TMC2    H5  639   0.840   4.122  13.261 -0.3167 -0.0112 -0.1156
   42MPD2     C  640   0.811   3.570  13.852  0.6615 -0.6550  0.0225
   42MPD2    C1  641   0.729   3.674  13.851 -0.2301  1.0872  0.7853
   42MPD2    C2  642   0.690   3.734  13.969  0.9334  0.1740  0.0459
   42MPD2    C3  643   0.717   3.689  14.095 -0.4448  0.1563 -0.4309
   42MPD2    C4  644   0.807   3.583  14.099 -0.3332  0.1383  0.0502
   42MPD2    C5  645   0.843   3.524  13.975  0.1669 -0.2295  0.6120
   42MPD2     H  646   0.616   3.812  13.956 -0.2415 -1.0110 -0.4138
   42MPD2    H1  647   0.856   3.551  14.190 -0.2830  0.2850  0.0747
   42MPD2    H2  648   0.849   3.527  13.760 -0.5039 -0.2047 -0.6620
   42MPD2    H3  649   0.913   3.443  13.993  2.8955  2.1197  0.6908
   42MPD2     N  650   0.670   3.743  14.219 -0.4751 -0.3029 -0.0542
   42MPD2    H5  651   0.706   3.707  14.306  0.4104  2.4280  0.6988
   42MPD2    N1  652   0.686   3.734  13.729 -0.0321 -0.5302  0.0065
   42MPD2    H7  653   0.626   3.816  13.728  0.5405 -0.1286 -1.2703
   43MPD2     C  654   2.221   2.068   0.447  0.1411  0.4192 -0.0000
   43MPD2    C1  655   2.195   1.939   0.476  0.3399 -0.1881  1.2769
   43MPD2    C2  656   2.204   1.892   0.603  0.5655  0.1740  0.8703
   43MPD2    C3  657   2.259   1.965   0.700 -0.0448 -1.2754  0.7206
   43MPD2    C4  658   2.299   2.097   0.672 -0.1273  0.3790  0.2422
   43MPD2    C5  659   2.282   2.145   0.546 -0.3559  0.3380 -1.0459
   43MPD2     H  660   2.176   1.789   0.623 -0.9049  0.5680  0.7769
   43MPD2    H1  661   2.335   2.165   0.748  0.3672 -0.7323  1.0017
   43MPD2    H2  662   2.202   2.119   0.354 -2.0262  0.8240  0.6606
   43MPD2    H3  663   2.313   2.245   0.516  1.3567 -0.1486 -0.8954
   43MPD2     N  664   2.277   1.921   0.829  0.2627  0.2093  0.0590
   43MPD2    H5  665   2.285   1.993   0.900  2.1092  0.0860 -0.0124
   43MPD2    N1  666   2.124   1.848   0.387  0.4454 -0.2369 -0.1237
   43MPD2    H7  667   2.086   1.764   0.429  2.1891 -1.1072 -0.2703
   44TCq2    C1  668   2.394   1.961   1.321  0.5698 -0.8201  0.3032
   44TCq2    O2  669   2.505   1.996   1.279 -0.0062 -0.1618 -0.6149
   44TCq2    C2  670   2.315   1.867   1.245  0.0456 -0.4847  0.3799
   44TCq2    C3  671   2.236   1.773   1.300 -0.0771 -0.0390 -0.4626
   44TCq2    C4  672   2.165   1.684   1.223  0.4479  0.0921  0.4195
   44TCq2    C5  673   2.187   1.691   1.089 -0.2413  0.1878  0.0294
   44TCq2    C6  674   2.265   1.784   1.023  0.2248 -0.8570 -0.5976
   44TCq2    C7  675   2.324   1.878   1.104 -0.0036 -0.1437  0.7227
   44TCq2    C8  676   2.267   1.793   0.877 -0.1055  0.4265  0.1250
   44TCq2    O4  677   2.231   1.687   0.820 -0.2506  0.6157  0.2808
   44TCq2    C9  678   2.097   1.573   1.279 -0.4869  0.0584  0.5233
   44TCq2    O5  679   2.054   1.485   1.200 -0.0045 -1.0123 -0.6595
   44TCq2    O6  680   2.095   1.564   1.406  0.3357 -0.8608  0.1116
   44TCq2    H2  681   2.236   1.754   1.407  1.1092 -0.6997 -0.5811
   44TCq2    H3  682   2.155   1.615   1.020 -0.4050 -0.4405  0.7916
   44TCq2    H4  683   2.403   1.938   1.061  0.7723 -0.6251  1.4646
   45TMC2    C1  684   2.347   4.359   9.363 -0.0459  0.4665  0.1258
   45TMC2    C2  685   2.263   4.422   9.269 -0.0815 -0.4311  0.5524
   45TMC2    C3  686   2.287   4.548   9.224 -0.1499 -0.7502  0.0047
   45TMC2    C4  687   2.467   4.418   9.402  0.6729 -0.0230 -0.2498
   45TMC2    C5  688   2.492   4.539   9.349  0.9807 -0.3297  0.1460
   45TMC2    C6  689   2.405   4.608   9.263  0.5661 -0.5499  0.1744
   45TMC2     C  690   2.322   4.229   9.424  0.5730 -0.2416  0.3780
   45TMC2     O  691   2.389   4.209   9.526 -0.5866  0.2666  0.3839
   45TMC2     H  692   2.165   4.384   9.244 -0.1750  0.7174 -0.8272
   45TMC2    H1  693   2.539   4.371   9.468 -0.6116 -0.1699  1.0517
   45TMC2    H2  694   2.441   4.696   9.211  1.3001 -1.2607 -0.5296
   45TMC2    C7  695   2.618   4.598   9.384 -0.1243  0.7477 -0.3269
   45TMC2    C8  696   2.219   4.599   9.111  0.2523 -0.9180  0.4724
   45TMC2    O1  697   2.667   4.560   9.492  0.2470  0.4951 -0.3640
   45TMC2    O2  698   2.133   4.530   9.059 -0.0575 -0.1587  0.3712
   45TMC2    O5  699   2.223   0.010   9.116 -0.7827 -0.5088  0.0089
   45TMC2    H5  700   2.272   0.050   9.190  0.3490 -0.9453 -0.5074
   46MPD2     C  701   2.294   3.948   9.456 -0.2157 -0.2921 -0.1188
   46MPD2    C1  702   2.193   4.028   9.411  0.9602 -0.5231 -0.5225
   46MPD2    C2  703   2.073   3.966   9.372  0.2940  0.2794  0.0818
   46MPD2    C3  704   2.058   3.828   9.380 -0.4590  0.2750  0.8445
   46MPD2    C4  705   2.159   3.747   9.426  0.3931  0.1604 -0.0840
   46MPD2    C5  706   2.273   3.815   9.464  0.5314 -0.0651  0.1448
   46MPD2     H  707   1.996   4.034   9.336  1.3498  1.4439  0.0140
   46MPD2    H1  708   2.145   3.641   9.448  2.8028 -0.5762 -2.0405
   46MPD2    H2  709   2.391   3.981   9.489 -0.9216  0.7063  0.9515
   46MPD2    H3  710   2.357   3.761   9.506  0.6449 -0.0477 -0.0568
   46MPD2     N  711   1.934   3.775   9.334 -0.1389  0.3753 -0.4882
   46MPD2    H5  712   1.868   3.844   9.302  0.2172  0.8711 -0.1551
   46MPD2    N1  713   2.216   4.166   9.378  0.1178 -0.1399 -0.0487
   46MPD2    H7  714   2.158   4.199   9.302  0.0626  2.3358  1.0599
   47TMC2    C1  715   0.738   3.754   9.073 -0.5437  0.2088  0.2028
   47TMC2    C2  716   0.768   3.685   9.182 -0.5464 -0.2307  0.2562
   47TMC2    C3  717   0.712   3.562   9.178 -0.2374  0.5205 -0.2802
   47TMC2    C4  718   0.677   3.704   8.957  0.1800 -0.1316  0.1482
   47TMC2    C5  719   0.612   3.588   8.967  0.5589  0.4472  0.3906
   47TMC2    C6  720   0.621   3.518   9.085  0.5886 -0.1868 -0.3954
   47TMC2     C  721   0.788   3.883   9.052 -0.7926 -1.2498 -0.2185
   47TMC2     O  722   0.818   3.917   8.935  0.6422  0.0918 -0.4555
   47TMC2     H  723   0.853   3.708   9.245 -0.4118  1.8937 -0.7070
   47TMC2    H1  724   0.646   3.765   8.873 -0.3607 -1.3892 -0.5608
   47TMC2    H2  725   0.566   3.426   9.105 -0.6309  0.7557  0.5960
   47TMC2    C7  726   0.498   3.557   8.880 -0.1974  0.0528  0.5163
   47TMC2    C8  727   0.742   3.461   9.279  0.4182 -0.0174 -0.6812
   47TMC2    O1  728   0.443   3.642   8.810 -0.4015 -0.2034 -0.1498
   47TMC2    O2  729   0.775   3.496   9.391 -0.5801  0.3038 -0.5767
   47TMC2    O5  730   0.783   3.348   9.216 -0.1022  0.3146 -0.4981
   47TMC2    H5  731   0.755   3.357   9.123 -1.3787  0.9975 -0.0436
   48MPD2     C  732   0.854   4.159   9.081  0.5449 -0.1442 -0.2155
   48MPD2    C1  733   0.846   4.069   9.185 -0.0706 -0.8580 -0.4768
   48MPD2    C2  734   0.869   4.110   9.313 -0.1021  0.4344 -0.5515
   48MPD2    C3  735   0.897   4.244   9.342  0.0812 -0.5483 -0.7039
   48MPD2    C4  736   0.911   4.333   9.234  0.1827 -0.0597  0.0860
   48MPD2    C5  737   0.891   4.289   9.108  0.7059 -0.0117  0.1087
   48MPD2     H  738   0.861   4.034   9.390  0.2671  0.3408 -0.6053
   48MPD2    H1  739   0.933   4.439   9.243  0.7455 -0.3326  1.7798
   48MPD2    H2  740   0.831   4.140   8.977 -0.1789  1.3937 -0.3336
   48MPD2    H3  741   0.889   4.360   9.027 -0.8799 -2.2042 -1.7808
   48MPD2     N  742   0.905   4.278   9.478  1.2538  0.0962 -0.2820
   48MPD2    H5  743   0.875   4.205   9.541  0.0082 -0.2839 -1.3330
   48MPD2    N1  744   0.813   3.936   9.169  0.1487 -0.4964  0.9347
   48MPD2    H7  745   0.785   3.887   9.254  0.2764 -0.9360  0.7260
   49MPD2     C  746   3.877   3.153  10.596 -0.2275 -1.0948  0.1030
   49MPD2    C1  747   3.854   3.051  10.510 -0.2843 -0.2276 -0.0708
   49MPD2    C2  748   3.745   2.970  10.526 -0.7416 -0.1211  0.4642
   49MPD2    C3  749   3.655   2.995  10.626  0.0935  0.0312  0.3542
   49MPD2    C4  750   3.682   3.088  10.716  0.8607 -0.2517  0.0262
   49MPD2    C5  751   3.787   3.174  10.702 -0.1294 -0.8610 -0.6583
   49MPD2     H  752   3.725   2.891  10.454  0.3272  0.1910 -0.1760
   49MPD2    H1  753   3.606   3.108  10.790  0.2044 -0.1955 -0.6676
   49MPD2    H2  754   3.960   3.222  10.591  0.7612 -2.2848 -0.1102
   49MPD2    H3  755   3.799   3.257  10.771  0.2718 -2.7901  1.6007
   49MPD2     N  756   3.532   2.924  10.639 -0.1422  0.4358 -0.0029
   49MPD2    H5  757   3.483   2.944  10.726  0.6295  0.4612  0.4314
   49MPD2    N1  758   3.936   3.029  10.399  0.1159 -0.4506  0.1122
   49MPD2    H7  759   3.910   2.957  10.333 -0.9321  2.0567 -2.2258
   50TCq2    C1  760   4.046   3.101  10.355 -0.0811  0.6360 -0.3563
   50TCq2    O2  761   4.082   3.216  10.382 -0.6464  0.0572  0.1345
   50TCq2    C2  762   4.093   3.054  10.227 -0.3595  0.1336  0.5052
   50TCq2    C3  763   4.067   2.925  10.191  0.2470 -0.5362 -0.5778
   50TCq2    C4  764   4.084   2.888  10.062  0.3140  0.0072 -0.0420
   50TCq2    C5  765   4.108   2.991   9.972  0.0432 -0.5267  0.5585
   50TCq2    C6  766   4.148   3.118  10.014  0.8552 -0.8917 -0.1044
   50TCq2    C7  767   4.139   3.155  10.146 -0.1715 -0.3705 -1.0016
   50TCq2    C8  768   4.194   3.209   9.914 -0.2770  0.5026 -0.0661
   50TCq2    O4  769   4.241   3.318   9.947 -0.7214  0.5950  0.4387
   50TCq2    C9  770   4.099   2.753  10.031  0.3860  0.9496  0.3702
   50TCq2    O5  771   4.075   2.672  10.122  0.1150  0.1256 -0.4667
   50TCq2    O6  772   4.144   2.733   9.915  0.1482 -0.0937  0.3225
   50TCq2    H2  773   4.031   2.846  10.256  0.3554 -0.1961 -0.1097
   50TCq2    H3  774   4.121   2.958   9.870 -1.7898 -0.8022  0.4130
   50TCq2    H4  775   4.181   3.249  10.180 -0.2951 -0.9153  0.6521
   51MPD2     C  776   3.284   0.413   1.004 -0.1944 -0.1352 -0.2091
   51MPD2    C1  777   3.370   0.320   1.060 -0.6349  0.3216  0.1113
   51MPD2    C2  778   3.383   0.321   1.197 -0.3843  0.6574  0.3428
   51MPD2    C3  779   3.320   0.423   1.275 -0.2345 -0.4530  0.3522
   51MPD2    C4  780   3.243   0.515   1.215  0.7657  0.0050 -0.2254
   51MPD2    C5  781   3.227   0.511   1.079  0.1216 -0.6860  0.2415
   51MPD2     H  782   3.459   0.258   1.244 -0.1340  1.1655  0.6164
   51MPD2    H1  783   3.196   0.603   1.258  1.2491  1.2107 -2.1343
   51MPD2    H2  784   3.280   0.435   0.898  0.3231  1.4674  0.1015
   51MPD2    H3  785   3.177   0.595   1.033  2.7909  0.2908 -0.9062
   51MPD2     N  786   3.343   0.440   1.410 -0.4031  0.1303  0.1768
   51MPD2    H5  787   3.306   0.521   1.459 -1.9253 -1.3814  1.5412
   51MPD2    N1  788   3.443   0.227   0.979  0.7812 -0.0448  0.2109
   51MPD2    H7  789   3.495   0.156   1.028 -0.3451 -1.5158 -0.7380
   52TCq2    C1  790   3.412   0.350   1.489  0.1523 -0.0990  0.6230
   52TCq2    O2  791   3.434   0.231   1.466 -0.1013  0.1751  0.1395
   52TCq2    C2  792   3.422   0.397   1.630  0.0943 -0.5278 -0.4207
   52TCq2    C3  793   3.446   0.302   1.724 -0.1564  0.3182  0.1625
   52TCq2    C4  794   3.453   0.338   1.856 -1.2948  0.0205 -0.8556
   52TCq2    C5  795   3.432   0.468   1.898  0.1421 -0.5046 -0.1249
   52TCq2    C6  796   3.407   0.555   1.802 -0.9978 -0.2247  0.5000
   52TCq2    C7  797   3.414   0.527   1.667  0.5615  0.1766  0.3766
   52TCq2    C8  798   3.410   0.693   1.834  0.3856  0.1741  0.6746
   52TCq2    O4  799   3.466   0.776   1.758 -0.0657 -0.4016  0.3994
   52TCq2    C9  800   3.504   0.252   1.951 -0.2548 -0.2690  0.0603
   52TCq2    O5  801   3.533   0.137   1.912  0.2745  0.3811 -0.2220
   52TCq2    O6  802   3.560   0.305   2.052  0.5275  0.2922 -0.0445
   52TCq2    H2  803   3.473   0.201   1.694 -2.8515 -0.2998 -0.2186
   52TCq2    H3  804   3.451   0.498   2.000 -0.6961  1.9363 -0.6709
   52TCq2    H4  805   3.407   0.609   1.597 -0.0507  0.3764  0.6722
   53TMC2    C1  806   4.105   3.998  12.153  0.2095 -0.6484 -0.1847
   53TMC2    C2  807   4.200   3.962  12.244  0.6216  0.2344  1.1168
   53TMC2    C3  808   4.158   3.947  12.373 -0.0420  0.1146 -0.5517
   53TMC2    C4  809   3.974   4.013  12.186 -0.3783 -0.2903 -0.5515
   53TMC2    C5  810   3.937   4.010  12.317 -0.5189  0.2931 -0.1877
   53TMC2    C6  811   4.025   3.962  12.410 -0.6092  0.0526 -0.2803
   53TMC2     C  812   4.146   4.004  12.014  0.4745  0.0607  0.0384
   53TMC2     O  813   4.269   4.014  12.002  0.4093  0.6325 -0.1893
   53TMC2     H  814   4.304   3.963  12.215  0.3568 -0.7651  0.1272
   53TMC2    H1  815   3.907   4.060  12.115 -0.9205  2.5496  1.8639
   53TMC2    H2  816   3.985   3.952  12.510  0.0378 -0.0970 -0.0401
   53TMC2    C7  817   3.794   4.020  12.335 -0.1753 -0.2658  0.1188
   53TMC2    C8  818   4.244   3.906  12.483 -0.3163 -0.3578  0.4521
   53TMC2    O1  819   3.712   4.014  12.243 -0.1493 -0.2906  0.4901
   53TMC2    O2  820   4.204   3.855  12.588  0.2418  0.8874  0.1845
   53TMC2    O5  821   4.374   3.919  12.451  0.1628  0.4651  0.0150
   53TMC2    H5  822   4.386   3.987  12.381  0.2912 -0.6841 -1.0817
   54MPD2     C  823   4.148   4.029  11.712  0.0145 -0.0545 -0.2407
   54MPD2    C1  824   4.040   3.988  11.785  0.3701 -0.4354 -0.7153
   54MPD2    C2  825   3.928   3.949  11.717 -0.1138 -0.2260 -0.3453
   54MPD2    C3  826   3.913   3.947  11.578 -0.4190 -1.0415 -0.2268
   54MPD2    C4  827   4.025   3.985  11.511 -0.1698  0.5008  0.4979
   54MPD2    C5  828   4.143   4.023  11.575  0.4015  0.2114  0.5653
   54MPD2     H  829   3.841   3.921  11.774  0.7966 -0.8763  0.7187
   54MPD2    H1  830   4.028   4.005  11.404 -0.8486 -0.2060  0.3490
   54MPD2    H2  831   4.240   4.066  11.756 -0.5564 -0.3456  1.2171
   54MPD2    H3  832   4.226   4.045  11.509  0.2416 -0.7747  0.0290
   54MPD2     N  833   3.793   3.926  11.502  0.6795 -0.3533  0.2028
   54MPD2    H5  834   3.799   3.914  11.401  2.2901  0.4801  0.2057
   54MPD2    N1  835   4.039   3.987  11.931  0.0799  0.0599  0.6421
   54MPD2    H7  836   3.953   3.962  11.978  1.0499 -0.8026  1.9478
   55MPD2     C  837   4.601   1.911  17.205 -0.1661  0.3642 -0.9664
   55MPD2    C1  838   4.554   1.813  17.286 -0.3425 -0.4506 -0.5466
   55MPD2    C2  839   4.462   1.846  17.379  0.2625  0.5394  0.2183
   55MPD2    C3  840   4.424   1.975  17.407  0.9031 -0.4584 -0.0686
   55MPD2    C4  841   4.478   2.066  17.324  0.2964  0.2333 -0.4580
   55MPD2    C5  842   4.572   2.041  17.227  0.5947  0.3031  0.3344
   55MPD2     H  843   4.403   1.775  17.435  1.6763  0.2245  1.3007
   55MPD2    H1  844   4.449   2.170  17.328 -0.8404 -0.0767 -0.5920
   55MPD2    H2  845   4.681   1.882  17.137  1.7486  1.3357  0.8744
   55MPD2    H3  846   4.617   2.118  17.164 -1.5627  1.1128 -0.2368
   55MPD2     N  847   4.321   2.000  17.502  0.0629 -0.0563 -0.1850
   55MPD2    H5  848   4.265   1.925  17.540 -1.7692  1.3517 -0.0950
   55MPD2    N1  849   4.603   1.682  17.268  0.2115  0.1888  0.1166
   55MPD2    H7  850   4.653   1.675  17.180 -1.2400 -0.0107 -0.6879
   56TCq2    C1  851   4.586   1.577  17.362  0.0218  0.1604  0.7659
   56TCq2    O2  852   4.536   1.579  17.476  0.7284 -0.4468 -0.7852
   56TCq2    C2  853   4.614   1.449  17.305  0.3475 -0.0142  0.1617
   56TCq2    C3  854   4.682   1.443  17.191 -0.9015 -0.6431 -0.4661
   56TCq2    C4  855   0.041   1.345  17.169  0.2728  0.6051  0.3601
   56TCq2    C5  856   0.073   1.252  17.259  0.5564  0.0279 -0.4541
   56TCq2    C6  857   0.004   1.257  17.375  0.1992  0.5415  0.0455
   56TCq2    C7  858   4.637   1.357  17.404 -0.1879 -0.1279  0.0212
   56TCq2    C8  859   0.061   1.188  17.491  0.0609 -0.0610  0.2210
   56TCq2    O4  860   0.153   1.110  17.458 -0.4535 -0.1809  0.4353
   56TCq2    C9  861   0.116   1.350  17.044  0.0457 -0.3973  0.0533
   56TCq2    O5  862   0.217   1.266  17.032  0.1103 -0.5947  0.4726
   56TCq2    O6  863   0.097   1.440  16.957  0.0773 -0.0663 -0.1657
   56TCq2    H2  864   4.652   1.504  17.107 -0.1871  0.8907  0.3932
   56TCq2    H3  865   0.152   1.180  17.240  1.0849 -0.3155  3.1999
   56TCq2    H4  866   4.582   1.355  17.497  2.7592 -1.4159  1.7371
   57TMC2    C1  867   3.833   2.665  13.370 -0.3679  0.2215  0.6959
   57TMC2    C2  868   3.896   2.574  13.444 -0.2226 -0.8186  0.1622
   57TMC2    C3  869   4.017   2.533  13.395  0.2696  0.9950  0.3824
   57TMC2    C4  870   3.881   2.717  13.247  0.7853 -0.1854  0.4803
   57TMC2    C5  871   4.006   2.674  13.209  0.0674 -0.3032  0.6881
   57TMC2    C6  872   4.073   2.578  13.278 -0.4216 -0.1148 -0.7234
   57TMC2     C  873   3.705   2.711  13.420 -0.8503 -0.0042  0.6446
   57TMC2     O  874   3.683   2.695  13.540 -0.8439  0.5800 -0.2972
   57TMC2     H  875   3.861   2.535  13.539 -2.0571  0.5267  0.0378
   57TMC2    H1  876   3.825   2.795  13.197  0.4802 -1.0105 -0.4599
   57TMC2    H2  877   4.159   2.523  13.242 -0.2643 -0.1332 -0.3202
   57TMC2    C7  878   4.061   2.716  13.078 -0.4105  0.1476  0.6213
   57TMC2    C8  879   4.106   2.450  13.475 -0.2311  0.6485 -0.8074
   57TMC2    O1  880   3.993   2.800  13.018  0.0338 -0.1419  0.2869
   57TMC2    O2  881   4.070   2.358  13.549 -0.5395 -0.2412  0.4726
   57TMC2    O5  882   4.226   2.516  13.477  0.4458 -0.2640  0.4409
   57TMC2    H5  883   4.226   2.597  13.422 -1.5543 -0.6273 -0.0821
   58MPD2     C  884   3.240   2.918  13.382 -0.4074  0.0349 -0.3995
   58MPD2    C1  885   3.308   2.868  13.493  0.5530 -0.2260  1.0957
   58MPD2    C2  886   3.435   2.824  13.472 -0.2571 -0.6857  0.7265
   58MPD2    C3  887   3.494   2.810  13.346 -0.0986  0.0054 -0.2775
   58MPD2    C4  888   3.424   2.866  13.240 -0.0714  0.7091  0.2942
   58MPD2    C5  889   3.292   2.913  13.258 -0.1157 -0.4049 -0.3907
   58MPD2     H  890   3.490   2.798  13.562 -0.7988  2.3023  1.9309
   58MPD2    H1  891   3.464   2.864  13.139  0.4149  1.7629  0.4645
   58MPD2    H2  892   3.141   2.963  13.383 -0.8166 -0.8918  1.1521
   58MPD2    H3  893   3.250   2.960  13.170 -0.0573  0.6037  0.1211
   58MPD2     N  894   3.619   2.753  13.317  0.6927 -0.4285  0.1509
   58MPD2    H5  895   3.655   2.749  13.222 -0.4355 -1.6044 -0.2250
   58MPD2    N1  896   3.241   2.868  13.620  0.2038  0.1741  0.1832
   58MPD2    H7  897   3.304   2.850  13.698 -1.7481 -3.2656  0.9356
   59MPD2     C  898   1.318   3.011  13.301 -0.4470 -0.4435 -0.4164
   59MPD2    C1  899   1.427   2.955  13.227  0.3174 -0.3642 -0.0782
   59MPD2    C2  900   1.552   2.980  13.279  0.2744 -0.0528 -0.3714
   59MPD2    C3  901   1.576   3.057  13.390 -0.0170  0.3978 -0.6167
   59MPD2    C4  902   1.467   3.109  13.460  0.1590  0.0020  0.6053
   59MPD2    C5  903   1.340   3.091  13.411 -0.3445  0.4130  0.0171
   59MPD2     H  904   1.638   2.939  13.226  0.5866  0.2064 -0.0667
   59MPD2    H1  905   1.472   3.166  13.552  0.7707  0.9244  0.0054
   59MPD2    H2  906   1.212   2.995  13.286 -0.5026 -0.7912  0.3736
   59MPD2    H3  907   1.255   3.137  13.459  0.3988  2.2500 -0.4307
   59MPD2     N  908   1.700   3.088  13.452 -0.1039 -0.0852 -0.3652
   59MPD2    H5  909   1.694   3.138  13.539 -0.1902  0.9384 -0.9678
   59MPD2    N1  910   1.414   2.878  13.105 -0.7870 -0.9801 -0.6514
   59MPD2    H7  911   1.499   2.835  13.071 -0.5831 -0.5398 -0.7032
   60TCq2    C1  912   1.294   2.844  13.044  0.8846  0.1253 -0.3279
   60TCq2    O2  913   1.179   2.856  13.082  0.6459  0.1647  0.1808
   60TCq2    C2  914   1.321   2.750  12.939  0.6402  0.4208 -0.4302
   60TCq2    C3  915   1.261   2.625  12.942 -0.3692 -0.4964  0.4896
   60TCq2    C4  916   1.283   2.542  12.836  0.1987 -0.1035 -0.6152
   60TCq2    C5  917   1.370   2.577  12.733  0.4229  0.1151  0.2893
   60TCq2    C6  918   1.429   2.698  12.735 -0.0690 -0.5116 -0.0758
   60TCq2    C7  919   1.410   2.785  12.838  0.0732  0.6174 -0.7595
   60TCq2    C8  920   1.499   2.741  12.618 -1.0261 -0.4404  0.6085
   60TCq2    O4  921   1.560   2.649  12.565 -0.0944 -0.2130 -0.1093
   60TCq2    C9  922   1.208   2.418  12.841  0.2215  0.4983 -0.3998
   60TCq2    O5  923   1.275   2.321  12.806  0.2685 -0.6344  0.2582
   60TCq2    O6  924   1.115   2.416  12.923  0.0042 -0.2711  0.8186
   60TCq2    H2  925   1.192   2.609  13.024 -2.6330  3.5993 -0.6433
   60TCq2    H3  926   1.386   2.517  12.644 -1.8855  1.1224 -0.8371
   60TCq2    H4  927   1.458   2.882  12.845 -0.9380  0.9818  1.0317
   61MPD2     C  928   0.956   3.940  14.133  0.4045 -0.0627  0.3299
   61MPD2    C1  929   0.870   4.041  14.167 -0.2011 -0.5693  0.5072
   61MPD2    C2  930   0.804   4.116  14.071 -0.4729  0.0099  0.5362
   61MPD2    C3  931   0.833   4.095  13.938 -0.3530 -0.0527  0.7421
   61MPD2    C4  932   0.925   3.997  13.904 -0.8409 -0.1221 -0.1328
   61MPD2    C5  933   0.982   3.918  13.997 -0.4496  0.3541 -0.2918
   61MPD2     H  934   0.743   4.195  14.113  0.1312  0.5712  0.3640
   61MPD2    H1  935   0.957   3.973  13.803  1.5092 -1.2784  0.8895
   61MPD2    H2  936   1.004   3.879  14.208  1.7522 -1.1653 -1.4245
   61MPD2    H3  937   1.060   3.847  13.970 -2.8208 -2.2625 -0.2028
   61MPD2     N  938   0.786   4.184  13.840 -0.7436  0.1489 -0.3519
   61MPD2    H5  939   0.830   4.178  13.748 -0.3327 -0.2918 -0.1292
   61MPD2    N1  940   0.860   4.082  14.304  0.4318 -0.1083 -0.0020
   61MPD2    H7  941   0.808   4.169  14.307  2.3631  0.9961  1.0379
   62TCq2    C1  942   0.932   4.042  14.409 -0.0833 -0.0592 -0.0225
   62TCq2    O2  943   1.007   3.947  14.432 -0.2669  0.4689  0.7706
   62TCq2    C2  944   0.908   4.129  14.519  0.3045  0.4204  0.2430
   62TCq2    C3  945   0.944   4.072  14.643  0.5543  0.4352  0.4785
   62TCq2    C4  946   0.950   4.161  14.746 -0.5519  0.3620  0.1027
   62TCq2    C5  947   0.939   4.302  14.720  0.2356 -0.1496 -0.3207
   62TCq2    C6  948   0.929   4.351  14.593  0.3821 -0.0171  0.5335
   62TCq2    C7  949   0.902   4.265  14.486  0.2993  0.7148 -0.1062
   62TCq2    C8  950   0.923   4.497  14.578 -0.2755 -0.1459  0.0491
   62TCq2    O4  951   0.958   4.564  14.674 -0.0972 -0.7561  0.0046
   62TCq2    C9  952   0.977   4.122  14.889 -0.8375  0.2593  0.1045
   62TCq2    O5  953   0.983   3.994  14.910 -0.4406 -0.6654 -0.1207
   62TCq2    O6  954   0.975   4.206  14.982  0.0872 -0.1588  0.4858
   62TCq2    H2  955   0.944   3.964  14.657  2.6103  0.3237 -0.3689
   62TCq2    H3  956   0.937   4.377  14.798 -0.8088 -0.6451  0.1220
   62TCq2    H4  957   0.888   4.306  14.387 -1.8187  0.6130  0.1550
   63TMC2    C1  958   0.441   4.013  10.896 -0.0534  0.2423 -0.8917
   63TMC2    C2  959   0.474   4.021  11.027 -0.8492 -0.2299 -0.7031
   63TMC2    C3  960   0.598   4.070  11.064 -0.3267  0.4373  0.2827
   63TMC2    C4  961   0.529   4.037  10.796 -1.0951 -0.1425  0.3636
   63TMC2    C5  962   0.643   4.103  10.833  0.3575  0.1179  0.0992
   63TMC2    C6  963   0.679   4.116  10.963  0.2565  0.6620 -0.3003
   63TMC2     C  964   0.311   3.954  10.863  0.2131 -0.2890 -0.9508
   63TMC2     O  965   0.214   3.963  10.936 -0.4925 -0.4464  0.1795
   63TMC2     H  966   0.410   3.981  11.104 -1.7399  0.1000 -1.2665
   63TMC2    H1  967   0.509   4.021  10.690 -1.2690 -0.9875  0.5259
   63TMC2    H2  968   0.765   4.174  10.994  0.0385  0.1908  1.1742
   63TMC2    C7  969   0.685   4.200  10.736 -0.2386 -0.2461 -0.0071
   63TMC2    C8  970   0.637   4.112  11.200 -0.6940  0.0373 -0.2109
   63TMC2    O1  971   0.614   4.210  10.637 -0.1758 -0.6067 -0.2508
   63TMC2    O2  972   0.719   4.202  11.214 -0.3883  0.3525  0.3613
   63TMC2    O5  973   0.538   4.092  11.292 -0.5408 -1.1975 -0.2180
   63TMC2    H5  974   0.474   4.020  11.273 -0.0938 -1.5044 -0.5577
   64MPD2     C  975   0.032   3.745  10.478 -0.3228  0.7271 -0.0662
   64MPD2    C1  976   0.162   3.758  10.438 -0.1974  0.1941 -0.3365
   64MPD2    C2  977   0.257   3.806  10.528 -0.1697  0.0214 -0.0919
   64MPD2    C3  978   0.215   3.846  10.659  0.2731  0.1648 -0.6060
   64MPD2    C4  979   0.082   3.829  10.701  0.2714 -0.6430 -0.0226
   64MPD2    C5  980   4.722   3.780  10.607  0.0535 -0.4560 -0.1959
   64MPD2     H  981   0.362   3.806  10.503  0.8679  0.0258  4.1721
   64MPD2    H1  982   0.043   3.854  10.799  1.1654  0.1216  0.1443
   64MPD2    H2  983   4.678   3.708  10.414 -0.7976 -0.7868  1.3738
   64MPD2    H3  984   4.619   3.780  10.641  0.6179 -0.2214  1.4889
   64MPD2     N  985   0.316   3.911  10.734 -0.1055  0.3551 -0.0563
   64MPD2    H5  986   0.406   3.911  10.687 -0.6012  0.6224 -1.0063
   64MPD2    N1  987   0.216   3.710  10.319 -0.1034  0.8002  0.2268
   64MPD2    H7  988   0.317   3.709  10.311 -0.0993 -0.4427  0.3528
   65MPD2     C  989   1.582   4.005  15.131  0.0323 -0.3799 -0.2139
   65MPD2    C1  990   1.500   4.018  15.242 -0.2576  0.4526 -0.2088
   65MPD2    C2  991   1.422   3.909  15.272  0.0718  0.1962 -0.3900
   65MPD2    C3  992   1.433   3.787  15.207 -0.1132 -0.1308  0.0941
   65MPD2    C4  993   1.524   3.779  15.103  0.2092  0.6500  0.4518
   65MPD2    C5  994   1.594   3.884  15.063 -0.0863 -0.4797 -0.2332
   65MPD2     H  995   1.359   3.914  15.361  0.6158  1.6517 -0.0815
   65MPD2    H1  996   1.537   3.688  15.044  0.5766  0.7695  0.3416
   65MPD2    H2  997   1.638   4.093  15.099  0.1108 -0.1744  0.4964
   65MPD2    H3  998   1.660   3.883  14.976  0.5729 -1.0337  0.2753
   65MPD2     N  999   1.371   3.676  15.248 -0.0849 -0.2664 -0.5525
   65MPD2    H5 1000   1.388   3.601  15.181  2.5960 -0.1317 -0.0236
   65MPD2    N1 1001   1.477   4.140  15.324 -0.0783 -0.1836  0.2019
   65MPD2    H7 1002   1.407   4.138  15.398 -1.4976  1.7348 -1.0833
   66TCq2    C1 1003   1.522   4.267  15.310 -0.9466 -0.0092 -0.7128
   66TCq2    O2 1004   1.590   4.313  15.221  0.1810  0.1278 -0.3116
   66TCq2    C2 1005   1.462   4.351  15.412 -0.1488  0.8522 -0.9602
   66TCq2    C3 1006   1.436   4.291  15.533  0.5516 -0.0815 -0.3786
   66TCq2    C4 1007   1.373   4.378  15.620 -0.2731  0.3095 -0.0560
   66TCq2    C5 1008   1.319   4.496  15.574 -0.1691  0.4292 -0.6755
   66TCq2    C6 1009   1.328   4.533  15.440 -0.5601 -0.3975 -0.3073
   66TCq2    C7 1010   1.419   4.466  15.366  0.5257 -0.7152 -0.0644
   66TCq2    C8 1011   1.264   4.657  15.389 -0.5667 -0.6575  0.2354
   66TCq2    O4 1012   1.273   4.683  15.271 -0.5121  0.8026 -0.2356
   66TCq2    C9 1013   1.329   4.344  15.752 -0.1880  0.4619 -0.4619
   66TCq2    O5 1014   1.308   4.225  15.775 -0.7836 -0.0851 -0.0552
   66TCq2    O6 1015   1.270   4.430  15.823  0.7888  0.0749  0.2852
   66TCq2    H2 1016   1.466   4.193  15.567  3.2447  1.3979  1.4842
   66TCq2    H3 1017   1.252   4.550  15.641 -0.7548  1.6545 -2.2611
   66TCq2    H4 1018   1.429   4.492  15.261 -0.9402  1.5649  0.3809
   67MPD2     C 1019   1.464   3.008  13.859  0.1243 -0.2681  0.2363
   67MPD2    C1 1020   1.393   3.073  13.960 -0.0341 -0.5228 -0.2209
   67MPD2    C2 1021   1.261   3.094  13.936  0.0060 -0.5417 -0.0992
   67MPD2    C3 1022   1.186   3.040  13.835  0.3965 -0.1429 -0.6607
   67MPD2    C4 1023   1.254   2.964  13.738 -0.5912 -0.7468  0.0384
   67MPD2    C5 1024   1.392   2.955  13.752  0.2271  0.2467  0.1715
   67MPD2     H 1025   1.219   3.164  14.008 -2.3962  0.0150 -2.0442
   67MPD2    H1 1026   1.203   2.925  13.651  1.1326  0.8641 -1.6943
   67MPD2    H2 1027   1.573   3.004  13.861  0.0867 -1.7152 -1.1160
   67MPD2    H3 1028   1.451   2.910  13.673  0.2661 -0.1218  0.4092
   67MPD2     N 1029   1.051   3.073  13.809 -0.2019  0.0453  0.7186
   67MPD2    H5 1030   1.031   3.070  13.709 -0.3310  2.6193  0.6686
   67MPD2    N1 1031   1.460   3.129  14.075 -0.3440  0.0766  0.9775
   67MPD2    H7 1032   1.404   3.176  14.145 -0.7145 -1.0027  1.4215
   68TCq2    C1 1033   1.591   3.101  14.111 -0.4720 -0.2220  0.0678
   68TCq2    O2 1034   1.673   3.025  14.066  0.1911  0.4228 -0.0252
   68TCq2    C2 1035   1.637   3.170  14.227  0.6807 -0.7929 -0.9736
   68TCq2    C3 1036   1.564   3.278  14.266  0.1340 -0.1586 -0.4515
   68TCq2    C4 1037   1.595   3.344  14.379  0.3155  0.6499  0.4994
   68TCq2    C5 1038   1.687   3.295  14.466  0.1661  0.2744  0.5675
   68TCq2    C6 1039   1.759   3.182  14.430 -0.5896  0.5068 -0.6163
   68TCq2    C7 1040   1.733   3.115  14.313 -0.1965 -0.1573 -0.0066
   68TCq2    C8 1041   1.860   3.130  14.517 -0.7446 -0.2586  0.2618
   68TCq2    O4 1042   1.925   3.036  14.476  0.3331 -0.5681  0.0157
   68TCq2    C9 1043   1.528   3.470  14.418  0.4531  0.1605 -0.2730
   68TCq2    O5 1044   1.490   3.545  14.324  0.3574 -0.1234  0.0754
   68TCq2    O6 1045   1.554   3.512  14.538  0.1867 -0.1041  0.1767
   68TCq2    H2 1046   1.494   3.324  14.196 -1.8131  1.2374  2.4073
   68TCq2    H3 1047   1.698   3.342  14.563  0.6690  0.0012  0.6436
   68TCq2    H4 1048   1.782   3.021  14.293 -0.9236 -0.2755 -1.1982
   69TMC2    C1 1049   3.531   4.390  12.630  0.3634 -0.0480 -0.4305
   69TMC2    C2 1050   3.410   4.400  12.562 -0.6915  0.4241  0.4795
   69TMC2    C3 1051   3.416   4.407  12.422 -0.1782 -0.2524 -1.0813
   69TMC2    C4 1052   3.642   4.365  12.558  0.1763 -0.3651  0.1100
   69TMC2    C5 1053   3.646   4.363  12.420 -0.3929  0.6279  0.3386
   69TMC2    C6 1054   3.535   4.394  12.345 -0.1253  0.4383  0.7364
   69TMC2     C 1055   3.534   4.362  12.775 -0.0528  0.0183  0.7741
   69TMC2     O 1056   3.621   4.292  12.824 -0.2242 -0.6409  0.3828
   69TMC2     H 1057   3.313   4.404  12.612 -0.3214 -1.2111  1.3196
   69TMC2    H1 1058   3.732   4.353  12.617 -0.0749 -0.0239  0.5608
   69TMC2    H2 1059   3.532   4.381  12.237  1.6940  0.5523  0.6849
   69TMC2    C7 1060   3.775   4.345  12.356 -0.1469 -0.4088 -0.2700
   69TMC2    C8 1061   3.297   4.351  12.365  0.3545  0.1069  0.1214
   69TMC2    O1 1062   3.870   4.328  12.426  0.0586 -0.2095 -0.6016
   69TMC2    O2 1063   3.215   4.306  12.441 -0.9363  0.6385 -0.4889
   69TMC2    O5 1064   3.260   4.418  12.255 -0.4937  0.1988 -0.0577
   69TMC2    H5 1065   3.329   4.463  12.201  1.2851 -0.6237  1.5334
   70MPD2     C 1066   3.247   4.456  12.991  0.5806 -0.0819  0.0001
   70MPD2    C1 1067   3.343   4.376  12.945 -0.0740  0.4096  0.3975
   70MPD2    C2 1068   3.348   4.243  12.976 -0.0380 -0.2968 -0.6969
   70MPD2    C3 1069   3.253   4.189  13.058 -0.8181  0.0299 -0.4689
   70MPD2    C4 1070   3.155   4.267  13.115  0.0826 -0.3163 -0.5193
   70MPD2    C5 1071   3.155   4.398  13.081  0.2605 -0.0652 -0.3396
   70MPD2     H 1072   3.421   4.176  12.931  1.2201  0.2711  0.4930
   70MPD2    H1 1073   3.073   4.228  13.174  0.0363 -0.8161 -0.9214
   70MPD2    H2 1074   3.237   4.560  12.962  0.7055 -0.1482 -0.2764
   70MPD2    H3 1075   3.084   4.464  13.129 -0.3884  0.0028 -1.3860
   70MPD2     N 1076   3.241   4.049  13.086 -0.4319  0.7600 -0.3430
   70MPD2    H5 1077   3.155   4.018  13.129 -1.3914  1.4387 -1.7932
   70MPD2    N1 1078   3.428   4.422  12.835  0.1789 -0.2746 -0.3121
   70MPD2    H7 1079   3.407   4.513  12.796 -1.1772 -0.1179  0.7849
   71TMC2    C1 1080   4.588   4.232   1.595 -0.1597 -0.1610  0.5694
   71TMC2    C2 1081   4.626   4.255   1.726  0.3849 -0.3948 -0.1451
   71TMC2    C3 1082   4.524   4.249   1.822 -0.2973  0.2928 -0.1914
   71TMC2    C4 1083   4.456   4.243   1.558 -0.2272  0.4311 -0.2525
   71TMC2    C5 1084   4.358   4.249   1.653 -0.2479  0.0637  0.2361
   71TMC2    C6 1085   4.394   4.250   1.785  0.9831 -0.6566  0.4284
   71TMC2     C 1086   4.679   4.254   1.484  0.1438  0.0973  0.1574
   71TMC2     O 1087   4.637   4.215   1.375  0.1765 -0.6321  0.1639
   71TMC2     H 1088   0.006   4.245   1.753  0.1387  0.7145  1.1691
   71TMC2    H1 1089   4.432   4.233   1.453 -0.5069 -0.8209 -0.0698
   71TMC2    H2 1090   4.320   4.237   1.864 -0.7629  0.9291 -0.9512
   71TMC2    C7 1091   4.223   4.302   1.615  0.1959 -0.2068 -0.0594
   71TMC2    C8 1092   4.552   4.253   1.963  0.7932  0.3814  0.0625
   71TMC2    O1 1093   4.142   4.312   1.710  0.5988 -0.2419  0.2742
   71TMC2    O2 1094   4.484   4.191   2.041  0.0319 -0.5731 -0.1334
   71TMC2    O5 1095   4.632   4.355   1.997  0.7241  0.8550 -0.1139
   71TMC2    H5 1096   4.649   4.407   1.915 -0.3472  0.0580 -0.8426
   72MPD2     C 1097   0.428   4.321   1.294 -0.2726 -0.3988 -0.0515
   72MPD2    C1 1098   0.315   4.302   1.225  0.4194  0.0113 -0.2479
   72MPD2    C2 1099   0.198   4.294   1.301 -0.5291  0.6233 -0.0154
   72MPD2    C3 1100   0.198   4.300   1.438  0.2294 -0.5943  0.1504
   72MPD2    C4 1101   0.316   4.315   1.506 -0.7167  0.2820 -0.5655
   72MPD2    C5 1102   0.434   4.315   1.432 -0.4838  0.8082 -0.9933
   72MPD2     H 1103   0.098   4.281   1.260 -0.9705  2.3610  0.5381
   72MPD2    H1 1104   0.324   4.318   1.614 -2.4333 -0.3611 -0.4255
   72MPD2    H2 1105   0.521   4.345   1.243  0.5668  1.9546  2.6159
   72MPD2    H3 1106   0.520   4.332   1.495 -1.0076 -1.3947  0.3426
   72MPD2     N 1107   0.082   4.292   1.526  0.1150 -0.1325 -0.3955
   72MPD2    H5 1108   0.100   4.316   1.623  1.4456  1.3917 -1.0227
   72MPD2    N1 1109   0.294   4.310   1.086 -0.9117 -0.3732 -0.6163
   72MPD2    H7 1110   0.200   4.292   1.052 -1.1758 -1.3068  0.5885
   73TMC2    C1 1111   0.097   1.542  13.452 -0.2333 -0.5109  0.4476
   73TMC2    C2 1112   4.713   1.510  13.377 -0.7847 -0.0771 -0.6044
   73TMC2    C3 1113   4.633   1.619  13.335 -0.8026  0.1324  0.0185
   73TMC2    C4 1114   0.127   1.669  13.484  0.2237  0.5515 -0.6392
   73TMC2    C5 1115   0.050   1.776  13.440 -0.1073 -0.1251 -0.3615
   73TMC2    C6 1116   4.665   1.755  13.359 -0.1181  0.2352  0.3130
   73TMC2     C 1117   0.216   1.490  13.402 -0.2289  0.1413  0.0042
   73TMC2     O 1118   0.304   1.576  13.397 -0.6908 -0.3053  0.0594
   73TMC2     H 1119   4.693   1.408  13.346 -0.1515 -0.7339  1.1345
   73TMC2    H1 1120   0.212   1.697  13.545 -1.1865 -0.8420  1.9814
   73TMC2    H2 1121   4.605   1.834  13.316  0.2345 -0.4068 -1.3620
   73TMC2    C7 1122   0.131   1.889  13.391 -0.1033 -0.0887 -0.3532
   73TMC2    C8 1123   4.501   1.589  13.281  0.5287 -0.3122  0.0648
   73TMC2    O1 1124   0.084   2.001  13.390  0.4969  0.2178  0.2466
   73TMC2    O2 1125   4.412   1.675  13.298  0.9078  0.3249  0.5824
   73TMC2    O5 1126   4.511   1.517  13.170 -0.0373  0.4442 -0.6276
   73TMC2    H5 1127   4.604   1.518  13.138 -0.2880  1.0203 -1.3249
   74MPD2     C 1128   0.564   1.111  13.390  0.2874  0.6919 -0.3971
   74MPD2    C1 1129   0.581   1.247  13.389 -0.0950  0.0197 -0.4113
   74MPD2    C2 1130   0.467   1.327  13.391 -0.1674 -0.7052  0.6872
   74MPD2    C3 1131   0.343   1.276  13.407  0.5261 -0.4087 -0.0405
   74MPD2    C4 1132   0.335   1.138  13.420  0.7098 -0.1078  0.1597
   74MPD2    C5 1133   0.440   1.058  13.400 -0.4032 -0.2568  0.1114
   74MPD2     H 1134   0.475   1.433  13.370 -1.1589 -0.3146  2.3181
   74MPD2    H1 1135   0.239   1.093  13.442  0.7118  0.1078  0.6266
   74MPD2    H2 1136   0.652   1.050  13.403 -1.9476 -2.2710  1.0326
   74MPD2    H3 1137   0.429   0.952  13.418 -1.6298  0.0351  1.1070
   74MPD2     N 1138   0.222   1.354  13.404  0.4756 -0.6500 -0.1441
   74MPD2    H5 1139   0.137   1.301  13.418  2.0279 -2.5810  2.1536
   74MPD2    N1 1140   0.716   1.291  13.383 -0.0091 -0.2373  1.0820
   74MPD2    H7 1141   0.785   1.219  13.366 -0.9191 -1.4912  2.6201
   75TCq2    C1 1142   0.965   3.136  13.895  0.4244  0.4637 -0.8495
   75TCq2    O2 1143   0.994   3.164  14.009 -0.0360  0.0877  0.1058
   75TCq2    C2 1144   0.833   3.164  13.843  0.3433 -0.6532  0.1611
   75TCq2    C3 1145   0.744   3.219  13.935  0.1241  0.1322  0.1213
   75TCq2    C4 1146   0.623   3.274  13.894  0.5223 -0.2076 -0.0338
   75TCq2    C5 1147   0.583   3.258  13.765  0.6269  0.1197 -0.2951
   75TCq2    C6 1148   0.678   3.210  13.679 -0.3021 -0.2573  0.2178
   75TCq2    C7 1149   0.803   3.162  13.710  0.1347  0.2260  0.4827
   75TCq2    C8 1150   0.654   3.239  13.538  1.2080  0.5571 -0.4474
   75TCq2    O4 1151   0.735   3.188  13.453 -0.5749  0.3680  0.1631
   75TCq2    C9 1152   0.534   3.334  13.995  0.5049 -0.2060 -0.0349
   75TCq2    O5 1153   0.421   3.378  13.955  0.1166  0.3391 -0.0998
   75TCq2    O6 1154   0.561   3.314  14.118  0.2857  0.0934  0.1898
   75TCq2    H2 1155   0.781   3.219  14.037  0.8423 -0.4419 -0.1405
   75TCq2    H3 1156   0.483   3.294  13.744  0.2845 -0.2183  0.7595
   75TCq2    H4 1157   0.872   3.133  13.632  0.4185  0.2142  0.7356
   76MPD2     C 1158   4.612   3.820  12.130 -0.2848  0.2784 -0.0368
   76MPD2    C1 1159   4.695   3.927  12.093 -0.0471  0.2178 -1.1190
   76MPD2    C2 1160   0.088   3.901  12.029  0.0379  0.5896  1.1138
   76MPD2    C3 1161   0.105   3.770  11.985  0.6651  0.3532  1.0081
   76MPD2    C4 1162   0.014   3.668  12.012  0.6147  0.4509 -0.2345
   76MPD2    C5 1163   4.632   3.692  12.089 -0.1763 -0.0461  0.7886
   76MPD2     H 1164   0.157   3.984  12.015 -0.0979  0.9463  2.5524
   76MPD2    H1 1165   0.024   3.571  11.966 -1.3167 -0.1996  0.7583
   76MPD2    H2 1166   4.511   3.836  12.167 -0.4660  0.9860 -0.8375
   76MPD2    H3 1167   4.557   3.614  12.090  0.1102 -0.3442 -1.5063
   76MPD2     N 1168   0.217   3.746  11.907 -0.2415 -0.3675  0.2997
   76MPD2    H5 1169   0.205   3.669  11.841  3.3451 -0.7203  0.0585
   76MPD2    N1 1170   4.671   4.063  12.129 -0.3432  0.1939  0.3528
   76MPD2    H7 1171   0.009   4.128  12.082 -2.4395  2.1540  0.2404
   77TCq2    C1 1172   0.327   3.823  11.894  0.0760  0.4289  0.5141
   77TCq2    O2 1173   0.384   3.894  11.975  0.2277 -0.0606  0.2153
   77TCq2    C2 1174   0.400   3.796  11.772 -0.3135  0.3790 -0.2757
   77TCq2    C3 1175   0.332   3.787  11.650  0.2894 -0.2983 -0.3046
   77TCq2    C4 1176   0.396   3.827  11.536  0.3410 -1.0868 -0.3826
   77TCq2    C5 1177   0.528   3.861  11.533 -0.2846  0.5273 -0.3364
   77TCq2    C6 1178   0.588   3.879  11.652 -0.0593  0.6739  0.3459
   77TCq2    C7 1179   0.527   3.839  11.767  0.2455 -0.3636  0.1268
   77TCq2    C8 1180   0.734   3.860  11.650  0.2670  0.0382  0.0729
   77TCq2    O4 1181   0.807   3.914  11.571 -0.3668 -0.3202 -0.1395
   77TCq2    C9 1182   0.330   3.824  11.407 -0.6499  0.5359 -0.3441
   77TCq2    O5 1183   0.220   3.764  11.413  0.0056 -0.1854 -0.4611
   77TCq2    O6 1184   0.372   3.896  11.305 -0.1698 -0.4453 -0.0160
   77TCq2    H2 1185   0.226   3.767  11.648  0.5162 -1.2801 -2.1332
   77TCq2    H3 1186   0.580   3.869  11.438  3.1751  2.3746  1.7241
   77TCq2    H4 1187   0.572   3.852  11.865  2.7406  2.0108 -1.3532
   78MPD1     C 1188   2.609   2.800   1.171 -0.1116 -0.6693  0.4873
   78MPD1    C1 1189   2.497   2.773   1.240  0.2898  0.4565  0.1760
   78MPD1    C2 1190   2.491   2.806   1.376  0.2328 -0.2333  0.9049
   78MPD1    C3 1191   2.599   2.872   1.437 -0.3256  0.6521  0.4264
   78MPD1    C4 1192   2.715   2.894   1.361  0.1222  0.1822 -0.2957
   78MPD1    C5 1193   2.722   2.849   1.232 -0.3331 -0.2403 -0.3007
   78MPD1     H 1194   2.401   2.784   1.433 -0.4661  2.2866  0.7760
   78MPD1    H1 1195   2.806   2.940   1.398  1.1672 -0.8824 -1.5133
   78MPD1    H2 1196   2.618   2.790   1.064 -1.1515 -1.7562  0.5084
   78MPD1    H3 1197   2.814   2.872   1.180 -0.1258 -0.0805  0.1353
   78MPD1     N 1198   2.605   2.913   1.568 -0.0495  0.8746 -0.2442
   78MPD1    H5 1199   2.686   2.964   1.603 -0.1657 -0.2144  1.6189
   78MPD1    N1 1200   2.376   2.732   1.181  0.4397  0.0385  0.2826
   78MPD1    H6 1201   2.391   2.665   1.105  0.6350 -0.8362  1.0882
   78MPD1    H7 1202   2.313   2.694   1.251  0.2571 -1.1318 -0.5162
   79TCq2    C1 1203   2.509   2.889   1.666  0.5408 -0.3668  0.3224
   79TCq2    O2 1204   2.418   2.806   1.655 -0.4528 -0.2606  0.1685
   79TCq2    C2 1205   2.518   2.967   1.787  0.1659 -0.2339 -0.5380
   79TCq2    C3 1206   2.451   2.926   1.893  0.9593  0.1661  0.4433
   79TCq2    C4 1207   2.465   2.977   2.019  0.2614  0.2751  0.4202
   79TCq2    C5 1208   2.538   3.088   2.038  0.3962  0.1493 -0.3377
   79TCq2    C6 1209   2.611   3.132   1.931 -0.3067  0.1913  0.1548
   79TCq2    C7 1210   2.612   3.062   1.809  0.0649  0.0729 -0.8849
   79TCq2    C8 1211   2.686   3.256   1.936  0.5531 -0.3846  0.1307
   79TCq2    O4 1212   2.720   3.309   1.829 -0.5054 -0.1745 -0.3714
   79TCq2    C9 1213   2.391   2.918   2.127  0.2078  0.2975  0.2417
   79TCq2    O5 1214   2.278   2.871   2.100 -0.2456 -0.1797  0.1337
   79TCq2    O6 1215   2.420   2.957   2.244  0.5970 -0.0111  0.0539
   79TCq2    H2 1216   2.369   2.856   1.875  1.3186  0.3532 -1.9717
   79TCq2    H3 1217   2.532   3.132   2.137  0.1533  0.4974 -0.5090
   79TCq2    H4 1218   2.657   3.105   1.721  0.0975 -0.3773 -1.0853
   80MPD2     C 1219   4.204   3.622  12.125 -0.0200 -0.0968  0.3682
   80MPD2    C1 1220   4.083   3.639  12.055  0.1695 -0.1661  0.0001
   80MPD2    C2 1221   3.969   3.648  12.133  0.1755 -0.1191  0.5207
   80MPD2    C3 1222   3.967   3.637  12.270 -0.8814  0.1061  0.0594
   80MPD2    C4 1223   4.086   3.629  12.339 -0.2476  0.2765  0.0253
   80MPD2    C5 1224   4.200   3.619  12.262  0.0967  0.2709 -0.1915
   80MPD2     H 1225   3.870   3.657  12.089  0.3315  1.1977  0.4424
   80MPD2    H1 1226   4.079   3.628  12.447 -0.9170 -2.3706 -0.0593
   80MPD2    H2 1227   4.300   3.610  12.077  0.3862 -2.2733  1.7013
   80MPD2    H3 1228   4.299   3.606  12.306 -0.6306 -1.3221  0.9373
   80MPD2     N 1229   3.850   3.643  12.343  0.0500  0.3105 -0.2328
   80MPD2    H5 1230   3.865   3.625  12.442  2.0960  1.3086 -0.3511
   80MPD2    N1 1231   4.074   3.638  11.911  0.5560 -0.1034 -0.8464
   80MPD2    H7 1232   3.983   3.650  11.868 -0.5754 -2.0139  1.0117
   81TCq2    C1 1233   4.183   3.645  11.825  0.3360  0.1540 -0.7411
   81TCq2    O2 1234   4.300   3.679  11.846 -0.3025  0.5042  0.3544
   81TCq2    C2 1235   4.138   3.632  11.688 -0.3293  0.1639  0.2517
   81TCq2    C3 1236   4.219   3.683  11.587  0.1095 -0.1455  0.5772
   81TCq2    C4 1237   4.161   3.679  11.460 -0.6928 -0.9182 -0.5034
   81TCq2    C5 1238   4.042   3.617  11.434 -0.6228  0.2609  0.2700
   81TCq2    C6 1239   3.965   3.565  11.536  0.4837  0.3564 -0.5912
   81TCq2    C7 1240   4.012   3.572  11.662 -0.2976 -0.2909 -0.5132
   81TCq2    C8 1241   3.829   3.517  11.509  0.0957 -0.2666 -0.4336
   81TCq2    O4 1242   3.760   3.597  11.443 -0.3698  0.1747 -0.0056
   81TCq2    C9 1243   4.237   3.733  11.346  0.4913  0.2639  0.5265
   81TCq2    O5 1244   4.186   3.732  11.232 -0.0837  0.0384  0.7453
   81TCq2    O6 1245   4.348   3.785  11.376 -0.0085 -0.2092 -0.0031
   81TCq2    H2 1246   4.315   3.733  11.597  0.0336 -0.0837  0.9933
   81TCq2    H3 1247   4.007   3.605  11.332 -1.2353  1.6605  0.3177
   81TCq2    H4 1248   3.949   3.534  11.742 -0.4006 -2.4145 -1.5979
   82MPD2     C 1249   2.019   3.142  11.028  0.4650  0.1933 -0.3019
   82MPD2    C1 1250   2.010   3.030  10.946 -0.1183 -0.5644  0.6458
   82MPD2    C2 1251   2.121   2.947  10.940  0.5624  0.2236 -0.3983
   82MPD2    C3 1252   2.234   2.976  11.024 -0.1526  0.4225  0.4681
   82MPD2    C4 1253   2.224   3.079  11.117 -0.9345 -0.5595  0.2562
   82MPD2    C5 1254   2.117   3.163  11.119 -0.8057  0.7341 -0.4086
   82MPD2     H 1255   2.119   2.856  10.880 -1.5952  0.7296 -1.0705
   82MPD2    H1 1256   2.294   3.096  11.197  0.5136  1.0207 -1.3302
   82MPD2    H2 1257   1.935   3.211  11.029 -0.7392 -1.2757  0.2411
   82MPD2    H3 1258   2.097   3.240  11.193  1.2391 -0.3661  1.2504
   82MPD2     N 1259   2.344   2.888  11.041 -0.7601 -1.0575 -0.3547
   82MPD2    H5 1260   2.400   2.899  11.125 -3.5617  2.9554  0.9745
   82MPD2    N1 1261   1.889   3.007  10.878  0.5672  0.8991  0.0012
   82MPD2    H7 1262   1.819   3.078  10.892 -0.8145  0.3502 -3.9594
   83TCq2    C1 1263   2.380   2.792  10.944  0.3966 -0.2849 -0.5882
   83TCq2    O2 1264   2.338   2.778  10.828 -0.2358 -0.1094 -0.2476
   83TCq2    C2 1265   2.448   2.673  10.993  0.1242 -0.9477  0.5271
   83TCq2    C3 1266   2.530   2.695  11.100 -0.2602  0.3022 -0.5497
   83TCq2    C4 1267   2.534   2.602  11.200  0.2275 -0.0654  0.5619
   83TCq2    C5 1268   2.458   2.489  11.188 -0.3282  0.1381  0.4938
   83TCq2    C6 1269   2.371   2.469  11.084  0.6878  0.1356 -0.2710
   83TCq2    C7 1270   2.368   2.564  10.984  0.2215 -0.2968  0.0483
   83TCq2    C8 1271   2.251   2.387  11.110  0.1628 -0.3762  0.2569
   83TCq2    O4 1272   2.234   2.366  11.229 -0.3552 -0.3691 -0.8008
   83TCq2    C9 1273   2.620   2.621  11.313  0.0638  0.6494 -0.4581
   83TCq2    O5 1274   2.619   2.538  11.408  0.5570  0.0711 -0.5392
   83TCq2    O6 1275   2.671   2.736  11.326  0.2796  0.1700 -0.6266
   83TCq2    H2 1276   2.596   2.781  11.103  2.8551 -2.0498 -1.4004
   83TCq2    H3 1277   2.463   2.414  11.267  0.1512  0.0567  0.3820
   83TCq2    H4 1278   2.282   2.565  10.918 -0.1641 -1.0170  0.5452
   84TCq2    C1 1279   3.480   2.844  10.538  0.4728 -0.6074 -0.4719
   84TCq2    O2 1280   3.504   2.842  10.416 -0.1318 -0.1300 -0.0219
   84TCq2    C2 1281   3.377   2.753  10.589  0.3335  0.3326  0.5975
   84TCq2    C3 1282   3.319   2.671  10.494  0.0237  0.3824 -0.1981
   84TCq2    C4 1283   3.221   2.587  10.535 -0.1203 -0.8253 -0.2767
   84TCq2    C5 1284   3.178   2.585  10.666 -0.0255  0.3016 -0.7173
   84TCq2    C6 1285   3.247   2.657  10.757  0.3260 -0.4037  0.1055
   84TCq2    C7 1286   3.348   2.740  10.724 -0.1908  0.1298  0.2006
   84TCq2    C8 1287   3.202   2.646  10.893 -0.3317  0.1829 -0.3456
   84TCq2    O4 1288   3.220   2.735  10.970 -0.4323 -0.4151  0.4483
   84TCq2    C9 1289   3.155   2.506  10.433 -0.3122  0.7747 -0.1602
   84TCq2    O5 1290   3.203   2.510  10.316  0.7117  0.3168 -0.0942
   84TCq2    O6 1291   3.073   2.422  10.481  0.5079  0.6270 -0.2088
   84TCq2    H2 1292   3.354   2.680  10.392 -0.5612  4.2660 -0.0644
   84TCq2    H3 1293   3.085   2.532  10.684 -0.4010  1.2627  0.1934
   84TCq2    H4 1294   3.394   2.799  10.803  3.1856 -0.8690 -1.0232
   85MPD2     C 1295   3.703   4.594  16.099  0.5319  0.3828 -0.1394
   85MPD2    C1 1296   3.587   4.617  16.031  0.4757 -0.3262  0.2375
   85MPD2    C2 1297   3.554   0.025  16.011 -0.3366 -0.1273  0.4933
   85MPD2    C3 1298   3.628   0.136  16.053  0.8217  1.0557 -0.7990
   85MPD2    C4 1299   3.749   0.107  16.120 -0.4528 -0.3886 -0.4834
   85MPD2    C5 1300   3.784   4.700  16.138 -0.3263  0.1883  0.4527
   85MPD2     H 1301   3.457   0.046  15.966 -0.1686  2.1509  1.1958
   85MPD2    H1 1302   3.819   0.179  16.161  0.2429 -0.5853 -1.3273
   85MPD2    H2 1303   3.740   4.493  16.115  1.7465  0.6712 -1.1519
   85MPD2    H3 1304   3.882   4.676  16.177 -0.1706  1.0668  0.6111
   85MPD2     N 1305   3.591   0.270  16.016 -0.4977  0.7184  0.0971
   85MPD2    H5 1306   3.510   0.278  15.956 -0.3421 -3.3704 -0.7152
   85MPD2    N1 1307   3.496   4.526  15.992 -0.4093  0.6171 -0.0113
   85MPD2    H7 1308   3.430   4.560  15.923  0.4067 -0.9452 -1.5633
   86TCq2    C1 1309   3.662   0.387  16.041  0.5944 -0.1774  0.0010
   86TCq2    O2 1310   3.761   0.401  16.111 -0.2222  0.2885 -0.3871
   86TCq2    C2 1311   3.619   0.496  15.953  0.0534  0.1158 -0.3550
   86TCq2    C3 1312   3.487   0.515  15.929 -0.0873 -0.5627  0.0383
   86TCq2    C4 1313   3.456   0.618  15.838  0.2232  0.3805  0.0573
   86TCq2    C5 1314   3.555   0.676  15.758  0.0097  0.0967  0.5061
   86TCq2    C6 1315   3.690   0.638  15.776 -0.1283  0.3034  0.6668
   86TCq2    C7 1316   3.718   0.542  15.872  0.5239  0.7207  0.0524
   86TCq2    C8 1317   3.791   0.664  15.678 -0.8977 -0.5226  0.6394
   86TCq2    O4 1318   3.901   0.620  15.704 -0.1741  0.1833  0.2607
   86TCq2    C9 1319   3.324   0.670  15.836  0.2530  0.1061  0.1356
   86TCq2    O5 1320   3.242   0.610  15.906  0.1152 -0.0540 -0.2200
   86TCq2    O6 1321   3.307   0.747  15.736  0.4057 -0.4338 -0.2662
   86TCq2    H2 1322   3.407   0.462  15.978 -0.7036  1.2347  0.9963
   86TCq2    H3 1323   3.539   0.770  15.707  1.4683  0.0850  0.0375
   86TCq2    H4 1324   3.817   0.505  15.896  0.1379 -0.0195  0.5024
   87MPD2     C 1325   0.841   3.604   1.218 -0.0249  0.7673  0.5248
   87MPD2    C1 1326   0.917   3.528   1.132  0.7320  0.1423 -0.1656
   87MPD2    C2 1327   0.915   3.562   0.995 -0.0917  0.7599  0.2949
   87MPD2    C3 1328   0.827   3.664   0.952  0.2658  0.9587 -0.1788
   87MPD2    C4 1329   0.763   3.747   1.044 -0.3565 -0.1207 -0.0972
   87MPD2    C5 1330   0.770   3.709   1.175  0.0529  0.1774  0.2015
   87MPD2     H 1331   0.981   3.508   0.929  0.1413  1.7813 -0.3180
   87MPD2    H1 1332   0.703   3.835   1.023 -0.8639 -0.2346  0.8728
   87MPD2    H2 1333   0.851   3.589   1.325 -0.7808  0.3784  0.5390
   87MPD2    H3 1334   0.716   3.761   1.254 -0.4353  2.9180 -1.9365
   87MPD2     N 1335   0.803   3.697   0.823 -0.1493  0.0453 -0.1783
   87MPD2    H5 1336   0.739   3.774   0.809  1.4908  1.5208  0.3952
   87MPD2    N1 1337   0.991   3.420   1.188  0.3001  0.0162 -0.3782
   87MPD2    H7 1338   0.997   3.416   1.290  0.9249  3.0273 -0.2968
   88TCq2    C1 1339   1.064   3.330   1.116  0.4157  0.8426 -0.1443
   88TCq2    O2 1340   1.079   3.318   0.995  0.6823 -0.5634  0.8186
   88TCq2    C2 1341   1.143   3.234   1.191  0.0901 -0.1189  0.0098
   88TCq2    C3 1342   1.118   3.201   1.322 -0.1767  0.3137  0.3447
   88TCq2    C4 1343   1.201   3.118   1.388  0.0826  0.5117  0.9905
   88TCq2    C5 1344   1.314   3.067   1.321 -0.1013  0.4290  0.2627
   88TCq2    C6 1345   1.337   3.106   1.190 -0.9145 -0.4040  0.6701
   88TCq2    C7 1346   1.252   3.190   1.122  0.7616  0.3369 -0.6851
   88TCq2    C8 1347   1.441   3.053   1.106 -0.2066 -0.0775 -0.4347
   88TCq2    O4 1348   1.452   3.094   0.991  0.3620 -0.1063  0.0153
   88TCq2    C9 1349   1.171   3.057   1.517  0.1185 -0.2618 -0.0382
   88TCq2    O5 1350   1.064   3.081   1.579  0.0208  0.4469 -0.4314
   88TCq2    O6 1351   1.256   2.978   1.557 -0.3915  0.4844  0.3405
   88TCq2    H2 1352   1.043   3.256   1.378 -1.5147 -0.6561 -0.5045
   88TCq2    H3 1353   1.381   3.003   1.378  0.1938 -0.4561 -1.0904
   88TCq2    H4 1354   1.272   3.220   1.019  1.0553  1.8465 -0.1979
   89MPD2     C 1355   2.257   0.413   0.986  1.4156  0.4384  0.3389
   89MPD2    C1 1356   2.132   0.475   1.012 -0.2419  0.2084  0.3773
   89MPD2    C2 1357   2.092   0.587   0.947  0.7265 -0.7893  0.1524
   89MPD2    C3 1358   2.184   0.657   0.866  0.3103  0.9192  0.5380
   89MPD2    C4 1359   2.303   0.594   0.845  0.6015 -0.0235  1.0911
   89MPD2    C5 1360   2.339   0.480   0.905 -0.8752 -0.2916 -0.9023
   89MPD2     H 1361   1.998   0.629   0.980  0.3390  0.3917 -2.4223
   89MPD2    H1 1362   2.370   0.628   0.767 -0.4793  1.4401  0.8251
   89MPD2    H2 1363   2.289   0.315   1.020  1.3014  0.5345  0.7276
   89MPD2    H3 1364   2.433   0.434   0.875 -0.6139 -0.1818 -0.2347
   89MPD2     N 1365   2.142   0.781   0.810  0.3606 -0.8092 -0.3850
   89MPD2    H5 1366   2.050   0.813   0.839  0.5885 -1.0532  0.5884
   89MPD2    N1 1367   2.046   0.416   1.110  0.6346 -0.2745 -0.3716
   89MPD2    H7 1368   1.963   0.472   1.129  0.2187 -0.2454 -2.2954
   90TCq2    C1 1369   2.224   0.872   0.752  0.4130  0.0594  0.5628
   90TCq2    O2 1370   2.344   0.864   0.728  0.8861  0.0015 -0.3739
   90TCq2    C2 1371   2.160   0.982   0.687 -0.0301 -0.7902 -0.2174
   90TCq2    C3 1372   2.029   0.986   0.656  0.0592  0.3384 -0.7327
   90TCq2    C4 1373   1.979   1.082   0.567 -0.0014 -0.2304  0.2068
   90TCq2    C5 1374   2.062   1.183   0.515 -0.4083 -0.5589  0.4114
   90TCq2    C6 1375   2.196   1.166   0.542 -0.0292  0.9247  0.2263
   90TCq2    C7 1376   2.244   1.064   0.621  0.4646  0.5466 -0.1768
   90TCq2    C8 1377   2.292   1.200   0.433 -0.0924 -0.1392 -0.2659
   90TCq2    O4 1378   2.361   1.109   0.391 -0.5285  0.5903 -0.1724
   90TCq2    C9 1379   1.836   1.091   0.525 -0.1425 -0.2281  0.2993
   90TCq2    O5 1380   1.806   1.190   0.451 -0.2894 -0.2024  0.1366
   90TCq2    O6 1381   1.755   1.010   0.572 -0.4183 -0.2429  0.5091
   90TCq2    H2 1382   1.961   0.909   0.689 -0.7975  0.6856 -1.6678
   90TCq2    H3 1383   2.027   1.243   0.433  0.6366 -0.8200 -0.2280
   90TCq2    H4 1384   2.351   1.066   0.638  0.7931 -1.7470 -1.9026
   91TMC2    C1 1385   3.580   1.320  16.774 -0.3505 -0.0587  0.0460
   91TMC2    C2 1386   3.665   1.396  16.853  0.1331 -0.1216  0.1718
   91TMC2    C3 1387   3.606   1.503  16.919  0.0348  0.8357  0.0501
   91TMC2    C4 1388   3.447   1.346  16.749  0.3601  0.1494  0.1886
   91TMC2    C5 1389   3.405   1.460  16.810 -0.5917  0.2339 -0.0612
   91TMC2    C6 1390   3.474   1.525  16.907  0.3501  0.1315  0.1944
   91TMC2     C 1391   3.629   1.190  16.726 -0.9826  0.4330  0.0337
   91TMC2     O 1392   3.541   1.109  16.699 -0.1022 -0.9340 -0.2724
   91TMC2     H 1393   3.768   1.367  16.870 -0.2587 -1.3153  0.4765
   91TMC2    H1 1394   3.383   1.283  16.687  0.2821  0.0103  0.4137
   91TMC2    H2 1395   3.438   1.613  16.959  1.5824 -1.1441  3.1911
   91TMC2    C7 1396   3.273   1.517  16.784 -0.0317 -0.3710  0.5900
   91TMC2    C8 1397   3.680   1.583  17.006  0.6639  0.4981  0.6510
   91TMC2    O1 1398   3.212   1.566  16.880  1.0083 -0.0362 -0.4456
   91TMC2    O2 1399   3.784   1.542  17.061 -0.1808 -0.3412  0.2187
   91TMC2    O5 1400   3.660   1.706  16.951  0.4036 -0.3674  0.1877
   91TMC2    H5 1401   3.587   1.722  16.888  2.5542 -1.4888 -2.6128
   92MPD2     C 1402   3.782   0.977  16.583  0.0390 -0.3382  0.3100
   92MPD2    C1 1403   3.837   1.092  16.628  0.1814 -0.3659  0.5951
   92MPD2    C2 1404   3.965   1.121  16.585  0.1046  0.2976  0.0069
   92MPD2    C3 1405   4.028   1.035  16.496 -0.2542 -0.2356 -0.5184
   92MPD2    C4 1406   3.967   0.918  16.457 -0.7097  0.5214  0.0425
   92MPD2    C5 1407   3.845   0.886  16.506  0.4393  0.9023  0.3803
   92MPD2     H 1408   4.016   1.211  16.617 -0.5788 -0.2728  2.6642
   92MPD2    H1 1409   4.005   0.862  16.372  2.3671  1.9183  0.4952
   92MPD2    H2 1410   3.681   0.943  16.601  0.0233  0.0713  0.9905
   92MPD2    H3 1411   3.786   0.807  16.460  0.4010  1.2057 -0.0947
   92MPD2     N 1412   4.160   1.077  16.457 -0.3015  0.9944  0.5850
   92MPD2    H5 1413   4.189   1.168  16.491 -1.7327  2.1566 -1.3691
   92MPD2    N1 1414   3.770   1.190  16.698  0.1335  0.4440 -0.3715
   92MPD2    H7 1415   3.823   1.272  16.725  1.6175 -0.4721 -0.5211
   93MPD2     C 1416   0.962   0.830  13.450  0.3932 -0.3171  0.2323
   93MPD2    C1 1417   0.904   0.889  13.557  0.5880  0.5840  0.7748
   93MPD2    C2 1418   0.771   0.854  13.584 -0.2714  0.3947  0.4181
   93MPD2    C3 1419   0.690   0.757  13.517 -0.0712  0.1983 -0.2312
   93MPD2    C4 1420   0.751   0.707  13.404 -0.5277  0.6514  0.6002
   93MPD2    C5 1421   0.880   0.738  13.375 -0.6823 -0.3100 -0.2126
   93MPD2     H 1422   0.725   0.905  13.668 -1.4953  1.2842 -0.7985
   93MPD2    H1 1423   0.700   0.649  13.327  2.8856 -0.6105 -0.7074
   93MPD2    H2 1424   1.067   0.849  13.429  0.2975 -0.1248 -0.0834
   93MPD2    H3 1425   0.917   0.702  13.280  0.0131 -0.6030  0.1682
   93MPD2     N 1426   0.556   0.722  13.538 -0.3078  0.2949  0.2823
   93MPD2    H5 1427   0.513   0.654  13.476 -0.3251 -0.3537  1.0012
   93MPD2    N1 1428   0.975   0.968  13.652  0.7081  0.8146 -0.8526
   93MPD2    H7 1429   0.945   0.966  13.749 -0.3326  0.2519 -1.1886
   94TCq2    C1 1430   1.101   1.016  13.637  0.1689  0.4080  0.6137
   94TCq2    O2 1431   1.167   1.022  13.534 -0.5425  0.4347 -0.5916
   94TCq2    C2 1432   1.152   1.080  13.753  0.4996  0.7551  0.5264
   94TCq2    C3 1433   1.075   1.169  13.826 -0.5867 -0.4487  0.2982
   94TCq2    C4 1434   1.145   1.250  13.918  0.5737  0.1572 -0.4425
   94TCq2    C5 1435   1.280   1.249  13.920  0.0054  0.1511  0.8858
   94TCq2    C6 1436   1.349   1.157  13.845  0.2162  0.9595  0.4325
   94TCq2    C7 1437   1.286   1.067  13.758 -0.3390 -0.3166  1.0482
   94TCq2    C8 1438   1.498   1.141  13.846 -0.4542 -0.8150 -0.1339
   94TCq2    O4 1439   1.544   1.028  13.826 -0.2163 -0.4085  0.5185
   94TCq2    C9 1440   1.068   1.343  13.999 -0.0702 -0.0314 -0.0018
   94TCq2    O5 1441   0.941   1.345  13.990  0.2659 -0.4198 -0.0206
   94TCq2    O6 1442   1.125   1.423  14.074 -0.3303 -0.1486  0.6454
   94TCq2    H2 1443   0.967   1.169  13.823 -0.5479 -3.0707 -0.9535
   94TCq2    H3 1444   1.341   1.318  13.978 -0.0483  0.6185  0.3823
   94TCq2    H4 1445   1.338   1.004  13.687 -3.3993 -0.2701 -1.2479
   95TMC2    C1 1446   0.599   3.050  16.061  0.0423  0.6865 -0.1452
   95TMC2    C2 1447   0.583   2.930  16.003  0.7016 -0.3615  0.0553
   95TMC2    C3 1448   0.564   2.819  16.073 -0.3683 -0.1675  0.4562
   95TMC2    C4 1449   0.621   3.069  16.192 -0.1782  0.4358 -0.4422
   95TMC2    C5 1450   0.592   2.955  16.266  0.0673  0.3198  0.3672
   95TMC2    C6 1451   0.585   2.830  16.208 -0.0350 -0.3408  0.1063
   95TMC2     C 1452   0.682   3.128  15.969 -0.2324 -0.2077  0.2489
   95TMC2     O 1453   0.733   3.069  15.872  0.2431  0.2567  0.3303
   95TMC2     H 1454   0.554   2.937  15.899 -0.6506 -1.9435  0.3239
   95TMC2    H1 1455   0.608   3.168  16.234  1.0857  0.2512  0.3767
   95TMC2    H2 1456   0.568   2.743  16.271  2.7189  1.2212  3.0090
   95TMC2    C7 1457   0.569   2.968  16.405  0.0901 -1.2079  0.0312
   95TMC2    C8 1458   0.504   2.703  16.014  0.5198  0.6696  0.2668
   95TMC2    O1 1459   0.541   2.865  16.472  0.2091 -0.0098  0.4456
   95TMC2    O2 1460   0.439   2.614  16.068 -0.5927  0.2923 -0.7471
   95TMC2    O5 1461   0.542   2.692  15.881  0.1513  0.1743 -0.0013
   95TMC2    H5 1462   0.607   2.756  15.846 -0.4033 -0.6560 -2.5672
   96MPD2     C 1463   0.861   3.602  15.849 -0.1766  0.3842  1.9900
   96MPD2    C1 1464   0.872   3.482  15.771  0.9711  0.2900  0.1221
   96MPD2    C2 1465   0.816   3.365  15.830  0.0354  0.3233 -0.0354
   96MPD2    C3 1466   0.743   3.369  15.943 -0.0160 -0.4465  0.3445
   96MPD2    C4 1467   0.730   3.492  16.017 -0.0304 -0.2076  0.3017
   96MPD2    C5 1468   0.795   3.602  15.967 -0.4033 -0.3303  0.9457
   96MPD2     H 1469   0.806   3.276  15.769 -0.6509  1.3893 -1.4748
   96MPD2    H1 1470   0.668   3.502  16.106  1.2662 -2.8045  1.5093
   96MPD2    H2 1471   0.912   3.687  15.805  0.0125 -1.0636 -0.6098
   96MPD2    H3 1472   0.792   3.692  16.026  0.8427  0.5647 -0.3885
   96MPD2     N 1473   0.676   3.261  16.001 -0.4378 -0.3189 -0.5674
   96MPD2    H5 1474   0.605   3.282  16.070  0.4256 -0.6245  0.4123
   96MPD2    N1 1475   0.943   3.492  15.648  0.6935 -0.5828 -0.4942
   96MPD2    H7 1476   0.984   3.582  15.623  1.4805 -0.7895  0.0484
   97MPD2     C 1477   3.385   4.514   0.869 -0.7486 -0.3262  0.5138
   97MPD2    C1 1478   3.334   4.612   0.781 -0.1252 -0.1305  0.0676
   97MPD2    C2 1479   3.383   4.616   0.656 -0.0240 -0.1418  0.2873
   97MPD2    C3 1480   3.493   4.535   0.611  0.3848  0.3197  0.2959
   97MPD2    C4 1481   3.541   4.453   0.706 -0.0600  0.1417  0.4287
   97MPD2    C5 1482   3.491   4.442   0.833 -0.0078 -0.2950  0.7142
   97MPD2     H 1483   3.355   4.693   0.585  0.1262 -0.4365 -0.0943
   97MPD2    H1 1484   3.627   4.390   0.686  0.2326  1.2820 -1.8973
   97MPD2    H2 1485   3.341   4.505   0.968  0.3375  0.7594  1.0955
   97MPD2    H3 1486   3.541   4.379   0.906  0.6001 -1.0692 -0.3663
   97MPD2     N 1487   3.561   4.550   0.491 -0.4902 -0.4716  0.1004
   97MPD2    H5 1488   3.650   4.501   0.493 -1.2529 -1.8724 -0.0594
   97MPD2    N1 1489   3.233   4.699   0.834 -0.3510 -0.3043 -0.1362
   97MPD2    H7 1490   3.212   4.674   0.931  0.0689 -1.4198 -0.3276
   98TCq2    C1 1491   3.516   4.627   0.390 -0.3222 -1.2673  0.1224
   98TCq2    O2 1492   3.399   4.658   0.364 -0.0189 -0.0653 -0.7229
   98TCq2    C2 1493   3.613   4.691   0.300 -0.0982 -0.6455  0.0360
   98TCq2    C3 1494   3.728   4.619   0.266  0.0749 -0.2612  0.6740
   98TCq2    C4 1495   3.813   4.671   0.173 -0.4008 -0.0027 -0.5431
   98TCq2    C5 1496   3.775   0.064   0.105  0.2866  0.0913  0.1308
   98TCq2    C6 1497   3.675   0.144   0.154  0.0021 -0.3044  0.1938
   98TCq2    C7 1498   3.591   0.091   0.249 -0.0614  0.0670 -0.4569
   98TCq2    C8 1499   3.661   0.284   0.114 -0.5629  0.2968 -0.1873
   98TCq2    O4 1500   3.757   0.351   0.081 -0.2339  0.0744 -0.4509
   98TCq2    C9 1501   3.911   4.589   0.111 -0.3379  0.4363  1.0180
   98TCq2    O5 1502   3.919   4.466   0.158 -0.4359  0.6597 -0.3102
   98TCq2    O6 1503   3.949   4.627  17.697 -0.4940 -0.2944 -0.0829
   98TCq2    H2 1504   3.748   4.529   0.322 -0.8936 -1.1390 -0.3726
   98TCq2    H3 1505   3.826   0.099   0.016  0.8825  1.9121  1.1740
   98TCq2    H4 1506   3.505   0.144   0.288 -0.3264 -1.5322  1.1301
   99MPD2     C 1507   2.485   2.217   1.764  0.0374 -0.2641 -0.4608
   99MPD2    C1 1508   2.346   2.180   1.756 -0.8395  0.2215  1.1950
   99MPD2    C2 1509   2.302   2.119   1.640  1.1346  0.3928 -0.2316
   99MPD2    C3 1510   2.381   2.085   1.538  0.2403 -0.0862 -0.5275
   99MPD2    C4 1511   2.513   2.129   1.544  0.0074  0.0790  0.1338
   99MPD2    C5 1512   2.560   2.192   1.655  0.2016  0.1044  0.1618
   99MPD2     H 1513   2.194   2.103   1.637  1.0752  1.1749 -1.9577
   99MPD2    H1 1514   2.576   2.103   1.459 -0.5879 -0.4696 -0.1457
   99MPD2    H2 1515   2.520   2.290   1.835  0.7056  0.3433 -1.4248
   99MPD2    H3 1516   2.662   2.225   1.673  1.3532 -1.5912 -3.3189
   99MPD2     N 1517   2.327   2.001   1.435  0.1681  0.1682 -0.3422
   99MPD2    H5 1518   2.229   1.977   1.429 -0.1482  1.4173 -0.1118
   99MPD2    N1 1519   2.256   2.203   1.859  0.1463 -0.6798 -0.4963
   99MPD2    H7 1520   2.158   2.188   1.838 -0.1860  1.5341 -0.5547
  100TCq2    C1 1521   2.280   2.246   1.985 -0.2739  0.4833  0.4887
  100TCq2    O2 1522   2.385   2.292   2.034  0.0014 -0.3252  0.0583
  100TCq2    C2 1523   2.167   2.228   2.074 -0.4499 -0.3507  0.0819
  100TCq2    C3 1524   2.190   2.210   2.203 -0.6580  0.1726  0.2231
  100TCq2    C4 1525   2.084   2.188   2.286 -0.7351 -0.5740  0.3261
  100TCq2    C5 1526   1.959   2.196   2.235  0.0756  0.7371  0.0145
  100TCq2    C6 1527   1.941   2.236   2.107  0.2052 -0.0505  0.1430
  100TCq2    C7 1528   2.044   2.247   2.021 -0.4462 -0.9695 -0.6118
  100TCq2    C8 1529   1.816   2.299   2.066  0.4319 -0.1361 -0.2070
  100TCq2    O4 1530   1.745   2.342   2.157  0.2698 -0.0476  0.1406
  100TCq2    C9 1531   2.106   2.129   2.417  0.5498 -0.2231  0.2409
  100TCq2    O5 1532   2.223   2.122   2.463 -0.1008 -0.3648 -0.2763
  100TCq2    O6 1533   2.010   2.117   2.501  0.1982 -0.5345  0.1634
  100TCq2    H2 1534   2.290   2.218   2.243 -0.1340 -0.6496 -0.9460
  100TCq2    H3 1535   1.878   2.179   2.305  1.9351 -2.3294  1.4226
  100TCq2    H4 1536   2.030   2.292   1.923 -1.2269 -1.7547 -0.8574
  101MPD2     C 1537   2.508   3.565  13.055 -0.3291 -0.2254 -0.6508
  101MPD2    C1 1538   2.382   3.619  13.084 -0.5093 -0.0039 -0.7311
  101MPD2    C2 1539   2.302   3.549  13.174 -0.2707  0.5934  0.1781
  101MPD2    C3 1540   2.345   3.430  13.234  0.1104  0.5415  0.3228
  101MPD2    C4 1541   2.469   3.376  13.205  0.2259 -0.2102  0.7407
  101MPD2    C5 1542   2.545   3.447  13.116 -0.3532 -0.3707 -0.7368
  101MPD2     H 1543   2.196   3.572  13.178 -0.4705 -0.5026  1.1289
  101MPD2    H1 1544   2.503   3.288  13.258 -0.6953 -1.8078 -1.2960
  101MPD2    H2 1545   2.575   3.607  12.981  0.2764 -1.3488 -0.7422
  101MPD2    H3 1546   2.635   3.400  13.078 -0.9459 -1.3106 -0.9767
  101MPD2     N 1547   2.253   3.367  13.316 -0.3256  0.4020  0.2106
  101MPD2    H5 1548   2.164   3.413  13.332 -0.4829 -0.5302  2.0746
  101MPD2    N1 1549   2.341   3.721  12.995 -1.1300  1.2468 -0.4165
  101MPD2    H7 1550   2.408   3.747  12.924 -0.3788  1.0001  0.1943
  102TCq2    C1 1551   2.335   3.923  12.554 -0.3002 -0.3693 -0.6123
  102TCq2    O2 1552   2.450   3.887  12.570 -0.3722 -0.4710  0.3796
  102TCq2    C2 1553   2.248   3.940  12.671 -0.2242  0.3803 -0.7034
  102TCq2    C3 1554   2.126   3.994  12.651 -0.8539 -0.4381  0.2417
  102TCq2    C4 1555   2.036   3.983  12.753  0.0621 -0.2474 -0.5965
  102TCq2    C5 1556   2.058   3.910  12.867  0.3340  0.5556 -0.1641
  102TCq2    C6 1557   2.182   3.860  12.882 -0.0784  1.2289  0.1064
  102TCq2    C7 1558   2.281   3.881  12.787  0.1770 -0.0730 -0.1831
  102TCq2    C8 1559   2.215   3.784  12.999  0.3642  0.2195  0.4116
  102TCq2    O4 1560   2.125   3.754  13.076 -0.2780  0.4715 -0.6903
  102TCq2    C9 1561   1.904   4.042  12.739  0.0896  0.3273  0.0202
  102TCq2    O5 1562   1.892   4.108  12.633 -0.0443 -0.2015  0.0476
  102TCq2    O6 1563   1.814   4.003  12.814  0.7346 -0.5054  0.1283
  102TCq2    H2 1564   2.104   4.047  12.560  0.1385  0.1004  0.3079
  102TCq2    H3 1565   1.977   3.901  12.938  0.8813 -0.2738  0.3507
  102TCq2    H4 1566   2.383   3.846  12.789 -0.5427 -2.0842  1.1430
  103TMC2    C1 1567   0.898   3.428  12.273 -0.2545 -0.6598  0.6904
  103TMC2    C2 1568   1.000   3.329  12.278 -0.2081 -0.1810  0.1451
  103TMC2    C3 1569   1.034   3.294  12.406  0.2936 -0.2900  0.0665
  103TMC2    C4 1570   0.834   3.481  12.376  0.2360 -0.3148  0.1931
  103TMC2    C5 1571   0.877   3.441  12.499  0.2270  0.0135 -0.3664
  103TMC2    C6 1572   0.978   3.345  12.517  1.4010 -0.4049  0.1279
  103TMC2     C 1573   0.869   3.495  12.147  0.1406  0.3057  0.5797
  103TMC2     O 1574   0.759   3.551  12.129 -0.0478  0.4423  0.3196
  103TMC2     H 1575   1.020   3.266  12.192  1.0664  0.1576  0.1886
  103TMC2    H1 1576   0.776   3.572  12.363 -1.0579 -1.1629  0.0353
  103TMC2    H2 1577   1.007   3.324  12.619 -3.0680 -2.5372  0.9807
  103TMC2    C7 1578   0.823   3.506  12.623 -0.7300  0.4645 -0.1969
  103TMC2    C8 1579   1.044   3.149  12.418  1.3213  0.3150 -0.0316
  103TMC2    O1 1580   0.886   3.481  12.731 -0.0426 -0.4034 -0.0326
  103TMC2    O2 1581   0.946   3.079  12.395 -0.3328 -0.4957 -0.5235
  103TMC2    O5 1582   1.159   3.120  12.354  0.4299  0.2276 -0.3590
  103TMC2    H5 1583   1.220   3.194  12.372 -0.3236  1.2371 -2.0479
  104MPD2     C 1584   1.108   3.586  11.877  0.4609 -0.2291  0.2617
  104MPD2    C1 1585   0.983   3.550  11.930 -0.4735 -0.1652  0.1249
  104MPD2    C2 1586   0.870   3.602  11.876 -0.1651 -0.5414  0.4304
  104MPD2    C3 1587   0.878   3.697  11.775 -0.5081  0.0368  0.0012
  104MPD2    C4 1588   0.999   3.730  11.720 -0.1946  0.4530  0.3959
  104MPD2    C5 1589   1.113   3.665  11.766  0.0477 -0.3226  0.3346
  104MPD2     H 1590   0.770   3.575  11.906  0.1578 -2.6641 -0.3961
  104MPD2    H1 1591   1.019   3.790  11.632 -0.0499 -0.2585 -0.0585
  104MPD2    H2 1592   1.206   3.562  11.917 -0.3854 -0.9296  1.9016
  104MPD2    H3 1593   1.211   3.682  11.724  0.2301  1.0742  1.3017
  104MPD2     N 1594   0.758   3.760  11.742 -0.7353 -0.3030  0.0581
  104MPD2    H5 1595   0.678   3.733  11.797 -0.1924 -0.4841  0.7549
  104MPD2    N1 1596   0.982   3.493  12.059 -0.7397  0.0405 -0.6750
  104MPD2    H7 1597   1.074   3.461  12.088 -1.1023 -0.2045  0.2227
  105MPD2     C 1598   2.364   2.841  17.592  0.1873 -0.3025  0.1830
  105MPD2    C1 1599   2.232   2.871  17.574  0.7726  0.7093 -0.6288
  105MPD2    C2 1600   2.143   2.842  17.683 -0.0790 -1.6223 -0.1951
  105MPD2    C3 1601   2.178   2.795   0.110  0.2678 -0.0321 -0.3327
  105MPD2    C4 1602   2.317   2.795   0.127  0.6359  0.2076 -0.0573
  105MPD2    C5 1603   2.408   2.808   0.019 -0.2359 -0.2542  0.3821
  105MPD2     H 1604   2.037   2.831  17.666 -0.5420 -1.7713  2.8313
  105MPD2    H1 1605   2.357   2.767   0.224  1.8259  0.0046 -0.6016
  105MPD2    H2 1606   2.430   2.873  17.512  0.2897  2.0835  1.2178
  105MPD2    H3 1607   2.515   2.800   0.037 -0.6175 -0.1639  2.6452
  105MPD2     N 1608   2.074   2.776   0.210  0.5567  0.6591 -0.0891
  105MPD2    H5 1609   1.982   2.787   0.169  0.1818  0.8582  0.8131
  105MPD2    N1 1610   2.172   2.922  17.458  0.0981  0.5508  0.4155
  105MPD2    H7 1611   2.076   2.951  17.471 -0.5136 -0.6384 -1.4437
  106TCq2    C1 1612   2.094   2.763   0.348  0.2413  0.1712 -0.7902
  106TCq2    O2 1613   2.203   2.758   0.408  0.5334  0.1364 -0.1746
  106TCq2    C2 1614   1.969   2.746   0.411 -0.1066  1.0117  0.4504
  106TCq2    C3 1615   1.856   2.716   0.345  0.0955 -0.8477 -0.4641
  106TCq2    C4 1616   1.744   2.694   0.416  0.0688  0.1483  0.2359
  106TCq2    C5 1617   1.739   2.698   0.552 -0.6407  0.6505 -0.0620
  106TCq2    C6 1618   1.858   2.718   0.614  0.1010 -0.1859 -0.1500
  106TCq2    C7 1619   1.973   2.737   0.547 -0.6550  0.0767  0.2377
  106TCq2    C8 1620   1.868   2.724   0.755  0.3287 -0.4171 -0.6032
  106TCq2    O4 1621   1.976   2.694   0.805 -0.2191 -0.4282  0.3183
  106TCq2    C9 1622   1.626   2.672   0.343  0.4966 -0.1122 -0.0227
  106TCq2    O5 1623   1.520   2.684   0.405  0.0613  0.4931  0.2867
  106TCq2    O6 1624   1.625   2.691   0.216 -0.3642  0.2512  0.0202
  106TCq2    H2 1625   1.856   2.685   0.241  1.7525 -1.7682 -0.1939
  106TCq2    H3 1626   1.648   2.683   0.610  1.8260 -2.7920  2.9955
  106TCq2    H4 1627   2.065   2.757   0.601 -1.0179  0.6635  0.6393
  107TMC2    C1 1628   2.773   2.664  11.780  0.0817  0.2502  0.6609
  107TMC2    C2 1629   2.731   2.789  11.746 -1.0828 -0.1000 -0.4041
  107TMC2    C3 1630   2.767   2.827  11.619  0.6293 -0.5328 -0.0990
  107TMC2    C4 1631   2.849   2.587  11.700 -0.6442 -0.4283  0.3580
  107TMC2    C5 1632   2.898   2.636  11.583  0.0305  0.1779 -0.0834
  107TMC2    C6 1633   2.852   2.757  11.537 -0.0744  0.6112  0.2693
  107TMC2     C 1634   2.730   2.614  11.909 -0.4528  0.1911  0.0733
  107TMC2     O 1635   2.619   2.655  11.944  0.6225  0.3157  0.1308
  107TMC2     H 1636   2.664   2.851  11.804 -0.9235  0.1789 -0.5236
  107TMC2    H1 1637   2.864   2.482  11.720  1.1928  0.2373  2.5026
  107TMC2    H2 1638   2.893   2.803  11.448  1.7076  1.5912  1.6056
  107TMC2    C7 1639   2.957   2.534  11.497 -0.0049 -0.3019  0.2299
  107TMC2    C8 1640   2.743   2.962  11.576 -0.0685  0.3730 -0.8218
  107TMC2    O1 1641   2.968   2.419  11.543  0.6535  0.0293  0.2468
  107TMC2    O2 1642   2.713   3.057  11.649  0.0399 -0.1184 -0.6659
  107TMC2    O5 1643   2.714   2.951  11.445 -0.4193 -0.1165 -0.1327
  107TMC2    H5 1644   2.728   2.862  11.405  0.0721 -1.3221  2.7002
  108MPD2     C 1645   2.937   2.452  12.173 -0.1663  0.0758  0.0689
  108MPD2    C1 1646   2.824   2.486  12.102  0.6417  0.0429 -0.1273
  108MPD2    C2 1647   2.703   2.476  12.164  0.9161 -0.1425 -0.0391
  108MPD2    C3 1648   2.697   2.448  12.298  0.5243 -0.3465  0.3709
  108MPD2    C4 1649   2.809   2.414  12.370  0.3008 -0.2853 -0.1703
  108MPD2    C5 1650   2.933   2.410  12.304  0.1102  0.0437 -0.6858
  108MPD2     H 1651   2.617   2.506  12.105  1.2314 -0.4174 -0.6499
  108MPD2    H1 1652   2.811   2.381  12.473 -0.7282  1.6343  0.4499
  108MPD2    H2 1653   3.035   2.444  12.128  0.6882 -0.1300  1.9454
  108MPD2    H3 1654   3.027   2.385  12.352  0.5491 -0.9804 -2.0722
  108MPD2     N 1655   2.585   2.463  12.384  0.1909 -0.1597 -0.0353
  108MPD2    H5 1656   2.596   2.434  12.481 -3.0541  1.5629  0.8474
  108MPD2    N1 1657   2.833   2.533  11.970 -0.6875 -0.3993 -0.0456
  108MPD2    H7 1658   2.919   2.512  11.921 -0.2625  0.5836  0.2881
  109MPD2     C 1659   3.224   4.212   2.132  0.7287  0.3234  0.8056
  109MPD2    C1 1660   3.216   4.243   1.999 -0.0508  0.1578  0.7966
  109MPD2    C2 1661   3.225   4.378   1.964  0.2171 -0.1559  0.2259
  109MPD2    C3 1662   3.239   4.478   2.064 -0.6502  0.0940 -0.4362
  109MPD2    C4 1663   3.249   4.437   2.191  0.4667  0.6282 -0.1681
  109MPD2    C5 1664   3.235   4.307   2.221  0.7012  0.2300 -0.2745
  109MPD2     H 1665   3.184   4.416   1.871  0.2981  1.6074  0.9054
  109MPD2    H1 1666   3.255   4.499   2.279 -2.6090 -1.1543  1.2582
  109MPD2    H2 1667   3.204   4.113   2.172 -1.0622  0.2219 -0.3448
  109MPD2    H3 1668   3.252   4.288   2.326 -2.6025  1.7084  0.5367
  109MPD2     N 1669   3.218   4.615   2.032 -0.2791  0.0510  0.2865
  109MPD2    H5 1670   3.211   4.633   1.932  1.1608  0.8882  0.3299
  109MPD2    N1 1671   3.175   4.135   1.911 -0.7912  0.0545  0.1870
  109MPD2    H7 1672   3.150   4.045   1.950 -1.4503 -0.0950 -0.5760
  110TCq2    C1 1673   3.219   0.002   2.109 -0.4433  0.9115 -0.2552
  110TCq2    O2 1674   3.273   0.015   2.218 -0.0951  0.4420  0.3092
  110TCq2    C2 1675   3.168   0.119   2.043 -0.0432  0.0868  0.5653
  110TCq2    C3 1676   3.176   0.239   2.117  0.3528 -0.2642  0.3790
  110TCq2    C4 1677   3.145   0.358   2.055  0.3152  0.1135  1.3650
  110TCq2    C5 1678   3.106   0.351   1.920  0.3620 -0.1740 -0.2330
  110TCq2    C6 1679   3.103   0.236   1.850  0.1268  0.6713 -0.2172
  110TCq2    C7 1680   3.129   0.117   1.914 -0.1489 -0.2252  0.3296
  110TCq2    C8 1681   3.047   0.234   1.720  0.5659  0.5964  0.4637
  110TCq2    O4 1682   3.050   0.132   1.654 -0.0986  0.0829  0.4146
  110TCq2    C9 1683   3.155   0.481   2.129 -0.2089 -0.2441 -0.4498
  110TCq2    O5 1684   3.204   0.470   2.243 -0.2005  0.3447  0.2426
  110TCq2    O6 1685   3.107   0.585   2.073 -0.2603 -0.0871 -0.1654
  110TCq2    H2 1686   3.221   0.255   2.215  1.1589  2.1130 -0.3947
  110TCq2    H3 1687   3.090   0.449   1.876 -0.6220 -0.5783 -0.7643
  110TCq2    H4 1688   3.129   0.026   1.855  1.7019  0.5550 -0.8797
  111TMC2    C1 1689   2.525   4.516  11.353 -0.5331  0.0356 -0.5419
  111TMC2    C2 1690   2.397   4.492  11.384  0.4962 -0.2455  0.0501
  111TMC2    C3 1691   2.371   4.377  11.457  0.2536  0.0493  0.3192
  111TMC2    C4 1692   2.633   4.464  11.420  0.4807 -0.0592  0.2616
  111TMC2    C5 1693   2.596   4.367  11.504  0.0948 -0.1843  0.5238
  111TMC2    C6 1694   2.469   4.312  11.514  0.4657  0.0359 -0.3705
  111TMC2     C 1695   2.542   4.629  11.253  0.2970 -0.4473  0.5329
  111TMC2     O 1696   2.443   4.692  11.224 -0.2021  0.0197 -0.1819
  111TMC2     H 1697   2.325   4.558  11.337  1.5279  1.2133  0.5111
  111TMC2    H1 1698   2.735   4.499  11.416 -0.1098  1.9215  2.4681
  111TMC2    H2 1699   2.451   4.246  11.597 -0.3324  0.2114 -0.4011
  111TMC2    C7 1700   2.684   4.330  11.611  0.2720  0.2980 -0.6594
  111TMC2    C8 1701   2.243   4.365  11.517  0.0772  0.0436 -0.0389
  111TMC2    O1 1702   2.695   4.212  11.643  0.4732 -0.0375 -0.5016
  111TMC2    O2 1703   2.231   4.326  11.630 -0.0491  0.0085  0.0157
  111TMC2    O5 1704   2.170   4.308  11.421  0.2212  0.3263  0.2678
  111TMC2    H5 1705   2.174   4.359  11.338  0.2840  0.2691  0.2357
  112MPD2     C 1706   2.774   0.054  10.822 -0.1929  0.6163 -0.4422
  112MPD2    C1 1707   2.660   0.106  10.881 -0.2845 -0.1570 -0.0275
  112MPD2    C2 1708   2.625   0.062  11.008  0.2153  0.1773  0.5604
  112MPD2    C3 1709   2.699   4.693  11.071 -0.3319  0.4696  0.0758
  112MPD2    C4 1710   2.825   4.653  11.022 -0.8484 -0.0276 -0.2829
  112MPD2    C5 1711   2.860   4.695  10.892  0.0517 -0.7270  0.7568
  112MPD2     H 1712   2.526   0.086  11.045  0.1108 -1.1413  1.1446
  112MPD2    H1 1713   2.890   4.583  11.073  1.5536  1.8239 -0.8211
  112MPD2    H2 1714   2.818   0.086  10.728 -0.6271  0.6579 -0.6309
  112MPD2    H3 1715   2.949   4.669  10.836  0.8957 -1.3038  2.3651
  112MPD2     N 1716   2.659   4.618  11.186 -0.3314  0.4634 -0.0226
  112MPD2    H5 1717   2.713   4.538  11.218 -1.3507  0.0331  0.6281
  112MPD2    N1 1718   2.578   0.209  10.819 -0.5047 -0.0698  0.1865
  112MPD2    H7 1719   2.514   0.258  10.881 -0.6925 -0.8160  0.5809
  113MPD2     C 1720   1.554   2.039   0.845  0.1062 -0.2211 -0.1845
  113MPD2    C1 1721   1.459   2.121   0.902  0.0446 -0.0184 -0.9296
  113MPD2    C2 1722   1.323   2.089   0.885  1.3992 -0.1659  0.3090
  113MPD2    C3 1723   1.286   1.969   0.826 -0.4466  0.3900  0.2457
  113MPD2    C4 1724   1.390   1.882   0.795  0.2592  0.5276 -0.3900
  113MPD2    C5 1725   1.519   1.916   0.805  0.7547  0.0898  0.0893
  113MPD2     H 1726   1.247   2.158   0.917 -0.2440 -0.0981 -3.7517
  113MPD2    H1 1727   1.372   1.781   0.762 -1.4579  0.6049  0.3259
  113MPD2    H2 1728   1.662   2.051   0.853  0.0075  1.3533 -1.1604
  113MPD2    H3 1729   1.587   1.846   0.757 -0.9882 -0.9938 -0.8336
  113MPD2     N 1730   1.151   1.926   0.832 -0.5755  0.3240  0.1327
  113MPD2    H5 1731   1.142   1.825   0.824 -0.5302  0.3046  0.3222
  113MPD2    N1 1732   1.492   2.242   0.969 -0.2628 -0.1323  0.5233
  113MPD2    H7 1733   1.415   2.291   1.013 -2.9324 -2.4769 -1.4324
  114TCq2    C1 1734   1.035   1.998   0.867 -0.1190 -0.3069  0.1721
  114TCq2    O2 1735   1.021   2.114   0.906  0.2119  0.4624  0.6589
  114TCq2    C2 1736   0.920   1.920   0.874  0.3082  0.1344 -0.0672
  114TCq2    C3 1737   0.799   1.974   0.877  0.8946  0.2869  0.0762
  114TCq2    C4 1738   0.694   1.911   0.926  0.0146  0.3294  0.3458
  114TCq2    C5 1739   0.705   1.796   0.997  0.0997  0.5472  0.8471
  114TCq2    C6 1740   0.831   1.739   0.994  0.2960 -0.1657  0.5791
  114TCq2    C7 1741   0.943   1.797   0.941 -0.1155 -0.3379 -0.0021
  114TCq2    C8 1742   0.851   1.605   1.044 -0.4764  0.6009 -0.9097
  114TCq2    O4 1743   0.947   1.543   1.004 -0.1026  0.9796 -0.0393
  114TCq2    C9 1744   0.566   1.977   0.895 -0.6927 -0.0606  0.4945
  114TCq2    O5 1745   0.465   1.910   0.915 -0.2156  0.7862  0.3391
  114TCq2    O6 1746   0.584   2.103   0.856 -0.6117  0.2506  0.4013
  114TCq2    H2 1747   0.792   2.075   0.838  0.8898  0.1635 -0.2429
  114TCq2    H3 1748   0.618   1.744   1.033 -0.7588 -0.1581 -2.2117
  114TCq2    H4 1749   1.039   1.749   0.957 -0.0726 -0.1702  0.2568
  115TMC2    C1 1750   1.414   0.477  17.425 -1.0083  0.5233  0.3543
  115TMC2    C2 1751   1.546   0.456  17.412  0.2850 -0.7372 -0.4377
  115TMC2    C3 1752   1.624   0.565  17.425 -0.2486 -0.2217  0.1772
  115TMC2    C4 1753   1.359   0.599  17.447 -0.3767 -0.8876 -0.4551
  115TMC2    C5 1754   1.442   0.710  17.428 -0.2730  0.2328 -0.0371
  115TMC2    C6 1755   1.576   0.692  17.415 -0.0689 -0.4549 -0.2777
  115TMC2     C 1756   1.326   0.363  17.397 -0.3163 -0.4007  0.6919
  115TMC2     O 1757   1.381   0.268  17.338  0.7466 -0.4606  0.3409
  115TMC2     H 1758   1.577   0.356  17.387 -0.7019 -0.5555 -2.4098
  115TMC2    H1 1759   1.251   0.612  17.442 -0.7549 -2.9787  2.1099
  115TMC2    H2 1760   1.637   0.781  17.410 -0.4456 -0.2517 -1.2069
  115TMC2    C7 1761   1.385   0.845  17.442 -0.1502  0.2251  0.3958
  115TMC2    C8 1762   1.763   0.548  17.404 -0.8548 -0.9907 -1.0186
  115TMC2    O1 1763   1.276   0.845  17.495 -0.0716  0.3696 -0.1057
  115TMC2    O2 1764   1.837   0.640  17.378  0.2097 -0.0393  1.0313
  115TMC2    O5 1765   1.795   0.426  17.452  0.0402 -0.0260  0.1505
  115TMC2    H5 1766   1.716   0.381  17.488 -0.1171  1.5281  1.7207
  116MPD2     C 1767   0.851   0.172  17.341 -0.3696  0.2148 -0.2203
  116MPD2    C1 1768   0.973   0.118  17.303  0.7487  0.1456 -0.4377
  116MPD2    C2 1769   1.083   0.191  17.333 -0.5024  0.1314  0.2730
  116MPD2    C3 1770   1.074   0.318  17.385 -0.3760  0.4913 -0.1457
  116MPD2    C4 1771   0.951   0.365  17.425  0.1113 -0.3923 -0.5776
  116MPD2    C5 1772   0.844   0.291  17.399  0.0523  0.3300  0.4846
  116MPD2     H 1773   1.180   0.146  17.319  0.2767  1.2649  1.9496
  116MPD2    H1 1774   0.938   0.465  17.463  0.1960 -1.1366  1.3987
  116MPD2    H2 1775   0.763   0.112  17.326 -0.3405 -0.1719  1.1475
  116MPD2    H3 1776   0.748   0.322  17.439  0.6160  2.7600 -0.0515
  116MPD2     N 1777   1.192   0.395  17.423  0.0243 -0.0737  0.1267
  116MPD2    H5 1778   1.168   0.476  17.479 -0.7190 -1.0990  1.2785
  116MPD2    N1 1779   0.978   4.716  17.238  0.2648 -0.3115 -0.4575
  116MPD2    H7 1780   0.888   4.682  17.207 -0.7641  1.0083  1.1086
  117TMC2    C1 1781   0.198   1.374  13.777  0.6788 -0.2371 -0.4228
  117TMC2    C2 1782   0.263   1.251  13.788  0.7216 -0.1420  0.1222
  117TMC2    C3 1783   0.397   1.248  13.761  0.4205 -0.0758  0.4239
  117TMC2    C4 1784   0.265   1.491  13.735 -0.5980 -0.4603 -0.7978
  117TMC2    C5 1785   0.400   1.479  13.715  0.0140  0.4283 -0.8005
  117TMC2    C6 1786   0.462   1.358  13.720  0.0922 -0.2040  0.3174
  117TMC2     C 1787   0.055   1.381  13.780 -0.2660 -0.0854 -0.0720
  117TMC2     O 1788   4.719   1.280  13.752  0.2268 -1.0236  0.2646
  117TMC2     H 1789   0.205   1.162  13.809 -1.7557  1.5714  0.6419
  117TMC2    H1 1790   0.215   1.588  13.730  2.0526  0.9132 -0.5171
  117TMC2    H2 1791   0.566   1.351  13.690 -0.5021  0.8441 -1.9931
  117TMC2    C7 1792   0.473   1.608  13.705  0.3489  0.0395 -0.3400
  117TMC2    C8 1793   0.481   1.136  13.786  0.3780  0.5939  0.3257
  117TMC2    O1 1794   0.409   1.712  13.689  0.0079 -0.4184  0.5597
  117TMC2    O2 1795   0.599   1.131  13.763  0.3811 -0.6204  0.0789
  117TMC2    O5 1796   0.397   1.030  13.793 -0.1483 -0.1017  0.3106
  117TMC2    H5 1797   0.448   0.947  13.800 -1.9720 -1.1558  1.0749
  118MPD2     C 1798   0.827   1.678  13.703  0.4309 -0.9863 -0.7799
  118MPD2    C1 1799   0.696   1.710  13.692 -0.7749  0.5211  0.1236
  118MPD2    C2 1800   0.657   1.846  13.669  0.8440 -0.5170  0.1504
  118MPD2    C3 1801   0.752   1.945  13.659 -0.1994 -0.0618 -0.4652
  118MPD2    C4 1802   0.890   1.905  13.657 -0.6918  0.4779  0.4476
  118MPD2    C5 1803   0.923   1.773  13.686 -0.2270  0.0107 -0.1759
  118MPD2     H 1804   0.555   1.874  13.645  1.3305  2.5946  1.7822
  118MPD2    H1 1805   0.969   1.978  13.644 -1.3436  0.4521 -3.8181
  118MPD2    H2 1806   0.855   1.583  13.747  0.7121 -0.5221  0.0465
  118MPD2    H3 1807   1.028   1.747  13.688 -0.2739 -0.0952  0.7304
  118MPD2     N 1808   0.723   2.076  13.614 -0.5048  0.8098 -0.6781
  118MPD2    H5 1809   0.803   2.126  13.577  1.5239 -1.8955  0.0076
  118MPD2    N1 1810   0.610   1.594  13.702  0.3239  0.0910 -0.0091
  118MPD2    H7 1811   0.654   1.506  13.728 -1.0423 -0.4204  0.5901
  119MPD2     C 1812   3.429   3.179  13.759 -0.0084  0.6021 -0.2792
  119MPD2    C1 1813   3.308   3.171  13.833  0.3201 -0.3835 -0.2675
  119MPD2    C2 1814   3.192   3.206  13.764 -0.1147  0.4407  0.4176
  119MPD2    C3 1815   3.197   3.249  13.631  0.1241  0.4106  0.4291
  119MPD2    C4 1816   3.324   3.258  13.571  0.2562 -0.3104  0.9612
  119MPD2    C5 1817   3.434   3.217  13.629  0.0115 -0.5156  0.6867
  119MPD2     H 1818   3.096   3.194  13.812 -0.2612 -0.9807 -0.2440
  119MPD2    H1 1819   3.332   3.274  13.464 -1.5970  2.3706  1.2138
  119MPD2    H2 1820   3.525   3.147  13.798 -1.0202 -1.2054  0.7881
  119MPD2    H3 1821   3.530   3.202  13.580 -1.5698  0.0931 -2.6155
  119MPD2     N 1822   3.080   3.260  13.546 -0.2206 -0.2910  0.0967
  119MPD2    H5 1823   3.098   3.287  13.449  1.1799  2.1666  1.0157
  119MPD2    N1 1824   3.311   3.116  13.967 -0.7647 -0.2724  0.8984
  119MPD2    H7 1825   3.404   3.114  14.007 -0.3387 -1.1274 -0.1263
  120TCq2    C1 1826   2.945   3.261  13.574 -0.1385  0.8446  0.2211
  120TCq2    O2 1827   2.886   3.256  13.683  0.6108  0.4694 -0.4124
  120TCq2    C2 1828   2.870   3.256  13.451  0.7138  0.2756 -0.2020
  120TCq2    C3 1829   2.920   3.288  13.329  0.2498  0.0898 -0.1274
  120TCq2    C4 1830   2.861   3.222  13.221  0.0465 -0.1908 -0.6690
  120TCq2    C5 1831   2.754   3.135  13.237  0.2433 -0.5289 -0.3013
  120TCq2    C6 1832   2.687   3.120  13.358 -0.9298  0.0270 -0.1924
  120TCq2    C7 1833   2.754   3.178  13.466  0.0710 -0.3525  0.1394
  120TCq2    C8 1834   2.645   2.987  13.376  0.0048 -0.4684  0.3415
  120TCq2    O4 1835   2.699   2.910  13.295 -0.4178 -0.2748 -0.4132
  120TCq2    C9 1836   2.916   3.243  13.088 -0.3371  0.0127  0.0819
  120TCq2    O5 1837   3.021   3.308  13.089  0.4751  0.2020 -0.1864
  120TCq2    O6 1838   2.868   3.178  12.992  0.8222  0.5921 -0.0437
  120TCq2    H2 1839   3.009   3.347  13.313 -0.1750  0.5792 -0.6632
  120TCq2    H3 1840   2.713   3.100  13.143  3.5263 -0.8905 -1.5737
  120TCq2    H4 1841   2.724   3.154  13.567 -1.6683  1.2033 -0.0108
  121TMC2    C1 1842   4.519   0.080  13.962 -0.0790 -0.2320 -0.6217
  121TMC2    C2 1843   4.483   0.064  14.093 -0.3644  0.3541  0.4632
  121TMC2    C3 1844   4.348   0.074  14.123 -0.3811 -0.0705 -0.5082
  121TMC2    C4 1845   4.430   0.097  13.868  0.5152 -0.8609  0.9577
  121TMC2    C5 1846   4.301   0.112  13.898  0.1887 -0.2110  0.1012
  121TMC2    C6 1847   4.252   0.104  14.024  0.3187 -0.1221 -0.7547
  121TMC2     C 1848   4.656   0.039  13.927  0.3323 -0.5578  0.3183
  121TMC2     O 1849   0.014   0.020  14.016  0.8186  0.0719 -0.1158
  121TMC2     H 1850   4.563   0.044  14.164  0.5706  0.6234 -0.5148
  121TMC2    H1 1851   4.454   0.102  13.762 -0.6807  2.0647  0.8132
  121TMC2    H2 1852   4.149   0.080  14.047 -0.0731  1.4542 -0.8441
  121TMC2    C7 1853   4.210   0.104  13.791 -0.4807 -0.4237  0.4491
  121TMC2    C8 1854   4.300   0.036  14.255 -0.1288 -0.4137  0.5506
  121TMC2    O1 1855   4.253   0.069  13.686 -0.4853  0.7457  0.3766
  121TMC2    O2 1856   4.224   0.098  14.325 -0.8511 -0.0235 -0.7157
  121TMC2    O5 1857   4.312   4.626  14.256  0.3853  1.1852 -0.2206
  121TMC2    H5 1858   4.380   4.594  14.193  0.0350  0.8863 -0.4508
  122MPD2     C 1859   0.145   4.600  13.792 -0.0591  0.4346  0.3612
  122MPD2    C1 1860   0.062   4.690  13.728  0.1218  0.3294  0.3721
  122MPD2    C2 1861   0.089   4.719  13.593  0.0362  0.7494  0.2751
  122MPD2    C3 1862   0.191   4.664  13.524 -1.0321 -0.0661  0.0868
  122MPD2    C4 1863   0.270   4.579  13.594  0.3787 -0.3547  0.7463
  122MPD2    C5 1864   0.253   4.548  13.724 -0.4100 -0.1728 -0.6456
  122MPD2     H 1865   0.022   0.058  13.536 -1.6655 -2.5211 -1.3373
  122MPD2    H1 1866   0.345   4.516  13.547  2.9055  4.1717 -1.2639
  122MPD2    H2 1867   0.124   4.573  13.895 -0.0199  0.3077  0.3363
  122MPD2    H3 1868   0.308   4.464  13.765  1.2984  0.9903 -0.5816
  122MPD2     N 1869   0.216   4.706  13.391 -0.3251 -0.0940 -0.8558
  122MPD2    H5 1870   0.153   0.055  13.358  0.4214  1.2344  0.6957
  122MPD2    N1 1871   4.679   0.028  13.794 -0.0330  0.2509  0.4536
  122MPD2    H7 1872   4.619   0.085  13.736 -0.1109  0.3026  0.5846
  123MPD2     C 1873   2.274   3.381   9.432  0.5573 -0.6023  0.1993
  123MPD2    C1 1874   2.311   3.348   9.564 -0.1364 -0.6079  0.3400
  123MPD2    C2 1875   2.411   3.425   9.628  0.9133  0.0419  0.4924
  123MPD2    C3 1876   2.493   3.514   9.564 -0.2597  0.5220  0.5590
  123MPD2    C4 1877   2.467   3.532   9.425 -0.4800 -0.6548  0.1232
  123MPD2    C5 1878   2.359   3.469   9.366 -1.1848  1.0282  0.9816
  123MPD2     H 1879   2.427   3.410   9.734 -0.2968 -0.3817  0.6141
  123MPD2    H1 1880   2.535   3.587   9.361 -0.2478 -0.0599  0.8805
  123MPD2    H2 1881   2.197   3.333   9.373 -0.2745 -0.6758  1.3365
  123MPD2    H3 1882   2.342   3.485   9.260  0.0357  1.8262  0.9022
  123MPD2     N 1883   2.579   3.594   9.642  0.4897 -0.0018  0.0004
  123MPD2    H5 1884   2.572   3.563   9.738  0.6107 -1.1560 -0.3716
  123MPD2    N1 1885   2.245   3.238   9.626 -0.1972 -0.5684 -0.2012
  123MPD2    H7 1886   2.176   3.197   9.565  0.9231 -2.4518 -0.2052
  124TCq2    C1 1887   2.651   3.702   9.597 -0.0508 -0.3521  0.7848
  124TCq2    O2 1888   2.644   3.748   9.485 -0.0741 -0.7585  0.1306
  124TCq2    C2 1889   2.695   3.796   9.699 -0.2404 -0.1666 -0.4452
  124TCq2    C3 1890   2.734   3.920   9.659  0.1784 -0.6683 -0.2447
  124TCq2    C4 1891   2.841   3.984   9.728 -0.5046  0.1055  0.0822
  124TCq2    C5 1892   2.894   3.939   9.840 -0.2482 -0.3920 -0.3020
  124TCq2    C6 1893   2.861   3.809   9.869  0.3209 -0.5040 -0.2019
  124TCq2    C7 1894   2.757   3.738   9.803 -0.0222  0.1350 -0.0958
  124TCq2    C8 1895   2.957   3.730   9.947 -0.1167  0.5518 -0.2385
  124TCq2    O4 1896   2.927   3.618   9.982 -0.4563  0.0285 -0.0036
  124TCq2    C9 1897   2.871   4.117   9.683  0.7703  0.5462 -0.5611
  124TCq2    O5 1898   2.831   4.158   9.573  0.4302  0.2974  0.0881
  124TCq2    O6 1899   2.937   4.185   9.766 -0.0104  0.4013 -0.0307
  124TCq2    H2 1900   2.691   3.960   9.567  1.6981 -0.4100 -0.8524
  124TCq2    H3 1901   2.947   4.002   9.910  0.2290  0.8537 -1.8011
  124TCq2    H4 1902   2.746   3.635   9.834  0.3299 -0.5678 -2.2906
  125TMC2    C1 1903   4.590   3.665   8.366 -0.7402  0.4875  0.2328
  125TMC2    C2 1904   4.537   3.635   8.242 -0.0835 -0.0315  0.1145
  125TMC2    C3 1905   4.574   3.518   8.188  0.1915  0.3504 -0.6714
  125TMC2    C4 1906   4.672   3.582   8.432  0.3778 -0.2394 -0.1182
  125TMC2    C5 1907   4.688   3.453   8.381  0.2729  0.1356  0.2193
  125TMC2    C6 1908   4.638   3.417   8.259  0.4472 -0.2307  0.6936
  125TMC2     C 1909   4.556   3.795   8.422  1.3212 -0.4439 -0.1777
  125TMC2     O 1910   4.451   3.847   8.385  0.2550 -0.3178  0.4317
  125TMC2     H 1911   4.474   3.711   8.197  0.7128 -1.2978 -3.1648
  125TMC2    H1 1912   4.718   3.619   8.522 -1.7753  1.8792  0.1051
  125TMC2    H2 1913   4.659   3.321   8.214 -1.8508 -0.8608  0.9979
  125TMC2    C7 1914   0.048   3.352   8.440  0.6444 -0.4332 -0.2337
  125TMC2    C8 1915   4.547   3.511   8.051  0.2398 -0.9774  0.0797
  125TMC2    O1 1916   0.037   3.238   8.402 -0.4080  0.0755 -0.0162
  125TMC2    O2 1917   4.545   3.397   8.000  0.2858  0.0008 -0.2148
  125TMC2    O5 1918   4.603   3.618   7.992  0.3340 -0.1684 -0.2808
  125TMC2    H5 1919   4.638   3.683   8.056  0.0998  0.9108 -1.2394
  126MPD1     C 1920   4.689   4.209   8.683  0.5460 -0.2482  1.3487
  126MPD1    C1 1921   0.077   4.127   8.690  0.1253  0.4078 -0.0878
  126MPD1    C2 1922   0.063   4.010   8.610 -0.1164 -0.1656 -0.4810
  126MPD1    C3 1923   4.662   3.966   8.559  0.0040  0.0368 -0.1572
  126MPD1    C4 1924   4.555   4.049   8.564 -0.1001 -0.5618  0.0086
  126MPD1    C5 1925   4.566   4.169   8.629  1.1829 -0.2135  0.7497
  126MPD1     H 1926   0.150   3.948   8.590  1.1690  2.3556 -2.5863
  126MPD1    H1 1927   4.459   4.033   8.516  0.2039  0.0213 -0.7985
  126MPD1    H2 1928   4.685   4.308   8.728  0.2202 -0.2535  1.3333
  126MPD1    H3 1929   4.478   4.231   8.637  1.1755  0.2051 -2.3301
  126MPD1     N 1930   4.662   3.843   8.493 -0.4243  0.1263  0.5417
  126MPD1    H5 1931   0.026   3.794   8.500  1.1076  2.4997 -2.2465
  126MPD1    N1 1932   0.204   4.173   8.739  0.8529  0.2835 -0.2866
  126MPD1    H6 1933   0.188   4.241   8.813 -0.3624  1.7546 -1.8810
  126MPD1    H7 1934   0.257   4.099   8.783 -2.6632 -0.6877  2.2937
  127MPD2     C 1935   1.054   3.579   9.916  0.0477 -0.0658 -0.2660
  127MPD2    C1 1936   0.948   3.632   9.848 -0.0445  0.3457  0.0045
  127MPD2    C2 1937   0.941   3.761   9.814  0.9813 -0.3842 -0.0001
  127MPD2    C3 1938   1.034   3.855   9.858  0.0032 -0.3526 -1.1259
  127MPD2    C4 1939   1.140   3.803   9.930  0.2243 -0.0608  0.1162
  127MPD2    C5 1940   1.142   3.670   9.974 -0.7281 -0.2101  0.0307
  127MPD2     H 1941   0.850   3.811   9.782  1.0331  0.4658  1.1991
  127MPD2    H1 1942   1.219   3.864   9.973 -1.6219  1.3240  1.5223
  127MPD2    H2 1943   1.057   3.477   9.954  1.0439  0.9888  2.5104
  127MPD2    H3 1944   1.223   3.641  10.040  0.5484  2.1528 -0.5165
  127MPD2     N 1945   1.017   3.996   9.830  0.0159 -0.4593  0.1034
  127MPD2    H5 1946   0.930   4.026   9.787  0.5036 -0.2240 -0.7321
  127MPD2    N1 1947   0.837   3.552   9.815 -0.7182  0.1578  0.2950
  127MPD2    H7 1948   0.853   3.456   9.845 -1.1115  0.5035  1.6180
  128TCq2    C1 1949   0.717   3.579   9.763 -0.4016 -0.1953 -0.1337
  128TCq2    O2 1950   0.683   3.685   9.709  0.6207  0.0344  0.8168
  128TCq2    C2 1951   0.633   3.459   9.733  0.6895  0.4819 -0.1724
  128TCq2    C3 1952   0.662   3.341   9.793 -0.2321  1.0583  1.2494
  128TCq2    C4 1953   0.581   3.234   9.770 -0.6614  0.0269  0.2895
  128TCq2    C5 1954   0.475   3.243   9.683  0.1796 -0.2717  0.6908
  128TCq2    C6 1955   0.445   3.365   9.625 -0.4102 -0.1265  0.4936
  128TCq2    C7 1956   0.532   3.474   9.639  0.6011  0.4000 -0.4343
  128TCq2    C8 1957   0.339   3.379   9.527  0.0864  0.5536  0.4639
  128TCq2    O4 1958   0.334   3.489   9.469 -0.0790 -0.3566  0.1225
  128TCq2    C9 1959   0.599   3.112   9.835  0.2882  0.1271 -1.0323
  128TCq2    O5 1960   0.512   3.022   9.821 -0.1397 -0.4378 -0.0222
  128TCq2    O6 1961   0.685   3.114   9.923 -0.5498  0.1992  0.2653
  128TCq2    H2 1962   0.743   3.336   9.865  0.7824 -1.4319 -0.0665
  128TCq2    H3 1963   0.411   3.156   9.682  0.2866 -0.3260 -1.5743
  128TCq2    H4 1964   0.519   3.573   9.596 -0.6388  0.2567 -0.4015
  129MPD2     C 1965   3.774   4.205   1.203  0.0396 -0.2353  0.7516
  129MPD2    C1 1966   3.685   4.300   1.244 -0.0308  0.1373  0.3189
  129MPD2    C2 1967   3.684   4.420   1.183  0.2667 -0.3174 -0.0489
  129MPD2    C3 1968   3.762   4.444   1.072  0.0078 -0.0349  0.4789
  129MPD2    C4 1969   3.836   4.339   1.024 -0.1208 -0.4184 -0.1386
  129MPD2    C5 1970   3.844   4.225   1.091 -0.5034  0.5360  0.2310
  129MPD2     H 1971   3.624   4.501   1.222  2.0336  1.8172 -1.7957
  129MPD2    H1 1972   3.899   4.338   0.935  0.6405 -1.8794  0.3963
  129MPD2    H2 1973   3.787   4.115   1.261 -0.1966 -1.3069 -0.8649
  129MPD2    H3 1974   3.914   4.150   1.056 -1.2435 -0.8012  1.6307
  129MPD2     N 1975   3.742   4.570   1.007 -0.6953 -0.6019 -0.3571
  129MPD2    H5 1976   3.678   4.633   1.054  1.0946  0.1125  1.1560
  129MPD2    N1 1977   3.614   4.288   1.363 -0.0763  0.1620 -0.8178
  129MPD2    H7 1978   3.568   4.370   1.403  0.0205  1.1203 -2.6426
  130TCq2    C1 1979   3.590   4.180   1.442 -0.3604  0.0673  0.6515
  130TCq2    O2 1980   3.619   4.062   1.416  0.0561 -0.1541  0.2070
  130TCq2    C2 1981   3.533   4.205   1.573  1.0890  0.7165  0.0171
  130TCq2    C3 1982   3.577   4.319   1.636  0.8761 -0.0517  0.6524
  130TCq2    C4 1983   3.578   4.330   1.772 -0.8102 -0.2590 -0.0154
  130TCq2    C5 1984   3.554   4.224   1.849  0.2338  0.1908 -0.0264
  130TCq2    C6 1985   3.524   4.103   1.779 -0.0072 -1.0709  0.6443
  130TCq2    C7 1986   3.517   4.089   1.644 -0.3989 -0.0627 -0.1626
  130TCq2    C8 1987   3.490   3.987   1.854 -0.7930  0.4740  0.3188
  130TCq2    O4 1988   3.434   3.889   1.803 -0.0808 -0.0192  0.5354
  130TCq2    C9 1989   3.615   4.450   1.838 -1.1346  0.6890  0.3884
  130TCq2    O5 1990   3.668   4.443   1.953  0.2359  1.2018  0.0647
  130TCq2    O6 1991   3.604   4.556   1.770  0.6388 -0.3694  0.4247
  130TCq2    H2 1992   3.596   4.411   1.583 -1.1183  0.2572  0.4894
  130TCq2    H3 1993   3.554   4.236   1.957 -1.4613 -0.9880  0.1114
  130TCq2    H4 1994   3.502   3.991   1.601  0.3871 -0.1141 -0.3229
  131MPD2     C 1995   2.521   2.810  10.502  0.2915 -0.0289  0.3064
  131MPD2    C1 1996   2.549   2.926  10.437 -0.1203 -0.2416  0.3578
  131MPD2    C2 1997   2.495   2.943  10.305  0.0199  0.1647  0.0392
  131MPD2    C3 1998   2.406   2.853  10.244 -1.0911 -0.4749 -0.8769
  131MPD2    C4 1999   2.389   2.728  10.308 -0.3428  0.6521 -0.8409
  131MPD2    C5 2000   2.435   2.715  10.440 -0.1166 -0.0593 -0.2969
  131MPD2     H 2001   2.529   3.026  10.246 -0.8843  2.1918  2.3660
  131MPD2    H1 2002   2.315   2.655  10.278  0.1280 -0.7312  1.3987
  131MPD2    H2 2003   2.560   2.790  10.601  0.3203 -2.7171 -0.2747
  131MPD2    H3 2004   2.415   2.623  10.493  0.1295  1.2418  2.0536
  131MPD2     N 2005   2.341   2.892  10.126 -0.2628 -0.3727 -0.3511
  131MPD2    H5 2006   2.377   2.974  10.079 -0.6220  0.0864  0.1729
  131MPD2    N1 2007   2.630   3.028  10.501 -0.3820  0.4899  0.2030
  131MPD2    H7 2008   2.653   2.996  10.594 -3.0480 -1.1383  0.2880
  132TCq2    C1 2009   2.881   3.570  10.492 -0.2254  0.1798 -0.1660
  132TCq2    O2 2010   2.813   3.603  10.392 -0.2885  0.4376 -0.3278
  132TCq2    C2 2011   2.839   3.448  10.562  0.2954 -0.6812  0.7092
  132TCq2    C3 2012   2.893   3.403  10.680  0.4628 -0.2390 -0.9973
  132TCq2    C4 2013   2.873   3.274  10.716  0.6010 -0.1159 -0.2343
  132TCq2    C5 2014   2.809   3.178  10.644  0.2742 -0.2919 -1.3279
  132TCq2    C6 2015   2.752   3.230  10.528  0.2005 -0.4126  0.5477
  132TCq2    C7 2016   2.766   3.356  10.482 -0.6343  0.8025  0.7133
  132TCq2    C8 2017   2.668   3.148  10.444 -0.3554  0.0618 -0.4595
  132TCq2    O4 2018   2.675   3.185  10.329 -0.7073 -0.3996 -0.5338
  132TCq2    C9 2019   2.918   3.234  10.854  0.3068  0.8025 -0.2879
  132TCq2    O5 2020   2.969   3.331  10.924 -0.4077  0.0135  0.5209
  132TCq2    O6 2021   2.914   3.107  10.887  0.3508  0.4027  0.2179
  132TCq2    H2 2022   2.942   3.470  10.750 -0.1891 -2.0102  1.1465
  132TCq2    H3 2023   2.787   3.080  10.685 -0.5532  0.7033  0.5905
  132TCq2    H4 2024   2.734   3.387  10.384 -0.5062 -2.5566 -0.3937
  133MPD2     C 2025   1.254   2.923   9.512 -0.5528  0.1526  0.1727
  133MPD2    C1 2026   1.288   2.949   9.384  0.4301 -0.6608  0.1603
  133MPD2    C2 2027   1.364   3.059   9.354  0.6454  0.4386 -0.2341
  133MPD2    C3 2028   1.408   3.149   9.453  0.2628  0.5792 -0.0343
  133MPD2    C4 2029   1.378   3.117   9.588  0.1057 -0.5037  0.7524
  133MPD2    C5 2030   1.302   3.002   9.620  0.5866  0.0043  0.2113
  133MPD2     H 2031   1.382   3.090   9.252 -0.7883  1.9614 -0.0231
  133MPD2    H1 2032   1.408   3.181   9.671 -0.6048 -0.4041  0.9277
  133MPD2    H2 2033   1.194   2.837   9.539 -1.7684  1.2642  1.0055
  133MPD2    H3 2034   1.274   2.990   9.724 -0.8955 -1.6067 -0.3900
  133MPD2     N 2035   1.456   3.279   9.430 -0.2050 -0.1314  0.0224
  133MPD2    H5 2036   1.469   3.338   9.511 -0.0488  0.1511 -0.2082
  133MPD2    N1 2037   1.242   2.865   9.279 -0.0293  0.0030 -0.6565
  133MPD2    H7 2038   1.191   2.782   9.308  0.4024 -0.1440 -0.3340
  134TCq2    C1 2039   1.249   2.887   9.141 -0.7028 -0.2455 -0.3128
  134TCq2    O2 2040   1.299   2.975   9.072 -0.1731  0.6651  0.2650
  134TCq2    C2 2041   1.179   2.787   9.063 -0.0050 -0.0230 -0.7224
  134TCq2    C3 2042   1.114   2.831   8.946 -0.6163 -0.6691  0.5177
  134TCq2    C4 2043   1.036   2.745   8.876 -0.3498 -0.4409  0.7581
  134TCq2    C5 2044   1.022   2.617   8.919 -0.2914 -0.4231 -0.5092
  134TCq2    C6 2045   1.090   2.572   9.032 -0.3578 -0.3688 -0.1746
  134TCq2    C7 2046   1.172   2.654   9.110 -0.3646  0.0947 -0.9102
  134TCq2    C8 2047   1.043   2.456   9.107 -0.1656 -0.1266  0.3621
  134TCq2    O4 2048   1.115   2.407   9.193 -0.2600  0.0158 -0.6313
  134TCq2    C9 2049   0.964   2.786   8.758 -0.5270 -0.1978 -0.1945
  134TCq2    O5 2050   0.885   2.707   8.701  0.5174  0.3752 -0.2224
  134TCq2    O6 2051   0.980   2.910   8.740  0.1183  0.3781  0.4019
  134TCq2    H2 2052   1.113   2.939   8.935  1.1337 -0.8797 -1.8432
  134TCq2    H3 2053   0.958   2.546   8.869  0.0692 -1.0161 -0.1331
  134TCq2    H4 2054   1.214   2.602   9.195 -0.9040 -0.6333 -1.0922
  135MPD2     C 2055   0.555   0.489   9.759  1.3446 -0.8819 -0.9526
  135MPD2    C1 2056   0.423   0.470   9.763 -0.0052  0.1193  0.2599
  135MPD2    C2 2057   0.366   0.343   9.738 -0.0793 -0.1015  0.4496
  135MPD2    C3 2058   0.447   0.239   9.710 -0.1555  0.5161  0.3641
  135MPD2    C4 2059   0.580   0.254   9.694 -0.1127 -0.0556 -0.3816
  135MPD2    C5 2060   0.639   0.383   9.722  0.7841 -0.0959  0.1513
  135MPD2     H 2061   0.262   0.322   9.758 -0.6830  1.1645 -1.4027
  135MPD2    H1 2062   0.651   0.188   9.646 -1.1059 -0.8860 -0.6805
  135MPD2    H2 2063   0.598   0.586   9.779 -1.6076  0.6247 -1.9161
  135MPD2    H3 2064   0.747   0.393   9.709  0.8238 -0.3946  0.2548
  135MPD2     N 2065   0.406   0.119   9.664 -0.1130 -0.2754  1.2790
  135MPD2    H5 2066   0.478   0.062   9.620 -0.6462 -0.5039  0.6979
  135MPD2    N1 2067   0.337   0.581   9.782 -0.2535  0.1367  0.3179
  135MPD2    H7 2068   0.243   0.552   9.809  0.4924 -0.6080  2.1125
  136TCq2    C1 2069   0.373   0.714   9.778 -1.0971 -0.0304  0.5243
  136TCq2    O2 2070   0.481   0.763   9.742  0.6697 -0.1239 -0.2215
  136TCq2    C2 2071   0.280   0.815   9.834  0.1870  0.4120 -0.0087
  136TCq2    C3 2072   0.330   0.944   9.851  0.5217 -0.3493  0.2529
  136TCq2    C4 2073   0.254   1.040   9.914  0.5171 -0.0702  0.4005
  136TCq2    C5 2074   0.128   1.015   9.954 -0.2729  0.1813 -0.0971
  136TCq2    C6 2075   0.081   0.887   9.935 -0.1191 -0.0442 -0.2061
  136TCq2    C7 2076   0.153   0.782   9.885 -0.7709 -0.9742 -0.1307
  136TCq2    C8 2077   4.676   0.861   9.989 -0.4057  1.1649  0.2802
  136TCq2    O4 2078   4.606   0.959   9.996  0.1612 -0.0474  0.2051
  136TCq2    C9 2079   0.307   1.163   9.961 -0.5592  0.4738 -0.9873
  136TCq2    O5 2080   0.400   1.210   9.890  0.1261  0.0442  0.2223
  136TCq2    O6 2081   0.298   1.182  10.086  0.4327 -0.2009  0.4341
  136TCq2    H2 2082   0.430   0.975   9.824  0.4428  0.2012  0.5870
  136TCq2    H3 2083   0.068   1.094   9.997  1.8751 -0.4124  3.9716
  136TCq2    H4 2084   0.111   0.690   9.847  0.8710 -1.9224  0.3331
  137MPD2     C 2085   4.356   3.599   9.170 -0.0476  0.3625 -0.2164
  137MPD2    C1 2086   4.294   3.637   9.283 -0.2156  0.3869  0.0242
  137MPD2    C2 2087   4.356   3.722   9.368  0.1251 -0.2852  0.3132
  137MPD2    C3 2088   4.486   3.756   9.340 -1.2360  0.1017 -0.3794
  137MPD2    C4 2089   4.553   3.708   9.231  0.0692 -0.5052  0.1332
  137MPD2    C5 2090   4.491   3.633   9.140  0.0180  0.0933  0.3745
  137MPD2     H 2091   4.311   3.750   9.463  0.4796  0.1580  0.3498
  137MPD2    H1 2092   4.656   3.731   9.206 -0.7253  1.7757 -0.9914
  137MPD2    H2 2093   4.308   3.535   9.097  2.1137  0.1715 -1.4622
  137MPD2    H3 2094   4.531   3.595   9.047 -1.2176  0.7567 -0.4199
  137MPD2     N 2095   4.554   3.844   9.427  0.6948  1.2755  0.2402
  137MPD2    H5 2096   4.487   3.890   9.487 -0.4056  1.0929 -0.8412
  137MPD2    N1 2097   4.158   3.595   9.296 -0.2941  0.7110  0.7145
  137MPD2    H7 2098   4.123   3.545   9.215 -1.1943  0.7614  1.0777
  138TCq2    C1 2099   4.079   3.625   9.408  0.1123  0.4639  0.0491
  138TCq2    O2 2100   4.109   3.684   9.511  0.4460  0.4942 -0.3617
  138TCq2    C2 2101   3.960   3.542   9.416  0.4280 -0.5335  0.3604
  138TCq2    C3 2102   3.922   3.472   9.308  0.1167  0.5140  0.0207
  138TCq2    C4 2103   3.857   3.349   9.320 -0.1539  0.0959  0.0930
  138TCq2    C5 2104   3.847   3.295   9.443 -0.4711  0.2363 -0.2075
  138TCq2    C6 2105   3.897   3.362   9.546  0.1557 -0.1953  1.0127
  138TCq2    C7 2106   3.944   3.486   9.540 -0.4627 -0.6209 -0.3834
  138TCq2    C8 2107   3.875   3.294   9.671 -0.2525 -0.4010  0.8206
  138TCq2    O4 2108   3.856   3.172   9.674 -0.0728  0.4775  0.2151
  138TCq2    C9 2109   3.828   3.281   9.192  0.4755 -0.2734  0.3617
  138TCq2    O5 2110   3.847   3.339   9.079  1.2728  0.2179 -0.1164
  138TCq2    O6 2111   3.767   3.169   9.217  0.1477  0.1628  0.1559
  138TCq2    H2 2112   3.934   3.508   9.206 -0.8256  0.8340  0.0286
  138TCq2    H3 2113   3.815   3.192   9.448 -1.2373  0.5056  0.2814
  138TCq2    H4 2114   3.977   3.539   9.629 -2.3598 -0.1375  0.0387
  139TMC2    C1 2115   0.080   2.391  13.084 -0.7376  0.5311 -0.1742
  139TMC2    C2 2116   0.211   2.433  13.070  0.4821 -0.0546 -0.0178
  139TMC2    C3 2117   0.238   2.564  13.109  0.3028 -0.3433  0.6830
  139TMC2    C4 2118   4.708   2.475  13.141  0.2257 -0.0737  0.0289
  139TMC2    C5 2119   0.017   2.603  13.173 -0.9442  0.1832 -0.0112
  139TMC2    C6 2120   0.149   2.647  13.165  0.8257  0.4409 -0.0201
  139TMC2     C 2121   0.082   2.254  13.118 -0.1775  0.0184  0.1392
  139TMC2     O 2122   0.189   2.208  13.153 -0.3744  0.4093  0.0367
  139TMC2     H 2123   0.292   2.366  13.042 -0.1679  0.1054 -2.2531
  139TMC2    H1 2124   4.610   2.432  13.159  0.6670 -0.6755  1.0150
  139TMC2    H2 2125   0.181   2.750  13.174 -0.6956  0.8189  1.0524
  139TMC2    C7 2126   4.636   2.680  13.233 -0.3987 -0.1960 -0.8554
  139TMC2    C8 2127   0.382   2.585  13.125 -0.0873 -0.3657 -0.6857
  139TMC2    O1 2128   4.519   2.658  13.200  0.3281 -0.0392 -0.4453
  139TMC2    O2 2129   0.463   2.507  13.072  0.9389  0.0905  0.3845
  139TMC2    O5 2130   0.416   2.653  13.235  0.2343 -0.5285  0.9609
  139TMC2    H5 2131   0.345   2.704  13.278 -0.6973 -1.0845  0.0651
  140MPD2     C 2132   4.556   1.991  13.021 -0.5389 -0.3517  0.2012
  140MPD2    C1 2133   4.679   2.047  13.054 -0.7502 -0.2030  0.0062
  140MPD2    C2 2134   0.069   1.959  13.050  0.2059  0.9296  0.0412
  140MPD2    C3 2135   0.040   1.821  13.052  0.2771 -0.3003 -0.7971
  140MPD2    C4 2136   4.636   1.772  13.027 -0.9392  0.1260 -0.2670
  140MPD2    C5 2137   4.539   1.861  13.013  0.2188  0.3330  0.2975
  140MPD2     H 2138   0.171   1.984  13.078  0.5979  0.0096 -0.5943
  140MPD2    H1 2139   4.604   1.668  13.026  0.7239 -0.3410 -2.9822
  140MPD2    H2 2140   4.462   2.046  13.013 -0.2801  0.1828  0.8002
  140MPD2    H3 2141   4.441   1.822  12.984 -0.0750  0.6192  0.9129
  140MPD2     N 2142   0.153   1.735  13.063  0.4348  0.3154  0.7744
  140MPD2    H5 2143   0.243   1.775  13.089  0.7355  0.0126  0.2031
  140MPD2    N1 2144   4.692   2.189  13.072 -0.5979  0.8033 -0.1057
  140MPD2    H7 2145   4.608   2.244  13.054 -1.4676  0.2176  2.0956
  141TCq2    C1 2146   0.579   3.850  14.227  0.2270 -0.9703  0.8031
  141TCq2    O2 2147   0.523   3.910  14.140 -0.0403  0.1065  0.6276
  141TCq2    C2 2148   0.527   3.895  14.354  0.3280 -0.1198 -0.1277
  141TCq2    C3 2149   0.611   3.874  14.461 -0.0167  0.5186 -0.3402
  141TCq2    C4 2150   0.575   3.934  14.577 -0.2637 -0.4186  0.0259
  141TCq2    C5 2151   0.460   4.008  14.584  0.5633  0.0172  1.0224
  141TCq2    C6 2152   0.381   4.030  14.473  0.3747  0.4384 -0.2848
  141TCq2    C7 2153   0.413   3.975  14.352  0.0388 -0.0732  0.3672
  141TCq2    C8 2154   0.329   4.166  14.469  0.2508  0.1206  0.1114
  141TCq2    O4 2155   0.299   4.227  14.573  0.4002 -0.3166  0.2419
  141TCq2    C9 2156   0.652   3.923  14.702  0.5546 -0.0341  0.0374
  141TCq2    O5 2157   0.630   4.000  14.800  0.2355  0.0307 -1.0064
  141TCq2    O6 2158   0.723   3.819  14.710 -0.1435 -0.2558 -0.0928
  141TCq2    H2 2159   0.712   3.834  14.454 -0.8782 -1.6021 -0.6970
  141TCq2    H3 2160   0.439   4.064  14.675 -0.5831 -0.2061  0.9021
  141TCq2    H4 2161   0.349   3.979  14.265 -0.7477  0.3014  0.9582
  142MPD2     C 2162   2.724   2.590  10.672  0.6771  0.1647 -0.1511
  142MPD2    C1 2163   2.771   2.617  10.549 -0.8417 -0.6848  0.6621
  142MPD2    C2 2164   2.864   2.718  10.535 -0.2179 -0.1877 -0.6296
  142MPD2    C3 2165   2.904   2.791  10.645 -0.3260 -0.1235  0.2199
  142MPD2    C4 2166   2.853   2.759  10.769 -0.1322 -0.6298  0.5491
  142MPD2    C5 2167   2.766   2.654  10.782 -0.5629 -0.0168  0.2087
  142MPD2     H 2168   2.918   2.728  10.442  1.4937  2.9098  0.6707
  142MPD2    H1 2169   2.893   2.816  10.853  1.0729  1.1749 -1.2534
  142MPD2    H2 2170   2.666   2.500  10.691  0.1820  1.0074  2.3866
  142MPD2    H3 2171   2.745   2.616  10.882  0.6890 -2.7603 -0.5786
  142MPD2     N 2172   2.994   2.901  10.638 -0.6533  0.5534  0.1992
  142MPD2    H5 2173   3.019   2.950  10.723 -1.6464  1.1396  0.1492
  142MPD2    N1 2174   2.716   2.543  10.441  0.0554  0.0615  0.4651
  142MPD2    H7 2175   2.649   2.472  10.469 -2.5020  1.9970 -0.7791
  143TCq2    C1 2176   3.039   2.960  10.520 -0.0873 -0.7578 -0.5114
  143TCq2    O2 2177   3.020   2.923  10.404 -0.3244  0.2133 -0.8994
  143TCq2    C2 2178   3.122   3.076  10.531  0.1353 -0.2644 -0.3611
  143TCq2    C3 2179   3.172   3.114  10.654 -0.3392  0.1543 -0.4650
  143TCq2    C4 2180   3.216   3.246  10.656 -0.2442  0.6240 -0.6918
  143TCq2    C5 2181   3.220   3.331  10.546 -0.1706 -0.5744  0.3298
  143TCq2    C6 2182   3.165   3.292  10.431  0.7650  0.3278 -0.8547
  143TCq2    C7 2183   3.117   3.164  10.424  0.4182 -0.5004  0.3969
  143TCq2    C8 2184   3.172   3.379  10.307 -0.4060  0.1947 -1.0661
  143TCq2    O4 2185   3.089   3.356  10.223 -0.2099  0.3378  0.1906
  143TCq2    C9 2186   3.270   3.286  10.780  0.0037  0.0018  0.1374
  143TCq2    O5 2187   3.335   3.395  10.786  0.5951  0.4950 -0.3495
  143TCq2    O6 2188   3.258   3.213  10.881  0.5627 -0.3602  0.0325
  143TCq2    H2 2189   3.190   3.056  10.744 -1.0702 -1.5558 -1.4249
  143TCq2    H3 2190   3.269   3.423  10.573  0.8075 -1.4489  1.4986
  143TCq2    H4 2191   3.065   3.132  10.335 -0.5611  0.9612  0.4662
  144MPD2     C 2192   0.616   1.647   0.473  0.4397 -0.7884  0.1060
  144MPD2    C1 2193   0.609   1.503   0.468 -0.0007 -0.2161 -0.4801
  144MPD2    C2 2194   0.677   1.426   0.557  0.8737  0.3642 -0.5097
  144MPD2    C3 2195   0.750   1.493   0.651  0.2666 -0.3978  0.4590
  144MPD2    C4 2196   0.768   1.626   0.648  0.5863  0.3126 -0.1937
  144MPD2    C5 2197   0.700   1.708   0.560 -0.1070 -0.2007  0.2054
  144MPD2     H 2198   0.661   1.318   0.555  0.4329  0.4549 -1.8406
  144MPD2    H1 2199   0.833   1.681   0.714 -0.0061  0.4023  0.3113
  144MPD2    H2 2200   0.558   1.716   0.412 -0.9519  0.1791  2.5001
  144MPD2    H3 2201   0.702   1.817   0.564  0.3300 -0.1999 -0.0593
  144MPD2     N 2202   0.820   1.422   0.757 -0.4806  0.1519 -0.1880
  144MPD2    H5 2203   0.888   1.472   0.815 -0.3513  0.4182 -0.5712
  144MPD2    N1 2204   0.540   1.439   0.365  0.1027 -0.7004 -0.2819
  144MPD2    H7 2205   0.548   1.338   0.366  1.5668 -0.5613  2.3488
  145TCq2    C1 2206   0.789   1.292   0.793 -0.4887 -0.2978 -0.1701
  145TCq2    O2 2207   0.692   1.224   0.764  0.2743  0.3368 -0.1052
  145TCq2    C2 2208   0.889   1.229   0.879 -0.0619  0.4825  0.5020
  145TCq2    C3 2209   0.859   1.102   0.926  0.2227 -0.0233  0.3633
  145TCq2    C4 2210   0.958   1.034   0.997  0.0893  0.0343 -0.1248
  145TCq2    C5 2211   1.084   1.086   1.005  0.6942  0.1636 -0.2168
  145TCq2    C6 2212   1.108   1.213   0.951 -0.3388  0.3613  0.5846
  145TCq2    C7 2213   1.010   1.288   0.894  0.0558  0.5246 -0.1259
  145TCq2    C8 2214   1.231   1.281   0.995 -0.0331 -0.7773  0.3717
  145TCq2    O4 2215   1.330   1.208   1.008 -0.5384 -0.3310 -0.0682
  145TCq2    C9 2216   0.931   0.908   1.064 -0.6436  0.2819 -0.5017
  145TCq2    O5 2217   1.034   0.848   1.109 -0.4135 -0.2611 -0.0123
  145TCq2    O6 2218   0.817   0.861   1.054 -0.4096 -0.9036 -0.0945
  145TCq2    H2 2219   0.758   1.064   0.941  0.1513  0.2813  0.6309
  145TCq2    H3 2220   1.168   1.039   1.055 -0.0986  0.6742  1.5956
  145TCq2    H4 2221   1.029   1.387   0.854  2.1054 -0.4229 -1.4947
  146TMC2    C1 2222   2.367   0.164  11.926  0.2924 -0.1596 -0.1207
  146TMC2    C2 2223   2.354   0.199  11.793 -0.1563  0.5377 -0.0383
  146TMC2    C3 2224   2.388   0.105  11.705  0.0850 -0.4044 -0.5768
  146TMC2    C4 2225   2.417   0.045  11.967 -0.1677  0.9260 -0.2959
  146TMC2    C5 2226   2.444   4.683  11.870  0.2925 -0.0855  0.2003
  146TMC2    C6 2227   2.424   4.706  11.741  0.7686  0.6370  0.2972
  146TMC2     C 2228   2.342   0.271  12.022 -0.7415 -0.1757 -0.1111
  146TMC2     O 2229   2.349   0.387  11.984  0.2031  0.0148  0.6488
  146TMC2     H 2230   2.337   0.303  11.767 -2.5341  1.0845  3.7991
  146TMC2    H1 2231   2.429   0.013  12.071  0.2044  1.2916 -0.2270
  146TMC2    H2 2232   2.436   4.635  11.660 -2.6288 -0.7859  1.0516
  146TMC2    C7 2233   2.502   4.555  11.907 -0.1484 -0.0334 -0.7176
  146TMC2    C8 2234   2.343   0.115  11.561  0.1487 -0.0786  0.8195
  146TMC2    O1 2235   2.470   4.466  11.834 -0.4591 -0.6244 -0.1701
  146TMC2    O2 2236   2.274   0.025  11.512 -0.0459 -0.2306 -0.4045
  146TMC2    O5 2237   2.316   0.242  11.536  0.3382  0.7424 -0.0428
  146TMC2    H5 2238   2.375   0.312  11.571  0.9031 -0.2084  0.9252
  147MPD2     C 2239   2.727   4.224  12.241 -0.3404 -0.6070 -0.5028
  147MPD2    C1 2240   2.759   4.358  12.273  0.0728  0.0740  0.2786
  147MPD2    C2 2241   2.710   4.460  12.199  0.1371 -0.1226 -0.2827
  147MPD2    C3 2242   2.632   4.443  12.085 -0.0160  0.1585 -0.0136
  147MPD2    C4 2243   2.594   4.310  12.054 -0.5813  0.0482 -0.2114
  147MPD2    C5 2244   2.649   4.208  12.131  0.2195  0.1978  0.4791
  147MPD2     H 2245   2.729   4.564  12.225 -0.7929  0.3660 -1.5565
  147MPD2    H1 2246   2.538   4.285  11.965  0.9920 -1.7536 -0.7008
  147MPD2    H2 2247   2.767   4.139  12.296  0.6162  1.0139  1.3098
  147MPD2    H3 2248   2.627   4.105  12.103  1.8397  0.6431 -2.4019
  147MPD2     N 2249   2.587   4.562  12.017  1.1994 -0.5383  0.1358
  147MPD2    H5 2250   2.598   4.652  12.063  0.2640  0.1845 -1.0450
  147MPD2    N1 2251   2.835   4.375  12.389 -0.0837  0.1308 -0.1938
  147MPD2    H7 2252   2.857   4.299  12.454 -1.6092 -0.1043  0.0447
  148MPD2     C 2253   2.018   4.014  10.110  0.4574 -0.6781  0.3141
  148MPD2    C1 2254   2.060   3.885  10.135  0.2582 -0.1111 -0.1606
  148MPD2    C2 2255   1.967   3.778  10.118 -0.4707 -0.5300  1.0096
  148MPD2    C3 2256   1.835   3.799  10.082 -0.1477  0.2416  0.0489
  148MPD2    C4 2257   1.797   3.929  10.046 -0.2320  0.2125  0.1513
  148MPD2    C5 2258   1.889   4.033  10.060 -0.5607  0.0638  1.0030
  148MPD2     H 2259   1.995   3.678  10.148  1.8630 -0.2542 -0.2120
  148MPD2    H1 2260   1.696   3.952  10.015  0.4150  1.6330 -0.9023
  148MPD2    H2 2261   2.082   4.102  10.115  1.1777 -1.1074 -1.4723
  148MPD2    H3 2262   1.862   4.136  10.043 -3.4362 -1.1009 -1.5077
  148MPD2     N 2263   1.740   3.694  10.072 -0.3648 -0.2001  0.5416
  148MPD2    H5 2264   1.640   3.712  10.066 -0.3215 -0.6097 -1.4313
  148MPD2    N1 2265   2.188   3.844  10.183  0.2335 -0.2199  0.9970
  148MPD2    H7 2266   2.206   3.745  10.201 -0.3528  0.2642  4.2847
  149TCq2    C1 2267   2.280   3.932  10.237 -0.0665  0.3079 -0.6437
  149TCq2    O2 2268   2.295   4.054  10.217 -0.4104 -0.3814  0.2598
  149TCq2    C2 2269   2.386   3.862  10.312 -0.2263  0.2173  0.4088
  149TCq2    C3 2270   2.484   3.945  10.368 -0.0853 -0.0132 -0.1757
  149TCq2    C4 2271   2.559   3.893  10.468  0.5039  0.3114  0.1794
  149TCq2    C5 2272   2.539   3.771  10.521  0.1766 -0.3689  0.3222
  149TCq2    C6 2273   2.442   3.691  10.462 -0.7065 -0.5520 -0.2423
  149TCq2    C7 2274   2.369   3.731  10.356  0.1217  0.8298 -0.1489
  149TCq2    C8 2275   2.412   3.557  10.503  0.2864  0.3690 -0.0286
  149TCq2    O4 2276   2.333   3.495  10.432  0.5842 -0.0949 -0.1625
  149TCq2    C9 2277   2.641   3.986  10.546 -0.4010 -0.0672  0.3922
  149TCq2    O5 2278   2.677   3.949  10.661 -0.1864  0.3746 -0.2773
  149TCq2    O6 2279   2.651   4.103  10.495  0.3562  0.2137  0.2238
  149TCq2    H2 2280   2.481   4.047  10.331  0.1301 -0.3431 -1.1055
  149TCq2    H3 2281   2.608   3.736  10.597 -1.4630 -0.6891  1.6621
  149TCq2    H4 2282   2.281   3.680  10.321 -0.1442  0.5324  0.9456
  150MPD2     C 2283   4.469   3.364  11.632 -0.0873  0.0094  0.3590
  150MPD2    C1 2284   4.529   3.283  11.539 -0.1114  0.0370 -0.5545
  150MPD2    C2 2285   4.664   3.311  11.512 -0.2557  0.3904  0.4260
  150MPD2    C3 2286   0.016   3.400  11.586  0.4724 -0.4396 -0.4785
  150MPD2    C4 2287   4.677   3.472  11.683 -0.1647 -1.0707 -0.2023
  150MPD2    C5 2288   4.540   3.455  11.707  0.0254 -0.0346  0.8358
  150MPD2     H 2289   4.716   3.253  11.437  0.2023  0.1138  0.9565
  150MPD2    H1 2290   4.724   3.543  11.749  2.6413 -3.6823  0.6098
  150MPD2    H2 2291   4.365   3.349  11.656  0.0614  0.3249  1.1860
  150MPD2    H3 2292   4.486   3.514  11.780 -0.4606 -1.6221  1.7690
  150MPD2     N 2293   0.156   3.403  11.567 -0.2097 -0.7221  0.4071
  150MPD2    H5 2294   0.183   3.349  11.486  1.5920 -1.5978  1.5936
  150MPD2    N1 2295   4.454   3.178  11.477 -0.0929  0.5143  0.6324
  150MPD2    H7 2296   4.356   3.175  11.504 -0.7668 -0.0098 -1.8538
  151TCq2    C1 2297   0.249   3.462  11.641  0.0442 -0.0019 -0.5356
  151TCq2    O2 2298   0.243   3.513  11.755  0.1632  0.1411 -0.1007
  151TCq2    C2 2299   0.370   3.440  11.576  0.2474  0.8461  0.6317
  151TCq2    C3 2300   0.366   3.442  11.440 -0.3926  0.5165  0.4406
  151TCq2    C4 2301   0.483   3.430  11.374  0.3251 -1.1239 -0.2819
  151TCq2    C5 2302   0.598   3.424  11.448 -0.7522 -0.8270  0.5446
  151TCq2    C6 2303   0.600   3.423  11.584 -0.2727  0.4912  0.1747
  151TCq2    C7 2304   0.482   3.422  11.647  0.2946 -0.1650  0.7372
  151TCq2    C8 2305   0.713   3.352  11.643  0.3721 -0.3966  1.3112
  151TCq2    O4 2306   0.825   3.378  11.597 -0.3479 -0.0208  0.3270
  151TCq2    C9 2307   0.483   3.418  11.231 -0.2816 -0.1903 -0.1724
  151TCq2    O5 2308   0.370   3.429  11.174 -0.2643 -0.1859  0.1856
  151TCq2    O6 2309   0.582   3.383  11.168  0.2212  0.1887 -0.1996
  151TCq2    H2 2310   0.276   3.449  11.380 -1.8896  0.4039  2.6633
  151TCq2    H3 2311   0.690   3.419  11.389  0.1682  0.2254  1.8948
  151TCq2    H4 2312   0.479   3.435  11.755  0.9936 -0.9885  0.8585
  152MPD2     C 2313   4.309   2.720  12.201 -0.0382  0.0260  0.7669
  152MPD2    C1 2314   4.318   2.717  12.068  0.4332  0.6538 -0.1647
  152MPD2    C2 2315   4.202   2.682  12.000 -0.6775  0.2148  0.2659
  152MPD2    C3 2316   4.087   2.642  12.074 -0.4965  0.2703 -0.3480
  152MPD2    C4 2317   4.084   2.636  12.215  1.0082 -0.5822 -0.1549
  152MPD2    C5 2318   4.200   2.681  12.271 -0.9451  0.0966  0.1467
  152MPD2     H 2319   4.198   2.684  11.891  2.0890  3.0242  0.2076
  152MPD2    H1 2320   4.005   2.618  12.287  1.4369 -3.7152 -0.4718
  152MPD2    H2 2321   4.399   2.745  12.258  0.8098  0.6973 -0.8749
  152MPD2    H3 2322   4.214   2.687  12.379 -0.3769 -0.0604  0.0812
  152MPD2     N 2323   3.960   2.646  12.006 -0.8576  0.1822 -0.2836
  152MPD2    H5 2324   3.966   2.675  11.909 -0.7274 -0.3892 -0.4437
  152MPD2    N1 2325   4.433   2.776  12.009  0.0810 -0.1886 -0.2884
  152MPD2    H7 2326   4.506   2.819  12.066  1.1113 -0.4302 -1.4280
  153TCq2    C1 2327   4.464   2.761  11.872  0.1031  0.3910  0.1618
  153TCq2    O2 2328   4.415   2.692  11.780  0.4611 -0.0780 -0.3403
  153TCq2    C2 2329   4.580   2.841  11.826  0.7143 -0.6215  0.5473
  153TCq2    C3 2330   4.630   2.816  11.699  0.4933  0.5199  0.1906
  153TCq2    C4 2331   4.712   2.910  11.640 -0.2401  0.6415  0.4005
  153TCq2    C5 2332   0.034   3.016  11.712 -0.2167  1.2333  0.1211
  153TCq2    C6 2333   4.705   3.036  11.838 -0.0518  0.0272  0.3794
  153TCq2    C7 2334   4.620   2.953  11.899  0.8051 -0.2362  0.5462
  153TCq2    C8 2335   0.061   3.123  11.920 -0.0699  0.4335 -0.0326
  153TCq2    O4 2336   0.156   3.184  11.878  0.2096  0.1386 -0.5609
  153TCq2    C9 2337   0.040   2.884  11.510  0.8039  1.0993  0.2268
  153TCq2    O5 2338   4.712   2.785  11.450 -0.7884  0.6145 -0.5445
  153TCq2    O6 2339   0.162   2.915  11.506  0.5044 -0.3902  0.1978
  153TCq2    H2 2340   4.601   2.727  11.644  0.6664 -0.2042  1.2673
  153TCq2    H3 2341   0.106   3.087  11.672  0.5125  0.8308  0.7073
  153TCq2    H4 2342   4.580   2.976  11.997 -0.6726  2.0291 -0.5761
  154MPD2     C 2343   1.035   2.903  17.441 -0.0313  0.1820 -0.1480
  154MPD2    C1 2344   1.073   2.929  17.572 -0.4011 -0.1176  0.5734
  154MPD2    C2 2345   1.097   2.830  17.660 -0.9315 -0.0371 -0.3554
  154MPD2    C3 2346   1.084   2.693  17.621 -0.2224  1.1250 -0.0764
  154MPD2    C4 2347   1.043   2.672  17.490  0.0360 -0.4610 -0.7919
  154MPD2    C5 2348   1.030   2.774  17.401 -0.0692 -0.1356  0.6523
  154MPD2     H 2349   1.114   2.852   0.065 -0.6080  1.6271 -0.7649
  154MPD2    H1 2350   1.016   2.569  17.469 -1.2371  0.0489 -1.5878
  154MPD2    H2 2351   1.031   2.973  17.358 -0.0398 -0.0277 -0.3258
  154MPD2    H3 2352   0.990   2.741  17.306  0.3474  0.9375  0.1164
  154MPD2     N 2353   1.071   2.583   0.009  0.3236  0.1429  0.0117
  154MPD2    H5 2354   1.016   2.503  17.679  0.2774  0.0023  0.4692
  154MPD2    N1 2355   1.072   3.063  17.610 -0.1211 -0.0612  0.0489
  154MPD2    H7 2356   1.047   3.125  17.534 -1.3531 -0.3680  0.2026
  155TCq2    C1 2357   1.089   3.114   0.043  0.3276  0.3311 -0.0154
  155TCq2    O2 2358   1.116   3.067   0.154  0.4103 -0.5303 -0.1249
  155TCq2    C2 2359   1.049   3.257   0.053 -0.8113 -0.7084  0.1751
  155TCq2    C3 2360   1.010   3.324  17.642 -0.0384  0.2438  0.4777
  155TCq2    C4 2361   0.962   3.454  17.663  0.3765  0.1694 -0.7684
  155TCq2    C5 2362   0.974   3.515   0.087  0.4509  0.1473  0.3998
  155TCq2    C6 2363   1.033   3.446   0.188  0.0338  0.3612  0.6281
  155TCq2    C7 2364   1.064   3.313   0.180 -0.3905  0.1240  0.6212
  155TCq2    C8 2365   1.058   3.515   0.314  0.4566  0.0804  0.1624
  155TCq2    O4 2366   1.083   3.458   0.422  0.1633 -0.1234 -0.0549
  155TCq2    C9 2367   0.888   3.514  17.557  0.7008  0.0006 -1.1802
  155TCq2    O5 2368   0.830   3.621  17.583  0.1343 -0.7094 -0.1858
  155TCq2    O6 2369   0.888   3.461  17.441 -0.3524  0.0960 -0.4135
  155TCq2    H2 2370   0.973   3.275  17.553 -0.3247 -0.3979  0.9472
  155TCq2    H3 2371   0.919   3.608   0.101  3.0529  1.7601 -0.0557
  155TCq2    H4 2372   1.093   3.260   0.269  1.7793  2.5099  1.3561
  156MPD2     C 2373   4.122   4.724  11.885 -0.0561  0.1459  0.1891
  156MPD2    C1 2374   4.251   0.046  11.846  0.0538 -0.1112  0.1989
  156MPD2    C2 2375   4.307   0.130  11.935 -0.2740 -0.4683 -0.0281
  156MPD2    C3 2376   4.247   0.165  12.053 -0.7118  0.2100  0.3676
  156MPD2    C4 2377   4.131   0.111  12.093 -0.2486  0.1894 -0.5193
  156MPD2    C5 2378   4.063   0.034  12.002  0.2459 -0.0030  0.2525
  156MPD2     H 2379   4.399   0.180  11.909 -0.7036  0.0615 -0.5113
  156MPD2    H1 2380   4.088   0.128  12.191  0.3464  1.4377 -0.4712
  156MPD2    H2 2381   4.070   4.654  11.820  1.4531  0.2347 -1.1084
  156MPD2    H3 2382   3.965   4.717  12.026  0.0471  0.3598  0.0659
  156MPD2     N 2383   4.301   0.270  12.132 -0.2072  0.1705 -0.4021
  156MPD2    H5 2384   4.395   0.304  12.112 -0.2447  0.8328  0.5464
  156MPD2    N1 2385   4.310   0.026  11.716  0.0806  0.2342 -0.0954
  156MPD2    H7 2386   4.248   4.721  11.642  1.7234 -2.9169 -0.1811
  157TCq2    C1 2387   4.440   0.071  11.686  0.8508 -0.1254  1.0271
  157TCq2    O2 2388   4.536   0.089  11.760  0.1908 -0.5219 -0.3605
  157TCq2    C2 2389   4.447   0.111  11.548 -0.0084  0.1981  0.0124
  157TCq2    C3 2390   4.372   0.055  11.456 -0.2739  0.6459  0.4945
  157TCq2    C4 2391   4.365   0.123  11.336  0.0810 -0.3551 -0.4799
  157TCq2    C5 2392   4.446   0.231  11.309  0.3490 -0.5855  0.4482
  157TCq2    C6 2393   4.530   0.286  11.408  0.8939  0.3396  0.2619
  157TCq2    C7 2394   4.530   0.227  11.530  0.5565  0.2140  0.2299
  157TCq2    C8 2395   4.564   0.427  11.398 -0.0690 -0.4347  0.1930
  157TCq2    O4 2396   4.512   0.501  11.314  0.2941  0.2134 -0.3350
  157TCq2    C9 2397   4.288   0.076  11.224  0.1076 -0.4132  0.2248
  157TCq2    O5 2398   4.215   4.704  11.245  0.5000  0.4273  0.1025
  157TCq2    O6 2399   4.295   0.140  11.117 -0.0774 -0.2057 -0.3091
  157TCq2    H2 2400   4.314   4.692  11.483  3.4385 -1.0264  2.9728
  157TCq2    H3 2401   4.452   0.275  11.210 -1.6327  0.3236  0.7329
  157TCq2    H4 2402   4.564   0.283  11.616  0.5717 -0.0540  0.3992
  158TMC2    C1 2403   4.410   4.069  13.361 -0.4119  0.2879 -0.2523
  158TMC2    C2 2404   4.423   4.168  13.266 -0.4588 -0.2596  0.8213
  158TMC2    C3 2405   4.330   4.167  13.170  0.6589  0.1273  0.3987
  158TMC2    C4 2406   4.315   3.973  13.366  0.5863  0.8806 -0.4712
  158TMC2    C5 2407   4.217   3.983  13.275 -0.4217 -0.1858 -0.3314
  158TMC2    C6 2408   4.229   4.075  13.166  0.1769  0.1080 -0.8557
  158TMC2     C 2409   4.538   4.051  13.424  0.2724 -0.1670 -0.2921
  158TMC2     O 2410   4.625   4.133  13.395  0.0298  0.2441 -0.5645
  158TMC2     H 2411   4.487   4.255  13.270 -0.1988 -0.5444  2.6388
  158TMC2    H1 2412   4.300   3.911  13.453  1.2066  0.6408 -0.5347
  158TMC2    H2 2413   4.143   4.083  13.100  0.3631 -0.1452 -1.1258
  158TMC2    C7 2414   4.097   3.913  13.289  0.4083  0.2992  0.5348
  158TMC2    C8 2415   4.338   4.282  13.077 -0.1132  0.7095 -0.1822
  158TMC2    O1 2416   3.999   3.969  13.235  0.6425  0.1027  0.2414
  158TMC2    O2 2417   4.401   4.382  13.096 -0.1130  0.0676 -0.8025
  158TMC2    O5 2418   4.278   4.247  12.963  0.0706  0.8364  0.3389
  158TMC2    H5 2419   4.254   4.152  12.953 -0.9904  1.1990 -0.6762
  159MPD2     C 2420   0.186   3.732  13.577 -0.6217 -0.3603  0.2810
  159MPD2    C1 2421   0.064   3.688  13.626  0.1478  0.2000  0.2060
  159MPD2    C2 2422   4.674   3.752  13.588  0.6000 -0.4158  0.0881
  159MPD2    C3 2423   4.674   3.868  13.505 -0.0038 -0.2263 -0.0602
  159MPD2    C4 2424   0.073   3.918  13.465  0.0363 -0.6099  0.5140
  159MPD2    C5 2425   0.182   3.843  13.496 -0.1159  0.4610  0.5247
  159MPD2     H 2426   4.577   3.709  13.612  1.8788 -2.1985  1.9526
  159MPD2    H1 2427   0.086   4.007  13.405  1.9753 -1.7522 -0.7615
  159MPD2    H2 2428   0.277   3.677  13.598 -0.7945 -1.0933 -0.8766
  159MPD2    H3 2429   0.270   3.874  13.441 -0.2937  1.7908  0.9893
  159MPD2     N 2430   4.554   3.930  13.475  0.6283 -0.1452 -0.2896
  159MPD2    H5 2431   4.475   3.868  13.488  1.3061 -0.8206  0.6908
  159MPD2    N1 2432   0.066   3.578  13.723  1.1821  0.3542 -0.0503
  159MPD2    H7 2433   0.149   3.520  13.719  1.6850  1.0210  0.7735
  160TMC2    C1 2434   0.137   1.884   0.824 -0.6560 -0.5155 -0.5485
  160TMC2    C2 2435   0.196   1.754   0.840  0.5776  0.4697  0.1350
  160TMC2    C3 2436   0.290   1.721   0.749  0.4713  0.4873 -0.3312
  160TMC2    C4 2437   0.176   1.984   0.734  0.4420  0.1797  0.1637
  160TMC2    C5 2438   0.287   1.938   0.664  0.0498  0.0797  0.1308
  160TMC2    C6 2439   0.337   1.812   0.657 -0.0389  0.4750  0.8702
  160TMC2     C 2440   0.026   1.900   0.911 -0.1691 -0.0502  0.1570
  160TMC2     O 2441   0.012   1.833   1.013  0.0241 -0.4130  0.2346
  160TMC2     H 2442   0.165   1.673   0.906 -0.4884  1.1141  0.4306
  160TMC2    H1 2443   0.138   2.085   0.724  1.4588  0.4371 -1.0957
  160TMC2    H2 2444   0.428   1.790   0.601  0.7805 -0.2473  2.4731
  160TMC2    C7 2445   0.350   2.028   0.570 -0.3534  0.1420  0.1862
  160TMC2    C8 2446   0.365   1.606   0.775 -0.2643  0.1362  0.1315
  160TMC2    O1 2447   0.388   1.976   0.466  0.0608 -0.2065 -0.2042
  160TMC2    O2 2448   0.323   1.494   0.776 -0.2315  0.1866 -0.1355
  160TMC2    O5 2449   0.448   1.653   0.871  0.1389 -0.0727 -0.2649
  160TMC2    H5 2450   0.451   1.751   0.872  0.8763 -0.0790 -2.1339
  161MPD2     C 2451   4.469   1.916   0.983 -0.5881  0.2583 -0.4216
  161MPD2    C1 2452   4.537   2.020   0.911 -0.4160  0.4068  0.1243
  161MPD2    C2 2453   4.473   2.139   0.880 -0.0958  0.9277 -0.9751
  161MPD2    C3 2454   4.343   2.157   0.912  0.6337 -0.2334  0.5061
  161MPD2    C4 2455   4.274   2.056   0.980  0.3891 -0.2159  0.5244
  161MPD2    C5 2456   4.337   1.941   1.019 -0.0476 -0.2821  0.4683
  161MPD2     H 2457   4.529   2.220   0.835  0.0466  0.1928 -2.1201
  161MPD2    H1 2458   4.172   2.075   1.011 -0.4917 -2.2109 -1.1214
  161MPD2    H2 2459   4.518   1.832   1.032 -2.5358 -0.3788  0.4793
  161MPD2    H3 2460   4.280   1.868   1.074  1.6621 -0.2605  2.2648
  161MPD2     N 2461   4.275   2.281   0.885 -0.2488 -0.2325 -0.3004
  161MPD2    H5 2462   4.194   2.305   0.940 -0.0283  0.5446 -0.3167
  161MPD2    N1 2463   4.672   2.006   0.875 -0.6466 -0.3404 -0.1591
  161MPD2    H7 2464   4.716   2.072   0.811  1.3959 -0.1515  1.4593
  162TMC2    C1 2465   2.792   3.792   0.911  1.0371 -0.0233 -0.1302
  162TMC2    C2 2466   2.676   3.792   0.984 -0.0694 -0.0830 -0.2071
  162TMC2    C3 2467   2.687   3.774   1.119  0.0212  0.5216 -0.1746
  162TMC2    C4 2468   2.909   3.752   0.972  0.4576  0.4185 -1.0079
  162TMC2    C5 2469   2.912   3.724   1.105  0.2960 -0.2446 -0.1969
  162TMC2    C6 2470   2.799   3.739   1.182 -0.2050  0.2413  0.1217
  162TMC2     C 2471   2.782   3.819   0.760  0.0231 -0.4902 -0.3197
  162TMC2     O 2472   2.675   3.801   0.707  0.3370  0.2337  0.4825
  162TMC2     H 2473   2.579   3.785   0.936 -0.3007  2.6378 -0.1576
  162TMC2    H1 2474   2.992   3.735   0.904  0.1394  2.6449 -1.9707
  162TMC2    H2 2475   2.796   3.708   1.286  0.2877 -0.7904 -0.1721
  162TMC2    C7 2476   3.052   3.719   1.164 -0.3974  0.0665  0.6287
  162TMC2    C8 2477   2.559   3.753   1.186  0.3720 -0.0477 -0.3659
  162TMC2    O1 2478   3.139   3.777   1.106  0.1806  0.0478 -0.4583
  162TMC2    O2 2479   2.458   3.709   1.137 -0.6464 -0.1631  0.5706
  162TMC2    O5 2480   2.566   3.814   1.306  0.4405  0.8673  0.0384
  162TMC2    H5 2481   2.653   3.835   1.345  0.9437 -2.8934  1.0255
  163MPD2     C 2482   2.983   3.878   0.285  0.2478 -0.1989 -0.0596
  163MPD2    C1 2483   2.867   3.817   0.321 -0.0194  0.6343 -0.0159
  163MPD2    C2 2484   2.840   3.817   0.459 -0.1607  0.8172  0.9573
  163MPD2    C3 2485   2.923   3.865   0.559 -0.6195  0.0189 -0.2161
  163MPD2    C4 2486   3.048   3.914   0.518  0.9459 -0.0900  0.2429
  163MPD2    C5 2487   3.075   3.915   0.383 -0.2327  0.1972  0.4504
  163MPD2     H 2488   2.748   3.768   0.487  0.5402  0.6589  2.9871
  163MPD2    H1 2489   3.130   3.943   0.584 -0.1572  0.3916  1.4126
  163MPD2    H2 2490   3.021   3.886   0.184  0.0045 -1.5947 -0.2706
  163MPD2    H3 2491   3.175   3.942   0.352 -0.6016  0.4764 -0.4880
  163MPD2     N 2492   2.901   3.861   0.701  0.2668  0.2453  0.1612
  163MPD2    H5 2493   2.966   3.890   0.772  0.8905  1.2917 -0.8326
  163MPD2    N1 2494   2.780   3.755   0.226  0.0182 -0.1776 -0.1973
  163MPD2    H7 2495   2.815   3.757   0.130 -2.1148 -1.2995 -1.0053
  164TCq2    C1 2496   3.264   4.038  11.122 -0.6308  0.3460  0.3806
  164TCq2    O2 2497   3.214   3.929  11.120 -0.3773 -0.4451 -0.2063
  164TCq2    C2 2498   3.194   4.152  11.174 -0.3158  0.1492 -0.5302
  164TCq2    C3 2499   3.254   4.262  11.206 -0.3742 -0.0055 -0.2541
  164TCq2    C4 2500   3.180   4.376  11.225 -0.0169  0.5559 -0.9381
  164TCq2    C5 2501   3.046   4.371  11.216  0.0697  0.3278  0.5081
  164TCq2    C6 2502   2.987   4.250  11.199  0.1008  0.7537 -0.1640
  164TCq2    C7 2503   3.056   4.135  11.176 -0.5265  0.1173  0.3722
  164TCq2    C8 2504   2.843   4.243  11.210  0.5037 -0.3453 -0.0671
  164TCq2    O4 2505   2.783   4.350  11.220  0.2146 -0.3634  0.9339
  164TCq2    C9 2506   3.249   4.494  11.264 -1.1338  0.6497 -0.0045
  164TCq2    O5 2507   3.185   4.607  11.262 -0.7060 -0.4124  0.2505
  164TCq2    O6 2508   3.375   4.489  11.285 -0.4024  0.2674 -0.0212
  164TCq2    H2 2509   3.359   4.258  11.234 -0.6226  1.3728  0.8578
  164TCq2    H3 2510   2.990   4.458  11.246 -0.4476  0.7596 -1.7154
  164TCq2    H4 2511   3.004   4.050  11.132 -1.0340  0.7289 -0.2142
  165MPD2     C 2512   3.288   0.866   2.136  0.3171  0.3565 -0.4017
  165MPD2    C1 2513   3.376   0.835   2.029  0.4513 -0.1626  0.1172
  165MPD2    C2 2514   3.480   0.926   2.000 -0.0176  0.8326 -0.2463
  165MPD2    C3 2515   3.485   1.049   2.070 -0.8772 -0.3358 -0.7265
  165MPD2    C4 2516   3.405   1.061   2.188 -0.2805  0.3265  0.0335
  165MPD2    C5 2517   3.309   0.973   2.217  0.1248 -0.3668 -0.4128
  165MPD2     H 2518   3.561   0.902   1.932  1.1152 -0.5297  1.5952
  165MPD2    H1 2519   3.403   1.153   2.245 -2.5273  0.3926 -0.1728
  165MPD2    H2 2520   3.218   0.791   2.171  1.9882 -1.1207 -0.2510
  165MPD2    H3 2521   3.240   0.980   2.301 -0.4596  1.5183 -1.0523
  165MPD2     N 2522   3.594   1.138   2.055  0.4599  0.5307 -0.2786
  165MPD2    H5 2523   3.611   1.196   2.136  3.0362 -1.1878  0.4273
  165MPD2    N1 2524   3.355   0.713   1.963  0.3080 -0.5284 -0.1796
  165MPD2    H7 2525   3.282   0.646   1.985 -0.8180  1.6348  2.6567
  166TCq2    C1 2526   3.687   1.136   1.954  0.3116 -0.5727  0.2421
  166TCq2    O2 2527   3.671   1.083   1.848 -0.2346  0.3509 -0.2617
  166TCq2    C2 2528   3.813   1.203   1.983  0.3039  0.4467  0.0303
  166TCq2    C3 2529   3.833   1.238   2.119 -0.7088  0.3113  0.3918
  166TCq2    C4 2530   3.956   1.275   2.149  0.4549  0.5790 -0.1718
  166TCq2    C5 2531   4.054   1.289   2.052 -0.3027  0.2996 -0.5930
  166TCq2    C6 2532   4.030   1.262   1.920  0.1734  0.0570 -0.1950
  166TCq2    C7 2533   3.910   1.215   1.886  0.6060 -0.2240  0.0903
  166TCq2    C8 2534   4.143   1.251   1.831  0.7326  0.0533 -0.5770
  166TCq2    O4 2535   4.252   1.246   1.883 -0.2339 -0.0652  0.2683
  166TCq2    C9 2536   3.995   1.283   2.286  0.1247 -0.0885  0.1483
  166TCq2    O5 2537   3.911   1.230   2.368 -0.4706 -0.0522 -0.5306
  166TCq2    O6 2538   4.089   1.360   2.324  0.3488  0.4082  0.2911
  166TCq2    H2 2539   3.756   1.225   2.194  0.7675  2.2963  2.2634
  166TCq2    H3 2540   4.153   1.317   2.087  0.4045 -0.3661 -2.0750
  166TCq2    H4 2541   3.888   1.160   1.795 -1.8141 -0.7019  0.9448
  167TMC2    C1 2542   1.894   3.686  12.595 -0.1715 -0.1739 -0.3417
  167TMC2    C2 2543   1.808   3.720  12.696  0.1950 -0.0052 -0.9034
  167TMC2    C3 2544   1.832   3.670  12.824  0.1941 -0.4171 -0.4414
  167TMC2    C4 2545   2.003   3.610  12.624  0.4341 -0.2045  0.3293
  167TMC2    C5 2546   2.023   3.557  12.747  0.1669 -0.5269 -0.2854
  167TMC2    C6 2547   1.935   3.586  12.847 -0.2420 -0.5546 -0.7100
  167TMC2     C 2548   1.902   3.757  12.461  0.2507 -0.5621 -0.8984
  167TMC2     O 2549   1.988   3.842  12.445 -1.1107  0.6116 -0.0500
  167TMC2     H 2550   1.723   3.774  12.655  0.8170  1.9144  0.3583
  167TMC2    H1 2551   2.066   3.584  12.540 -0.0345 -0.2922  0.0031
  167TMC2    H2 2552   1.954   3.550  12.947 -1.6151  2.3986  0.6336
  167TMC2    C7 2553   2.131   3.458  12.776 -0.1179 -0.1504  0.1921
  167TMC2    C8 2554   1.733   3.687  12.924 -0.1014  0.4273  0.4087
  167TMC2    O1 2555   2.140   3.423  12.892 -0.5472 -0.5289 -0.2929
  167TMC2    O2 2556   1.715   3.600  13.003  0.2955 -0.3349  0.0264
  167TMC2    O5 2557   1.672   3.809  12.910 -0.2903 -0.7622  0.0610
  167TMC2    H5 2558   1.729   3.870  12.859  0.7418 -2.0303 -0.2917
  168MPD2     C 2559   1.875   3.811  12.168  0.0950 -0.5292  1.2610
  168MPD2    C1 2560   1.846   3.692  12.230  0.0374 -0.2726 -0.2191
  168MPD2    C2 2561   1.835   3.578  12.156 -0.1052 -0.1004  0.4054
  168MPD2    C3 2562   1.872   3.590  12.020 -0.0099 -0.4530 -0.6808
  168MPD2    C4 2563   1.899   3.704  11.959  0.2658  0.1268 -0.1394
  168MPD2    C5 2564   1.900   3.813  12.034 -0.1134  0.5087 -0.2943
  168MPD2     H 2565   1.818   3.491  12.218  0.9048 -0.3758  0.2821
  168MPD2    H1 2566   1.921   3.715  11.853 -0.0751 -3.4620 -0.6054
  168MPD2    H2 2567   1.879   3.904  12.225 -2.1852  0.2635  0.1254
  168MPD2    H3 2568   1.918   3.909  11.987 -0.4563  0.4539 -0.5345
  168MPD2     N 2569   1.898   3.485  11.933 -0.3427 -0.5723  0.1712
  168MPD2    H5 2570   1.951   3.503  11.848 -0.0786  0.4873  0.5574
  168MPD2    N1 2571   1.834   3.682  12.373 -0.4751 -0.0134 -0.2642
  168MPD2    H7 2572   1.798   3.593  12.407  0.4769 -0.5202 -0.5771
  169MPD1     C 2573   4.651   3.673   8.826 -0.1249  0.1579  0.9297
  169MPD1    C1 2574   0.057   3.680   8.868 -0.3250 -0.3005  0.4904
  169MPD1    C2 2575   0.119   3.567   8.922  0.2659 -0.5514  0.2825
  169MPD1    C3 2576   0.052   3.443   8.919 -0.0665  0.2859  0.2928
  169MPD1    C4 2577   4.654   3.434   8.856 -0.2144 -0.9144  0.7075
  169MPD1    C5 2578   4.596   3.547   8.803  0.0700  0.0961 -0.3521
  169MPD1     H 2579   0.218   3.580   8.966  0.4652  2.0421 -0.8729
  169MPD1    H1 2580   4.608   3.339   8.831 -2.0391  0.1500  0.0227
  169MPD1    H2 2581   4.591   3.750   8.780  2.6013  1.7114 -0.0342
  169MPD1    H3 2582   4.499   3.531   8.757  0.6199 -0.8990 -1.1371
  169MPD1     N 2583   0.108   3.324   8.973  0.2407  0.6095  0.4879
  169MPD1    H5 2584   0.201   3.342   9.009 -0.4466  0.5353  2.2715
  169MPD1    N1 2585   0.108   3.806   8.901  0.1649 -0.1626 -0.4626
  169MPD1    H6 2586   0.208   3.806   8.882  0.2601 -0.0574  0.0359
  169MPD1    H7 2587   0.072   3.875   8.835  0.0444 -1.7285 -2.0420
  170MPD1     C 2588   4.420   1.119  13.274  0.4340 -0.0131 -0.2971
  170MPD1    C1 2589   4.343   1.076  13.380 -0.0147  0.2845  0.2489
  170MPD1    C2 2590   4.201   1.091  13.377  1.1399 -0.1614 -0.3658
  170MPD1    C3 2591   4.138   1.139  13.268  0.1017 -0.7814  0.0209
  170MPD1    C4 2592   4.218   1.195  13.168  0.0388 -0.8817 -0.4461
  170MPD1    C5 2593   4.359   1.189  13.175  0.1523  0.5545  0.0395
  170MPD1     H 2594   4.134   1.054  13.454 -0.3545  0.2725 -1.4420
  170MPD1    H1 2595   4.172   1.256  13.091 -0.6399 -0.7779  0.0356
  170MPD1    H2 2596   4.528   1.118  13.264  0.5774  0.7403  1.1668
  170MPD1    H3 2597   4.410   1.228  13.089  1.1981  1.6671  1.1656
  170MPD1     N 2598   3.996   1.122  13.247  0.7572  0.9861 -0.3683
  170MPD1    H5 2599   3.955   1.054  13.310  2.9706  0.4265  0.4576
  170MPD1    N1 2600   4.409   0.988  13.469  0.2392  0.2599  0.2409
  170MPD1    H6 2601   4.508   1.009  13.483  0.4160  1.1283 -2.3383
  170MPD1    H7 2602   4.348   0.992  13.551  0.6137 -0.3497  0.5538
  171MPD1     C 2603   1.612   2.246  15.152 -0.0537  0.6584  0.0827
  171MPD1    C1 2604   1.659   2.142  15.076  0.3267  0.0293  0.1937
  171MPD1    C2 2605   1.769   2.067  15.118 -0.6998 -0.6140  0.0539
  171MPD1    C3 2606   1.843   2.114  15.229  0.7801 -1.0184 -0.3008
  171MPD1    C4 2607   1.795   2.226  15.300  0.0250 -0.0253 -0.1137
  171MPD1    C5 2608   1.678   2.283  15.263  0.1376  0.3939  0.0322
  171MPD1     H 2609   1.805   1.971  15.082  0.1433  0.1756 -1.2322
  171MPD1    H1 2610   1.843   2.253  15.393 -1.2253 -0.0296  0.5357
  171MPD1    H2 2611   1.532   2.312  15.119 -0.8192 -0.6388 -0.6805
  171MPD1    H3 2612   1.649   2.371  15.320 -2.4563 -0.1574 -0.4416
  171MPD1     N 2613   1.960   2.051  15.284  0.5756  0.2323 -0.0168
  171MPD1    H5 2614   2.007   2.093  15.364  0.2197  0.4337  0.0885
  171MPD1    N1 2615   1.587   2.093  14.966 -0.5642 -0.2457  0.3426
  171MPD1    H6 2616   1.643   2.065  14.886 -1.0074 -0.0904 -0.0205
  171MPD1    H7 2617   1.516   2.156  14.930 -0.1401  0.1183  0.1443
  172MPD1     C 2618   0.882   1.016  17.656 -0.5086 -0.2772  0.0319
  172MPD1    C1 2619   0.799   1.088   0.038 -0.6171 -0.0107  1.0121
  172MPD1    C2 2620   0.851   1.168   0.130 -0.3452 -0.3480 -0.7871
  172MPD1    C3 2621   0.988   1.173   0.147 -0.5479  0.5512  0.4209
  172MPD1    C4 2622   1.075   1.093   0.072 -0.1888 -0.0908 -1.5297
  172MPD1    C5 2623   1.018   1.016  17.668 -0.4420 -0.1117 -0.1446
  172MPD1     H 2624   0.784   1.228   0.191  1.2560  1.8869 -1.2503
  172MPD1    H1 2625   1.182   1.080   0.084 -0.1534 -1.3253 -3.1733
  172MPD1    H2 2626   0.835   0.956  17.579  1.2249 -3.4959  1.4794
  172MPD1    H3 2627   1.075   0.937  17.622 -0.8297 -1.6800  2.0991
  172MPD1     N 2628   1.038   1.258   0.246  0.0325 -0.2556  0.5498
  172MPD1    H5 2629   1.135   1.252   0.275 -0.0519  2.0536  1.3653
  172MPD1    N1 2630   0.656   1.080   0.027 -0.3375  0.0163  0.2949
  172MPD1    H6 2631   0.601   1.059   0.110  0.1170  0.2837  0.6591
  172MPD1    H7 2632   0.622   1.011  17.660 -1.0735  1.1100 -0.4637
  173MPD1     C 2633   2.419   1.571  14.368  0.0767 -0.3307  0.2993
  173MPD1    C1 2634   2.447   1.523  14.491  0.4669 -0.4831  0.6659
  173MPD1    C2 2635   2.389   1.404  14.519 -0.3305  0.5561 -0.2234
  173MPD1    C3 2636   2.301   1.338  14.424 -0.1923  0.1140 -0.0270
  173MPD1    C4 2637   2.263   1.407  14.307 -0.4915 -0.7926 -0.2007
  173MPD1    C5 2638   2.336   1.515  14.272  0.9512  0.3657  0.1231
  173MPD1     H 2639   2.413   1.362  14.616 -2.7191  1.9548  0.9821
  173MPD1    H1 2640   2.191   1.364  14.237 -0.6769  1.4911 -1.4077
  173MPD1    H2 2641   2.466   1.661  14.330 -1.0095  0.9213  1.9443
  173MPD1    H3 2642   2.322   1.560  14.174  2.9422 -0.6650 -0.6462
  173MPD1     N 2643   2.265   1.201  14.434  0.1193 -0.2003  0.1774
  173MPD1    H5 2644   2.220   1.168  14.349  0.4360 -0.8824  0.2791
  173MPD1    N1 2645   2.501   1.601  14.593 -0.5864 -0.6532 -0.1993
  173MPD1    H6 2646   2.554   1.563  14.672  0.8258 -3.4056 -2.4585
  173MPD1    H7 2647   2.553   1.679  14.553 -0.2733 -0.6006  0.3174
  174MPD1     C 2648   2.774   0.800  13.924 -0.4036  0.3665  0.1778
  174MPD1    C1 2649   2.678   0.708  13.924 -0.2786 -0.4399  0.8327
  174MPD1    C2 2650   2.576   0.712  14.018 -0.8879 -0.1134 -0.0504
  174MPD1    C3 2651   2.563   0.816  14.105 -0.2246  0.8160 -0.0106
  174MPD1    C4 2652   2.655   0.918  14.100 -0.1376 -0.2545 -0.3428
  174MPD1    C5 2653   2.767   0.903  14.016  0.1088 -0.1337  0.1289
  174MPD1     H 2654   2.503   0.632  14.023 -0.0866 -0.8278  0.2105
  174MPD1    H1 2655   2.651   1.009  14.159  1.5456 -0.0107 -0.5816
  174MPD1    H2 2656   2.868   0.787  13.871 -0.1995  1.1670  0.3489
  174MPD1    H3 2657   2.845   0.978  14.023 -0.2639  0.3513 -0.8354
  174MPD1     N 2658   2.459   0.831  14.206  0.1534  1.4413 -0.4128
  174MPD1    H5 2659   2.495   0.884  14.284  0.2283  1.0972 -0.2175
  174MPD1    N1 2660   2.699   0.601  13.840  0.1459  0.2522  0.1696
  174MPD1    H6 2661   2.748   0.615  13.751  1.9396 -0.2492  1.0659
  174MPD1    H7 2662   2.618   0.543  13.822  0.5111 -0.4052  0.6526
  175MPD1     C 2663   0.682   2.151  15.126 -0.2915 -0.4688  0.1107
  175MPD1    C1 2664   0.820   2.122  15.143 -0.3509 -0.0006  0.6852
  175MPD1    C2 2665   0.871   2.144  15.267 -0.0888 -0.1769  0.0551
  175MPD1    C3 2666   0.788   2.203  15.365 -0.3204  0.6518  0.4980
  175MPD1    C4 2667   0.654   2.215  15.339 -0.0326  0.4485 -0.0653
  175MPD1    C5 2668   0.598   2.181  15.224 -0.5953  0.1369  0.6103
  175MPD1     H 2669   0.971   2.115  15.298 -0.0957 -1.7662 -1.3885
  175MPD1    H1 2670   0.591   2.258  15.416  0.4494 -0.2484  0.7187
  175MPD1    H2 2671   0.632   2.130  15.032 -1.8266  0.0975  0.8045
  175MPD1    H3 2672   0.492   2.177  15.203 -0.8050  2.7816  1.1140
  175MPD1     N 2673   0.823   2.214  15.500 -0.6804  0.2268  0.2504
  175MPD1    H5 2674   0.753   2.254  15.562 -2.0846 -3.1262  0.8118
  175MPD1    N1 2675   0.898   2.094  15.026 -0.2654 -0.2114 -0.4108
  175MPD1    H6 2676   0.848   2.055  14.947 -0.5671 -1.9365  0.6439
  175MPD1    H7 2677   0.975   2.037  15.060  0.0164  0.4894  0.1223
  176MPD1     C 2678   3.349   1.189  17.508  0.0083  0.4208 -0.3968
  176MPD1    C1 2679   3.373   1.061  17.494  0.0469 -0.2906 -0.9877
  176MPD1    C2 2680   3.283   0.986  17.423  0.1656  0.2381 -0.0604
  176MPD1    C3 2681   3.165   1.051  17.369  0.4595  0.2991  0.4691
  176MPD1    C4 2682   3.140   1.183  17.391 -0.4731 -0.2085  0.3251
  176MPD1    C5 2683   3.229   1.252  17.471 -0.0220  0.4807 -0.3928
  176MPD1     H 2684   3.295   0.880  17.404  0.8036  0.5478 -1.3858
  176MPD1    H1 2685   3.053   1.236  17.354 -1.4781 -2.6799 -0.8103
  176MPD1    H2 2686   3.418   1.245  17.570  2.1101  0.2741 -2.5892
  176MPD1    H3 2687   3.201   1.354  17.489 -0.2965  0.3789 -0.2485
  176MPD1     N 2688   3.073   0.968  17.298 -0.7383 -1.0016  0.7408
  176MPD1    H5 2689   3.109   0.875  17.280  2.1488 -0.1155  1.9570
  176MPD1    N1 2690   3.482   1.012  17.570 -0.5115 -0.5381 -0.5203
  176MPD1    H6 2691   3.543   1.074  17.622  0.5207 -1.5755 -0.4840
  176MPD1    H7 2692   3.533   0.943  17.515  0.3535  0.3389 -0.8141
  177MPD1     C 2693   1.251   0.280  10.134 -0.0662  0.2185 -0.5730
  177MPD1    C1 2694   1.190   0.307  10.018 -0.0099  0.1636  0.5186
  177MPD1    C2 2695   1.140   0.202   9.945 -0.1176  0.1914  0.5471
  177MPD1    C3 2696   1.180   0.073   9.972 -0.9609  0.7615  0.2799
  177MPD1    C4 2697   1.248   0.055  10.090 -0.0673 -0.5051 -0.1467
  177MPD1    C5 2698   1.304   0.158  10.159 -0.2693  0.2472  0.1667
  177MPD1     H 2699   1.065   0.223   9.870  1.1089 -0.7738 -0.9436
  177MPD1    H1 2700   1.269   4.683  10.133  0.8954  0.0573  0.6454
  177MPD1    H2 2701   1.259   0.356  10.211  2.5361  0.5820 -1.1985
  177MPD1    H3 2702   1.351   0.128  10.252  4.2196  0.5531 -2.0193
  177MPD1     N 2703   1.144   4.684   9.888 -0.2053 -0.5216 -0.4598
  177MPD1    H5 2704   1.070   4.696   9.819 -0.5630  0.4972  0.1057
  177MPD1    N1 2705   1.143   0.433   9.987 -0.6089 -0.3774 -0.0351
  177MPD1    H6 2706   1.146   0.462   9.889 -0.4644 -3.5651 -0.9688
  177MPD1    H7 2707   1.181   0.503  10.051 -2.3783  2.9526 -2.6393
  178MPD1     C 2708   2.896   0.160   0.171 -0.3709 -0.7772  0.1826
  178MPD1    C1 2709   2.948   0.038   0.118 -0.2022 -0.2491  0.5530
  178MPD1    C2 2710   2.984   0.045  17.685  0.5063 -0.3362 -0.0988
  178MPD1    C3 2711   2.978   0.160  17.612  0.2401 -0.0091  0.0968
  178MPD1    C4 2712   2.942   0.283  17.674  0.9410 -0.1218 -0.4635
  178MPD1    C5 2713   2.898   0.281   0.106  0.1941 -0.2961  0.0397
  178MPD1     H 2714   3.022   4.674  17.654  0.7711 -0.3963  0.4134
  178MPD1    H1 2715   2.929   0.370  17.611  0.5116  1.2539  1.5584
  178MPD1    H2 2716   2.863   0.163   0.275 -0.8969  1.2671 -0.0492
  178MPD1    H3 2717   2.873   0.372   0.158  1.4254 -0.0237  0.1581
  178MPD1     N 2718   2.997   0.161  17.475 -0.4777 -0.0480 -0.2853
  178MPD1    H5 2719   2.995   0.251  17.430 -1.1921 -0.4984 -1.1657
  178MPD1    N1 2720   2.954   4.643   0.189 -0.6881 -0.2387 -0.0977
  178MPD1    H6 2721   3.029   4.582   0.157 -2.1513 -2.5620  0.9226
  178MPD1    H7 2722   2.974   4.648   0.288 -1.8715  2.7953 -0.0228
  179MPD1     C 2723   2.875   3.319  15.207  0.7751  0.1267 -0.1220
  179MPD1    C1 2724   2.751   3.383  15.214 -0.4761  0.1952 -0.2592
  179MPD1    C2 2725   2.671   3.364  15.326 -0.1575  0.5198 -0.4139
  179MPD1    C3 2726   2.702   3.267  15.419 -0.7829 -0.2711 -0.5520
  179MPD1    C4 2727   2.823   3.201  15.410 -0.7053 -0.1207  0.6422
  179MPD1    C5 2728   2.913   3.230  15.304  0.7450 -0.6196 -0.5652
  179MPD1     H 2729   2.588   3.433  15.335  1.3400  2.6685 -3.3989
  179MPD1    H1 2730   2.864   3.131  15.481 -0.8033  0.6032  1.4156
  179MPD1    H2 2731   2.948   3.340  15.130 -0.3579 -2.3685 -1.8814
  179MPD1    H3 2732   3.008   3.177  15.300  1.7056  1.1108 -0.6308
  179MPD1     N 2733   2.622   3.243  15.533 -0.4722  0.5232  0.3625
  179MPD1    H5 2734   2.653   3.178  15.604  2.0253  1.0367 -0.2475
  179MPD1    N1 2735   2.712   3.487  15.129  0.4658 -0.1079  0.0535
  179MPD1    H6 2736   2.763   3.477  15.041  0.1792 -1.3451  0.0305
  179MPD1    H7 2737   2.615   3.502  15.106 -0.0124 -0.4473  1.8487
  180MPD1     C 2738   3.157   4.116  15.367  0.2866  0.3594  0.7545
  180MPD1    C1 2739   3.231   4.140  15.257  0.1680 -0.1474  0.4141
  180MPD1    C2 2740   3.167   4.155  15.132  0.0634 -0.4651  0.5950
  180MPD1    C3 2741   3.034   4.144  15.110 -0.0429 -0.1799  0.1468
  180MPD1    C4 2742   2.960   4.098  15.223  0.5121 -0.1246  0.3253
  180MPD1    C5 2743   3.021   4.097  15.349 -0.0998  0.8751 -0.3786
  180MPD1     H 2744   3.223   4.190  15.046 -1.8886  0.4308 -0.3273
  180MPD1    H1 2745   2.853   4.085  15.209  0.6550  0.5495 -1.3690
  180MPD1    H2 2746   3.196   4.107  15.468  2.5442  0.6797 -0.1111
  180MPD1    H3 2747   2.976   4.063  15.442  0.5566 -0.5242 -0.5688
  180MPD1     N 2748   2.977   4.177  14.989 -0.1515  0.0295 -0.3544
  180MPD1    H5 2749   3.034   4.215  14.914  0.8845 -0.4227  0.2134
  180MPD1    N1 2750   3.371   4.145  15.264 -0.0307  0.5577 -0.0925
  180MPD1    H6 2751   3.411   4.158  15.357 -0.3686  2.8251 -0.2562
  180MPD1    H7 2752   3.405   4.223  15.207  1.7629  0.0782  0.3338
  181MPD1     C 2753   4.678   0.433   9.613 -0.5021  0.0849 -0.1215
  181MPD1    C1 2754   0.072   0.440   9.550  0.3372 -0.5961  0.0905
  181MPD1    C2 2755   0.120   0.567   9.514 -0.4473 -0.1511 -0.2437
  181MPD1    C3 2756   0.062   0.689   9.549  0.4371 -0.7491  0.5380
  181MPD1    C4 2757   4.668   0.674   9.620 -0.5150 -0.1520 -0.1316
  181MPD1    C5 2758   4.614   0.551   9.649 -0.1405 -0.3805 -0.1630
  181MPD1     H 2759   0.216   0.560   9.464 -0.0585  1.0610  0.3153
  181MPD1    H1 2760   4.616   0.767   9.643  0.0153  0.3641 -0.9922
  181MPD1    H2 2761   4.634   0.336   9.632 -0.8978  0.5604  1.3956
  181MPD1    H3 2762   4.514   0.544   9.690  0.3059 -2.6551  0.5210
  181MPD1     N 2763   0.120   0.813   9.527  0.1488  0.4777 -0.0805
  181MPD1    H5 2764   0.067   0.887   9.572 -1.9792 -0.5008 -0.9737
  181MPD1    N1 2765   0.130   0.320   9.495 -0.6264  0.0879 -0.7811
  181MPD1    H6 2766   0.229   0.327   9.475 -0.8501 -0.9069 -2.2437
  181MPD1    H7 2767   0.112   0.237   9.551 -3.4264  2.2869  1.5586
  182MPD1     C 2768   0.102   4.654   1.298 -0.2541 -0.4174  0.4415
  182MPD1    C1 2769   4.724   0.016   1.309 -0.7730 -0.0759  0.0274
  182MPD1    C2 2770   0.014   0.147   1.256 -0.6137 -0.4087  0.1764
  182MPD1    C3 2771   0.140   0.192   1.210 -0.1052  0.1383  0.1531
  182MPD1    C4 2772   0.246   0.096   1.215  0.1014  0.5724 -0.1962
  182MPD1    C5 2773   0.223   4.688   1.252 -0.0930  0.5657 -0.1677
  182MPD1     H 2774   4.659   0.220   1.251  1.5949  2.1086  1.7885
  182MPD1    H1 2775   0.351   0.116   1.193  0.2640 -0.3584 -0.2769
  182MPD1    H2 2776   0.085   4.553   1.333  0.5545 -0.6969  0.0251
  182MPD1    H3 2777   0.301   4.613   1.237  1.2432  1.6154  1.4827
  182MPD1     N 2778   0.176   0.328   1.170  1.0166 -0.6454 -0.3434
  182MPD1    H5 2779   0.270   0.334   1.131  0.9898  2.0284 -0.0109
  182MPD1    N1 2780   4.603   4.696   1.356  0.1574 -0.4010 -0.1705
  182MPD1    H6 2781   4.617   4.629   1.431 -2.0791 -0.7143 -0.0322
  182MPD1    H7 2782   4.548   0.049   1.394  1.1190  0.3442 -0.3134
  183MPD1     C 2783   2.201   2.062   9.949 -0.0877  0.7593  0.8305
  183MPD1    C1 2784   2.138   2.150   9.867  0.2781 -0.5398  0.1555
  183MPD1    C2 2785   2.029   2.109   9.799 -0.4955 -0.1157 -0.7728
  183MPD1    C3 2786   1.969   1.986   9.821 -0.5207 -0.1342 -0.5606
  183MPD1    C4 2787   2.031   1.904   9.913 -0.0557  0.5612  0.0729
  183MPD1    C5 2788   2.143   1.937   9.983  0.5591 -0.1517 -0.8218
  183MPD1     H 2789   1.975   2.186   9.745 -0.7903  0.3608  0.2066
  183MPD1    H1 2790   1.991   1.809   9.947  1.9210 -0.2521  0.1698
  183MPD1    H2 2791   2.297   2.088   9.991  0.3075 -1.9672  1.5853
  183MPD1    H3 2792   2.187   1.862  10.048  0.4812 -0.9208 -1.6662
  183MPD1     N 2793   1.842   1.957   9.765  0.4383  0.7242 -0.2662
  183MPD1    H5 2794   1.802   2.027   9.703 -0.5618 -0.8968 -1.4395
  183MPD1    N1 2795   2.189   2.276   9.832 -0.0648  0.5549 -0.3987
  183MPD1    H6 2796   2.114   2.329   9.787  0.1185 -1.4487 -3.0489
  183MPD1    H7 2797   2.229   2.324   9.912 -0.5667 -0.9641  0.7545
  184MPD1     C 2798   4.572   3.474   9.781 -0.3785  0.6691  0.5782
  184MPD1    C1 2799   4.640   3.549   9.871 -0.3287 -0.4764 -1.0078
  184MPD1    C2 2800   0.020   3.630   9.827  0.4725 -0.5387 -1.3606
  184MPD1    C3 2801   0.054   3.621   9.697  0.4322  0.1935 -0.6743
  184MPD1    C4 2802   4.706   3.544   9.606 -1.1613 -0.1363 -0.5093
  184MPD1    C5 2803   4.607   3.461   9.652 -0.7384  0.3812 -0.0699
  184MPD1     H 2804   0.060   3.704   9.895 -0.8269 -0.9864 -0.0974
  184MPD1    H1 2805   0.002   3.535   9.500  0.7756  0.0804 -0.1520
  184MPD1    H2 2806   4.487   3.414   9.812  0.3290 -0.9368 -0.6093
  184MPD1    H3 2807   4.553   3.393   9.588 -1.1072  0.7175 -0.1179
  184MPD1     N 2808   0.163   3.692   9.638 -0.2334  0.2326  0.7038
  184MPD1    H5 2809   0.171   3.671   9.539  2.6487 -2.0386  1.4061
  184MPD1    N1 2810   4.578   3.577   9.996 -0.7149  0.8872  0.3514
  184MPD1    H6 2811   4.536   3.493  10.034  0.1739 -0.1110 -0.8580
  184MPD1    H7 2812   4.642   3.614  10.065  1.4218  1.4653 -1.9270
  185MPD1     C 2813   0.486   4.146   8.850  1.1809  0.4699 -0.1858
  185MPD1    C1 2814   0.460   4.010   8.856 -0.1515  0.0893  0.1130
  185MPD1    C2 2815   0.441   3.961   8.986 -0.0318  0.2925 -0.4352
  185MPD1    C3 2816   0.470   4.044   9.102  0.4945 -0.8948 -0.6105
  185MPD1    C4 2817   0.500   4.176   9.090 -0.5062  0.5883 -0.2517
  185MPD1    C5 2818   0.520   4.219   8.961 -0.0397 -0.0220  0.6807
  185MPD1     H 2819   0.401   3.861   8.999  1.0310 -0.2941 -1.7742
  185MPD1    H1 2820   0.526   4.246   9.169 -1.9194 -1.4590  2.0401
  185MPD1    H2 2821   0.490   4.197   8.755  0.1965 -2.2369 -1.6865
  185MPD1    H3 2822   0.532   4.326   8.947 -1.9075  0.2476  1.2119
  185MPD1     N 2823   0.466   3.998   9.236  0.1573  0.1169  0.7051
  185MPD1    H5 2824   0.478   4.070   9.307  0.9242  0.4875  0.2037
  185MPD1    N1 2825   0.421   3.945   8.740 -0.3385 -0.0148  0.3966
  185MPD1    H6 2826   0.471   3.986   8.661  0.1525 -0.1241  0.6506
  185MPD1    H7 2827   0.440   3.846   8.749  1.1922  0.4735  2.5411
  186MPD1     C 2828   3.857   3.044  15.280  0.4867 -0.0128 -0.1312
  186MPD1    C1 2829   3.921   3.136  15.365  0.1709 -0.3279 -0.4972
  186MPD1    C2 2830   3.849   3.199  15.469 -0.5205 -0.1697  0.0568
  186MPD1    C3 2831   3.719   3.156  15.492 -0.3583 -0.8798  0.4244
  186MPD1    C4 2832   3.665   3.047  15.419  0.1136  0.3181 -0.8418
  186MPD1    C5 2833   3.736   2.994  15.311 -0.1004  0.1593 -0.5956
  186MPD1     H 2834   3.889   3.285  15.521  2.1381 -1.6156  0.4394
  186MPD1    H1 2835   3.568   3.000  15.432  0.5169 -1.1115 -2.9077
  186MPD1    H2 2836   3.905   3.004  15.192  0.8457  0.0806  0.0204
  186MPD1    H3 2837   3.695   2.912  15.254 -2.8120  1.2360 -0.1823
  186MPD1     N 2838   3.661   3.217  15.602  0.1038 -0.6936 -0.1103
  186MPD1    H5 2839   3.718   3.289  15.643 -0.1373  1.3562 -3.3953
  186MPD1    N1 2840   4.040   3.195  15.314  0.2375 -0.2530  0.1383
  186MPD1    H6 2841   4.094   3.234  15.390  1.5948 -1.3107 -0.2961
  186MPD1    H7 2842   4.092   3.120  15.269  2.4736  1.4754 -0.1249
  187MPD1     C 2843   2.667   1.164  17.523  0.2391 -0.8646  0.0557
  187MPD1    C1 2844   2.604   1.037  17.508 -0.0971 -0.3414  0.1490
  187MPD1    C2 2845   2.529   1.021  17.390 -0.0828  0.1463 -0.0192
  187MPD1    C3 2846   2.527   1.115  17.292 -0.7895  0.8947  0.3116
  187MPD1    C4 2847   2.598   1.235  17.306 -0.0181 -0.5166  0.5350
  187MPD1    C5 2848   2.671   1.256  17.420  0.0599  0.0592  0.0124
  187MPD1     H 2849   2.484   0.925  17.367 -0.0156 -0.3699  1.9396
  187MPD1    H1 2850   2.596   1.316  17.234  2.4966 -0.4137  0.5769
  187MPD1    H2 2851   2.722   1.184  17.615  2.9311 -0.2507 -1.6981
  187MPD1    H3 2852   2.720   1.352  17.433 -1.1443  0.6873 -0.0686
  187MPD1     N 2853   2.461   1.104  17.166 -0.0424  0.7208  0.2605
  187MPD1    H5 2854   2.498   1.165  17.093  0.3394 -0.5182 -0.5871
  187MPD1    N1 2855   2.603   0.942  17.616 -0.2127  0.2354  0.0515
  187MPD1    H6 2856   2.681   0.951  17.681  0.5154 -0.1589 -0.7687
  187MPD1    H7 2857   2.597   0.843  17.596  0.5872 -0.3650  2.7718
  188MPD1     C 2858   2.553   0.541   9.482  0.7790  0.1377  0.1206
  188MPD1    C1 2859   2.657   0.446   9.475  0.2905 -0.3048 -0.0978
  188MPD1    C2 2860   2.632   0.330   9.545 -0.4890 -0.6417  0.4079
  188MPD1    C3 2861   2.515   0.305   9.611 -0.4372 -0.6128  0.2665
  188MPD1    C4 2862   2.413   0.401   9.601 -0.4812  0.1854 -0.3276
  188MPD1    C5 2863   2.439   0.522   9.545  0.3627 -0.1165 -0.2543
  188MPD1     H 2864   2.715   0.262   9.564 -0.7710 -0.8975  0.7115
  188MPD1    H1 2865   2.308   0.381   9.620 -0.8242  1.7583 -0.5069
  188MPD1    H2 2866   2.578   0.644   9.461 -1.5810  0.7429  0.2610
  188MPD1    H3 2867   2.362   0.599   9.546  0.3326 -0.0783 -3.8200
  188MPD1     N 2868   2.488   0.185   9.681 -0.2958  0.5367  0.1384
  188MPD1    H5 2869   2.395   0.184   9.721  0.7726  2.1015  2.6394
  188MPD1    N1 2870   2.787   0.494   9.450  0.6631 -0.3780  0.0810
  188MPD1    H6 2871   2.785   0.552   9.366  2.1062 -0.6245 -0.1309
  188MPD1    H7 2872   2.852   0.418   9.432  2.9749  2.0422 -1.7211
  189MPD1     C 2873   4.588   0.844   0.315 -0.3721  0.6977 -0.0800
  189MPD1    C1 2874   4.498   0.794   0.404  0.0650 -0.4486  0.2245
  189MPD1    C2 2875   4.372   0.840   0.400 -0.3150 -0.0417  0.3122
  189MPD1    C3 2876   4.322   0.919   0.292 -0.4978 -0.6235 -0.3647
  189MPD1    C4 2877   4.418   0.958   0.200 -0.2376  0.0475  0.8275
  189MPD1    C5 2878   4.544   0.917   0.209  0.1538 -0.5267  0.2362
  189MPD1     H 2879   4.306   0.813   0.482 -0.7552  0.0622 -0.0070
  189MPD1    H1 2880   4.386   1.026   0.122 -0.0658 -0.2630  0.4867
  189MPD1    H2 2881   4.695   0.839   0.327 -0.5691 -3.2245  0.0415
  189MPD1    H3 2882   4.618   0.956   0.141  1.6603  0.6458  2.5487
  189MPD1     N 2883   4.188   0.955   0.284  1.2252  0.2279 -0.0574
  189MPD1    H5 2884   4.130   0.932   0.364 -0.6395 -2.7529 -2.2885
  189MPD1    N1 2885   4.542   0.731   0.519 -0.2412 -0.5797 -0.2524
  189MPD1    H6 2886   4.627   0.676   0.511 -0.0729 -0.4731  0.8491
  189MPD1    H7 2887   4.471   0.683   0.574 -1.5000  0.1342 -1.2426
  190MPD1     C 2888   2.085   4.435  15.778 -0.3182 -0.1950  0.4018
  190MPD1    C1 2889   2.151   4.341  15.854 -0.2935  1.0245 -1.4008
  190MPD1    C2 2890   2.289   4.346  15.863  0.0538  0.1184  0.0373
  190MPD1    C3 2891   2.364   4.420  15.767  0.4983  0.3654  0.1032
  190MPD1    C4 2892   2.292   4.503  15.680  0.7763 -0.4493 -0.4044
  190MPD1    C5 2893   2.156   4.500  15.682 -0.4411 -0.3078  0.4844
  190MPD1     H 2894   2.347   4.275  15.921  2.6780  1.5304 -0.8935
  190MPD1    H1 2895   2.343   4.581  15.623  2.3588  0.4861  2.2971
  190MPD1    H2 2896   1.979   4.452  15.788 -1.0679 -2.4033 -4.0044
  190MPD1    H3 2897   2.112   4.568  15.610  0.9559  2.6220  2.3406
  190MPD1     N 2898   2.508   4.405  15.763 -0.1154  0.2202  0.3118
  190MPD1    H5 2899   2.554   4.337  15.822  0.8445  0.1973 -0.4637
  190MPD1    N1 2900   2.081   4.260  15.946  0.2147  0.0836  0.1377
  190MPD1    H6 2901   2.002   4.217  15.900  0.9603 -1.2950  0.1615
  190MPD1    H7 2902   2.127   4.179  15.986 -1.5317 -0.2032  1.5899
  191MPD1     C 2903   2.126   1.254  13.204  0.4126 -0.5162  0.2220
  191MPD1    C1 2904   2.005   1.242  13.139 -0.0595  0.1014  0.3955
  191MPD1    C2 2905   1.968   1.340  13.042  0.1952  0.0781  0.3706
  191MPD1    C3 2906   2.071   1.424  12.990 -0.4615 -0.6907  0.1916
  191MPD1    C4 2907   2.199   1.411  13.035  0.6957  0.0241  0.3635
  191MPD1    C5 2908   2.224   1.334  13.143  0.2449 -0.4253 -0.5591
  191MPD1     H 2909   1.867   1.353  13.006  0.8532 -0.2016 -1.5565
  191MPD1    H1 2910   2.271   1.477  12.987 -0.9603  0.0276 -2.0866
  191MPD1    H2 2911   2.150   1.187  13.286 -0.1194 -0.7256  0.2050
  191MPD1    H3 2912   2.327   1.338  13.176 -0.6141  1.5445  1.8605
  191MPD1     N 2913   2.037   1.513  12.888 -0.6429  0.7264  0.5117
  191MPD1    H5 2914   1.940   1.516  12.860  0.1498 -1.2856 -2.3890
  191MPD1    N1 2915   1.907   1.159  13.197 -0.4309 -0.2255 -0.1415
  191MPD1    H6 2916   1.826   1.130  13.142 -2.5099  0.9612  2.2899
  191MPD1    H7 2917   1.956   1.073  13.216  0.0102 -0.0972 -0.7031
  192MPD1     C 2918   1.305   1.747  12.254 -0.4978  0.4430  0.8863
  192MPD1    C1 2919   1.366   1.631  12.289  0.6534  0.1276  0.4947
  192MPD1    C2 2920   1.488   1.632  12.354  0.2119  0.3758 -0.1043
  192MPD1    C3 2921   1.546   1.754  12.398 -0.6623  0.6530 -0.5299
  192MPD1    C4 2922   1.494   1.875  12.350 -0.8813  0.7745 -0.1387
  192MPD1    C5 2923   1.377   1.864  12.280 -0.9644  0.5383 -0.1581
  192MPD1     H 2924   1.544   1.541  12.372 -1.0743 -0.6497 -1.3132
  192MPD1    H1 2925   1.540   1.972  12.367  0.5272  0.0894 -0.0005
  192MPD1    H2 2926   1.213   1.756  12.198 -0.7254 -0.3914  1.1312
  192MPD1    H3 2927   1.337   1.957  12.242  0.6244  1.7766  1.1570
  192MPD1     N 2928   1.666   1.756  12.475  0.4958  0.0932 -0.0917
  192MPD1    H5 2929   1.707   1.846  12.497 -0.4854  0.7726 -1.0329
  192MPD1    N1 2930   1.333   1.517  12.217  0.4299  0.3531  0.0959
  192MPD1    H6 2931   1.232   1.503  12.222  0.2516  1.1377 -1.5301
  192MPD1    H7 2932   1.364   1.429  12.259  0.5860 -0.6905 -2.2073
  193MPD1     C 2933   1.542   2.264  16.114  0.2144 -0.0985 -0.1801
  193MPD1    C1 2934   1.529   2.316  16.239  0.0974 -0.3843  0.0596
  193MPD1    C2 2935   1.641   2.319  16.314  0.2215  0.4243 -0.3081
  193MPD1    C3 2936   1.764   2.296  16.269 -0.1545 -0.3108 -0.1967
  193MPD1    C4 2937   1.773   2.278  16.131  0.0997 -0.1371 -0.8256
  193MPD1    C5 2938   1.661   2.256  16.054  0.0161 -0.5904  0.3702
  193MPD1     H 2939   1.612   2.330  16.418  3.5996  0.6763  0.5972
  193MPD1    H1 2940   1.867   2.256  16.082 -0.0570 -0.9131 -0.7756
  193MPD1    H2 2941   1.460   2.242  16.046  1.3589 -2.1063 -0.9176
  193MPD1    H3 2942   1.668   2.227  15.950 -1.0997  1.1051 -0.1870
  193MPD1     N 2943   1.893   2.320  16.342 -0.2679  0.5765  0.3345
  193MPD1    H5 2944   1.977   2.332  16.286  0.5368 -2.5988  0.8334
  193MPD1    N1 2945   1.402   2.318  16.299  0.2243 -0.6232  0.0186
  193MPD1    H6 2946   1.396   2.397  16.363 -0.7539  0.1618 -1.0278
  193MPD1    H7 2947   1.338   2.347  16.225  0.8717 -1.4935 -0.8722
  194MPD1     C 2948   3.796   3.337  17.173 -0.6267  0.2435 -0.8237
  194MPD1    C1 2949   3.812   3.336  17.035  0.1251  0.4894  0.7092
  194MPD1    C2 2950   3.935   3.356  16.984 -0.2127  0.1170  0.5122
  194MPD1    C3 2951   4.046   3.365  17.066  0.0961  0.5726 -0.3029
  194MPD1    C4 2952   4.031   3.359  17.198 -0.7997  0.8102 -0.0544
  194MPD1    C5 2953   3.907   3.345  17.255  0.2284 -0.0919 -0.0424
  194MPD1     H 2954   3.943   3.357  16.876  0.1486 -0.8394  0.5372
  194MPD1    H1 2955   4.116   3.355  17.265 -0.3378  2.4631 -0.5559
  194MPD1    H2 2956   3.701   3.309  17.218 -0.6431  1.2117 -0.2596
  194MPD1    H3 2957   3.905   3.337  17.363 -1.3186  1.2587  0.0142
  194MPD1     N 2958   4.178   3.375  17.013  0.4303  1.0460  0.4410
  194MPD1    H5 2959   4.250   3.384  17.085  0.7172  1.3174  0.1207
  194MPD1    N1 2960   3.693   3.343  16.956  0.2684 -0.2323  0.3517
  194MPD1    H6 2961   3.701   3.302  16.863 -1.1121  2.0848 -0.7941
  194MPD1    H7 2962   3.606   3.311  16.997 -1.2733 -0.7507 -3.3159
  195MPD1     C 2963   1.873   1.218  17.166 -0.1779 -0.1240 -0.5237
  195MPD1    C1 2964   1.821   1.258  17.290 -0.7647  0.7010 -0.4546
  195MPD1    C2 2965   1.833   1.179  17.395 -0.1633 -0.9128 -0.4382
  195MPD1    C3 2966   1.893   1.053  17.384  0.0559 -0.3752 -0.2150
  195MPD1    C4 2967   1.954   1.017  17.270 -0.1436  0.0676  0.1062
  195MPD1    C5 2968   1.949   1.107  17.166  0.2365  0.0992 -0.5970
  195MPD1     H 2969   1.776   1.206  17.483  0.1531  0.4677 -0.6573
  195MPD1    H1 2970   2.016   0.928  17.257  1.4163  1.0859  0.5762
  195MPD1    H2 2971   1.868   1.277  17.076 -1.0475 -0.9287 -1.0117
  195MPD1    H3 2972   2.018   1.101  17.082  0.3178  1.9674 -0.6800
  195MPD1     N 2973   1.891   0.962  17.488 -0.4108  0.2232  0.0425
  195MPD1    H5 2974   1.935   0.873  17.463 -1.2168 -0.1815  0.0614
  195MPD1    N1 2975   1.748   1.379  17.292  0.7282  0.4138 -0.2142
  195MPD1    H6 2976   1.786   1.444  17.223  0.8171 -1.7211 -2.1853
  195MPD1    H7 2977   1.729   1.419  17.384  0.9574 -1.3190  0.5864
  196MPD1     C 2978   4.272   4.281   0.747 -0.3353 -0.0142  0.6088
  196MPD1    C1 2979   4.343   4.293   0.629 -0.0400  1.2943  0.2029
  196MPD1    C2 2980   4.475   4.335   0.644  0.5292  0.0239  0.2793
  196MPD1    C3 2981   4.544   4.355   0.762 -0.1579  0.3815  0.3138
  196MPD1    C4 2982   4.465   4.336   0.872  0.2539  0.7472  0.6531
  196MPD1    C5 2983   4.328   4.307   0.869 -0.7724  0.1870  0.0709
  196MPD1     H 2984   4.525   4.355   0.550  0.1796  1.3962  0.3825
  196MPD1    H1 2985   4.513   4.364   0.966 -0.2722  1.2920  0.7618
  196MPD1    H2 2986   4.165   4.264   0.747 -0.0867 -1.5376 -0.0631
  196MPD1    H3 2987   4.267   4.310   0.959 -1.0076 -0.2097 -0.0760
  196MPD1     N 2988   4.682   4.376   0.768  0.1583  0.2932 -0.1897
  196MPD1    H5 2989   0.008   4.364   0.856  0.9184 -1.9229 -0.9122
  196MPD1    N1 2990   4.297   4.252   0.504  0.1361 -0.1580 -0.0037
  196MPD1    H6 2991   4.195   4.245   0.500  0.3045 -1.6434 -1.6700
  196MPD1    H7 2992   4.328   4.307   0.424  2.6859 -1.7637 -0.1252
  197MPD1     C 2993   0.291   2.035  17.021 -0.2729 -0.1084 -0.1156
  197MPD1    C1 2994   0.419   1.973  17.015 -0.1892 -0.0890  0.5611
  197MPD1    C2 2995   0.509   2.034  16.934 -0.1843  0.5047 -0.4274
  197MPD1    C3 2996   0.496   2.157  16.868  0.2354  0.1598 -0.3130
  197MPD1    C4 2997   0.365   2.214  16.875 -0.5542  0.1772 -0.4020
  197MPD1    C5 2998   0.273   2.151  16.959  0.0547 -0.5139 -0.6309
  197MPD1     H 2999   0.604   1.982  16.925 -0.5787 -0.4715  1.1530
  197MPD1    H1 3000   0.337   2.303  16.819  1.1257  1.9127  1.4857
  197MPD1    H2 3001   0.205   1.997  17.074  0.4440 -0.9304  0.4553
  197MPD1    H3 3002   0.175   2.197  16.966  0.3518 -0.1412  1.1269
  197MPD1     N 3003   0.600   2.213  16.794 -0.4885 -0.2481 -0.1562
  197MPD1    H5 3004   0.575   2.291  16.733 -2.2198 -1.2820 -0.7822
  197MPD1    N1 3005   0.445   1.852  17.081  0.0601 -0.5641 -0.6529
  197MPD1    H6 3006   0.525   1.840  17.142 -0.5409 -2.0068 -0.1364
  197MPD1    H7 3007   0.364   1.821  17.135  1.2855  0.4280  1.7849
  198MPD1     C 3008   2.756   0.618  15.868 -0.2007 -0.5718  0.1334
  198MPD1    C1 3009   2.882   0.669  15.855  1.0211  1.0125 -0.0521
  198MPD1    C2 3010   2.901   0.803  15.849  0.3562  0.6476 -0.1964
  198MPD1    C3 3011   2.799   0.895  15.888  0.0972 -0.7136  0.3608
  198MPD1    C4 3012   2.668   0.845  15.896  0.6273  0.5696  0.7622
  198MPD1    C5 3013   2.657   0.711  15.881 -0.0226 -0.3106  0.2482
  198MPD1     H 3014   2.996   0.848  15.823  0.6755  0.4451  0.6127
  198MPD1    H1 3015   2.583   0.900  15.935 -0.6877 -1.4549  0.7486
  198MPD1    H2 3016   2.728   0.516  15.842  0.9292 -0.7004 -0.5620
  198MPD1    H3 3017   2.557   0.668  15.883  0.8023 -2.2348  0.0923
  198MPD1     N 3018   2.839   1.031  15.909 -0.4994  0.9007  0.3598
  198MPD1    H5 3019   2.938   1.047  15.926 -0.7143  1.6395  0.9247
  198MPD1    N1 3020   2.983   0.586  15.807 -0.6488 -0.6997 -0.3341
  198MPD1    H6 3021   3.074   0.608  15.847 -0.3327  0.0873 -1.4641
  198MPD1    H7 3022   2.976   0.487  15.826  0.1069 -0.3990  1.5477
  199MPD1     C 3023   0.993   1.611   9.569 -0.2332  0.3648 -0.4165
  199MPD1    C1 3024   1.005   1.743   9.576 -0.5369 -0.0069  0.0525
  199MPD1    C2 3025   0.894   1.827   9.597 -0.3944 -0.0159 -0.8008
  199MPD1    C3 3026   0.770   1.769   9.639  0.5805 -0.2105  0.4686
  199MPD1    C4 3027   0.769   1.628   9.643  0.1892  0.4301  0.7185
  199MPD1    C5 3028   0.874   1.554   9.602  0.2819 -0.3021  0.1635
  199MPD1     H 3029   0.904   1.935   9.594  0.8176 -0.0780  1.0070
  199MPD1    H1 3030   0.679   1.571   9.664  1.5640 -2.7134 -1.9594
  199MPD1    H2 3031   1.071   1.544   9.535 -0.2949  1.0241 -1.8409
  199MPD1    H3 3032   0.875   1.445   9.599 -2.3359 -0.2370 -2.1530
  199MPD1     N 3033   0.649   1.842   9.668 -0.0215  0.4935  0.0974
  199MPD1    H5 3034   0.566   1.793   9.701  0.9327 -1.4530 -0.3599
  199MPD1    N1 3035   1.118   1.802   9.529 -0.9357  0.4023  0.6657
  199MPD1    H6 3036   1.194   1.737   9.509 -1.9509 -0.4793 -0.2968
  199MPD1    H7 3037   1.140   1.900   9.548  0.4521  0.0418  0.9405
  200MPD1     C 3038   4.106   2.304  15.200  0.3761 -0.3260  0.2920
  200MPD1    C1 3039   4.011   2.202  15.177 -0.2091 -0.2050  0.7324
  200MPD1    C2 3040   4.010   2.150  15.052  0.6298 -0.3172  0.2658
  200MPD1    C3 3041   4.089   2.198  14.952 -0.5091 -0.2639 -0.2247
  200MPD1    C4 3042   4.164   2.308  14.974 -0.0011 -0.2611  0.1469
  200MPD1    C5 3043   4.191   2.348  15.102 -0.0000  0.1082 -0.7129
  200MPD1     H 3044   3.942   2.070  15.026  2.0428 -0.9735 -1.4000
  200MPD1    H1 3045   4.233   2.354  14.904 -0.0519 -0.6276 -0.1439
  200MPD1    H2 3046   4.125   2.342  15.300  1.6396  1.5145 -0.6619
  200MPD1    H3 3047   4.249   2.436  15.127 -0.4458 -0.2743  1.6873
  200MPD1     N 3048   4.054   2.158  14.819 -1.1771  0.6169 -0.3171
  200MPD1    H5 3049   3.993   2.078  14.803  0.9625 -0.5602 -2.7857
  200MPD1    N1 3050   3.934   2.142  15.280  0.4804  0.3243  0.5130
  200MPD1    H6 3051   3.845   2.155  15.232  1.3283  0.8972 -0.9062
  200MPD1    H7 3052   3.948   2.202  15.361  2.8589  1.0851 -0.4519
  201MPD1     C 3053   1.628   1.534  13.083 -0.3588 -0.2973  0.4941
  201MPD1    C1 3054   1.619   1.479  12.960 -0.0815  0.3373 -0.6042
  201MPD1    C2 3055   1.587   1.342  12.949  0.2818 -0.1450  0.5350
  201MPD1    C3 3056   1.590   1.259  13.055 -0.1892 -0.2109 -0.1257
  201MPD1    C4 3057   1.613   1.317  13.177 -0.3916 -0.7645  0.2061
  201MPD1    C5 3058   1.642   1.446  13.192  0.5695  0.1849  0.8905
  201MPD1     H 3059   1.559   1.305  12.851  0.5940 -2.2844  1.2549
  201MPD1    H1 3060   1.626   1.256  13.265  1.1167 -1.1638 -0.2820
  201MPD1    H2 3061   1.651   1.638  13.103 -1.3548 -0.1584  0.9275
  201MPD1    H3 3062   1.674   1.485  13.288  3.2569  0.4545 -0.1204
  201MPD1     N 3063   1.569   1.117  13.047  0.8419 -0.6193 -0.0088
  201MPD1    H5 3064   1.568   1.082  12.951 -3.5259  0.2940 -0.2909
  201MPD1    N1 3065   1.602   1.567  12.851 -0.1227  0.1379  0.0985
  201MPD1    H6 3066   1.636   1.537  12.759 -1.0554 -1.3915  0.2583
  201MPD1    H7 3067   1.628   1.665  12.863  0.8853 -0.0010 -0.9050
  202MPD1     C 3068   2.422   0.932  10.080 -0.0854 -0.6645  0.1302
  202MPD1    C1 3069   2.395   1.019   9.976  0.5338  0.2177  0.5590
  202MPD1    C2 3070   2.296   0.976   9.890 -0.4324  0.4856  0.3635
  202MPD1    C3 3071   2.209   0.872   9.917  0.6598  0.6153 -0.5036
  202MPD1    C4 3072   2.209   0.821  10.049  0.2100 -0.0205  0.7094
  202MPD1    C5 3073   2.322   0.843  10.122 -0.3494 -0.6289 -0.5151
  202MPD1     H 3074   2.302   1.013   9.788 -3.0403  2.3632  0.8749
  202MPD1    H1 3075   2.134   0.754  10.089  0.4018 -1.2159 -0.9236
  202MPD1    H2 3076   2.507   0.941  10.146 -1.2245 -0.7418  1.6248
  202MPD1    H3 3077   2.329   0.786  10.213  1.1097  0.6599  0.1803
  202MPD1     N 3078   2.118   0.817   9.825 -0.1565  0.5512 -0.7893
  202MPD1    H5 3079   2.070   0.734   9.860  0.4236  0.8053  0.6442
  202MPD1    N1 3080   2.490   1.104   9.922  0.5557  0.3753 -0.3846
  202MPD1    H6 3081   2.445   1.181   9.873  1.0684 -0.1111 -1.6261
  202MPD1    H7 3082   2.560   1.142   9.984 -0.1616 -0.0459  0.6832
  203MPD1     C 3083   4.480   1.530  12.830 -0.2817  0.3137 -0.4406
  203MPD1    C1 3084   4.604   1.560  12.784 -0.3190  0.1766 -0.3973
  203MPD1    C2 3085   4.682   1.452  12.752  0.1098 -0.1484 -0.1605
  203MPD1    C3 3086   4.644   1.319  12.771  0.1461  0.2970  0.3127
  203MPD1    C4 3087   4.519   1.298  12.816 -0.4665 -0.4081 -0.1018
  203MPD1    C5 3088   4.442   1.400  12.851  0.0561  0.3035 -0.3663
  203MPD1     H 3089   0.056   1.474  12.713  0.4469  0.2249  0.9228
  203MPD1    H1 3090   4.485   1.197  12.835  0.1355 -0.7402 -0.7785
  203MPD1    H2 3091   4.404   1.606  12.845 -1.2702 -0.5061 -1.3089
  203MPD1    H3 3092   4.353   1.376  12.909  1.3725  0.2904  1.6417
  203MPD1     N 3093   4.721   1.205  12.731 -0.1346 -0.0832 -0.0833
  203MPD1    H5 3094   4.678   1.114  12.746 -1.2368  0.8658  2.5654
  203MPD1    N1 3095   4.632   1.689  12.736 -0.7325 -0.4152 -0.2588
  203MPD1    H6 3096   4.598   1.758  12.803  2.1292 -2.1341  2.9384
  203MPD1    H7 3097   0.008   1.697  12.721 -0.6321  2.6595  1.9804
  204MPD1     C 3098   0.198   2.895  17.444 -0.0910 -0.1917  0.1601
  204MPD1    C1 3099   0.202   2.924  17.314  0.2200 -0.0161 -0.3935
  204MPD1    C2 3100   0.133   2.852  17.216  0.3847  0.4394 -0.0319
  204MPD1    C3 3101   0.053   2.743  17.262 -0.4692  0.5990 -0.4679
  204MPD1    C4 3102   0.051   2.710  17.400 -0.0951 -0.1109 -0.1793
  204MPD1    C5 3103   0.114   2.795  17.486  0.6160  0.3745  0.4618
  204MPD1     H 3104   0.145   2.857  17.109 -0.4591 -3.5167 -0.3320
  204MPD1    H1 3105   4.706   2.641  17.447  1.5816 -1.4755  0.3091
  204MPD1    H2 3106   0.251   2.956  17.517  2.3267  1.4519 -2.9728
  204MPD1    H3 3107   0.099   2.777  17.592  0.2211  1.5734  0.6122
  204MPD1     N 3108   4.704   2.670  17.173  0.3857  0.2315  0.1992
  204MPD1    H5 3109   4.707   2.706  17.078  1.1928 -1.7186 -0.5074
  204MPD1    N1 3110   0.310   3.008  17.271 -0.2685  0.1298  0.2873
  204MPD1    H6 3111   0.296   3.046  17.177  1.4472 -0.6385 -0.2685
  204MPD1    H7 3112   0.326   3.080  17.342 -0.0207 -0.8732  1.2351
  205MPD1     C 3113   0.315   1.417  16.360 -0.9749  0.4714  0.6058
  205MPD1    C1 3114   0.239   1.310  16.399 -0.1055  0.0164  0.0955
  205MPD1    C2 3115   0.137   1.331  16.493 -0.0058  1.1008 -0.0147
  205MPD1    C3 3116   0.108   1.451  16.556  0.2577 -0.6956  0.2233
  205MPD1    C4 3117   0.193   1.554  16.519 -0.3659  0.5381  0.2731
  205MPD1    C5 3118   0.296   1.535  16.428 -1.0915 -0.0683 -0.0284
  205MPD1     H 3119   0.093   1.239  16.530 -0.5154  1.2528 -0.2404
  205MPD1    H1 3120   0.166   1.653  16.553  1.8268  0.6056  1.7849
  205MPD1    H2 3121   0.398   1.409  16.291  0.7007  1.0717  2.5803
  205MPD1    H3 3122   0.370   1.611  16.404  0.5123 -1.8901 -0.9631
  205MPD1     N 3123   0.014   1.463  16.653  0.2086  0.1331 -0.0091
  205MPD1    H5 3124   4.724   1.553  16.698  0.2115  0.0017  0.2556
  205MPD1    N1 3125   0.278   1.186  16.355 -0.3759 -0.0439  0.4882
  205MPD1    H6 3126   0.312   1.191  16.259 -1.3271 -0.7345  0.1146
  205MPD1    H7 3127   0.206   1.115  16.368  0.2785 -0.5932  1.1594
  206MPD1     C 3128   4.487   3.699  16.528 -0.0750 -0.3604  0.7327
  206MPD1    C1 3129   4.362   3.720  16.477  0.0687 -0.4942  0.3163
  206MPD1    C2 3130   4.348   3.774  16.346 -0.2457  0.7052 -0.0674
  206MPD1    C3 3131   4.465   3.824  16.282  0.2319 -0.0516  0.0512
  206MPD1    C4 3132   4.585   3.810  16.340  0.2225 -0.1597  0.0106
  206MPD1    C5 3133   4.594   3.746  16.462  0.3950  0.4396  0.7762
  206MPD1     H 3134   4.252   3.776  16.297 -1.0216 -3.2755  1.3031
  206MPD1    H1 3135   4.675   3.845  16.291  0.1510 -0.9319 -0.6730
  206MPD1    H2 3136   4.488   3.676  16.634  0.7213 -0.2894  0.7359
  206MPD1    H3 3137   4.693   3.732  16.503  1.1871  0.3435 -1.1351
  206MPD1     N 3138   4.459   3.884  16.147 -0.6301  0.0974  0.0555
  206MPD1    H5 3139   4.550   3.909  16.109 -0.2026  0.7659  1.5285
  206MPD1    N1 3140   4.252   3.659  16.539  0.0466 -0.7001 -1.0198
  206MPD1    H6 3141   4.275   3.652  16.638 -1.6924 -1.6798 -0.6745
  206MPD1    H7 3142   4.161   3.703  16.528  0.5143  0.2138 -1.1830
  207MPD1     C 3143   2.314   2.675   9.430 -0.1689  0.0026 -0.4893
  207MPD1    C1 3144   2.293   2.538   9.454  0.0228 -0.5301  0.8362
  207MPD1    C2 3145   2.331   2.486   9.577  0.1327  0.2962  0.3061
  207MPD1    C3 3146   2.403   2.561   9.671 -0.1713  0.1675 -0.7768
  207MPD1    C4 3147   2.411   2.701   9.647  1.0787 -0.0560  0.0520
  207MPD1    C5 3148   2.380   2.751   9.522  0.7487  0.3157 -0.2647
  207MPD1     H 3149   2.308   2.381   9.592 -0.1861  0.6675  2.3402
  207MPD1    H1 3150   2.449   2.773   9.718  1.7613 -0.2454 -0.1169
  207MPD1    H2 3151   2.293   2.722   9.335 -1.6639 -0.2032 -0.2621
  207MPD1    H3 3152   2.391   2.858   9.506  0.5147  0.4339  0.3470
  207MPD1     N 3153   2.458   2.506   9.790 -0.1702 -0.8184 -0.6068
  207MPD1    H5 3154   2.421   2.416   9.819  1.7439 -1.1095  0.9325
  207MPD1    N1 3155   2.203   2.470   9.365 -0.3785  0.0348  0.7431
  207MPD1    H6 3156   2.215   2.370   9.348 -0.1453  0.3752 -1.0503
  207MPD1    H7 3157   2.206   2.521   9.278 -0.5580 -1.3152 -0.0520
  208MPD1     C 3158   0.662   1.220  17.253 -0.1646  0.6458  0.4008
  208MPD1    C1 3159   0.528   1.243  17.232 -0.2432 -0.8391 -0.1830
  208MPD1    C2 3160   0.440   1.159  17.297  0.5180 -0.4211 -0.6921
  208MPD1    C3 3161   0.485   1.055  17.382  0.8964 -0.1049  0.1447
  208MPD1    C4 3162   0.624   1.034  17.387  0.5955  0.5513 -0.4845
  208MPD1    C5 3163   0.709   1.114  17.328 -0.6070 -0.2845  0.7054
  208MPD1     H 3164   0.335   1.175  17.275  0.1236 -2.2508 -0.1331
  208MPD1    H1 3165   0.665   0.942  17.426 -0.6284  0.1020 -0.2525
  208MPD1    H2 3166   0.730   1.292  17.210  1.9339 -1.7294 -0.2944
  208MPD1    H3 3167   0.817   1.099  17.329 -0.5572 -0.0563 -2.1170
  208MPD1     N 3168   0.392   0.976  17.439 -0.2136 -0.0894 -0.1293
  208MPD1    H5 3169   0.297   0.996  17.410 -1.3408 -1.1280  2.7749
  208MPD1    N1 3170   0.487   1.343  17.151  0.2628  0.4113  0.8471
  208MPD1    H6 3171   0.400   1.315  17.105  1.0634 -1.9530  0.7749
  208MPD1    H7 3172   0.549   1.397  17.092 -0.7723  2.8900  2.0576
  209MPD1     C 3173   3.040   1.490  11.089  0.5080  0.6564 -0.2841
  209MPD1    C1 3174   3.018   1.608  11.016  0.1260 -0.9372 -0.0695
  209MPD1    C2 3175   2.974   1.587  10.887 -0.0745  0.1647 -0.0092
  209MPD1    C3 3176   2.966   1.464  10.823 -0.6821  0.1105  0.5210
  209MPD1    C4 3177   3.024   1.358  10.889  0.2204  0.4203 -0.2316
  209MPD1    C5 3178   3.054   1.372  11.021 -0.6529 -0.1533  0.4654
  209MPD1     H 3179   2.945   1.683  10.844  1.3642  1.7292  2.5247
  209MPD1    H1 3180   3.034   1.263  10.838 -1.6500 -0.7428  1.5521
  209MPD1    H2 3181   3.057   1.495  11.196 -2.2303 -0.4660  0.1899
  209MPD1    H3 3182   3.085   1.283  11.075  0.4230  0.9171  1.6485
  209MPD1     N 3183   2.916   1.465  10.692  0.1851  0.8977 -0.3534
  209MPD1    H5 3184   2.891   1.553  10.649  2.4420  1.7880  0.2075
  209MPD1    N1 3185   2.999   1.727  11.078  0.6509  0.1607 -0.6773
  209MPD1    H6 3186   3.052   1.736  11.164 -0.7871 -1.0922  0.3327
  209MPD1    H7 3187   3.030   1.806  11.022  2.0589 -0.3003 -0.5388
  210MPD1     C 3188   2.893   0.709  10.011  0.4196  0.8249 -0.4530
  210MPD1    C1 3189   2.814   0.807   9.958 -0.3278 -0.5133 -0.5811
  210MPD1    C2 3190   2.773   0.907  10.041 -0.2775  0.2054 -0.3720
  210MPD1    C3 3191   2.828   0.918  10.174  0.3170  0.8606 -0.7032
  210MPD1    C4 3192   2.906   0.817  10.223  0.0492  0.6348 -0.1324
  210MPD1    C5 3193   2.937   0.719  10.137  0.5242  0.1576  0.0722
  210MPD1     H 3194   2.701   0.982  10.011  2.3248  2.3548 -1.2652
  210MPD1    H1 3195   2.938   0.820  10.327  0.5311 -1.5734 -0.2006
  210MPD1    H2 3196   2.932   0.624   9.955  1.4608  0.4179  0.8927
  210MPD1    H3 3197   3.010   0.643  10.163  1.4937  1.2505  0.5469
  210MPD1     N 3198   2.801   1.022  10.264 -0.0051 -0.1679 -0.1780
  210MPD1    H5 3199   2.830   1.018  10.361 -0.3409 -1.3266 -0.1300
  210MPD1    N1 3200   2.774   0.801   9.825 -0.2711 -0.1508  0.5511
  210MPD1    H6 3201   2.782   0.708   9.783  0.9946  0.2772 -0.1379
  210MPD1    H7 3202   2.679   0.837   9.813  0.5280  1.3197 -1.3165
  211MPD1     C 3203   0.233   0.533  16.044  0.0888 -0.4488 -0.3625
  211MPD1    C1 3204   0.096   0.505  16.037  0.5282  0.8038 -0.8153
  211MPD1    C2 3205   0.012   0.597  16.105  0.3163 -0.5774 -0.2215
  211MPD1    C3 3206   0.062   0.711  16.165 -0.1737  0.2984  0.1233
  211MPD1    C4 3207   0.199   0.734  16.167  0.3309 -0.0884  0.1904
  211MPD1    C5 3208   0.286   0.641  16.113 -0.0970 -0.1261  0.2008
  211MPD1     H 3209   4.631   0.574  16.104 -0.0928  1.2319  0.8997
  211MPD1    H1 3210   0.246   0.816  16.220  0.7499  0.6538 -1.3241
  211MPD1    H2 3211   0.304   0.487  15.976  0.4215 -1.8308  0.9206
  211MPD1    H3 3212   0.393   0.658  16.114 -0.1570  0.2854 -0.1391
  211MPD1     N 3213   4.685   0.804  16.216  0.8672  0.3420 -0.5226
  211MPD1    H5 3214   4.589   0.773  16.207  1.1435 -0.6185 -0.2665
  211MPD1    N1 3215   0.043   0.395  15.964 -1.0147  0.0546 -0.0709
  211MPD1    H6 3216   4.679   0.360  15.999  0.0658 -1.4763  1.1477
  211MPD1    H7 3217   0.106   0.328  15.920 -1.3314 -1.1941  1.4025
  212MPD1     C 3218   4.128   4.670  16.097 -0.4368  0.2166  0.8577
  212MPD1    C1 3219   4.122   4.667  16.236  0.7278  0.2514  0.4213
  212MPD1    C2 3220   4.091   4.556  16.306 -0.9388 -0.1640 -0.3176
  212MPD1    C3 3221   4.050   4.437  16.238 -0.3335  0.1857  0.0954
  212MPD1    C4 3222   4.074   4.434  16.098 -0.6867  0.0859 -0.2747
  212MPD1    C5 3223   4.113   4.546  16.027  0.0960 -0.5054 -0.4801
  212MPD1     H 3224   4.102   4.557  16.414  1.2192 -0.5294 -0.5372
  212MPD1    H1 3225   4.057   4.347  16.036  0.4877 -1.0081  0.9285
  212MPD1    H2 3226   4.160   0.035  16.045 -0.0207 -1.9660 -2.6518
  212MPD1    H3 3227   4.117   4.536  15.920  0.2275 -0.8705 -0.4391
  212MPD1     N 3228   3.999   4.321  16.292 -0.0063  0.0214 -0.9511
  212MPD1    H5 3229   3.998   4.237  16.235  0.9881 -1.7348  1.5984
  212MPD1    N1 3230   4.166   0.055  16.303  0.0230 -0.1678  0.2127
  212MPD1    H6 3231   4.134   0.138  16.253 -0.1162 -0.2728  0.1265
  212MPD1    H7 3232   4.140   0.054  16.401  0.3002 -2.3388  0.2479
  213MPD1     C 3233   2.775   0.651  15.494 -0.5273 -0.7775 -0.0616
  213MPD1    C1 3234   2.710   0.708  15.389 -0.3832  0.0983  1.4040
  213MPD1    C2 3235   2.672   0.618  15.295 -0.2526 -0.3118 -0.0267
  213MPD1    C3 3236   2.670   0.484  15.312 -0.1618  0.3705 -0.1501
  213MPD1    C4 3237   2.739   0.432  15.417 -0.0565  0.4545 -0.4087
  213MPD1    C5 3238   2.800   0.514  15.508  0.1350  0.4582 -0.2438
  213MPD1     H 3239   2.620   0.671  15.216 -0.9712 -2.8858 -1.2676
  213MPD1    H1 3240   2.733   0.327  15.442  1.3876  0.3574 -0.4968
  213MPD1    H2 3241   2.837   0.716  15.555  1.5123 -0.2952 -2.6859
  213MPD1    H3 3242   2.863   0.467  15.582 -1.9414 -1.8418  0.0443
  213MPD1     N 3243   2.608   0.407  15.209 -0.0642  0.3599 -0.0516
  213MPD1    H5 3244   2.556   0.458  15.138 -0.5872 -0.2031 -0.0757
  213MPD1    N1 3245   2.737   0.836  15.339  0.2648 -0.0771  0.2811
  213MPD1    H6 3246   2.737   0.895  15.422 -1.4928 -2.2198  1.8030
  213MPD1    H7 3247   2.667   0.875  15.276  1.1485  1.6720  0.3614
  214MPD1     C 3248   1.982   4.391  15.285  0.4146 -0.2801  0.0864
  214MPD1    C1 3249   1.946   4.450  15.164  1.1451 -0.4699 -0.2438
  214MPD1    C2 3250   2.035   4.540  15.110 -0.7014  0.4095 -0.5890
  214MPD1    C3 3251   2.150   4.583  15.180 -0.8347  0.2371 -0.3470
  214MPD1    C4 3252   2.180   4.529  15.301  0.2936 -0.5338 -0.4459
  214MPD1    C5 3253   2.100   4.430  15.344 -0.4189  0.4371  0.8863
  214MPD1     H 3254   2.012   4.602  15.024 -0.6435  1.2953  0.0383
  214MPD1    H1 3255   2.256   4.555  15.374 -0.4922 -0.1706  0.2377
  214MPD1    H2 3256   1.913   4.325  15.337 -1.6940  0.5523 -1.6636
  214MPD1    H3 3257   2.127   4.401  15.445  0.5223 -2.8849 -0.3086
  214MPD1     N 3258   2.243   4.678  15.128 -0.6492 -0.4343 -0.1844
  214MPD1    H5 3259   2.319   4.698  15.192 -1.9981 -0.4440  1.4256
  214MPD1    N1 3260   1.830   4.415  15.097 -0.3601  0.0758 -0.0087
  214MPD1    H6 3261   1.762   4.369  15.157  0.7428  0.4283  1.5122
  214MPD1    H7 3262   1.796   4.498  15.048  1.5598  0.0182 -1.4433
  215MPD1     C 3263   2.668   0.563  10.374  0.3593  0.1135 -1.1122
  215MPD1    C1 3264   2.720   0.582  10.501  0.0149  0.1332 -0.1782
  215MPD1    C2 3265   2.708   0.708  10.560 -0.3432  0.7016 -0.4893
  215MPD1    C3 3266   2.632   0.809  10.506 -0.0530  0.0814 -0.0951
  215MPD1    C4 3267   2.577   0.792  10.380 -0.0893  0.0840  0.1339
  215MPD1    C5 3268   2.605   0.671  10.313 -0.5096 -0.1565 -0.3170
  215MPD1     H 3269   2.734   0.710  10.665 -0.6178  0.6323 -0.4191
  215MPD1    H1 3270   2.514   0.865  10.331 -1.4915 -1.1384  0.1053
  215MPD1    H2 3271   2.680   0.473  10.315  2.5515 -0.0390 -0.4280
  215MPD1    H3 3272   2.556   0.647  10.219  1.2802 -1.2755 -0.9565
  215MPD1     N 3273   2.615   0.924  10.584 -0.1207 -0.3399  0.4129
  215MPD1    H5 3274   2.646   0.915  10.680  5.3519  0.2493 -1.3062
  215MPD1    N1 3275   2.791   0.477  10.559  0.0243 -0.4630  0.1989
  215MPD1    H6 3276   2.786   0.482  10.661  1.4013  0.6285  0.2006
  215MPD1    H7 3277   2.763   0.384  10.526  0.4025  0.0951 -1.6448
  216MPD1     C 3278   4.128   3.033  16.484 -0.7547 -0.5509 -0.0026
  216MPD1    C1 3279   4.003   3.066  16.533  0.6540 -0.2698  1.0314
  216MPD1    C2 3280   3.986   3.042  16.667 -0.3985 -0.0005  0.4399
  216MPD1    C3 3281   4.090   3.018  16.757 -0.6991 -0.3156  0.0446
  216MPD1    C4 3282   4.221   3.008  16.700 -0.3919  0.9302 -0.3670
  216MPD1    C5 3283   4.231   3.004  16.565 -0.2977 -0.2095  0.1180
  216MPD1     H 3284   3.884   3.044  16.704 -1.4035  2.4476 -2.4766
  216MPD1    H1 3285   4.305   2.985  16.764 -0.4447  2.7305  0.3523
  216MPD1    H2 3286   4.147   3.046  16.378 -1.4549 -1.8729 -0.2964
  216MPD1    H3 3287   4.321   2.974  16.512  0.3524 -0.2481  1.2440
  216MPD1     N 3288   4.059   3.000  16.892  0.2672  0.3547  0.5081
  216MPD1    H5 3289   3.963   2.975  16.914  0.3540 -1.4423 -1.1673
  216MPD1    N1 3290   3.889   3.079  16.448  0.9625  0.0272 -0.3313
  216MPD1    H6 3291   3.911   3.108  16.353 -0.5725  3.6217  0.4045
  216MPD1    H7 3292   3.822   3.141  16.492 -2.2723 -1.1924 -3.5383
  217MPD1     C 3293   4.357   4.172   9.752 -0.5480  0.6142 -0.0866
  217MPD1    C1 3294   4.395   4.153   9.625  0.1766  0.5746  0.3251
  217MPD1    C2 3295   4.509   4.234   9.585 -0.5974 -0.1375 -0.6370
  217MPD1    C3 3296   4.570   4.333   9.663  0.1997 -0.2814 -0.1521
  217MPD1    C4 3297   4.513   4.359   9.784  0.7013  1.1620 -0.1178
  217MPD1    C5 3298   4.404   4.278   9.828 -0.2790  0.2206  0.0478
  217MPD1     H 3299   4.553   4.215   9.488 -0.4778 -2.7891 -0.0578
  217MPD1    H1 3300   4.554   4.439   9.844  3.6229  2.2020 -3.5362
  217MPD1    H2 3301   4.307   4.093   9.807  0.3461 -0.4464 -0.7837
  217MPD1    H3 3302   4.372   4.270   9.932 -1.4581 -0.6533 -0.3902
  217MPD1     N 3303   4.681   4.416   9.631  0.2605 -0.5826 -0.2573
  217MPD1    H5 3304   4.698   4.505   9.676  0.5793  0.6686 -2.8336
  217MPD1    N1 3305   4.357   4.032   9.562  0.0312 -0.2837  0.0757
  217MPD1    H6 3306   4.267   3.995   9.591 -0.6114 -0.9086 -2.7517
  217MPD1    H7 3307   4.360   4.038   9.461 -0.2097 -2.0970 -0.0407
  218MPD1     C 3308   1.645   0.917  12.668  0.3015 -0.6014  0.4997
  218MPD1    C1 3309   1.761   0.845  12.687 -0.4659  0.9379  0.2421
  218MPD1    C2 3310   1.882   0.908  12.700 -0.3715 -0.2337 -0.6428
  218MPD1    C3 3311   1.893   1.046  12.692  0.3789 -0.5651  0.0561
  218MPD1    C4 3312   1.771   1.115  12.680 -0.0897 -0.2378  0.6807
  218MPD1    C5 3313   1.655   1.057  12.663  0.8396  0.1871 -0.1070
  218MPD1     H 3314   1.966   0.844  12.724 -1.6890 -1.3096  1.1296
  218MPD1    H1 3315   1.767   1.223  12.671 -1.1630 -0.1031  2.7032
  218MPD1    H2 3316   1.546   0.875  12.658  0.1157  0.6990 -2.9155
  218MPD1    H3 3317   1.570   1.120  12.641 -0.7615 -1.5873  0.9819
  218MPD1     N 3318   2.014   1.114  12.698  0.3589  0.4581 -0.5807
  218MPD1    H5 3319   2.100   1.065  12.724 -0.1960 -0.1426  0.1334
  218MPD1    N1 3320   1.750   0.708  12.718 -0.0532  0.1161 -0.5077
  218MPD1    H6 3321   1.838   0.659  12.702 -1.3687 -2.3712  0.0530
  218MPD1    H7 3322   1.673   0.660  12.672 -1.3442  1.3830  0.3205
  219MPD1     C 3323   2.581   1.592  11.987  0.2208  0.0730  0.2066
  219MPD1    C1 3324   2.581   1.668  12.102  0.2026  0.1145 -0.0470
  219MPD1    C2 3325   2.509   1.620  12.210  0.3427  0.6290 -0.0111
  219MPD1    C3 3326   2.451   1.491  12.203  0.0630 -0.0645 -0.2013
  219MPD1    C4 3327   2.463   1.416  12.082 -0.1878 -0.1493 -0.3230
  219MPD1    C5 3328   2.527   1.470  11.973 -0.6051  0.4763 -0.4919
  219MPD1     H 3329   2.501   1.680  12.300  3.9111  0.2642  0.5274
  219MPD1    H1 3330   2.433   1.312  12.083 -0.6999  0.0017 -0.0476
  219MPD1    H2 3331   2.633   1.623  11.897 -2.5183  0.6137 -1.2007
  219MPD1    H3 3332   2.549   1.403  11.891  2.5745 -1.4862  1.9637
  219MPD1     N 3333   2.409   1.433  12.323 -0.3207 -1.0031 -0.8168
  219MPD1    H5 3334   2.385   1.335  12.319 -1.4565 -0.7493 -0.3080
  219MPD1    N1 3335   2.629   1.803  12.109 -0.3963  0.6911  0.2700
  219MPD1    H6 3336   2.725   1.804  12.076  0.1796  1.0381  1.9680
  219MPD1    H7 3337   2.636   1.826  12.208 -2.5629  1.2132  0.3041
  220MPD1     C 3338   1.690   2.493   9.850 -0.3490 -0.2128 -0.5661
  220MPD1    C1 3339   1.807   2.458   9.909  0.0229 -0.0942  0.1251
  220MPD1    C2 3340   1.820   2.336   9.974 -0.3805 -0.3733 -0.2165
  220MPD1    C3 3341   1.713   2.251   9.987  0.5808  0.5004 -0.3956
  220MPD1    C4 3342   1.593   2.291   9.936 -0.5253  0.0903  0.4817
  220MPD1    C5 3343   1.584   2.411   9.868 -0.2553 -0.5288 -0.0121
  220MPD1     H 3344   1.919   2.312  10.011  1.4465  0.2479 -4.7668
  220MPD1    H1 3345   1.505   2.229   9.947 -1.5133  1.0937 -1.5617
  220MPD1    H2 3346   1.668   2.591   9.810  0.8194  0.4685  0.4530
  220MPD1    H3 3347   1.486   2.441   9.832  0.3802 -0.3016 -1.5419
  220MPD1     N 3348   1.737   2.131  10.053 -0.1325 -0.2517  0.0102
  220MPD1    H5 3349   1.832   2.111  10.082 -0.0089 -0.3149 -0.4403
  220MPD1    N1 3350   1.905   2.549   9.940  0.3340  0.4354  0.5451
  220MPD1    H6 3351   1.996   2.514   9.968  0.9837  1.1164 -0.7224
  220MPD1    H7 3352   1.911   2.613   9.861  0.2139 -0.0876  0.1127
  221MPD1     C 3353   3.639   0.560  16.535 -0.4044  0.3025 -0.4943
  221MPD1    C1 3354   3.721   0.569  16.648 -0.9808 -0.0701 -0.1140
  221MPD1    C2 3355   3.859   0.582  16.626  0.3575 -0.4889 -0.1445
  221MPD1    C3 3356   3.917   0.570  16.498 -0.4777  1.0955  0.3106
  221MPD1    C4 3357   3.833   0.561  16.388 -0.5248 -0.5583  0.4734
  221MPD1    C5 3358   3.700   0.549  16.406 -0.3883  0.1710  0.3730
  221MPD1     H 3359   3.924   0.598  16.711  0.8320 -0.3964 -0.5198
  221MPD1    H1 3360   3.870   0.577  16.287 -0.4361  1.8305  0.8688
  221MPD1    H2 3361   3.531   0.549  16.545  0.0234 -3.4153 -0.0405
  221MPD1    H3 3362   3.630   0.556  16.323 -0.7880  0.7579  0.7591
  221MPD1     N 3363   4.058   0.582  16.469 -0.3824 -0.7279 -0.6461
  221MPD1    H5 3364   4.096   0.582  16.375 -0.2861 -1.2003 -0.6080
  221MPD1    N1 3365   3.665   0.596  16.774 -0.1222 -0.1699 -0.0087
  221MPD1    H6 3366   3.713   0.572  16.861  1.1488 -1.3797 -1.0502
  221MPD1    H7 3367   3.570   0.559  16.785 -1.2581  2.4993 -0.7341
  222MPD1     C 3368   4.173   4.001  16.663 -0.2902  0.2101  0.3350
  222MPD1    C1 3369   4.168   4.139  16.673 -1.1372 -0.0724  0.7262
  222MPD1    C2 3370   4.068   4.195  16.757  0.4243  1.1089 -0.3223
  222MPD1    C3 3371   3.979   4.114  16.824 -0.6693 -1.5162  0.4118
  222MPD1    C4 3372   3.984   3.980  16.812 -0.2246 -0.5268 -0.8719
  222MPD1    C5 3373   4.085   3.921  16.742  0.1764 -0.0648  0.2257
  222MPD1     H 3374   4.072   4.303  16.769  1.0030  1.1961 -1.3113
  222MPD1    H1 3375   3.916   3.916  16.867 -0.5096  0.9914  0.5269
  222MPD1    H2 3376   4.255   3.955  16.610 -2.3189 -0.9398 -1.8023
  222MPD1    H3 3377   4.103   3.815  16.732  0.7118  0.0548 -0.0935
  222MPD1     N 3378   3.870   4.163  16.907  0.1151  0.6594 -0.3032
  222MPD1    H5 3379   3.799   4.093  16.929  2.4262 -1.7326 -0.5498
  222MPD1    N1 3380   4.279   4.206  16.618  0.4388 -0.6303 -0.2417
  222MPD1    H6 3381   4.302   4.177  16.523  0.2940 -1.5431  0.0027
  222MPD1    H7 3382   4.273   4.307  16.615 -0.8415 -0.7762 -2.5462
  223MPD1     C 3383   3.448   3.694  17.443  0.7357  0.0011  0.2070
  223MPD1    C1 3384   3.523   3.681  17.322 -0.7544 -0.7640 -0.0656
  223MPD1    C2 3385   3.554   3.792  17.250 -0.2723  0.7135 -1.0115
  223MPD1    C3 3386   3.514   3.915  17.303  0.3203  0.8448 -0.6186
  223MPD1    C4 3387   3.438   3.923  17.420  0.5825 -0.2585  0.9283
  223MPD1    C5 3388   3.394   3.814  17.480  0.1544 -0.4849  0.2940
  223MPD1     H 3389   3.605   3.792  17.154  1.9249  1.6427  0.1404
  223MPD1    H1 3390   3.399   4.018  17.455 -0.6018 -0.3607 -0.0897
  223MPD1    H2 3391   3.423   3.608  17.505  1.7021  0.0731  0.6933
  223MPD1    H3 3392   3.321   3.834  17.558 -0.0979 -1.9209  0.4118
  223MPD1     N 3393   3.553   4.029  17.227  0.5692  0.5470 -0.1339
  223MPD1    H5 3394   3.610   4.013  17.145 -1.8508 -0.1087 -1.6815
  223MPD1    N1 3395   3.582   3.557  17.308 -0.5116  0.5938 -0.2153
  223MPD1    H6 3396   3.597   3.536  17.210  1.9043  1.1656  0.0227
  223MPD1    H7 3397   3.535   3.481  17.357 -0.5996  0.4491 -0.5256
  224MPD1     C 3398   1.905   1.337   9.884  0.3183 -0.2926  0.5863
  224MPD1    C1 3399   1.922   1.204   9.895 -0.0010 -0.4137 -0.3272
  224MPD1    C2 3400   1.815   1.120   9.893  0.1736 -0.4676 -0.1685
  224MPD1    C3 3401   1.685   1.168   9.866 -0.2521 -0.3380  0.3623
  224MPD1    C4 3402   1.675   1.305   9.848 -0.4848  0.5266  0.0780
  224MPD1    C5 3403   1.781   1.388   9.859 -0.5921  0.1957  0.0582
  224MPD1     H 3404   1.830   1.016   9.922 -0.5970 -0.5879 -0.2069
  224MPD1    H1 3405   1.579   1.347   9.819 -1.5641 -0.9506  1.5228
  224MPD1    H2 3406   1.994   1.397   9.896  0.7744 -1.1931  1.6639
  224MPD1    H3 3407   1.772   1.495   9.844  1.1683  0.1592 -1.3103
  224MPD1     N 3408   1.570   1.088   9.862 -0.3682  0.3393  0.5925
  224MPD1    H5 3409   1.476   1.124   9.852 -1.6201 -3.2975 -0.9285
  224MPD1    N1 3410   2.040   1.148   9.942  0.1151  0.2004  0.3724
  224MPD1    H6 3411   2.125   1.192   9.907  1.4071 -0.3555  2.8041
  224MPD1    H7 3412   2.045   1.054   9.903 -1.9831 -0.4691  1.6839
  225MPD1     C 3413   1.917   1.981  12.766  0.7599  0.4790  0.7065
  225MPD1    C1 3414   1.817   1.907  12.829 -0.2070  1.1487  0.2649
  225MPD1    C2 3415   1.681   1.917  12.806 -0.0335 -0.0852 -0.2553
  225MPD1    C3 3416   1.635   2.014  12.716  0.4060 -0.6175 -0.2278
  225MPD1    C4 3417   1.736   2.089  12.661 -0.1808 -0.2550  0.8805
  225MPD1    C5 3418   1.873   2.077  12.684  0.1218 -0.0112  0.0697
  225MPD1     H 3419   1.612   1.855  12.863  0.2478  1.0460  1.3008
  225MPD1    H1 3420   1.711   2.165  12.588 -1.2199 -1.4483 -0.0052
  225MPD1    H2 3421   2.024   1.985  12.783  0.4785 -1.5592  2.9941
  225MPD1    H3 3422   1.949   2.146  12.652 -0.4501  0.6069  0.0531
  225MPD1     N 3423   1.507   2.027  12.662  0.4333 -0.3511  0.2281
  225MPD1    H5 3424   1.493   2.099  12.593  0.9915  0.7863  1.3076
  225MPD1    N1 3425   1.863   1.814  12.914  0.0127  0.0814  0.5509
  225MPD1    H6 3426   1.949   1.849  12.955  0.4915 -0.9496  0.4240
  225MPD1    H7 3427   1.794   1.810  12.989  0.0962 -3.2803  0.4342
  226MPD1     C 3428   0.617   2.213  10.189  0.3005 -0.3160 -0.2962
  226MPD1    C1 3429   0.678   2.128  10.098 -0.3621 -0.1623 -0.5618
  226MPD1    C2 3430   0.691   2.179   9.971  0.0537 -0.0639  0.1247
  226MPD1    C3 3431   0.618   2.284   9.924  0.0705  0.1880  0.1359
  226MPD1    C4 3432   0.548   2.357  10.012 -0.1840  0.2071  0.7898
  226MPD1    C5 3433   0.549   2.325  10.143 -0.1564  0.3551 -0.0396
  226MPD1     H 3434   0.754   2.118   9.907 -1.3180 -0.0299 -1.2515
  226MPD1    H1 3435   0.489   2.447   9.997 -2.3503 -0.7904  3.3341
  226MPD1    H2 3436   0.623   2.195  10.296  1.9739 -2.0228 -0.6771
  226MPD1    H3 3437   0.497   2.398  10.204  0.2259 -0.7151  1.5700
  226MPD1     N 3438   0.636   2.337   9.794  0.0456 -0.1201 -0.3500
  226MPD1    H5 3439   0.685   2.275   9.731 -1.0391 -0.9219 -0.4094
  226MPD1    N1 3440   0.747   2.014  10.143 -0.2876 -0.1795  0.4969
  226MPD1    H6 3441   0.716   1.979  10.234  1.9033  2.1206  2.1416
  226MPD1    H7 3442   0.753   1.934  10.080 -0.7548 -0.4586  0.8038
  227MPD1     C 3443   0.485   2.887   8.853  0.1233 -0.4225  0.2284
  227MPD1    C1 3444   0.611   2.905   8.905  0.3176  0.0166 -0.1989
  227MPD1    C2 3445   0.639   2.865   9.032 -0.8484  0.4282 -0.3377
  227MPD1    C3 3446   0.558   2.777   9.095 -0.5153 -0.0970  0.1497
  227MPD1    C4 3447   0.431   2.750   9.041 -0.0891  0.1500 -0.3515
  227MPD1    C5 3448   0.397   2.808   8.928 -0.2048 -0.1986  0.1805
  227MPD1     H 3449   0.735   2.886   9.078 -0.4425 -0.8546 -0.5809
  227MPD1    H1 3450   0.371   2.669   9.082 -1.8480  0.7233 -1.7699
  227MPD1    H2 3451   0.464   2.937   8.759  1.3921  1.8071  1.1318
  227MPD1    H3 3452   0.301   2.770   8.895  1.1284 -2.0683 -1.6032
  227MPD1     N 3453   0.610   2.734   9.220 -0.4582  0.4448  0.4810
  227MPD1    H5 3454   0.706   2.760   9.241 -0.1176  0.0994 -0.6517
  227MPD1    N1 3455   0.698   2.995   8.844  0.0545 -0.3691  0.7111
  227MPD1    H6 3456   0.683   3.002   8.743  0.3506 -0.2396  0.6771
  227MPD1    H7 3457   0.795   2.976   8.866  0.1017 -1.7867 -0.6405
  228MPD1     C 3458   3.222   0.519  12.531  1.5034 -0.4966  0.1957
  228MPD1    C1 3459   3.232   0.423  12.432 -0.0824 -0.0188  0.7843
  228MPD1    C2 3460   3.197   0.295  12.465 -0.2630 -0.5659 -0.1302
  228MPD1    C3 3461   3.159   0.255  12.592  0.0260 -0.1291  0.7179
  228MPD1    C4 3462   3.157   0.349  12.687  0.3997  0.6179 -0.5670
  228MPD1    C5 3463   3.194   0.481  12.660 -0.2395 -0.1645  0.6980
  228MPD1     H 3464   3.194   0.224  12.383 -0.4479 -0.7048 -0.0029
  228MPD1    H1 3465   3.124   0.326  12.787  0.0573 -0.4999 -0.9390
  228MPD1    H2 3466   3.249   0.622  12.511 -2.3606  0.7529  1.4233
  228MPD1    H3 3467   3.185   0.550  12.743 -1.0593  0.1053  0.3835
  228MPD1     N 3468   3.128   0.115  12.603  0.3820  0.4586  0.1216
  228MPD1    H5 3469   3.118   0.058  12.520  0.1871 -1.0042  1.1646
  228MPD1    N1 3470   3.243   0.460  12.298 -0.0711  0.3371 -0.3951
  228MPD1    H6 3471   3.288   0.397  12.232 -0.1873 -1.3212  1.0821
  228MPD1    H7 3472   3.301   0.542  12.286  0.7315 -0.1311  0.2897
  229MPD1     C 3473   2.502   3.469  14.332  0.1673  0.3134  0.7617
  229MPD1    C1 3474   2.560   3.362  14.258 -0.9133  0.0758 -0.1613
  229MPD1    C2 3475   2.668   3.300  14.307  0.1682 -0.3112  0.1920
  229MPD1    C3 3476   2.718   3.330  14.429 -0.0788  0.1916 -0.3891
  229MPD1    C4 3477   2.653   3.417  14.506  0.1599  0.5630 -0.0995
  229MPD1    C5 3478   2.552   3.495  14.457 -0.8983  0.1191  0.2224
  229MPD1     H 3479   2.717   3.228  14.242 -0.4576  0.2841 -0.9300
  229MPD1    H1 3480   2.695   3.433  14.605  0.2460 -1.1060  0.1280
  229MPD1    H2 3481   2.419   3.529  14.299 -0.6702  0.3313  2.9046
  229MPD1    H3 3482   2.507   3.570  14.520  0.7922 -1.5781  3.4271
  229MPD1     N 3483   2.838   3.269  14.484  0.3511  0.0916  0.0609
  229MPD1    H5 3484   2.869   3.305  14.573  3.1889 -0.9653 -0.4985
  229MPD1    N1 3485   2.518   3.335  14.131  0.0723  0.1855 -0.2958
  229MPD1    H6 3486   2.544   3.244  14.094  1.2274  0.3860  0.0177
  229MPD1    H7 3487   2.423   3.361  14.106  0.2025  0.6940 -0.2635
  230MPD1     C 3488   3.279   3.199  15.333  0.0659 -0.1371  1.0833
  230MPD1    C1 3489   3.299   3.080  15.280  0.0078 -0.1653  0.3890
  230MPD1    C2 3490   3.271   3.066  15.143 -0.2999 -0.6684 -0.5458
  230MPD1    C3 3491   3.229   3.170  15.067 -0.1426 -0.0054 -0.1668
  230MPD1    C4 3492   3.208   3.293  15.127 -0.0395  0.2309 -0.4778
  230MPD1    C5 3493   3.245   3.307  15.258 -0.7886  0.0178  0.1505
  230MPD1     H 3494   3.286   2.967  15.102  0.3460 -0.9429  0.3478
  230MPD1    H1 3495   3.179   3.384  15.076 -0.7494 -0.5503 -1.4609
  230MPD1    H2 3496   3.288   3.210  15.440 -1.4078  0.4722  1.1537
  230MPD1    H3 3497   3.241   3.405  15.305  1.5013 -0.0694  0.5195
  230MPD1     N 3498   3.208   3.139  14.934  0.5784  0.3405 -0.2416
  230MPD1    H5 3499   3.232   3.044  14.909 -2.9645 -0.8401  0.8978
  230MPD1    N1 3500   3.322   2.971  15.372 -0.2809 -0.0835  0.4204
  230MPD1    H6 3501   3.367   2.889  15.332  0.4438  0.2524  0.5587
  230MPD1    H7 3502   3.364   3.005  15.458  1.2920  1.3868 -0.9482
  231MPD1     C 3503   1.000   0.661  14.228 -0.4414  0.2727 -0.2145
  231MPD1    C1 3504   0.981   0.536  14.182  0.1024  0.0049  0.5038
  231MPD1    C2 3505   1.049   0.440  14.252 -0.1975  0.1633  0.8864
  231MPD1    C3 3506   1.153   0.469  14.333 -0.6601 -0.6328  0.6134
  231MPD1    C4 3507   1.192   0.597  14.348 -0.5819 -0.1715 -0.4220
  231MPD1    C5 3508   1.103   0.693  14.305  0.0195 -0.5162 -1.0872
  231MPD1     H 3509   1.022   0.339  14.224  1.3791 -0.4285  1.4924
  231MPD1    H1 3510   1.273   0.632  14.411  2.0865 -2.3676 -2.6307
  231MPD1    H2 3511   0.923   0.730  14.195  1.1560  1.5380 -1.2686
  231MPD1    H3 3512   1.118   0.797  14.332  2.1680 -1.0426 -0.2188
  231MPD1     N 3513   1.212   0.359  14.395  0.2631  0.1429  0.2206
  231MPD1    H5 3514   1.186   0.267  14.362  1.4718  0.2712 -1.1250
  231MPD1    N1 3515   0.875   0.507  14.097  0.4582  0.1980  0.3873
  231MPD1    H6 3516   0.857   0.583  14.031  0.1920 -0.3052 -0.1226
  231MPD1    H7 3517   0.870   0.415  14.054  0.3434 -0.6404  2.1989
  232MPD1     C 3518   3.387   3.327  17.188 -0.2892  0.3724  0.1817
  232MPD1    C1 3519   3.395   3.265  17.303 -0.5037 -0.5361  0.5701
  232MPD1    C2 3520   3.426   3.132  17.316 -0.2206 -0.2651  0.7427
  232MPD1    C3 3521   3.434   3.057  17.197 -0.2927 -0.5988  0.4059
  232MPD1    C4 3522   3.422   3.118  17.078  0.2078  0.1188  0.2055
  232MPD1    C5 3523   3.396   3.250  17.073  0.3785 -0.5328  0.6472
  232MPD1     H 3524   3.429   3.084  17.413  2.5756  3.2745  2.4134
  232MPD1    H1 3525   3.434   3.060  16.988 -1.0481 -0.5607  0.4679
  232MPD1    H2 3526   3.364   3.433  17.183  3.5522  1.1539 -1.0262
  232MPD1    H3 3527   3.395   3.292  16.973  1.7881 -0.9010  0.4738
  232MPD1     N 3528   3.453   2.917  17.221 -0.0541  0.0644  0.6571
  232MPD1    H5 3529   3.446   2.883  17.316 -3.3430 -0.4854  0.2026
  232MPD1    N1 3530   3.392   3.342  17.428  0.6675 -0.0394  0.0175
  232MPD1    H6 3531   3.362   3.290  17.510 -0.9000 -0.3848 -0.7645
  232MPD1    H7 3532   3.332   3.424  17.421 -0.2495 -0.7509 -0.5035
  233MPD1     C 3533   4.013   1.866   0.620 -0.0747 -0.2331  0.1804
  233MPD1    C1 3534   3.897   1.790   0.650  0.3491  0.3077  0.5981
  233MPD1    C2 3535   3.904   1.683   0.736 -0.2287  0.3116 -0.5296
  233MPD1    C3 3536   4.030   1.646   0.788 -0.5495 -0.6476  0.3365
  233MPD1    C4 3537   4.139   1.734   0.774 -0.0699  0.3842  0.6402
  233MPD1    C5 3538   4.132   1.830   0.685 -0.1832 -0.2527  0.6798
  233MPD1     H 3539   3.815   1.622   0.747  2.0791 -2.6627  1.6370
  233MPD1    H1 3540   4.241   1.704   0.798 -0.2836 -1.0045 -0.2034
  233MPD1    H2 3541   4.018   1.938   0.540  2.0405 -0.7023 -0.1229
  233MPD1    H3 3542   4.221   1.892   0.680  0.8125 -1.6374  1.0525
  233MPD1     N 3543   4.048   1.525   0.859  0.0867 -0.1855  0.9402
  233MPD1    H5 3544   4.138   1.510   0.903  0.4774  1.1639  0.6025
  233MPD1    N1 3545   3.782   1.814   0.575  0.5296  0.4218 -0.7094
  233MPD1    H6 3546   3.699   1.805   0.633  1.9477  0.0091  1.2313
  233MPD1    H7 3547   3.783   1.907   0.533 -4.8574  0.7267 -0.1060
  234MPD1     C 3548   1.590   3.924   9.102 -0.3604 -0.9778  0.4303
  234MPD1    C1 3549   1.678   4.028   9.127  0.5572 -0.1591  0.0105
  234MPD1    C2 3550   1.631   4.156   9.154  0.2495 -0.7178  0.1215
  234MPD1    C3 3551   1.494   4.179   9.150 -0.3390 -0.5997 -0.3375
  234MPD1    C4 3552   1.410   4.072   9.136 -0.4942  0.4639  0.0710
  234MPD1    C5 3553   1.459   3.946   9.117 -0.7927 -0.4654 -0.4692
  234MPD1     H 3554   1.702   4.236   9.168  0.8256 -0.5268 -3.9751
  234MPD1    H1 3555   1.302   4.086   9.134 -0.7769 -1.6362  0.9029
  234MPD1    H2 3556   1.607   3.818   9.106  0.2129 -1.0218 -2.7339
  234MPD1    H3 3557   1.390   3.865   9.104 -1.6968  0.3488 -0.7094
  234MPD1     N 3558   1.446   4.309   9.185 -0.3485  0.5997  0.1309
  234MPD1    H5 3559   1.516   4.382   9.200 -0.1770  0.2258  1.1644
  234MPD1    N1 3560   1.810   3.990   9.153 -0.3853  0.3826 -0.1958
  234MPD1    H6 3561   1.836   3.907   9.100 -0.6447 -0.3950  0.8925
  234MPD1    H7 3562   1.877   4.066   9.144  0.4072 -0.2523  0.2553
  235MPD1     C 3563   1.660   2.766   9.267  0.2681  0.1304 -0.2904
  235MPD1    C1 3564   1.697   2.892   9.285 -0.9614  0.7591  0.2428
  235MPD1    C2 3565   1.793   2.925   9.380  0.3625  0.2938 -0.5609
  235MPD1    C3 3566   1.840   2.824   9.466  0.1992 -0.1285 -0.5433
  235MPD1    C4 3567   1.785   2.699   9.461  0.1325 -0.1914 -0.6672
  235MPD1    C5 3568   1.689   2.672   9.365  0.5426 -0.4490  0.5763
  235MPD1     H 3569   1.836   3.025   9.389  2.5406 -0.3638 -3.5884
  235MPD1    H1 3570   1.833   2.618   9.516 -1.0808 -0.3292  0.1902
  235MPD1    H2 3571   1.595   2.734   9.187  1.1428  1.3522 -1.4916
  235MPD1    H3 3572   1.665   2.567   9.357 -0.2845 -0.5308  4.0650
  235MPD1     N 3573   1.953   2.860   9.541 -0.2332 -0.2575  0.0693
  235MPD1    H5 3574   2.003   2.942   9.507 -2.6885  0.5891 -1.4538
  235MPD1    N1 3575   1.673   2.985   9.182 -0.8357  0.8175  0.2094
  235MPD1    H6 3576   1.655   3.077   9.222 -0.7346  1.9018 -2.2110
  235MPD1    H7 3577   1.593   2.968   9.122 -1.0770 -0.2071  0.8312
  236MPD1     C 3578   0.956   3.302   9.596 -0.0370 -0.4915  0.3367
  236MPD1    C1 3579   1.050   3.395   9.578 -0.2315 -0.3543 -0.3103
  236MPD1    C2 3580   1.167   3.389   9.654  0.0685  0.3538 -0.3488
  236MPD1    C3 3581   1.175   3.298   9.761 -0.6192  0.0053  0.6542
  236MPD1    C4 3582   1.079   3.207   9.781  0.2433 -0.3830 -0.1111
  236MPD1    C5 3583   0.966   3.213   9.701 -0.6715 -0.2788 -0.7828
  236MPD1     H 3584   1.252   3.453   9.632  0.2717  0.6516  1.3186
  236MPD1    H1 3585   1.080   3.141   9.866 -0.7884  1.1392  1.0850
  236MPD1    H2 3586   0.868   3.297   9.533 -0.9789 -1.1942  1.7252
  236MPD1    H3 3587   0.881   3.146   9.712 -0.9499 -0.1142 -1.8416
  236MPD1     N 3588   1.282   3.300   9.859  0.0769 -0.0759 -0.1268
  236MPD1    H5 3589   1.267   3.250   9.946  2.8454  0.5926  0.7459
  236MPD1    N1 3590   1.042   3.478   9.465 -0.4630 -0.3612  0.6223
  236MPD1    H6 3591   0.945   3.489   9.437 -0.5968  1.0532  1.6385
  236MPD1    H7 3592   1.086   3.569   9.478 -1.0255  0.0646 -0.3905
  237MPD1     C 3593   2.233   1.510  14.883 -0.0739  0.0009  0.3417
  237MPD1    C1 3594   2.200   1.648  14.893  0.2389 -0.3389  0.5250
  237MPD1    C2 3595   2.066   1.685  14.910  0.4292 -0.1713  0.3606
  237MPD1    C3 3596   1.969   1.583  14.925  1.1196  0.3853  0.3402
  237MPD1    C4 3597   2.002   1.451  14.928 -0.0466  0.1901 -0.0242
  237MPD1    C5 3598   2.136   1.416  14.907  0.0873  0.0038 -0.5717
  237MPD1     H 3599   2.036   1.789  14.918  0.2014 -0.1421 -0.7885
  237MPD1    H1 3600   1.922   1.378  14.920 -1.1652  1.4152 -0.0660
  237MPD1    H2 3601   2.337   1.485  14.866  0.3396 -1.1676  4.6698
  237MPD1    H3 3602   2.161   1.311  14.893 -0.6470 -0.4255  1.2432
  237MPD1     N 3603   1.830   1.609  14.932 -1.3451  0.2110 -0.3280
  237MPD1    H5 3604   1.779   1.524  14.956 -0.8028  0.0506  0.2644
  237MPD1    N1 3605   2.302   1.746  14.877  0.1545  0.6285 -0.4842
  237MPD1    H6 3606   2.277   1.831  14.927  0.6384  1.4371 -1.6201
  237MPD1    H7 3607   2.396   1.714  14.901  0.1416 -1.1113 -2.7646
  238MPD1     C 3608   3.880   4.707  15.274 -0.1318  0.0938 -0.5025
  238MPD1    C1 3609   3.776   4.694  15.358 -0.0074 -0.2637 -0.1870
  238MPD1    C2 3610   3.657   0.029  15.338  0.0094 -0.4547 -1.2184
  238MPD1    C3 3611   3.638   0.104  15.220 -0.4626 -0.4075 -0.7382
  238MPD1    C4 3612   3.748   0.129  15.136 -1.0013 -0.7249 -0.0927
  238MPD1    C5 3613   3.869   0.072  15.172 -0.2928 -0.1040 -0.5738
  238MPD1     H 3614   3.572   4.716  15.393 -1.1388  2.5291 -1.0100
  238MPD1    H1 3615   3.746   0.200  15.055 -1.3382 -0.8438 -0.1875
  238MPD1    H2 3616   3.975   4.666  15.305 -0.1584  0.3443 -0.0886
  238MPD1    H3 3617   3.954   0.107  15.115 -1.6750  1.6628 -1.5546
  238MPD1     N 3618   3.524   0.169  15.181  0.5759 -0.3779 -0.3492
  238MPD1    H5 3619   3.520   0.222  15.095 -2.2874 -0.2429 -0.1245
  238MPD1    N1 3620   3.800   4.624  15.476 -0.2605  0.2985  0.1650
  238MPD1    H6 3621   3.875   4.558  15.457  0.1440  0.5799  0.7923
  238MPD1    H7 3622   3.722   4.565  15.505  0.5441 -0.6235  0.4312
  239MPD1     C 3623   3.436   1.230  14.603 -0.7114  0.4532 -0.6034
  239MPD1    C1 3624   3.516   1.324  14.540  0.0251 -0.2448 -0.3320
  239MPD1    C2 3625   3.523   1.311  14.408  0.0533 -0.2493 -0.3508
  239MPD1    C3 3626   3.475   1.203  14.337 -0.4346  0.5135 -0.4827
  239MPD1    C4 3627   3.406   1.104  14.405 -0.3619  0.4935  0.6468
  239MPD1    C5 3628   3.384   1.122  14.536 -0.9174 -0.0895  0.0375
  239MPD1     H 3629   3.559   1.401  14.360  2.9010 -0.7525  0.8179
  239MPD1    H1 3630   3.374   1.009  14.363  0.7370  0.1184  0.6499
  239MPD1    H2 3631   3.418   1.236  14.710 -1.0111 -0.1907 -0.6212
  239MPD1    H3 3632   3.321   1.051  14.588  0.0387  0.6132  2.1369
  239MPD1     N 3633   3.467   1.215  14.193  0.5086  0.2497  0.4220
  239MPD1    H5 3634   3.399   1.154  14.149  1.1622 -0.7521  0.7742
  239MPD1    N1 3635   3.564   1.446  14.601  0.0640 -0.6504  0.3747
  239MPD1    H6 3636   3.640   1.487  14.547 -0.7113  0.3114  0.0258
  239MPD1    H7 3637   3.589   1.439  14.700  0.1369 -0.6264  0.3580
  240MPD1     C 3638   3.006   1.072  13.654  0.7232 -0.3818 -0.5157
  240MPD1    C1 3639   3.054   0.942  13.651  0.2428 -0.2175  0.4287
  240MPD1    C2 3640   3.094   0.871  13.767  0.4042 -0.0579  0.5132
  240MPD1    C3 3641   3.094   0.934  13.892 -0.2620  0.6720 -0.6838
  240MPD1    C4 3642   3.048   1.070  13.887 -0.3405  0.3553  0.1550
  240MPD1    C5 3643   3.011   1.138  13.771  1.2473 -0.2722  0.3521
  240MPD1     H 3644   3.142   0.774  13.760  1.0369  0.2272  0.9157
  240MPD1    H1 3645   3.046   1.129  13.978 -1.1249  0.7916 -0.1490
  240MPD1    H2 3646   2.975   1.123  13.564 -1.3446  0.1055  0.4748
  240MPD1    H3 3647   2.989   1.244  13.770  1.7425 -0.2042 -1.9894
  240MPD1     N 3648   3.130   0.862  14.009  0.0606  0.0897  0.2737
  240MPD1    H5 3649   3.147   0.762  14.009 -1.1078 -0.1077 -0.3611
  240MPD1    N1 3650   3.052   0.878  13.526 -0.4170 -0.0764 -0.0705
  240MPD1    H6 3651   3.067   0.941  13.448  2.6518  1.5125  1.7998
  240MPD1    H7 3652   3.125   0.809  13.517 -0.1715  0.1511  0.1806
  241MPD1     C 3653   2.959   1.139  14.970  0.0578 -1.0676  0.3225
  241MPD1    C1 3654   2.964   1.006  14.979  0.0263  0.1921 -0.1607
  241MPD1    C2 3655   3.005   0.931  14.869 -0.1887  0.2868 -0.8752
  241MPD1    C3 3656   3.030   0.997  14.753  0.2818  0.8158 -0.9471
  241MPD1    C4 3657   3.029   1.134  14.749 -0.4909 -0.1153  0.0162
  241MPD1    C5 3658   2.997   1.201  14.859 -0.2225 -0.7359 -0.0374
  241MPD1     H 3659   2.976   0.827  14.858  0.2163  0.3297 -2.3344
  241MPD1    H1 3660   3.036   1.187  14.655 -3.0973  0.2282  0.0105
  241MPD1    H2 3661   2.924   1.202  15.052 -0.2600  1.6331 -1.8820
  241MPD1    H3 3662   3.005   1.309  14.856 -0.4401 -0.7024  0.4944
  241MPD1     N 3663   3.052   0.931  14.624 -0.0178  0.1800  0.3845
  241MPD1    H5 3664   3.075   0.996  14.549  3.0484 -1.5690 -0.1717
  241MPD1    N1 3665   2.888   0.944  15.079 -0.1496 -0.3934 -0.3045
  241MPD1    H6 3666   2.895   0.986  15.172 -3.8656 -0.6547  0.0827
  241MPD1    H7 3667   2.919   0.850  15.102  0.0494 -0.6603 -1.6708
  242MPD1     C 3668   2.252   3.462  16.092  0.4304  0.3070  0.0985
  242MPD1    C1 3669   2.386   3.465  16.067 -0.1000  0.3000  0.1550
  242MPD1    C2 3670   2.437   3.523  15.949 -0.0571 -0.1763 -0.7480
  242MPD1    C3 3671   2.348   3.559  15.850  0.2703  0.7203 -0.5850
  242MPD1    C4 3672   2.216   3.544  15.868 -1.3705  0.2244 -0.1384
  242MPD1    C5 3673   2.171   3.508  15.988 -0.1710 -0.7442 -0.1207
  242MPD1     H 3674   2.543   3.518  15.928 -0.0008 -1.2078 -0.2294
  242MPD1    H1 3675   2.143   3.582  15.797 -2.0626 -0.9903 -0.0893
  242MPD1    H2 3676   2.210   3.424  16.185 -0.1685  0.3120 -0.1701
  242MPD1    H3 3677   2.065   3.510  16.011 -0.1225 -1.4978  0.1488
  242MPD1     N 3678   2.394   3.607  15.717  0.2002 -0.2771 -0.2398
  242MPD1    H5 3679   2.324   3.604  15.644  1.9540  2.6958 -2.0407
  242MPD1    N1 3680   2.478   3.427  16.165 -0.2022  0.4028 -0.0872
  242MPD1    H6 3681   2.570   3.412  16.124  0.3839  0.0666  1.3455
  242MPD1    H7 3682   2.447   3.340  16.208  0.9301  0.3735  0.6780
  243MPD1     C 3683   0.227   3.316   0.071  0.1166  0.1262 -0.4094
  243MPD1    C1 3684   0.182   3.363  17.652  0.8510  0.3952 -0.2566
  243MPD1    C2 3685   0.099   3.278  17.573 -0.2419 -0.0870 -0.6695
  243MPD1    C3 3686   0.032   3.166  17.625 -0.2850 -0.2832  0.2757
  243MPD1    C4 3687   0.067   3.125   0.056  0.2567  0.3111  0.0343
  243MPD1    C5 3688   0.169   3.201   0.121 -0.4521  0.1114  0.4158
  243MPD1     H 3689   0.083   3.301  17.468 -1.0252  0.0553 -0.5156
  243MPD1    H1 3690   0.035   3.036   0.108  3.2592 -0.7668  0.0132
  243MPD1    H2 3691   0.292   3.369   0.140  1.5991  0.0198 -1.7278
  243MPD1    H3 3692   0.193   3.171   0.223  0.0433  1.0306  0.5722
  243MPD1     N 3693   4.657   3.099  17.549 -1.2876 -0.3411 -0.1257
  243MPD1    H5 3694   4.641   3.133  17.455 -1.2229 -0.7154 -0.2716
  243MPD1    N1 3695   0.251   3.472  17.589 -0.5797 -0.1163  0.0082
  243MPD1    H6 3696   0.205   3.516  17.509  0.2949 -1.6846 -1.3643
  243MPD1    H7 3697   0.274   3.547  17.653 -0.0849  0.2911 -0.6551
  244MPD1     C 3698   4.065   2.367   0.144 -0.5046 -0.1879  0.4002
  244MPD1    C1 3699   4.190   2.406   0.189 -0.7602 -0.5506  0.2236
  244MPD1    C2 3700   4.277   2.473   0.106  0.0670  0.2879 -0.7556
  244MPD1    C3 3701   4.229   2.519  17.684  0.3084 -0.6850  0.5438
  244MPD1    C4 3702   4.100   2.477  17.647  0.4501  0.1538  0.1966
  244MPD1    C5 3703   4.018   2.400   0.021 -0.5779 -0.0758  0.0668
  244MPD1     H 3704   4.378   2.492   0.139 -0.5261 -0.3404  1.3786
  244MPD1    H1 3705   4.062   2.498  17.548 -1.5860  1.8358  1.3462
  244MPD1    H2 3706   3.992   2.311   0.201 -1.9907 -0.5910 -1.8770
  244MPD1    H3 3707   3.916   2.372  17.695 -0.2556  0.8985 -2.2502
  244MPD1     N 3708   4.304   2.602  17.596  0.3298 -0.2579 -0.0186
  244MPD1    H5 3709   4.399   2.622  17.628 -0.4848 -0.7222  2.6803
  244MPD1    N1 3710   4.234   2.369   0.319  1.2006  0.4266 -0.0412
  244MPD1    H6 3711   4.162   2.336   0.382  0.2312  0.6840 -1.0027
  244MPD1    H7 3712   4.308   2.424   0.361  0.8330  0.0866  1.0382
  245MPD1     C 3713   0.801   3.148  13.132  0.2014  0.0746  0.0167
  245MPD1    C1 3714   0.921   3.076  13.131 -0.4674 -0.4208  0.9447
  245MPD1    C2 3715   1.034   3.154  13.124  0.5707  0.7134 -0.1477
  245MPD1    C3 3716   1.031   3.288  13.090 -0.4421  0.5650 -0.1385
  245MPD1    C4 3717   0.915   3.359  13.081  0.1240 -0.8987 -0.2019
  245MPD1    C5 3718   0.797   3.286  13.095 -0.8094  0.3637  0.0676
  245MPD1     H 3719   1.131   3.107  13.125  0.5170  0.5848 -1.4754
  245MPD1    H1 3720   0.906   3.458  13.040 -1.5273 -1.2726 -0.7439
  245MPD1    H2 3721   0.707   3.100  13.154 -0.3120  0.1831 -1.9521
  245MPD1    H3 3722   0.703   3.340  13.092 -1.0358 -0.0244  0.1848
  245MPD1     N 3723   1.155   3.351  13.102 -0.8631 -0.1947 -0.8293
  245MPD1    H5 3724   1.238   3.296  13.120 -0.9781 -0.1267 -0.0906
  245MPD1    N1 3725   0.925   2.944  13.173 -0.6896  0.3511 -1.2932
  245MPD1    H6 3726   0.845   2.885  13.152  0.2173 -1.5249  0.6133
  245MPD1    H7 3727   1.014   2.907  13.140 -1.0154 -0.2499 -1.5060
  246MPD1     C 3728   0.665   2.151   9.301 -0.3233  0.1896 -0.2829
  246MPD1    C1 3729   0.604   2.239   9.212  0.1107  0.3746 -0.2107
  246MPD1    C2 3730   0.689   2.333   9.142 -0.6414  0.0135 -0.4297
  246MPD1    C3 3731   0.829   2.330   9.161  0.3981 -1.0187  0.2086
  246MPD1    C4 3732   0.881   2.237   9.251  0.3003  0.3411  0.5232
  246MPD1    C5 3733   0.797   2.157   9.322  0.0816  0.5745  0.8419
  246MPD1     H 3734   0.656   2.400   9.064  0.0600  1.2168  0.2958
  246MPD1    H1 3735   0.986   2.240   9.276 -0.0748 -1.0358  2.2819
  246MPD1    H2 3736   0.609   2.066   9.339  0.6332 -0.6601 -0.7336
  246MPD1    H3 3737   0.842   2.071   9.371 -0.9848 -1.7017 -2.1606
  246MPD1     N 3738   0.907   2.428   9.088 -0.5848 -0.4590 -0.2847
  246MPD1    H5 3739   0.855   2.491   9.028 -0.8083 -0.6001 -0.2403
  246MPD1    N1 3740   0.462   2.239   9.185  0.2030  0.0456  0.0643
  246MPD1    H6 3741   0.432   2.324   9.137 -1.6882 -1.7835 -2.0278
  246MPD1    H7 3742   0.416   2.242   9.275  0.2270 -2.9462  0.1491
  247MPD1     C 3743   0.635   3.247  16.844 -0.7860  0.1341  0.0649
  247MPD1    C1 3744   0.586   3.121  16.824 -0.6656 -0.1218  0.4770
  247MPD1    C2 3745   0.574   3.063  16.702  0.1688 -0.1362 -0.3833
  247MPD1    C3 3746   0.612   3.131  16.588  0.3449  0.1690  0.6243
  247MPD1    C4 3747   0.672   3.257  16.609 -0.1589 -0.1210  0.3226
  247MPD1    C5 3748   0.688   3.307  16.736 -0.3038  0.3027  0.7037
  247MPD1     H 3749   0.537   2.964  16.680 -2.5133  0.7917 -0.0731
  247MPD1    H1 3750   0.700   3.318  16.524 -2.7793  0.8928  0.1639
  247MPD1    H2 3751   0.629   3.299  16.939 -3.1181 -1.2428  0.6904
  247MPD1    H3 3752   0.735   3.404  16.746  0.0651  0.4906 -2.7527
  247MPD1     N 3753   0.610   3.087  16.453  0.0364  0.2514  0.1638
  247MPD1    H5 3754   0.663   3.143  16.387  1.8711 -0.3012  1.1545
  247MPD1    N1 3755   0.525   3.067  16.935 -0.2324 -0.2286 -0.2463
  247MPD1    H6 3756   0.583   3.064  17.019 -1.4737  1.5884  0.6894
  247MPD1    H7 3757   0.506   2.968  16.923  1.2054 -0.5455  0.0731
  248MPD1     C 3758   1.128   3.967   0.557 -1.3162 -0.4737  0.5280
  248MPD1    C1 3759   1.092   4.003   0.434 -0.3571  0.1203  0.0131
  248MPD1    C2 3760   1.079   3.895   0.341  0.5556 -0.5263 -0.2987
  248MPD1    C3 3761   1.087   3.763   0.382  0.2224 -0.0462 -0.6344
  248MPD1    C4 3762   1.109   3.738   0.516  0.2866  0.5474  1.0434
  248MPD1    C5 3763   1.135   3.840   0.603 -0.0715  0.3222  0.1799
  248MPD1     H 3764   1.064   3.925   0.238  0.1239  2.4267  0.5964
  248MPD1    H1 3765   1.109   3.635   0.550 -3.1621  1.2699  3.2073
  248MPD1    H2 3766   1.160   4.042   0.629 -2.5423 -1.5457  2.2092
  248MPD1    H3 3767   1.156   3.821   0.707 -0.7841 -0.3104  0.2102
  248MPD1     N 3768   1.054   3.651   0.295  0.2446  0.1324  0.2317
  248MPD1    H5 3769   1.037   3.684   0.200 -1.8303  0.3822  0.6748
  248MPD1    N1 3770   1.103   4.133   0.396  0.7810 -0.8474 -0.8485
  248MPD1    H6 3771   1.094   4.198   0.473  0.3279  0.8865 -2.3535
  248MPD1    H7 3772   1.049   4.162   0.315  2.5258  2.0369 -0.9892
  249MPD1     C 3773   4.305   3.334   9.419 -0.0743  1.3678 -0.4327
  249MPD1    C1 3774   4.256   3.207   9.420  0.0816 -0.1617  0.3037
  249MPD1    C2 3775   4.215   3.153   9.539 -0.0061  0.0082 -0.0544
  249MPD1    C3 3776   4.229   3.223   9.661  0.0378  0.5037  0.0590
  249MPD1    C4 3777   4.276   3.348   9.650 -0.3382  0.5189 -0.1746
  249MPD1    C5 3778   4.312   3.405   9.533  0.5276 -0.8766 -0.3959
  249MPD1     H 3779   4.181   3.050   9.535 -0.0517  0.0597 -1.2007
  249MPD1    H1 3780   4.270   3.420   9.731  2.2864 -0.3740  0.8201
  249MPD1    H2 3781   4.334   3.380   9.325 -0.0588  2.0897 -0.0662
  249MPD1    H3 3782   4.334   3.511   9.526 -0.1474 -0.8145 -1.6469
  249MPD1     N 3783   4.193   3.157   9.786 -0.2720 -0.6218 -0.1091
  249MPD1    H5 3784   4.155   3.063   9.773 -0.5939 -0.5109  0.0472
  249MPD1    N1 3785   4.269   3.119   9.313  0.0859 -0.1597 -0.1232
  249MPD1    H6 3786   4.261   3.162   9.221  1.8947 -0.0667 -0.2272
  249MPD1    H7 3787   4.192   3.052   9.322  1.5242 -1.7405  0.3274
  250MPD2     C 3788   4.160   1.915  12.862 -0.8084  0.2405  0.3619
  250MPD2    C1 3789   4.191   1.929  12.729  0.3590 -0.2237  0.4532
  250MPD2    C2 3790   4.107   1.876  12.635  0.0132  0.3272  0.7703
  250MPD2    C3 3791   3.997   1.798  12.677  0.7139 -0.1075  0.2304
  250MPD2    C4 3792   3.969   1.784  12.810 -0.0054 -0.2286 -1.1152
  250MPD2    C5 3793   4.047   1.845  12.903  0.4940  0.4637 -0.0113
  250MPD2     H 3794   4.122   1.883  12.528 -1.2381 -1.7828  0.4423
  250MPD2    H1 3795   3.873   1.748  12.843 -0.2851 -0.1553 -1.8543
  250MPD2    H2 3796   4.204   1.970  12.945  0.2731 -0.0127 -0.0328
  250MPD2    H3 3797   4.023   1.831  13.008  0.3567 -1.7719 -0.3570
  250MPD2     N 3798   3.912   1.740  12.579 -0.3726  0.0295 -0.2177
  250MPD2    H5 3799   3.847   1.674  12.621  0.3732 -1.1154 -0.8551
  250MPD2    N1 3800   4.305   2.005  12.698 -0.2625  0.1027  0.6435
  250MPD2    H7 3801   4.352   2.050  12.776 -1.8185  0.4972  1.3693
  251TMC3    C1 3802   4.478   2.090  12.574  0.8230  0.3509  0.2790
  251TMC3    C2 3803   4.463   2.211  12.640 -0.3460  0.7473  0.1253
  251TMC3    C3 3804   4.573   2.279  12.675 -0.7623  0.1816 -0.1114
  251TMC3    C4 3805   4.601   2.026  12.568 -0.6108 -0.4948  0.3410
  251TMC3    C5 3806   4.709   2.090  12.635 -0.2282  0.6114 -0.4669
  251TMC3    C6 3807   4.697   2.220  12.684 -0.2895 -0.5336  0.9227
  251TMC3     C 3808   4.356   2.013  12.570  0.4082 -0.5160  0.7002
  251TMC3     O 3809   4.337   1.950  12.469  0.2677 -0.6690 -0.2320
  251TMC3     H 3810   4.363   2.251  12.653 -0.6130 -0.0092  0.4226
  251TMC3    H1 3811   4.620   1.933  12.516  4.6940  0.2096  0.9945
  251TMC3    H2 3812   0.059   2.280  12.709  0.2680 -0.6114 -0.7789
  251TMC3    C7 3813   0.102   2.007  12.669 -0.0208 -1.1233  0.2188
  251TMC3    C8 3814   4.540   2.389  12.756  0.0107 -0.1468  0.1595
  251TMC3    O1 3815   0.095   1.887  12.644 -0.6990  0.1871  0.1218
  251TMC3    O2 3816   4.538   2.374  12.877 -0.0635  0.0298 -0.3061
  252TMC3    C1 3817   0.138   3.095   9.050 -0.3803  0.7205  0.4567
  252TMC3    C2 3818   0.246   3.129   9.119 -0.6022  0.5325 -0.3928
  252TMC3    C3 3819   0.296   3.039   9.214 -0.3698  0.4982 -0.1437
  252TMC3    C4 3820   0.088   2.969   9.055 -0.1273  0.5437  0.5516
  252TMC3    C5 3821   0.142   2.875   9.137  0.3079 -0.1702  0.5432
  252TMC3    C6 3822   0.237   2.913   9.234 -0.0536  0.3279 -0.6374
  252TMC3     C 3823   0.062   3.196   8.971  0.8005 -0.2445  0.5033
  252TMC3     O 3824   4.692   3.153   8.907 -0.2886 -0.1204  0.4509
  252TMC3     H 3825   0.294   3.226   9.108 -1.3825  0.8316 -1.1216
  252TMC3    H1 3826   0.001   2.952   8.992 -1.1837  0.1816  2.1145
  252TMC3    H2 3827   0.281   2.836   9.296 -0.9641  0.5561  0.2995
  252TMC3    C7 3828   0.056   2.764   9.163 -0.1935 -0.2783  0.9263
  252TMC3    C8 3829   0.422   3.069   9.270  0.1944  0.2238  0.5579
  252TMC3    O1 3830   4.664   2.771   9.125  0.1687  0.0728  0.6049
  252TMC3    O2 3831   0.485   3.161   9.214  0.2272 -0.4974 -0.1314
  253MPD2     C 3832   0.968   1.695  14.605 -0.2231 -0.3088 -0.7322
  253MPD2    C1 3833   0.859   1.644  14.676 -0.2252 -0.1937 -0.3845
  253MPD2    C2 3834   0.849   1.665  14.812 -0.3245  0.2879  0.1605
  253MPD2    C3 3835   0.945   1.731  14.886  0.2452 -1.0909 -0.0882
  253MPD2    C4 3836   1.052   1.788  14.820  0.4666  0.0852 -0.0285
  253MPD2    C5 3837   1.062   1.768  14.677  0.5044  0.4698 -0.0937
  253MPD2     H 3838   0.761   1.621  14.857  0.5735 -0.3797  1.2713
  253MPD2    H1 3839   1.132   1.836  14.875  0.9886 -0.3132 -0.4408
  253MPD2    H2 3840   0.989   1.684  14.499 -3.1209 -2.7974 -1.0358
  253MPD2    H3 3841   1.149   1.806  14.624  0.8924  1.2837  1.1345
  253MPD2     N 3842   0.941   1.753  15.026 -0.0973 -0.1964 -0.2167
  253MPD2    H5 3843   1.024   1.798  15.063  0.7678 -1.1206 -1.0262
  253MPD2    N1 3844   0.757   1.569  14.609 -0.6860 -0.1150  0.0931
  253MPD2    H7 3845   0.685   1.527  14.667 -1.4314  0.3280 -0.5163
  254TMC3    C1 3846   0.846   1.767  15.238 -0.3875  0.4265  0.4305
  254TMC3    C2 3847   0.730   1.794  15.307 -0.0501 -0.3576 -0.3370
  254TMC3    C3 3848   0.737   1.841  15.431  0.4703  0.0682 -0.6059
  254TMC3    C4 3849   0.974   1.775  15.292  0.8764  0.4784  0.0247
  254TMC3    C5 3850   0.975   1.815  15.421  0.1723 -0.1174 -0.3850
  254TMC3    C6 3851   0.854   1.849  15.489  0.4615  0.3596 -0.0909
  254TMC3     C 3852   0.833   1.734  15.101  0.5971  0.3431  0.5458
  254TMC3     O 3853   0.721   1.706  15.063 -0.2918 -0.3320 -0.2618
  254TMC3     H 3854   0.638   1.797  15.250 -1.7409  0.7477  2.4306
  254TMC3    H1 3855   1.070   1.767  15.242  0.5450  1.1544 -0.7188
  254TMC3    H2 3856   0.848   1.902  15.583  1.0741  1.6490 -0.7861
  254TMC3    C7 3857   1.102   1.832  15.491 -1.0320  0.6344 -0.4985
  254TMC3    C8 3858   0.618   1.856  15.514  0.0182 -0.5821  1.0316
  254TMC3    O1 3859   1.201   1.832  15.418 -0.0762  0.3531  0.1990
  254TMC3    O2 3860   0.618   1.941  15.606  0.2026  0.1808 -0.1894
  255MPD2     C 3861   4.586   4.189  10.346 -0.8110  0.3076 -0.1014
  255MPD2    C1 3862   4.604   4.289  10.249 -0.1858  0.0835  0.0416
  255MPD2    C2 3863   4.675   4.265  10.126  0.8084 -0.7081 -0.5225
  255MPD2    C3 3864   4.702   4.132  10.096  0.1057 -0.1182 -0.0483
  255MPD2    C4 3865   4.668   4.028  10.185  0.0285 -0.4964  0.5291
  255MPD2    C5 3866   4.622   4.058  10.312  0.0158 -0.2160 -0.3576
  255MPD2     H 3867   4.692   4.342  10.051  0.0519  1.3758  1.4330
  255MPD2    H1 3868   4.691   3.924  10.169 -1.1892 -0.3817 -2.0462
  255MPD2    H2 3869   4.546   4.205  10.446 -0.2508  1.1720 -0.0121
  255MPD2    H3 3870   4.610   3.981  10.387 -1.2618 -1.1773 -1.5625
  255MPD2     N 3871   0.003   4.110   9.955  0.5048 -0.2414 -0.3305
  255MPD2    H5 3872   0.022   4.194   9.901  2.5477 -0.1566  0.5079
  255MPD2    N1 3873   4.549   4.419  10.278 -0.4503  0.0031 -0.4933
  255MPD2    H7 3874   4.492   4.420  10.361 -0.3381 -0.5709 -0.4073
  256TMC3    C1 3875   4.476   4.629  10.256 -0.3293 -0.0031 -0.3756
  256TMC3    C2 3876   4.519   0.027  10.230 -0.1237  0.0355 -1.0058
  256TMC3    C3 3877   4.427   0.130  10.235  0.3639  0.0841 -0.0412
  256TMC3    C4 3878   4.347   4.600  10.297  0.0681 -0.4564 -0.5306
  256TMC3    C5 3879   4.264   4.710  10.302 -0.0883  0.1874 -0.3728
  256TMC3    C6 3880   4.294   0.115  10.271  0.3738 -0.3757  0.2320
  256TMC3     C 3881   4.546   4.525  10.191  0.5855  0.5116 -0.2305
  256TMC3     O 3882   4.608   4.554  10.090  0.7382 -0.2016 -0.2368
  256TMC3     H 3883   4.617   0.039  10.185  0.7589  1.6106  1.3463
  256TMC3    H1 3884   4.303   4.501  10.310  1.7983 -1.5457 -2.9723
  256TMC3    H2 3885   4.221   0.194  10.269  0.7244 -0.0654 -0.7551
  256TMC3    C7 3886   4.129   4.692  10.362 -0.2089 -0.3402 -0.3947
  256TMC3    C8 3887   4.481   0.256  10.204  0.6667  0.3303  0.0064
  256TMC3    O1 3888   4.060   0.071  10.374  0.5980 -0.1349  0.0534
  256TMC3    O2 3889   4.589   0.255  10.147 -0.6542 -0.5563 -0.4142
  257MPD2     C 3890   3.175   1.381  12.578 -0.3520 -0.3051  1.1076
  257MPD2    C1 3891   3.203   1.470  12.677  0.7582  0.1180 -0.3263
  257MPD2    C2 3892   3.293   1.435  12.777 -0.2203  0.5241 -0.0273
  257MPD2    C3 3893   3.353   1.305  12.776  0.2595 -0.0511 -0.5349
  257MPD2    C4 3894   3.340   1.227  12.662 -0.5215 -0.2545 -0.3266
  257MPD2    C5 3895   3.238   1.261  12.572 -0.1813  0.6787 -0.2077
  257MPD2     H 3896   3.328   1.500  12.856 -0.4839 -0.2096  0.6944
  257MPD2    H1 3897   3.392   1.133  12.645 -0.8590 -0.5490  0.2655
  257MPD2    H2 3898   3.109   1.406  12.495 -0.0143 -1.6624  0.4290
  257MPD2    H3 3899   3.221   1.205  12.481  0.8880 -0.3987  0.2585
  257MPD2     N 3900   3.430   1.265  12.893 -0.0151  0.0605  0.4903
  257MPD2    H5 3901   3.427   1.316  12.980 -1.5451 -0.3252  0.6780
  257MPD2    N1 3902   3.140   1.602  12.669  0.0859 -0.1597 -0.0967
  257MPD2    H7 3903   3.078   1.614  12.590 -2.3238 -2.3874  1.4671
  258TMC3    C1 3904   3.586   1.139  13.018  0.4979 -0.9090 -1.3104
  258TMC3    C2 3905   3.725   1.137  13.021  0.3604  0.1419  0.2062
  258TMC3    C3 3906   3.787   1.134  13.139 -0.3174 -0.0255 -0.0013
  258TMC3    C4 3907   3.510   1.130  13.133 -0.2408  0.1884 -1.3667
  258TMC3    C5 3908   3.583   1.131  13.250 -0.0236 -0.2579  0.3053
  258TMC3    C6 3909   3.715   1.124  13.252 -0.1446  0.1322 -0.9259
  258TMC3     C 3910   3.527   1.170  12.885 -0.0212 -0.1867 -0.0638
  258TMC3     O 3911   3.575   1.124  12.782  0.4430 -0.1515 -0.6143
  258TMC3     H 3912   3.779   1.149  12.928 -0.1292  2.8478  0.2756
  258TMC3    H1 3913   3.403   1.142  13.127 -0.2398  0.6977 -0.2866
  258TMC3    H2 3914   3.760   1.141  13.349 -2.5678 -0.2991  0.2672
  258TMC3    C7 3915   3.507   1.108  13.371 -0.2363  0.2386  0.3286
  258TMC3    C8 3916   3.923   1.172  13.139 -0.0037 -0.1758  0.4432
  258TMC3    O1 3917   3.383   1.110  13.365 -0.6292 -0.0397  0.2949
  258TMC3    O2 3918   3.957   1.238  13.043 -0.1390 -0.0986 -0.5899
  259MPD2     C 3919   3.111   2.132   1.352 -0.6046  0.0924 -0.4091
  259MPD2    C1 3920   3.020   2.208   1.286 -0.1437  0.6079 -0.4442
  259MPD2    C2 3921   3.022   2.207   1.151 -0.0858  0.5915 -0.2459
  259MPD2    C3 3922   3.121   2.132   1.089 -0.5398 -0.8995 -0.1296
  259MPD2    C4 3923   3.200   2.048   1.156  0.3185  0.3519  0.1642
  259MPD2    C5 3924   3.194   2.040   1.293  0.2098  0.8894  0.3424
  259MPD2     H 3925   2.962   2.272   1.088  0.3877  1.4940  0.2451
  259MPD2    H1 3926   3.269   1.981   1.105  1.4583  0.0910  2.0631
  259MPD2    H2 3927   3.121   2.140   1.460 -0.3551  3.1604 -0.6797
  259MPD2    H3 3928   3.255   1.970   1.348 -0.5617  0.5885  0.8250
  259MPD2     N 3929   3.120   2.148   0.950 -0.4612 -0.7095  0.3941
  259MPD2    H5 3930   3.054   2.216   0.913  1.8550  2.0103  1.2440
  259MPD2    N1 3931   2.932   2.292   1.363 -0.1657  0.0487 -0.0141
  259MPD2    H7 3932   2.953   2.289   1.462 -0.0447  1.3309  0.0019
  260TMC3    C1 3933   3.192   2.152   0.728 -0.2465  0.1768 -0.3066
  260TMC3    C2 3934   3.298   2.134   0.647 -0.6116 -0.5304 -0.1184
  260TMC3    C3 3935   3.287   2.177   0.520  0.3453  0.3807 -0.9146
  260TMC3    C4 3936   3.080   2.226   0.694  0.7644 -0.3051  0.4869
  260TMC3    C5 3937   3.078   2.272   0.562 -0.5817  0.1526 -0.0217
  260TMC3    C6 3938   3.184   2.262   0.483  0.1447  0.5267 -0.4711
  260TMC3     C 3939   3.221   2.119   0.865 -0.2875  0.0405  0.0302
  260TMC3     O 3940   3.321   2.065   0.898  0.2169  0.3601  0.2498
  260TMC3     H 3941   3.370   2.056   0.670 -0.7995 -0.3038  1.2147
  260TMC3    H1 3942   2.981   2.227   0.736  0.1752  0.1821 -0.8886
  260TMC3    H2 3943   3.178   2.328   0.397  0.9382  0.5115 -0.5427
  260TMC3    C7 3944   2.961   2.350   0.511 -0.3537 -0.0325 -0.4203
  260TMC3    C8 3945   3.410   2.193   0.446  0.2395  0.0306 -0.6896
  260TMC3    O1 3946   2.937   2.354   0.389 -0.0755 -0.0685 -0.1706
  260TMC3    O2 3947   3.516   2.156   0.492  0.8432  0.5670  0.0166
  261MPD2     C 3948   3.376   1.685  11.943  0.6924  0.4101  0.3474
  261MPD2    C1 3949   3.496   1.745  11.947  0.3761  0.6318 -0.6806
  261MPD2    C2 3950   3.531   1.833  11.839 -0.3087 -0.0756 -0.0575
  261MPD2    C3 3951   3.447   1.856  11.731 -0.1509 -0.7032  0.8139
  261MPD2    C4 3952   3.323   1.791  11.732 -0.3298  0.0502 -0.1093
  261MPD2    C5 3953   3.295   1.707  11.842 -0.8971  0.2803 -0.6019
  261MPD2     H 3954   3.628   1.880  11.846 -1.1964  1.4496  2.0300
  261MPD2    H1 3955   3.252   1.802  11.651 -1.7693 -3.1598  0.7050
  261MPD2    H2 3956   3.326   1.620  12.013 -0.2854  1.6907  0.8468
  261MPD2    H3 3957   3.195   1.666  11.847 -1.2869  1.3965  0.8069
  261MPD2     N 3958   3.478   1.934  11.619 -0.2795 -0.0926 -0.2476
  261MPD2    H5 3959   3.417   1.927  11.538  1.4352 -1.4975 -1.4229
  261MPD2    N1 3960   3.590   1.701  12.043  0.3519  0.0847  0.1248
  261MPD2    H7 3961   3.679   1.750  12.039  0.0696  0.4026 -2.5594
  262TMC3    C1 3962   3.628   2.044  11.468  0.7468 -0.1180 -0.7346
  262TMC3    C2 3963   3.710   2.152  11.448 -0.3323 -1.0562  0.0888
  262TMC3    C3 3964   3.762   2.167  11.321  0.1126 -0.0671  0.3945
  262TMC3    C4 3965   3.603   1.951  11.371 -0.2715  0.2674  0.2751
  262TMC3    C5 3966   3.655   1.964  11.249 -0.0677 -0.0324  0.4523
  262TMC3    C6 3967   3.735   2.080  11.225 -0.6374 -0.0644  0.4737
  262TMC3     C 3968   3.593   2.013  11.606 -0.2385 -0.1120  0.1926
  262TMC3     O 3969   3.658   2.072  11.689 -0.5666  0.0405  0.1713
  262TMC3     H 3970   3.743   2.214  11.531  1.3180 -1.8311  0.0141
  262TMC3    H1 3971   3.540   1.866  11.395 -0.9329  0.7226  0.1449
  262TMC3    H2 3972   3.779   2.094  11.127 -0.5714 -0.5402  0.4350
  262TMC3    C7 3973   3.570   1.913  11.146 -0.8960 -0.0405 -0.0041
  262TMC3    C8 3974   3.812   2.300  11.281  0.4940  0.5597  0.5306
  262TMC3    O1 3975   3.462   1.861  11.173  0.0853 -0.3260 -0.0138
  262TMC3    O2 3976   3.884   2.313  11.182  0.3909 -0.2900  0.3824
  263MPD2     C 3977   0.187   0.587  11.187  0.1645 -0.8327 -0.4773
  263MPD2    C1 3978   0.194   0.710  11.245 -0.5210 -0.1146 -1.0822
  263MPD2    C2 3979   0.162   0.821  11.167  0.4835  0.4279  0.1591
  263MPD2    C3 3980   0.108   0.812  11.040 -0.0038 -0.0251 -0.2293
  263MPD2    C4 3981   0.102   0.691  10.978 -0.2373  0.2373 -0.4405
  263MPD2    C5 3982   0.142   0.581  11.057  0.2359 -0.3000  0.1518
  263MPD2     H 3983   0.188   0.915  11.214  0.4202 -0.0134  1.0645
  263MPD2    H1 3984   0.073   0.678  10.874  1.4820  0.3817 -0.9410
  263MPD2    H2 3985   0.230   0.497  11.229 -1.4727 -2.3762 -2.0641
  263MPD2    H3 3986   0.128   0.485  11.010 -0.0844  0.8357 -2.0897
  263MPD2     N 3987   0.070   0.930  10.970  0.5809 -0.3323 -0.0522
  263MPD2    H5 3988   0.071   1.019  11.019 -0.6076  0.2801 -1.1639
  263MPD2    N1 3989   0.276   0.714  11.361 -0.5174 -0.0113  0.1435
  263MPD2    H7 3990   0.310   0.626  11.398 -0.7258 -0.7278 -1.3669
  264TMC3    C1 3991   0.029   1.080  10.792 -0.0271 -0.1270 -0.0576
  264TMC3    C2 3992   4.721   1.178  10.880 -0.7812 -1.0196  0.1350
  264TMC3    C3 3993   4.705   1.308  10.834  0.5069  0.1409  0.2519
  264TMC3    C4 3994   0.059   1.105  10.663 -0.4172 -0.5504  0.4059
  264TMC3    C5 3995   0.047   1.233  10.621 -0.7750  0.0536  0.5030
  264TMC3    C6 3996   4.724   1.327  10.706 -0.4941 -0.2020  0.3930
  264TMC3     C 3997   0.038   0.938  10.835 -0.6020 -0.2089  0.6572
  264TMC3     O 3998   0.045   0.853  10.749  0.1931  0.5645 -0.2955
  264TMC3     H 3999   4.693   1.156  10.983 -3.3558 -0.0198 -0.3409
  264TMC3    H1 4000   0.097   1.027  10.597  0.2407  0.8719 -0.8767
  264TMC3    H2 4001   4.718   1.428  10.669  2.2484 -0.1588  0.1059
  264TMC3    C7 4002   0.171   1.274  10.551  0.2761  0.2093  0.5000
  264TMC3    C8 4003   0.044   1.419  10.907 -0.3712 -0.1478  0.0371
  264TMC3    O1 4004   0.219   1.203  10.464  0.0785 -0.5680  0.2329
  264TMC3    O2 4005   0.130   1.477  10.842 -0.5332 -0.6300  0.1853
  265MPD2     C 4006   2.548   1.394  15.328 -0.2360 -0.4785  0.7023
  265MPD2    C1 4007   2.509   1.477  15.226 -0.5711  0.5640 -0.5873
  265MPD2    C2 4008   2.544   1.445  15.091 -0.0450 -0.4823 -0.2498
  265MPD2    C3 4009   2.610   1.322  15.068  0.3076 -0.0726 -0.3311
  265MPD2    C4 4010   2.639   1.236  15.174 -0.3948 -0.4111 -0.2705
  265MPD2    C5 4011   2.608   1.272  15.305  0.9067 -0.0632 -0.1078
  265MPD2     H 4012   2.524   1.517  15.013  2.4028  0.0188 -0.4056
  265MPD2    H1 4013   2.682   1.137  15.173 -0.0082 -0.2336 -1.8986
  265MPD2    H2 4014   2.541   1.417  15.433 -1.9062 -0.9022  0.6867
  265MPD2    H3 4015   2.637   1.206  15.386  1.0457 -0.8340 -0.7893
  265MPD2     N 4016   2.638   1.284  14.931  0.0412 -0.5448  0.5296
  265MPD2    H5 4017   2.693   1.199  14.925 -0.7391 -0.9121 -1.5805
  265MPD2    N1 4018   2.435   1.596  15.246  0.2820  0.4329  0.1222
  265MPD2    H7 4019   2.431   1.661  15.169  2.9230  0.6800  0.1751
  266TMC3    C1 4020   2.315   1.763  15.361 -0.2335 -0.3343 -0.1346
  266TMC3    C2 4021   2.362   1.843  15.462 -0.6668  0.3774 -0.3678
  266TMC3    C3 4022   2.297   1.960  15.482  0.1353 -0.2693 -0.0268
  266TMC3    C4 4023   2.213   1.794  15.275 -1.3054  0.3195 -0.0084
  266TMC3    C5 4024   2.152   1.916  15.301 -0.0074 -0.3013  0.3246
  266TMC3    C6 4025   2.201   2.003  15.397 -0.4198 -0.4147 -0.0899
  266TMC3     C 4026   2.364   1.623  15.364  0.3912  0.1133 -0.0260
  266TMC3     O 4027   2.380   1.583  15.478 -0.6248  0.0549  0.2044
  266TMC3     H 4028   2.440   1.805  15.528  1.5767  1.4783 -2.3812
  266TMC3    H1 4029   2.187   1.721  15.199 -0.2739  2.8455 -2.7227
  266TMC3    H2 4030   2.177   2.108  15.393  0.3604 -0.1214  2.9935
  266TMC3    C7 4031   2.021   1.934  15.246 -0.0162 -0.4931 -0.3119
  266TMC3    C8 4032   2.346   2.033  15.595  0.3506 -0.0739  0.1852
  266TMC3    O1 4033   1.978   1.846  15.172 -0.3246 -0.3146 -0.2578
  266TMC3    O2 4034   2.461   2.004  15.627 -0.8259 -0.1036 -0.7738
  267MPD2     C 4035   4.347   2.990   0.237  0.5314  0.1087  0.2265
  267MPD2    C1 4036   4.335   3.107   0.166 -0.6889 -0.6197  0.5434
  267MPD2    C2 4037   4.259   3.097   0.047 -0.2381 -0.5068 -0.3985
  267MPD2    C3 4038   4.202   2.980   0.011  0.0795 -0.0038 -0.3968
  267MPD2    C4 4039   4.218   2.864   0.080  0.4272 -0.2510 -0.4119
  267MPD2    C5 4040   4.284   2.871   0.202 -0.0961  0.3142 -0.3434
  267MPD2     H 4041   4.252   3.187  17.687  1.5986 -2.3931 -3.4579
  267MPD2    H1 4042   4.178   2.769   0.048  0.5798 -0.1140 -1.0143
  267MPD2    H2 4043   4.405   2.988   0.329  0.8887  3.1145  0.0422
  267MPD2    H3 4044   4.303   2.780   0.257  2.0713  0.1144 -1.4244
  267MPD2     N 4045   4.136   2.957  17.589  0.0361  0.3850  0.3183
  267MPD2    H5 4046   4.086   2.871  17.570  0.7198  0.2674 -0.9483
  267MPD2    N1 4047   4.414   3.220   0.212  0.0897  0.5766  0.5237
  267MPD2    H7 4048   4.481   3.209   0.287 -1.2456 -0.8550  1.5058
  268TMC3    C1 4049   4.527   3.432   0.192 -0.0491  0.0741 -0.0459
  268TMC3    C2 4050   4.566   3.524   0.092  0.7014  0.0943 -0.2873
  268TMC3    C3 4051   4.681   3.591   0.111 -0.3671  0.0353  0.0899
  268TMC3    C4 4052   4.601   3.402   0.304 -0.7549  0.6439  0.2453
  268TMC3    C5 4053   4.710   3.486   0.330  0.4359 -0.2589  0.0559
  268TMC3    C6 4054   0.025   3.582   0.231 -0.3325  0.5426  0.3303
  268TMC3     C 4055   4.409   3.351   0.160  0.8983 -0.1300  0.5725
  268TMC3     O 4056   4.331   3.391   0.077 -0.2911  0.1651  0.1364
  268TMC3     H 4057   4.497   3.548   0.012  0.6550  0.7460 -0.0562
  268TMC3    H1 4058   4.562   3.336   0.381  0.9640  1.1292  1.5249
  268TMC3    H2 4059   0.113   3.644   0.234 -0.2094  0.4993 -2.0059
  268TMC3    C7 4060   0.093   3.426   0.405  0.4628 -0.3771 -0.6054
  268TMC3    C8 4061   0.013   3.662   0.001  0.0403  0.1048 -0.0698
  268TMC3    O1 4062   0.078   3.308   0.439  0.6618  0.1959 -0.1133
  268TMC3    O2 4063   0.107   3.742   0.022 -0.3442 -0.0031  0.2023
  269MPD2     C 4064   0.300   2.032  15.523  0.2264  0.4316 -0.9563
  269MPD2    C1 4065   0.173   2.037  15.475 -0.6692  0.2459 -0.5092
  269MPD2    C2 4066   0.138   2.163  15.421 -0.0090 -0.0858  0.3204
  269MPD2    C3 4067   0.205   2.277  15.443 -0.4462  0.6135 -0.0810
  269MPD2    C4 4068   0.322   2.273  15.521 -0.8448 -0.1860  0.2724
  269MPD2    C5 4069   0.367   2.149  15.552 -1.1358  0.2466  0.6558
  269MPD2     H 4070   0.042   2.163  15.371 -0.6703 -3.7413  1.5481
  269MPD2    H1 4071   0.372   2.362  15.557 -1.1010 -0.1781  0.6092
  269MPD2    H2 4072   0.349   1.941  15.555  0.1304  1.5914  2.5409
  269MPD2    H3 4073   0.459   2.141  15.609 -0.2920 -0.5732 -0.8261
  269MPD2     N 4074   0.159   2.396  15.392  0.1849 -0.7993  0.4844
  269MPD2    H5 4075   0.072   2.397  15.341  0.2750 -1.3830  0.3129
  269MPD2    N1 4076   0.094   1.921  15.467  1.0120 -0.5184 -0.0737
  269MPD2    H7 4077   0.141   1.834  15.490  1.1689 -0.0744  1.2869
  270TMC3    C1 4078   4.626   1.792  15.419 -0.3530  0.9797 -0.9601
  270TMC3    C2 4079   4.488   1.770  15.433 -0.1372 -0.1275 -0.1131
  270TMC3    C3 4080   4.435   1.643  15.418 -0.3801  0.6965  0.7352
  270TMC3    C4 4081   4.717   1.687  15.397 -0.1266 -0.0384 -0.1803
  270TMC3    C5 4082   4.661   1.563  15.398  0.0563 -1.1669 -0.5694
  270TMC3    C6 4083   4.523   1.538  15.419 -0.5599  0.1705 -0.4338
  270TMC3     C 4084   4.681   1.922  15.448 -0.3797 -0.2526 -0.5283
  270TMC3     O 4085   4.607   2.018  15.472 -0.3819 -0.0078  0.1557
  270TMC3     H 4086   4.425   1.858  15.444  0.1212 -0.0392  0.6705
  270TMC3    H1 4087   0.094   1.710  15.368 -0.6288  0.8293 -1.2740
  270TMC3    H2 4088   4.485   1.438  15.404  0.7150 -0.5768  1.3857
  270TMC3    C7 4089   4.722   1.477  15.305 -0.1348  0.2920 -0.1062
  270TMC3    C8 4090   4.365   1.643  15.294 -0.3462  0.0192  0.1206
  270TMC3    O1 4091   0.116   1.498  15.290 -0.6889  0.3445 -0.6213
  270TMC3    O2 4092   4.381   1.734  15.218  0.6789 -0.5469  0.0538
  271MPD2     C 4093   3.601   1.752  13.718  0.5633  0.5183  0.4465
  271MPD2    C1 4094   3.573   1.742  13.857 -0.8077  0.1553 -0.7724
  271MPD2    C2 4095   3.440   1.765  13.899 -0.1060 -0.0535 -0.0731
  271MPD2    C3 4096   3.338   1.795  13.806 -0.0493 -0.6755 -1.0872
  271MPD2    C4 4097   3.367   1.807  13.671  0.2364  0.6084 -0.1110
  271MPD2    C5 4098   3.502   1.784  13.632 -0.0486 -0.1756  0.2609
  271MPD2     H 4099   3.414   1.746  14.002  0.4568 -0.3863  0.0057
  271MPD2    H1 4100   3.290   1.824  13.597 -2.4752 -0.5160  2.4717
  271MPD2    H2 4101   3.700   1.729  13.678  0.0587  0.3854 -0.7256
  271MPD2    H3 4102   3.536   1.791  13.529  0.4216  1.3506  0.5219
  271MPD2     N 4103   3.207   1.802  13.842 -0.1634 -0.2698  0.0895
  271MPD2    H5 4104   3.152   1.819  13.758  2.9591 -0.1463 -1.9215
  271MPD2    N1 4105   3.667   1.697  13.953  0.7911 -0.2478 -0.2243
  271MPD2    H7 4106   3.633   1.694  14.049  0.2458  1.7730 -0.3437
  272TMC3    C1 4107   3.860   1.607  14.050 -0.6596  0.2210  0.5652
  272TMC3    C2 4108   3.942   1.501  14.022  0.0261 -0.0846  0.5361
  272TMC3    C3 4109   4.014   1.442  14.125 -0.3164  0.3058  0.1908
  272TMC3    C4 4110   3.818   1.636  14.176  0.4962 -0.5675  0.1580
  272TMC3    C5 4111   3.888   1.571  14.272 -0.9614 -0.0650  0.1067
  272TMC3    C6 4112   3.993   1.485  14.256 -0.6964 -0.4777 -0.1824
  272TMC3     C 4113   3.796   1.658  13.932 -0.0475  0.7592 -0.0515
  272TMC3     O 4114   3.855   1.648  13.823 -0.1162  0.3765  0.0851
  272TMC3     H 4115   3.954   1.462  13.922 -2.2144  0.2226  0.1441
  272TMC3    H1 4116   3.742   1.709  14.202  1.8453  0.7443  0.3886
  272TMC3    H2 4117   4.021   1.426  14.343  0.7486 -1.6464 -1.4302
  272TMC3    C7 4118   3.844   1.599  14.402  0.2508 -0.0469 -0.7337
  272TMC3    C8 4119   4.141   1.379  14.079  0.5126 -1.2368  0.0537
  272TMC3    O1 4120   3.724   1.602  14.420 -0.7941  0.5181  0.2422
  272TMC3    O2 4121   4.150   1.357  13.960  0.1843 -0.6294 -0.3217
  273MPD2     C 4122   0.695   4.247  11.786  0.4035 -0.5380  0.2426
  273MPD2    C1 4123   0.792   4.345  11.778 -0.5644  0.6801 -0.8714
  273MPD2    C2 4124   0.817   4.407  11.656 -0.4215  0.9144  0.4215
  273MPD2    C3 4125   0.740   4.369  11.548 -0.6698 -0.4908 -0.5298
  273MPD2    C4 4126   0.648   4.268  11.560 -0.1824  0.1115 -0.1358
  273MPD2    C5 4127   0.622   4.209  11.680  0.1554 -0.2190  0.0674
  273MPD2     H 4128   0.894   4.484  11.651 -0.3578  0.7620 -0.9125
  273MPD2    H1 4129   0.596   4.247  11.467  0.7561 -0.6823 -0.4856
  273MPD2    H2 4130   0.655   4.207  11.879 -0.5016 -1.2342 -0.4524
  273MPD2    H3 4131   0.545   4.132  11.680  1.1294 -1.2024  0.6396
  273MPD2     N 4132   0.763   4.415  11.420  1.2420 -0.0821  0.6344
  273MPD2    H5 4133   0.734   4.368  11.336 -1.8715 -1.5198  2.5285
  273MPD2    N1 4134   0.865   4.369  11.891  0.9150 -0.1107 -0.0933
  273MPD2    H7 4135   0.818   4.332  11.973 -0.7756 -2.5155 -2.1493
  274TMC3    C1 4136   0.867   4.559  11.251 -0.1141  0.3015  0.7744
  274TMC3    C2 4137   0.798   4.493  11.153 -0.9650 -0.0367  0.7162
  274TMC3    C3 4138   0.813   4.539  11.024  0.3966  0.5281  0.1696
  274TMC3    C4 4139   0.942   4.670  11.234 -0.8740  0.3835  0.2458
  274TMC3    C5 4140   0.958   4.711  11.105 -0.4292 -0.1950  0.9925
  274TMC3    C6 4141   0.902   4.641  10.998  0.0328 -0.2890 -0.1075
  274TMC3     C 4142   0.831   4.530  11.395  0.0665  0.1974 -0.0547
  274TMC3     O 4143   0.860   4.615  11.480  0.0824 -0.5129 -0.4070
  274TMC3     H 4144   0.720   4.423  11.180  0.7842 -2.6822 -1.2080
  274TMC3    H1 4145   0.985   4.716  11.322  0.3185  0.7957 -0.5517
  274TMC3    H2 4146   0.905   4.682  10.898  0.1134  2.2054  0.9039
  274TMC3    C7 4147   0.991   0.123  11.070 -0.3645 -0.7406  0.1785
  274TMC3    C8 4148   0.693   4.524  10.945 -0.1839  0.1291  0.5751
  274TMC3    O1 4149   1.028   0.152  10.956  0.1059  0.1044  0.2373
  274TMC3    O2 4150   0.606   4.443  10.976  0.3188 -0.1748  0.1998
  275MPD2     C 4151   0.581   2.579  14.136  0.1443 -0.0310 -0.8825
  275MPD2    C1 4152   0.495   2.571  14.244 -0.4598 -0.2627  0.5675
  275MPD2    C2 4153   0.359   2.550  14.233  0.2395  0.0679 -0.3386
  275MPD2    C3 4154   0.313   2.526  14.105  0.2784 -0.9064 -0.1048
  275MPD2    C4 4155   0.401   2.531  14.000  0.2332 -0.4789 -0.0334
  275MPD2    C5 4156   0.530   2.564  14.010  0.5665 -0.0756  0.4928
  275MPD2     H 4157   0.293   2.552  14.320  0.8325 -0.6769  0.1277
  275MPD2    H1 4158   0.368   2.506  13.900  0.0133 -1.3436  0.2542
  275MPD2    H2 4159   0.685   2.610  14.136  0.2129 -0.2628 -0.9909
  275MPD2    H3 4160   0.591   2.567  13.921 -0.0865 -0.3943  0.0293
  275MPD2     N 4161   0.183   2.507  14.071  0.1878 -0.4175  0.0320
  275MPD2    H5 4162   0.167   2.505  13.971  0.9047  0.3394 -0.0997
  275MPD2    N1 4163   0.548   2.581  14.374 -0.2225 -0.0473  0.1988
  275MPD2    H7 4164   0.487   2.549  14.449 -0.2423 -1.2075 -0.3021
  276TMC3    C1 4165   0.722   2.588  14.541 -0.7049 -0.2055 -0.2357
  276TMC3    C2 4166   0.669   2.484  14.603 -0.5376 -0.3101 -0.2332
  276TMC3    C3 4167   0.661   2.492  14.741  0.1944  0.0534 -0.2208
  276TMC3    C4 4168   0.771   2.696  14.608 -0.1324  0.3485  0.6243
  276TMC3    C5 4169   0.776   2.694  14.745 -0.6432  0.1577  0.3481
  276TMC3    C6 4170   0.723   2.592  14.817 -0.1573  0.1888  0.5429
  276TMC3     C 4171   0.683   2.615  14.408 -0.1104 -0.1732  0.5694
  276TMC3     O 4172   0.769   2.662  14.333  0.8110 -0.5823 -0.2785
  276TMC3     H 4173   0.609   2.415  14.545  0.5929  0.4326 -2.3115
  276TMC3    H1 4174   0.815   2.779  14.554  2.1294 -1.8328 -0.8641
  276TMC3    H2 4175   0.717   2.583  14.925  1.1404  0.3876  0.6360
  276TMC3    C7 4176   0.808   2.816  14.811  0.0884 -0.3242 -0.0864
  276TMC3    C8 4177   0.597   2.384  14.828 -0.2689  0.2894  0.0426
  276TMC3    O1 4178   0.831   2.797  14.928  0.3126 -0.1087 -0.3335
  276TMC3    O2 4179   0.554   2.405  14.940 -0.0411 -0.0487  0.1240
  277MPD2     C 4180   2.595   1.462  13.473  0.2321 -0.5429  0.3580
  277MPD2    C1 4181   2.466   1.449  13.507  0.4032 -0.4854  0.2915
  277MPD2    C2 4182   2.439   1.358  13.614  0.1104 -0.0774  0.0319
  277MPD2    C3 4183   2.536   1.268  13.658  0.1618 -0.5599  0.0510
  277MPD2    C4 4184   2.660   1.269  13.599 -0.6492 -0.0640  0.0159
  277MPD2    C5 4185   2.686   1.371  13.518 -0.0890 -0.3844  0.0172
  277MPD2     H 4186   2.339   1.353  13.656 -0.3309  0.0990 -1.0076
  277MPD2    H1 4187   2.732   1.188  13.601  1.3270  1.7410  2.3868
  277MPD2    H2 4188   2.623   1.536  13.399  1.5041  0.1500  1.5271
  277MPD2    H3 4189   2.785   1.378  13.475  0.0060 -2.3435 -0.0610
  277MPD2     N 4190   2.490   1.169  13.744 -0.2692 -0.0051 -0.4281
  277MPD2    H5 4191   2.399   1.183  13.788  0.3842  1.5768  0.3838
  277MPD2    N1 4192   2.373   1.534  13.442  0.1382  0.6629 -0.3384
  277MPD2    H7 4193   2.411   1.587  13.365 -0.0734 -2.0254 -2.2875
  278TMC3    C1 4194   2.451   0.959  13.828  0.2768  0.5983 -0.2604
  278TMC3    C2 4195   2.410   0.844  13.764 -0.5206  0.5974  0.3195
  278TMC3    C3 4196   2.274   0.808  13.778  0.0354  0.3716 -0.2768
  278TMC3    C4 4197   2.370   1.022  13.908  0.0411  0.9286 -0.1003
  278TMC3    C5 4198   2.239   0.975  13.932 -0.6542  0.9586  0.2832
  278TMC3    C6 4199   2.187   0.865  13.864 -0.1640  0.2092  0.2522
  278TMC3     C 4200   2.545   1.045  13.754  0.2104 -0.5672 -0.2461
  278TMC3     O 4201   2.655   1.008  13.713  0.3405 -0.2253  0.7376
  278TMC3     H 4202   2.473   0.796  13.690 -1.2852 -0.7584  0.5395
  278TMC3    H1 4203   2.418   1.088  13.980  0.8163 -0.1824  0.4194
  278TMC3    H2 4204   2.089   0.822  13.878 -0.5477  2.2274  3.6075
  278TMC3    C7 4205   2.138   1.052  14.007  0.2964  0.3031  0.5486
  278TMC3    C8 4206   2.235   0.696  13.699 -0.2110 -0.3223  0.7801
  278TMC3    O1 4207   2.173   1.099  14.112  0.0327 -0.1738 -0.3075
  278TMC3    O2 4208   2.328   0.619  13.686 -0.2297  0.0989  0.4406
  279MPD2     C 4209   1.359   1.355  17.665 -0.1124 -0.0526  0.6587
  279MPD2    C1 4210   1.366   1.466   0.044 -0.3593 -0.2920  1.1231
  279MPD2    C2 4211   1.375   1.590  17.678  0.5607 -0.0411  0.2715
  279MPD2    C3 4212   1.385   1.601  17.539  0.3303  0.0162  0.0795
  279MPD2    C4 4213   1.374   1.487  17.468  0.0403  0.5121  0.2920
  279MPD2    C5 4214   1.362   1.360  17.528  0.7934  1.0262 -0.6817
  279MPD2     H 4215   1.355   1.679   0.038 -0.6955  0.5341 -0.9956
  279MPD2    H1 4216   1.388   1.485  17.361  1.4929  1.7832  0.4636
  279MPD2    H2 4217   1.322   1.265   0.014 -0.6755  1.3638  2.8460
  279MPD2    H3 4218   1.351   1.270  17.469  0.7501 -0.2394  1.3058
  279MPD2     N 4219   1.399   1.722  17.468  0.1575 -0.0415 -0.0408
  279MPD2    H5 4220   1.412   1.722  17.367  0.1358  1.9662 -0.0463
  279MPD2    N1 4221   1.342   1.458   0.182  0.1632 -0.2024  0.0373
  279MPD2    H7 4222   1.332   1.368   0.227  2.7046 -0.4308  0.1269
  280TMC3    C1 4223   1.272   1.537   0.388  1.0915 -0.5811  0.3597
  280TMC3    C2 4224   1.185   1.433   0.375  0.2819 -0.4182  0.7355
  280TMC3    C3 4225   1.053   1.461   0.378  0.2261  0.0100 -0.4594
  280TMC3    C4 4226   1.235   1.660   0.437  0.4634  0.6401 -0.0460
  280TMC3    C5 4227   1.102   1.681   0.434  0.1013  0.4409 -0.2716
  280TMC3    C6 4228   1.011   1.588   0.406 -0.5207  0.0361  0.1208
  280TMC3     C 4229   1.361   1.560   0.272  0.0569  0.8205 -0.4840
  280TMC3     O 4230   1.393   1.677   0.245  0.5666  0.1250 -0.0632
  280TMC3     H 4231   1.217   1.330   0.372 -0.4918 -0.6292 -0.0583
  280TMC3    H1 4232   1.305   1.739   0.462  1.7825  0.6123 -3.5950
  280TMC3    H2 4233   0.905   1.609   0.401 -0.2047  1.5102 -0.1596
  280TMC3    C7 4234   1.050   1.820   0.447 -0.2464 -0.3355  0.1061
  280TMC3    C8 4235   0.972   1.377   0.287  0.1548 -0.2550 -0.2904
  280TMC3    O1 4236   1.114   1.896   0.515 -0.5651 -0.1110 -0.2193
  280TMC3    O2 4237   0.864   1.425   0.255 -0.3679 -0.0133  0.4901
  281TMC3    C1 4238   0.274   1.522  13.070  0.0520 -0.5642 -0.6630
  281TMC3    C2 4239   0.390   1.593  13.069 -0.0797  0.2170  0.5074
  281TMC3    C3 4240   0.499   1.530  13.017 -0.8342  0.2702  0.1541
  281TMC3    C4 4241   0.261   1.391  13.034 -0.7002  0.0845  0.0501
  281TMC3    C5 4242   0.369   1.333  12.975 -0.4772  0.2227 -0.1533
  281TMC3    C6 4243   0.488   1.401  12.966  0.4262 -0.2337 -0.3831
  281TMC3     C 4244   0.148   1.596  13.065  0.2930  0.4375  0.3644
  281TMC3     O 4245   0.045   1.531  13.084 -0.3190 -0.2290 -0.4847
  281TMC3     H 4246   0.399   1.691  13.115  0.5010  0.7665 -0.7425
  281TMC3    H1 4247   0.163   1.351  13.011 -0.4958  0.1475 -0.9355
  281TMC3    H2 4248   0.579   1.351  12.933  0.2397  0.1487 -1.4707
  281TMC3    C7 4249   0.363   1.186  12.950 -0.5708  0.1809 -0.3391
  281TMC3    C8 4250   0.569   1.622  12.937  0.2823 -0.1239 -1.3167
  281TMC3    O1 4251   0.443   1.141  12.866  0.1464  0.2243  0.0194
  281TMC3    O2 4252   0.672   1.672  12.985  0.2084 -0.1272 -0.0937
  282MPD2     C 4253   2.136   3.152  14.954  0.3377  0.0411 -0.2013
  282MPD2    C1 4254   2.028   3.235  14.961 -0.2931  0.2291 -0.8750
  282MPD2    C2 4255   1.941   3.245  14.853  1.1748 -0.0474  0.1321
  282MPD2    C3 4256   1.954   3.159  14.740 -0.1224 -0.5145  0.0066
  282MPD2    C4 4257   2.043   3.056  14.747  0.5025  0.7954  0.1101
  282MPD2    C5 4258   2.139   3.060  14.848  0.3962  0.4266  0.3326
  282MPD2     H 4259   1.857   3.312  14.867  2.6368  1.7364  0.2538
  282MPD2    H1 4260   2.054   3.002  14.654 -2.2618  0.7352 -0.2024
  282MPD2    H2 4261   2.216   3.144  15.027  0.5576 -0.2976 -0.4817
  282MPD2    H3 4262   2.224   2.995  14.832  1.1302  1.6161 -0.5319
  282MPD2     N 4263   1.870   3.190  14.637 -0.6395  0.4525  0.1932
  282MPD2    H5 4264   1.813   3.273  14.645 -0.0154  1.2201 -3.2296
  282MPD2    N1 4265   1.991   3.317  15.074 -0.0655 -0.0240 -0.1040
  282MPD2    H7 4266   1.909   3.377  15.079  0.2460  0.3176  0.9290
  283TMC3    C1 4267   1.993   3.387  15.298  0.2232 -0.1173 -0.3158
  283TMC3    C2 4268   2.061   3.455  15.393  0.0659  0.2230  0.1143
  283TMC3    C3 4269   1.985   3.556  15.456  0.4905 -0.6240  0.3802
  283TMC3    C4 4270   1.855   3.385  15.285  0.4974 -0.0925 -0.2998
  283TMC3    C5 4271   1.783   3.479  15.360  0.6154  0.1126  0.0863
  283TMC3    C6 4272   1.848   3.561  15.452  0.0071  0.0340  0.1974
  283TMC3     C 4273   2.066   3.326  15.189 -0.2085 -0.6459 -0.0154
  283TMC3     O 4274   2.181   3.288  15.212  0.4504 -0.2354 -0.0307
  283TMC3     H 4275   2.168   3.439  15.400  0.3729  2.4800  0.7489
  283TMC3    H1 4276   1.799   3.316  15.224 -0.5829  1.1307 -0.6865
  283TMC3    H2 4277   1.796   3.621  15.526  1.2655 -1.0540  1.9478
  283TMC3    C7 4278   1.633   3.465  15.379 -0.1547  0.3453 -0.1093
  283TMC3    C8 4279   2.055   3.650  15.535 -0.5080 -0.1408  0.1936
  283TMC3    O1 4280   1.591   3.492  15.491  0.0463  0.3477  0.7337
  283TMC3    O2 4281   2.163   3.602  15.569 -0.6868 -0.1584 -0.2268
  284MPD2     C 4282   0.571   2.610  11.931  0.4218  0.5857 -0.1189
  284MPD2    C1 4283   0.676   2.689  11.888 -0.0231  0.3623 -0.2609
  284MPD2    C2 4284   0.794   2.675  11.956  1.1578 -0.3340 -0.0277
  284MPD2    C3 4285   0.807   2.577  12.050 -0.7432  0.1757 -0.5048
  284MPD2    C4 4286   0.699   2.503  12.096 -0.0502 -0.0953  0.4450
  284MPD2    C5 4287   0.576   2.532  12.040  0.0000  0.1808 -0.2472
  284MPD2     H 4288   0.880   2.725  11.914  0.0844  0.8222 -0.8724
  284MPD2    H1 4289   0.708   2.423  12.169 -1.2571  0.1045  0.8125
  284MPD2    H2 4290   0.477   2.596  11.879  0.9133  1.5757 -1.2884
  284MPD2    H3 4291   0.484   2.481  12.067 -0.5800 -0.1091 -2.8526
  284MPD2     N 4292   0.931   2.531  12.107 -0.3677  0.0378  0.3071
  284MPD2    H5 4293   0.934   2.441  12.153  0.7463  0.6992  1.5399
  284MPD2    N1 4294   0.663   2.755  11.759  0.1146 -0.0420 -0.2846
  284MPD2    H7 4295   0.572   2.759  11.715  0.1320 -1.0355 -0.4110
  285TMC3    C1 4296   0.725   2.874  11.569 -0.3250  0.3324  0.7300
  285TMC3    C2 4297   0.711   2.754  11.493 -0.2504 -0.0959 -0.0209
  285TMC3    C3 4298   0.801   2.744  11.393  0.0495  0.0729 -0.4613
  285TMC3    C4 4299   0.812   2.971  11.528 -0.2139  0.2284 -0.0713
  285TMC3    C5 4300   0.885   2.951  11.422 -0.2820  0.5205  0.6439
  285TMC3    C6 4301   0.884   2.841  11.345  0.0518  0.9047 -0.3792
  285TMC3     C 4302   0.762   2.838  11.705  0.0217 -0.6695  0.4167
  285TMC3     O 4303   0.870   2.871  11.744  0.4291 -0.1457  0.3284
  285TMC3     H 4304   0.663   2.666  11.534  0.0366 -0.1419  0.2254
  285TMC3    H1 4305   0.810   3.067  11.579  0.4300 -0.8077  1.9413
  285TMC3    H2 4306   0.945   2.837  11.256 -0.4941 -1.3721 -0.6568
  285TMC3    C7 4307   0.969   3.063  11.379  0.3547 -0.0548  0.4714
  285TMC3    C8 4308   0.821   2.609  11.354  0.3253 -0.6323  0.1734
  285TMC3    O1 4309   0.947   3.178  11.418 -0.3605 -0.2961 -0.5522
  285TMC3    O2 4310   0.727   2.535  11.368  0.3667  0.2555  0.3312
  286MPD2     C 4311   0.205   0.557   1.517 -0.1905 -0.5341 -0.4127
  286MPD2    C1 4312   0.304   0.653   1.495 -0.8926 -0.0547  0.5400
  286MPD2    C2 4313   0.429   0.604   1.476  0.2175  0.0225 -0.2085
  286MPD2    C3 4314   0.454   0.473   1.468 -0.1787  0.2391  0.2041
  286MPD2    C4 4315   0.357   0.378   1.494 -0.6862  0.3633 -0.1423
  286MPD2    C5 4316   0.227   0.418   1.524  0.2669  0.0235  0.3467
  286MPD2     H 4317   0.507   0.676   1.454  1.4397 -1.8740 -2.0656
  286MPD2    H1 4318   0.380   0.273   1.504  1.4229  0.9747  1.2349
  286MPD2    H2 4319   0.106   0.586   1.551  0.2835  1.3417 -0.6150
  286MPD2    H3 4320   0.153   0.343   1.549  0.0656  0.4468  0.9916
  286MPD2     N 4321   0.586   0.421   1.442  0.3167  0.2170  0.3940
  286MPD2    H5 4322   0.588   0.324   1.411  0.0098  0.3157  0.0655
  286MPD2    N1 4323   0.278   0.789   1.490  0.0635 -0.4913  0.3964
  286MPD2    H7 4324   0.352   0.854   1.465  1.0035 -1.7712 -0.1392
  287TMC3    C1 4325   0.810   0.450   1.372 -0.3646 -0.5400  0.2452
  287TMC3    C2 4326   0.771   0.419   1.240 -0.2689 -0.2484 -0.0620
  287TMC3    C3 4327   0.851   0.470   1.142 -1.1695  0.8866  0.5113
  287TMC3    C4 4328   0.925   0.515   1.404  0.2746 -0.2793  0.1005
  287TMC3    C5 4329   1.005   0.558   1.297 -0.2457 -0.4821  0.7016
  287TMC3    C6 4330   0.960   0.556   1.166  0.0652 -0.1586 -0.0816
  287TMC3     C 4331   0.705   0.484   1.466  0.1963  0.2673 -0.6214
  287TMC3     O 4332   0.727   0.583   1.538 -0.0615 -0.6415 -0.1113
  287TMC3     H 4333   0.674   0.379   1.213 -1.2067  2.2771 -0.3941
  287TMC3    H1 4334   0.965   0.515   1.504  1.5540 -0.5485 -0.4136
  287TMC3    H2 4335   1.010   0.609   1.086  1.4388 -2.3575 -0.6681
  287TMC3    C7 4336   1.148   0.563   1.326 -1.1185 -0.5235 -0.4813
  287TMC3    C8 4337   0.798   0.465   1.010  0.2246 -0.5774  0.0117
  287TMC3    O1 4338   1.187   0.490   1.414  0.2183  0.5148 -0.5221
  287TMC3    O2 4339   0.724   0.373   0.986 -0.1984 -0.6380  0.5517
  288TMC3    C1 4340   2.281   0.809  14.335  0.2788 -0.2721 -0.2064
  288TMC3    C2 4341   2.258   0.724  14.440 -0.6544  0.1716  0.1940
  288TMC3    C3 4342   2.275   0.759  14.568 -0.5026 -0.2347  0.2462
  288TMC3    C4 4343   2.308   0.942  14.366 -0.2467  0.3130  0.3251
  288TMC3    C5 4344   2.303   0.979  14.502  0.1965 -0.6470  1.1055
  288TMC3    C6 4345   2.282   0.893  14.603  0.7731 -0.3886 -0.1558
  288TMC3     C 4346   2.340   0.755  14.216  0.3060 -0.2664 -0.0560
  288TMC3     O 4347   2.293   0.661  14.148  0.1019  0.7115 -0.7385
  288TMC3     H 4348   2.244   0.617  14.426 -0.4410  0.0693  0.7574
  288TMC3    H1 4349   2.334   1.013  14.289  1.6812 -1.1643 -0.3819
  288TMC3    H2 4350   2.275   0.935  14.703  0.6570 -0.2538 -0.2220
  288TMC3    C7 4351   2.307   1.119  14.535 -0.1126  0.2014 -0.3035
  288TMC3    C8 4352   2.229   0.670  14.671 -0.3264 -0.2759  0.4727
  288TMC3    O1 4353   2.320   1.150  14.654 -0.4934  0.1276  0.4863
  288TMC3    O2 4354   2.262   0.695  14.785 -0.4857  0.5939  0.3008
  289MPD2     C 4355   2.903   0.153  14.395  0.5289  0.4944  0.9978
  289MPD2    C1 4356   2.854   0.260  14.321  0.0054  0.1991  0.2630
  289MPD2    C2 4357   2.743   0.250  14.240  0.3336  0.2250 -0.6028
  289MPD2    C3 4358   2.669   0.133  14.236  0.4332  0.2359  0.2060
  289MPD2    C4 4359   2.712   0.025  14.313 -0.4604  0.2842 -0.6052
  289MPD2    C5 4360   2.824   0.039  14.390  0.7182  0.3731 -0.1863
  289MPD2     H 4361   2.708   0.340  14.190  0.3655  0.7024  0.2227
  289MPD2    H1 4362   2.649   4.662  14.324 -1.6371  1.4668  2.0088
  289MPD2    H2 4363   2.993   0.163  14.454  1.3086  0.0900 -0.1044
  289MPD2    H3 4364   2.849   4.685  14.460 -1.6675 -2.5285 -2.5824
  289MPD2     N 4365   2.543   0.127  14.178  0.1046  0.1257  0.7802
  289MPD2    H5 4366   2.503   0.035  14.161  0.7079 -0.0330  0.1937
  289MPD2    N1 4367   2.927   0.388  14.342 -0.3533  0.0873  0.1563
  289MPD2    H7 4368   2.994   0.391  14.418 -0.1941 -2.8894  0.1539
  290TMC3    C1 4369   2.362   0.220  14.048  0.8647  0.6049  0.6608
  290TMC3    C2 4370   2.284   0.333  14.025  0.0660 -0.3039 -0.5576
  290TMC3    C3 4371   2.203   0.324  13.917 -0.0408 -0.0393 -0.4942
  290TMC3    C4 4372   2.364   0.109  13.964 -0.1436  0.3538  0.1043
  290TMC3    C5 4373   2.292   0.122  13.848  0.5079  0.3259  0.2637
  290TMC3    C6 4374   2.211   0.228  13.822  0.1564  0.1089  0.6885
  290TMC3     C 4375   2.471   0.234  14.139 -0.3961  0.2492  0.0571
  290TMC3     O 4376   2.467   0.344  14.194 -0.1525  0.1598 -0.0308
  290TMC3     H 4377   2.284   0.422  14.086  0.3051 -0.1245 -0.8210
  290TMC3    H1 4378   2.445   0.037  13.968 -1.3116 -1.0141 -0.8095
  290TMC3    H2 4379   2.153   0.240  13.731 -0.5018 -0.0527  1.0946
  290TMC3    C7 4380   2.288   0.012  13.763  0.3281 -0.4661 -0.9542
  290TMC3    C8 4381   2.088   0.421  13.899  0.0541 -0.0683 -0.6908
  290TMC3    O1 4382   2.265   0.025  13.647  0.0950 -0.4314 -0.3526
  290TMC3    O2 4383   2.002   0.385  13.820  0.0440 -0.1003 -0.6332
  291MPD2     C 4384   1.086   0.569   0.065 -0.2341  0.3493  0.0505
  291MPD2    C1 4385   1.181   0.472   0.078 -0.1429 -0.3302 -0.3340
  291MPD2    C2 4386   1.310   0.506   0.090 -0.6476 -1.0991  0.2348
  291MPD2    C3 4387   1.350   0.640   0.087 -0.3665 -0.2870  0.3652
  291MPD2    C4 4388   1.252   0.736   0.074 -0.6561  0.3943 -0.1450
  291MPD2    C5 4389   1.124   0.700   0.058  0.1035 -0.0677 -0.3235
  291MPD2     H 4390   1.379   0.422   0.095 -0.0007 -0.4348  2.2347
  291MPD2    H1 4391   1.278   0.841   0.067  3.6860 -0.7527 -1.1326
  291MPD2    H2 4392   0.980   0.549   0.070 -0.3762  1.5861  1.8354
  291MPD2    H3 4393   1.040   0.768   0.053  1.2680  1.3047 -1.2401
  291MPD2     N 4394   1.487   0.684   0.098 -0.0023 -0.6480  0.4551
  291MPD2    H5 4395   1.496   0.785   0.096  1.1819 -0.7433  1.2111
  291MPD2    N1 4396   1.149   0.333   0.085  0.8081  0.1455  0.1238
  291MPD2    H7 4397   1.220   0.261   0.077  0.2033 -0.5667  1.1674
  292TMC3    C1 4398   1.022   0.144   0.097 -0.6057 -0.7806 -0.1392
  292TMC3    C2 4399   0.945   0.086   0.190  0.8002 -0.1197 -0.4939
  292TMC3    C3 4400   0.908   4.679   0.175 -0.3358 -0.1395 -0.8588
  292TMC3    C4 4401   1.055   0.081  17.681 -0.3427  0.2962 -0.2198
  292TMC3    C5 4402   1.031   4.668  17.679 -0.0401 -0.8332 -0.1135
  292TMC3    C6 4403   0.965   4.606   0.077  0.7667 -0.0161  0.3501
  292TMC3     C 4404   1.016   0.286   0.084 -0.4168 -0.1035 -0.5687
  292TMC3     O 4405   0.913   0.347   0.115 -0.2588  0.1933  0.8696
  292TMC3     H 4406   0.929   0.140   0.283  2.1730 -0.2454 -0.1932
  292TMC3    H1 4407   1.113   0.134  17.606  0.9307 -2.4928 -1.2126
  292TMC3    H2 4408   0.958   4.499   0.064 -1.1768  0.4789 -2.6960
  292TMC3    C7 4409   1.081   4.585  17.566 -0.8431  0.6804 -0.1241
  292TMC3    C8 4410   0.895   4.607   0.299 -0.0894  0.4550  0.5890
  292TMC3    O1 4411   1.202   4.551  17.568  0.1308 -0.9891  0.6812
  292TMC3    O2 4412   0.947   4.658   0.397 -0.0818 -0.1904  0.0384
  293MPD2     C 4413   3.210   1.906  12.162 -0.2398  0.9018 -0.0440
  293MPD2    C1 4414   3.170   1.823  12.262 -0.1069 -0.4565 -0.2869
  293MPD2    C2 4415   3.244   1.809  12.383  0.0761  0.1311 -0.1943
  293MPD2    C3 4416   3.358   1.883  12.397 -0.1812 -0.4488  0.6827
  293MPD2    C4 4417   3.404   1.967  12.291 -0.1916  0.2407 -0.4843
  293MPD2    C5 4418   3.324   1.980  12.178  0.0331 -0.1742 -0.0368
  293MPD2     H 4419   3.210   1.743  12.463 -0.5194 -0.4876 -0.9562
  293MPD2    H1 4420   3.497   2.022  12.295 -1.2430  2.0675 -1.3502
  293MPD2    H2 4421   3.158   1.931  12.070 -0.8338  0.7150  0.2398
  293MPD2    H3 4422   3.365   2.038  12.096 -0.0333  0.0431  0.0853
  293MPD2     N 4423   3.424   1.857  12.521 -0.2449  0.1373  0.1271
  293MPD2    H5 4424   3.384   1.781  12.576  0.8692 -0.6984 -0.2393
  293MPD2    N1 4425   3.055   1.746  12.226  0.6977  0.2467  0.0622
  293MPD2    H7 4426   3.018   1.753  12.132  0.4999 -1.2410  0.0248
  294TMC3    C1 4427   2.909   1.558  12.237  0.4311 -0.3345  0.5711
  294TMC3    C2 4428   2.845   1.463  12.313 -0.2169 -0.5480 -0.1114
  294TMC3    C3 4429   2.801   1.348  12.254  0.0338  0.0986  0.7352
  294TMC3    C4 4430   2.916   1.538  12.103 -0.0634  0.3272 -0.2701
  294TMC3    C5 4431   2.887   1.414  12.050  0.4483 -0.8291  0.4474
  294TMC3    C6 4432   2.824   1.315  12.123  0.8146 -0.6464 -0.2318
  294TMC3     C 4433   2.986   1.657  12.307 -0.6043  0.6968  0.5842
  294TMC3     O 4434   2.998   1.643  12.427 -0.0763 -0.4692  0.6820
  294TMC3     H 4435   2.821   1.478  12.417  0.9245  0.2457  0.0302
  294TMC3    H1 4436   2.978   1.608  12.048  0.8428 -1.5057 -1.5544
  294TMC3    H2 4437   2.808   1.217  12.081 -0.1303  0.2760 -2.0108
  294TMC3    C7 4438   2.937   1.392  11.916  0.0002 -0.0046  0.3165
  294TMC3    C8 4439   2.749   1.246  12.335  0.2930  0.6835  0.3836
  294TMC3    O1 4440   3.005   1.484  11.873 -0.2300  0.6440  0.1097
  294TMC3    O2 4441   2.775   1.263  12.451  0.2785 -0.6418 -0.2678
  295MPD2     C 4442   4.203   0.245   0.207 -0.3964 -0.8290  0.3294
  295MPD2    C1 4443   4.077   0.300   0.203  0.4277 -0.4951  0.5187
  295MPD2    C2 4444   3.995   0.267   0.308 -0.6573 -0.2746  0.0104
  295MPD2    C3 4445   4.020   0.184   0.405  0.1665  0.1509 -1.2110
  295MPD2    C4 4446   4.139   0.118   0.398 -0.0451  0.4032  1.2802
  295MPD2    C5 4447   4.229   0.150   0.300  0.2565  0.2218  0.1428
  295MPD2     H 4448   3.893   0.304   0.307 -0.2705  0.8168  1.0802
  295MPD2    H1 4449   4.173   0.050   0.476  1.2665 -1.0985 -0.6075
  295MPD2    H2 4450   4.285   0.264   0.138 -0.7246 -1.6246 -0.2742
  295MPD2    H3 4451   4.322   0.095   0.305 -0.6676 -1.5419 -1.8334
  295MPD2     N 4452   3.922   0.141   0.504 -0.4772 -0.0811 -1.0361
  295MPD2    H5 4453   3.946   0.056   0.555 -0.2981 -0.0301 -1.0331
  295MPD2    N1 4454   4.029   0.385   0.099  0.2933  0.7901 -0.0488
  295MPD2    H7 4455   3.935   0.420   0.115  0.2472  0.4717  0.3958
  296TMC3    C1 4456   3.746   0.165   0.658  0.0734 -0.5003  0.2498
  296TMC3    C2 4457   3.616   0.191   0.677 -0.0976 -0.6000 -0.4941
  296TMC3    C3 4458   3.555   0.137   0.791 -0.4516  0.1943 -0.3276
  296TMC3    C4 4459   3.811   0.077   0.736 -0.3656 -0.5859 -0.5524
  296TMC3    C5 4460   3.750   0.017   0.838  0.0036  0.3859  0.3798
  296TMC3    C6 4461   3.620   0.050   0.873 -0.3819 -0.6063 -0.3696
  296TMC3     C 4462   3.811   0.215   0.534 -0.4754 -0.5707  0.6430
  296TMC3     O 4463   3.750   0.309   0.480  0.3355 -0.1312  0.2611
  296TMC3     H 4464   3.565   0.267   0.618  0.4600  0.4174  0.3209
  296TMC3    H1 4465   3.914   0.047   0.719 -1.1053 -2.4672 -1.8181
  296TMC3    H2 4466   3.565   4.718   0.947  2.3791 -0.2823  1.9178
  296TMC3    C7 4467   3.801   4.610   0.889 -0.2011  0.1178  0.3171
  296TMC3    C8 4468   3.444   0.223   0.842 -0.1333  0.2438 -0.1372
  296TMC3    O1 4469   3.884   4.551   0.822  0.3126 -0.6422 -0.1021
  296TMC3    O2 4470   3.391   0.298   0.760 -0.3243 -0.3858 -0.6610
  297MPD2     C 4471   1.255   2.549  16.101  0.2973  0.0950 -0.2931
  297MPD2    C1 4472   1.255   2.524  15.964  0.1461  0.5439 -0.4035
  297MPD2    C2 4473   1.309   2.622  15.880  0.2135 -0.4283  0.2623
  297MPD2    C3 4474   1.373   2.733  15.929  0.6688 -0.3309 -0.1436
  297MPD2    C4 4475   1.371   2.751  16.060 -0.4475 -0.8818  0.9792
  297MPD2    C5 4476   1.314   2.658  16.145 -0.4731  0.2635  0.0187
  297MPD2     H 4477   1.317   2.611  15.772  1.4489  2.9334  0.0257
  297MPD2    H1 4478   1.420   2.838  16.102 -0.1198 -0.9479  0.7323
  297MPD2    H2 4479   1.197   2.486  16.168 -0.4681  2.2528  1.0526
  297MPD2    H3 4480   1.310   2.682  16.251  0.8114 -0.0086  0.1180
  297MPD2     N 4481   1.455   2.819  15.848  0.5851  0.8320  0.7565
  297MPD2    H5 4482   1.497   2.902  15.888  1.0466  1.2410 -0.5802
  297MPD2    N1 4483   1.200   2.407  15.910 -0.2545 -0.4495 -0.2540
  297MPD2    H7 4484   1.171   2.413  15.813  1.4362  1.6650 -0.6048
  298TMC3    C1 4485   1.073   2.207  15.901  0.0158  0.0187  0.3716
  298TMC3    C2 4486   1.068   2.225  15.766 -0.4703 -0.3385 -0.4497
  298TMC3    C3 4487   0.956   2.188  15.697 -0.4009 -0.3251 -0.0813
  298TMC3    C4 4488   0.978   2.137  15.972 -0.7488 -1.2533  0.2731
  298TMC3    C5 4489   0.865   2.099  15.898  0.5817  0.7023  0.2824
  298TMC3    C6 4490   0.852   2.125  15.762 -0.3142 -0.9883 -0.0273
  298TMC3     C 4491   1.150   2.300  15.982 -0.5079 -0.7277 -0.0767
  298TMC3     O 4492   1.169   2.269  16.098  0.4072  0.0410  0.0338
  298TMC3     H 4493   1.158   2.264  15.719 -0.1031  1.4490  1.7572
  298TMC3    H1 4494   0.997   2.108  16.075  1.3108 -0.7752  0.0267
  298TMC3    H2 4495   0.765   2.091  15.707  0.1764  0.7486 -1.8713
  298TMC3    C7 4496   0.743   2.094  15.976 -0.1588 -0.5636  0.0683
  298TMC3    C8 4497   0.951   2.192  15.553  1.0512  0.3183  0.0396
  298TMC3    O1 4498   0.754   2.112  16.096 -0.1298 -0.4034  0.4891
  298TMC3    O2 4499   1.061   2.185  15.492 -0.3119 -0.0378  0.0111
  299MPD2     C 4500   1.901   1.584  11.042  0.6229 -0.0927 -0.6741
  299MPD2    C1 4501   1.926   1.583  10.909 -0.8009  0.0371 -0.1406
  299MPD2    C2 4502   1.825   1.541  10.817 -0.5761 -0.1479 -0.4644
  299MPD2    C3 4503   1.703   1.496  10.861 -0.0113  0.5447  0.3705
  299MPD2    C4 4504   1.681   1.487  11.000 -0.1480  0.4970 -0.1210
  299MPD2    C5 4505   1.780   1.524  11.086 -0.3608  0.4501 -0.0365
  299MPD2     H 4506   1.838   1.539  10.709  0.5323 -1.9717 -0.2884
  299MPD2    H1 4507   1.588   1.444  11.037  0.2842 -1.0252 -0.7879
  299MPD2    H2 4508   1.969   1.628  11.113  0.3956 -2.7004  1.1479
  299MPD2    H3 4509   1.753   1.525  11.191 -2.6610  0.2691 -0.6199
  299MPD2     N 4510   1.591   1.455  10.783  0.0226 -0.1092 -0.7625
  299MPD2    H5 4511   1.503   1.439  10.831  0.5007 -2.2541 -0.6183
  299MPD2    N1 4512   2.036   1.655  10.857 -0.6396 -0.3798  0.9826
  299MPD2    H7 4513   2.093   1.701  10.928 -1.1734  3.3578 -0.9605
  300TMC3    C1 4514   1.462   1.478  10.583 -0.3712 -0.3857  1.1632
  300TMC3    C2 4515   1.461   1.541  10.462  0.0759 -0.1317  1.0865
  300TMC3    C3 4516   1.349   1.534  10.383 -0.0898 -0.6302  0.8034
  300TMC3    C4 4517   1.373   1.378  10.612  0.1009 -0.2061 -0.2331
  300TMC3    C5 4518   1.264   1.370  10.530  0.1300 -0.1359 -0.7346
  300TMC3    C6 4519   1.248   1.443  10.415 -0.4094 -0.1028  0.2367
  300TMC3     C 4520   1.594   1.472  10.642 -0.2472 -0.2970 -0.5393
  300TMC3     O 4521   1.683   1.507  10.567  0.0860  0.4245  0.2639
  300TMC3     H 4522   1.540   1.610  10.434 -0.5152 -0.5245 -1.6146
  300TMC3    H1 4523   1.381   1.314  10.700  0.3004 -0.0869 -0.1640
  300TMC3    H2 4524   1.147   1.440  10.375 -0.3882  0.1233  0.1659
  300TMC3    C7 4525   1.150   1.299  10.592  0.0188  0.6519  0.0708
  300TMC3    C8 4526   1.317   1.641  10.298  0.6728 -0.0373  0.3259
  300TMC3    O1 4527   1.111   1.201  10.530 -0.3559  0.0458 -0.1708
  300TMC3    O2 4528   1.375   1.746  10.318 -0.4317  0.0574  0.4015
  301MPD2     C 4529   4.394   3.253   0.608 -0.1413  0.6178 -0.2833
  301MPD2    C1 4530   4.275   3.216   0.556  0.1476  0.1223  0.9899
  301MPD2    C2 4531   4.233   3.086   0.577 -0.2032 -0.4016  0.0115
  301MPD2    C3 4532   4.312   2.989   0.643  0.5062  0.3434  0.8178
  301MPD2    C4 4533   4.432   3.036   0.695 -0.1078  0.0578 -0.3486
  301MPD2    C5 4534   4.467   3.163   0.678 -0.9773 -0.0902  0.1770
  301MPD2     H 4535   4.140   3.050   0.535 -0.7380  0.3806  0.5284
  301MPD2    H1 4536   4.506   2.975   0.746  0.3198  2.7038  2.1968
  301MPD2    H2 4537   4.436   3.352   0.611 -3.2662  1.9324  0.2359
  301MPD2    H3 4538   4.561   3.198   0.720  0.2598 -3.6878  0.4642
  301MPD2     N 4539   4.273   2.846   0.659  0.0356 -0.3033 -0.8534
  301MPD2    H5 4540   4.315   2.789   0.732  1.1778 -0.8365 -1.9271
  301MPD2    N1 4541   4.185   3.295   0.477  0.2574  0.0134  0.5559
  301MPD2    H7 4542   4.108   3.237   0.446  0.7407 -1.0852  1.3988
  302TMC3    C1 4543   4.157   2.654   0.628  0.4205  0.0658 -0.5738
  302TMC3    C2 4544   4.247   2.583   0.704 -0.3418  0.1695 -0.0058
  302TMC3    C3 4545   4.215   2.470   0.771 -0.8645 -0.4888  0.6988
  302TMC3    C4 4546   4.029   2.614   0.637  0.3411  0.7619  0.3707
  302TMC3    C5 4547   3.994   2.492   0.691  0.5968 -0.1511 -0.5073
  302TMC3    C6 4548   4.083   2.423   0.764 -0.6210  0.8769  0.0624
  302TMC3     C 4549   4.176   2.790   0.584 -0.0822 -0.2405  0.2777
  302TMC3     O 4550   4.102   2.834   0.496  0.6040 -0.0103  0.1326
  302TMC3     H 4551   4.347   2.624   0.707 -0.5258  0.5890  0.3731
  302TMC3    H1 4552   3.948   2.678   0.602 -1.9938 -2.7385 -0.5956
  302TMC3    H2 4553   4.047   2.331   0.808  1.0790 -0.2864 -0.9881
  302TMC3    C7 4554   3.853   2.465   0.713 -0.7457 -0.2784  0.3627
  302TMC3    C8 4555   4.315   2.371   0.789 -0.0428  0.5545  0.1956
  302TMC3    O1 4556   3.819   2.417   0.821 -0.0414  0.1654  0.2104
  302TMC3    O2 4557   4.417   2.382   0.721 -0.5309  0.2970  0.0398
  303MPD2     C 4558   3.916   1.280  10.897  0.6496  0.6073 -0.1788
  303MPD2    C1 4559   3.861   1.221  10.784 -0.4051  0.5086  0.1906
  303MPD2    C2 4560   3.902   1.265  10.657  1.1485  0.0881 -0.1062
  303MPD2    C3 4561   3.991   1.374  10.645 -0.1860  0.8127 -0.9315
  303MPD2    C4 4562   4.028   1.439  10.762  0.2103  0.1518  0.0181
  303MPD2    C5 4563   4.000   1.381  10.889 -0.2570  0.4793  0.1991
  303MPD2     H 4564   3.863   1.219  10.567 -0.1921  1.1642 -0.0635
  303MPD2    H1 4565   4.086   1.531  10.764  0.8825 -0.3008  1.3120
  303MPD2    H2 4566   3.888   1.253  10.998 -0.2210  0.0604 -0.5545
  303MPD2    H3 4567   4.042   1.421  10.981 -1.2349 -1.1139  1.3344
  303MPD2     N 4568   4.047   1.422  10.526  0.4110  0.3644  0.2927
  303MPD2    H5 4569   4.129   1.479  10.537  1.0172  0.0521 -2.8298
  303MPD2    N1 4570   3.771   1.115  10.801 -0.3575  0.6013  0.5215
  303MPD2    H7 4571   3.737   1.096  10.894 -0.5539 -1.5646 -0.0055
  304TMC3    C1 4572   3.644   0.933  10.755 -0.2290  0.6110  0.9607
  304TMC3    C2 4573   3.525   1.013  10.764 -0.3184 -0.0486  1.0482
  304TMC3    C3 4574   3.406   0.953  10.741  0.3030 -0.0359 -0.2983
  304TMC3    C4 4575   3.635   0.807  10.696 -0.1701  0.6805 -0.3063
  304TMC3    C5 4576   3.512   0.745  10.688 -0.4697  0.3546 -0.0461
  304TMC3    C6 4577   3.400   0.819  10.719 -0.3014 -0.4624  0.0247
  304TMC3     C 4578   3.737   1.022  10.702 -0.1458  0.4459 -0.3374
  304TMC3     O 4579   3.791   1.005  10.596  0.3337  0.0753  0.2008
  304TMC3     H 4580   3.534   1.121  10.760 -1.9149  0.1315  2.5922
  304TMC3    H1 4581   3.728   0.753  10.683  0.9122  2.4396  0.1338
  304TMC3    H2 4582   3.305   0.775  10.692 -0.4214  0.0823 -0.4439
  304TMC3    C7 4583   3.496   0.661  10.570  0.0194 -0.8715  0.6898
  304TMC3    C8 4584   3.327   1.025  10.644 -0.0029 -0.9262  0.0564
  304TMC3    O1 4585   3.598   0.588  10.549  0.2676 -0.0107  0.1592
  304TMC3    O2 4586   3.277   0.955  10.554  0.3274 -0.3253 -0.0064
  305MPD2     C 4587   2.254   3.616  14.066 -0.1172 -0.5188 -0.0660
  305MPD2    C1 4588   2.166   3.509  14.076  0.0651 -0.1452  0.3542
  305MPD2    C2 4589   2.088   3.466  13.966 -0.7100  0.2095  0.5794
  305MPD2    C3 4590   2.113   3.536  13.849  0.2720  0.3627 -0.4566
  305MPD2    C4 4591   2.198   3.641  13.834  0.2229 -0.4672 -0.2657
  305MPD2    C5 4592   2.263   3.684  13.945  0.4491  0.3190 -0.7447
  305MPD2     H 4593   2.021   3.381  13.969  0.0314 -0.3604  0.9485
  305MPD2    H1 4594   2.205   3.684  13.735 -1.0476 -0.2912 -0.2736
  305MPD2    H2 4595   2.304   3.655  14.153 -0.3191 -0.8838  0.2164
  305MPD2    H3 4596   2.312   3.780  13.935  0.4464  0.3268 -0.6822
  305MPD2     N 4597   2.054   3.488  13.727  0.1894  0.6872  0.1386
  305MPD2    H5 4598   2.089   3.536  13.644  1.5232 -0.1117  0.2442
  305MPD2    N1 4599   2.155   3.454  14.203 -0.4582 -0.5717  0.1533
  305MPD2    H7 4600   2.187   3.514  14.277 -1.4828 -0.6722  0.6849
  306TMC3    C1 4601   2.092   3.338  14.383  0.1276 -0.4758 -0.1562
  306TMC3    C2 4602   2.193   3.248  14.414 -0.6372 -0.2734  0.0878
  306TMC3    C3 4603   2.249   3.268  14.538 -0.7531  0.3160 -0.1941
  306TMC3    C4 4604   2.052   3.440  14.460 -0.4618 -0.2269  0.4233
  306TMC3    C5 4605   2.112   3.451  14.583  0.6493  0.1375 -0.1499
  306TMC3    C6 4606   2.213   3.368  14.627 -0.0475 -0.0406  0.2928
  306TMC3     C 4607   2.081   3.350  14.239 -0.0559 -0.4888  1.0046
  306TMC3     O 4608   2.049   3.249  14.176 -0.3580 -0.1035  0.0807
  306TMC3     H 4609   2.228   3.174  14.342 -0.8697 -0.0442 -0.2594
  306TMC3    H1 4610   1.973   3.508  14.431  0.2467  0.0943 -0.7537
  306TMC3    H2 4611   2.238   3.356  14.732  0.3522  0.1162  0.2152
  306TMC3    C7 4612   2.041   3.513  14.700  0.5713 -0.4484  0.2688
  306TMC3    C8 4613   2.369   3.180  14.564 -0.0790  0.2682 -0.1621
  306TMC3    O1 4614   1.924   3.546  14.682  0.0844 -0.0692  0.5542
  306TMC3    O2 4615   2.374   3.082  14.493  0.1610 -0.3950 -0.2511
  307MPD2     C 4616   0.166   1.101   0.057 -0.1575  0.4205 -0.4284
  307MPD2    C1 4617   0.053   1.175   0.044  0.0178  0.4998  0.0004
  307MPD2    C2 4618   4.718   1.217   0.158  0.4077 -0.3216 -0.3984
  307MPD2    C3 4619   0.058   1.187   0.278 -0.2913 -0.4833  0.0538
  307MPD2    C4 4620   0.170   1.115   0.286  0.5279 -0.3444 -0.3474
  307MPD2    C5 4621   0.231   1.072   0.170  0.4826  0.2400 -0.2570
  307MPD2     H 4622   4.630   1.280   0.154  1.3949  1.2404  2.5599
  307MPD2    H1 4623   0.210   1.085   0.383  0.2246 -0.7768 -0.3555
  307MPD2    H2 4624   0.221   1.085  17.665  1.5599 -1.2211  0.9009
  307MPD2    H3 4625   0.324   1.017   0.177  0.2989  0.0110  0.3385
  307MPD2     N 4626   4.719   1.242   0.391 -0.1951  0.0822 -0.0324
  307MPD2    H5 4627   4.647   1.309   0.369 -0.3180 -0.3952 -1.0937
  307MPD2    N1 4628   0.008   1.226  17.616 -0.5071  0.5307 -0.2118
  307MPD2    H7 4629   4.654   1.291  17.619  0.6416  1.8944  0.0374
  308TMC3    C1 4630   4.431   1.298   0.566  0.2253  0.3497 -0.7643
  308TMC3    C2 4631   4.427   1.433   0.595 -0.5290  0.0019  0.0702
  308TMC3    C3 4632   4.543   1.493   0.620 -0.7831  0.2971 -0.5737
  308TMC3    C4 4633   4.550   1.230   0.584 -0.5526 -0.1896  0.7545
  308TMC3    C5 4634   4.673   1.287   0.611 -0.9320  0.1142  0.1917
  308TMC3    C6 4635   4.665   1.422   0.618  0.2218 -0.4338  0.7537
  308TMC3     C 4636   4.310   1.216   0.580  0.1211  0.3706 -0.2776
  308TMC3     O 4637   4.317   1.101   0.621 -0.3498 -0.5397  0.2543
  308TMC3     H 4638   4.337   1.492   0.611 -0.8133  0.3004 -2.5819
  308TMC3    H1 4639   4.564   1.124   0.565  1.2852 -0.0956  1.6055
  308TMC3    H2 4640   0.030   1.476   0.646 -0.5547  0.3398  1.7860
  308TMC3    C7 4641   0.043   1.232   0.521  0.2113  0.8681  0.3053
  308TMC3    C8 4642   4.558   1.640   0.618  0.3965 -0.3719 -0.1242
  308TMC3    O1 4643   0.140   1.177   0.563  0.3951  0.1977  0.0046
  308TMC3    O2 4644   4.663   1.681   0.655  0.2675  0.1137  0.0095
  309MPD2     C 4645   3.363   1.819  16.317  0.1273 -0.1604  0.0012
  309MPD2    C1 4646   3.463   1.823  16.411  0.1658 -0.4737 -0.0844
  309MPD2    C2 4647   3.424   1.840  16.537 -0.1549 -0.2480 -0.4072
  309MPD2    C3 4648   3.294   1.851  16.575  0.4377  0.3085  0.1228
  309MPD2    C4 4649   3.198   1.852  16.481 -0.2776  0.9209  0.5495
  309MPD2    C5 4650   3.234   1.832  16.355  0.4474 -0.4388  0.6421
  309MPD2     H 4651   3.500   1.833  16.615  0.3329 -0.1083 -0.8683
  309MPD2    H1 4652   3.092   1.856  16.503 -0.6370 -0.4509 -0.9324
  309MPD2    H2 4653   3.377   1.799  16.211 -2.2689  1.1762 -0.5660
  309MPD2    H3 4654   3.162   1.829  16.273  0.9185  2.4077  0.1264
  309MPD2     N 4655   3.246   1.863  16.707 -0.3241 -0.6579  1.0303
  309MPD2    H5 4656   3.146   1.868  16.721 -0.4685  1.4570 -0.6617
  309MPD2    N1 4657   3.599   1.808  16.380  0.9067 -0.0702 -0.4130
  309MPD2    H7 4658   3.659   1.819  16.461  0.4942  0.7687 -0.2256
  310TMC3    C1 4659   3.792   1.873  16.265  0.7238 -0.9521 -0.5802
  310TMC3    C2 4660   3.839   1.949  16.167 -0.0725 -0.0776  0.3233
  310TMC3    C3 4661   3.966   1.982  16.170 -0.7906 -0.9096 -0.6929
  310TMC3    C4 4662   3.870   1.833  16.369  0.6972  0.6076 -0.5079
  310TMC3    C5 4663   4.000   1.874  16.373  0.2573  0.1671 -0.1400
  310TMC3    C6 4664   4.052   1.948  16.269  0.2860  0.2169  0.0315
  310TMC3     C 4665   3.656   1.834  16.257 -0.3468 -0.0933 -0.8381
  310TMC3     O 4666   3.604   1.820  16.145  0.3163 -0.3004 -0.0515
  310TMC3     H 4667   3.778   1.982  16.084  2.9826  0.4484 -1.7426
  310TMC3    H1 4668   3.838   1.771  16.451  0.1513  1.4370 -0.0882
  310TMC3    H2 4669   4.159   1.963  16.257  0.3287 -0.5777 -0.5957
  310TMC3    C7 4670   4.095   1.795  16.458 -0.3018 -0.0320  0.3162
  310TMC3    C8 4671   4.005   2.082  16.069  0.1864 -0.4196 -0.1597
  310TMC3    O1 4672   4.059   1.679  16.482  0.2438 -0.1028 -0.5809
  310TMC3    O2 4673   3.943   2.083  15.964  0.0599  0.2210 -0.2290
  311MPD2     C 4674   1.104   2.943  12.769 -0.3695  0.0760  0.2062
  311MPD2    C1 4675   1.049   3.066  12.783  0.0414 -0.2662 -0.6470
  311MPD2    C2 4676   0.906   3.076  12.775 -0.6813  0.4214  0.2694
  311MPD2    C3 4677   0.829   2.963  12.756 -0.3230  0.7178 -0.1263
  311MPD2    C4 4678   0.891   2.836  12.755 -0.7173  0.3120 -0.7281
  311MPD2    C5 4679   1.029   2.829  12.754 -0.4040 -0.3469 -0.7821
  311MPD2     H 4680   0.866   3.174  12.797  0.6562  0.8270  0.8680
  311MPD2    H1 4681   0.842   2.739  12.759 -1.7419  0.9490  2.4717
  311MPD2    H2 4682   1.210   2.923  12.768 -0.0844  1.3668  4.3965
  311MPD2    H3 4683   1.067   2.727  12.751  0.4676 -0.0110 -0.9519
  311MPD2     N 4684   0.691   2.978  12.766  1.0351  0.0582  0.1672
  311MPD2    H5 4685   0.652   3.071  12.774 -1.9484 -1.3595  2.0881
  311MPD2    N1 4686   1.135   3.185  12.795 -0.5306  0.2395  0.6992
  311MPD2    H7 4687   1.093   3.277  12.805 -0.0640  0.5982 -0.5785
  312TMC3    C1 4688   0.463   2.927  12.778  1.2032  0.1590  0.2166
  312TMC3    C2 4689   0.374   2.909  12.677  0.4868  0.1680  0.6791
  312TMC3    C3 4690   0.272   2.992  12.683  0.1813  0.0782 -0.8282
  312TMC3    C4 4691   0.456   3.021  12.877 -0.3657 -0.0810  0.0775
  312TMC3    C5 4692   0.344   3.103  12.874 -0.3846 -0.8107  0.2062
  312TMC3    C6 4693   0.261   3.093  12.772 -0.8159 -0.4898 -0.3688
  312TMC3     C 4694   0.599   2.877  12.757  0.5582 -0.6861  0.1637
  312TMC3     O 4695   0.609   2.756  12.732 -0.0674  0.1669  0.1378
  312TMC3     H 4696   0.387   2.835  12.598  1.7993  0.0334  1.0273
  312TMC3    H1 4697   0.532   3.019  12.954 -2.6906 -1.4323  2.3464
  312TMC3    H2 4698   0.179   3.163  12.762 -0.7240 -0.6016 -1.9851
  312TMC3    C7 4699   0.344   3.227  12.949  0.3052  0.1362  0.7563
  312TMC3    C8 4700   0.222   3.015  12.552  0.0016  0.1771 -0.0029
  312TMC3    O1 4701   0.272   3.320  12.906  0.4971  0.2884  0.1370
  312TMC3    O2 4702   0.206   2.927  12.470 -0.1420  0.0449  0.3446
  313MPD2     C 4703   0.777   2.243  10.710 -0.0649 -0.5612  0.0419
  313MPD2    C1 4704   0.643   2.231  10.749  0.3300 -0.0570 -0.3859
  313MPD2    C2 4705   0.559   2.132  10.692 -0.2722 -0.0022  0.2225
  313MPD2    C3 4706   0.609   2.054  10.596  0.2924 -0.7452 -0.1964
  313MPD2    C4 4707   0.745   2.065  10.557  1.1088  0.7116  0.0796
  313MPD2    C5 4708   0.828   2.155  10.620  0.6120  0.4295 -0.2139
  313MPD2     H 4709   0.452   2.127  10.710 -0.5893  1.7396 -1.1586
  313MPD2    H1 4710   0.783   2.007  10.474 -1.8026 -1.5403  0.3291
  313MPD2    H2 4711   0.829   2.328  10.753  0.1253 -0.2443 -0.8102
  313MPD2    H3 4712   0.933   2.149  10.596 -0.0667 -4.0153 -2.0888
  313MPD2     N 4713   0.512   1.974  10.539 -0.2069 -0.4436 -0.2258
  313MPD2    H5 4714   0.414   1.978  10.565  0.2186  0.4149  1.2246
  313MPD2    N1 4715   0.581   2.318  10.841 -0.2245  0.3284  0.4405
  313MPD2    H7 4716   0.487   2.289  10.868  0.4030 -1.2560  0.9044
  314TMC3    C1 4717   0.529   2.498  10.990  0.1930 -0.3128  0.3602
  314TMC3    C2 4718   0.595   2.590  11.069  0.1779 -0.4965  0.0572
  314TMC3    C3 4719   0.555   2.719  11.069  0.5932 -0.4731 -0.0268
  314TMC3    C4 4720   0.418   2.532  10.916  0.5957 -0.3438 -0.0168
  314TMC3    C5 4721   0.373   2.663  10.945  0.4948 -0.3308 -0.0693
  314TMC3    C6 4722   0.434   2.757  11.018 -0.0182  0.3531  0.3147
  314TMC3     C 4723   0.632   2.428  10.909 -0.1542  0.2017 -0.4411
  314TMC3     O 4724   0.746   2.474  10.911  0.0352  0.0747  0.0725
  314TMC3     H 4725   0.674   2.555  11.133 -0.6473  0.5517  1.6550
  314TMC3    H1 4726   0.370   2.463  10.848  0.4509 -0.2191 -0.0439
  314TMC3    H2 4727   0.408   2.862  11.017 -2.0747 -0.1944 -1.0468
  314TMC3    C7 4728   0.283   2.729  10.847 -0.6011  0.3663  0.8033
  314TMC3    C8 4729   0.666   2.816  11.054 -0.0206  0.8698 -0.3152
  314TMC3    O1 4730   0.223   2.833  10.874  0.0832  0.4459 -0.1516
  314TMC3    O2 4731   0.635   2.935  11.045 -0.5878  0.6925  0.3013
  315MPD2     C 4732   0.095   1.803  17.548  0.2690 -0.3375 -0.1816
  315MPD2    C1 4733   0.220   1.745  17.542  0.1403  0.0684  0.1789
  315MPD2    C2 4734   0.329   1.816  17.490 -0.0025 -0.4259  0.5764
  315MPD2    C3 4735   0.309   1.944  17.440  0.2441 -0.4372  0.2055
  315MPD2    C4 4736   0.188   2.004  17.440 -0.3476  0.0653 -0.5507
  315MPD2    C5 4737   0.083   1.929  17.490 -0.2921  0.5055  0.1009
  315MPD2     H 4738   0.429   1.775  17.486  1.6945  3.8786 -0.8795
  315MPD2    H1 4739   0.166   2.105  17.408  0.7600  0.1303 -1.0984
  315MPD2    H2 4740   0.009   1.750  17.587 -0.5530 -0.0991 -1.6910
  315MPD2    H3 4741   4.706   1.968  17.487 -0.0553  0.9937 -1.1644
  315MPD2     N 4742   0.418   2.012  17.389 -0.4983 -0.1976 -0.4342
  315MPD2    H5 4743   0.505   1.967  17.415 -0.8394  0.1131  1.2628
  315MPD2    N1 4744   0.251   1.613  17.587 -0.4780  0.4431 -0.4020
  315MPD2    H7 4745   0.346   1.578  17.577 -1.0425 -1.6077  1.5108
  316TMC3    C1 4746   0.564   2.183  17.350  0.8291  0.3991 -0.1195
  316TMC3    C2 4747   0.623   2.179  17.476  0.2989  0.3911 -0.2301
  316TMC3    C3 4748   0.727   2.269  17.495 -0.1348 -0.0380  0.0223
  316TMC3    C4 4749   0.606   2.268  17.251 -0.8936 -0.3197  0.0649
  316TMC3    C5 4750   0.714   2.357  17.279 -0.4212 -0.1754 -0.1662
  316TMC3    C6 4751   0.779   2.354  17.401  0.3627 -0.3282  0.3258
  316TMC3     C 4752   0.425   2.143  17.343  0.1792 -0.0915 -0.1985
  316TMC3     O 4753   0.337   2.220  17.308  0.6267  0.4949 -0.0077
  316TMC3     H 4754   0.583   2.126  17.562  1.0053 -0.3638 -0.3678
  316TMC3    H1 4755   0.546   2.261  17.161  0.6853 -1.1720 -0.9324
  316TMC3    H2 4756   0.868   2.409  17.431 -0.3854  0.8476  0.4038
  316TMC3    C7 4757   0.762   2.452  17.184 -0.4510 -0.1716  0.3638
  316TMC3    C8 4758   0.781   2.274  17.636  0.1827  1.1194  0.1390
  316TMC3    O1 4759   0.878   2.472  17.202  0.2851 -0.3902 -0.0420
  316TMC3    O2 4760   0.825   2.382  17.674 -0.3101  0.1207 -0.0349
  317MPD2     C 4761   2.354   0.453  12.257  0.4858  0.7859 -0.1603
  317MPD2    C1 4762   2.345   0.315  12.264 -0.4481  0.5751 -0.0576
  317MPD2    C2 4763   2.359   0.258  12.385 -0.0785 -0.5183 -0.5271
  317MPD2    C3 4764   2.392   0.332  12.501 -0.2822 -1.1339 -0.4044
  317MPD2    C4 4765   2.405   0.467  12.489  0.6983  0.6902 -0.1927
  317MPD2    C5 4766   2.389   0.528  12.368  0.0324 -0.6697  0.2183
  317MPD2     H 4767   2.365   0.150  12.377 -1.1893 -0.6913  1.0972
  317MPD2    H1 4768   2.445   0.531  12.566  1.5524  2.2819 -1.9441
  317MPD2    H2 4769   2.342   0.508  12.164  3.7040  1.7519 -0.0065
  317MPD2    H3 4770   2.403   0.631  12.338  3.0233 -1.4027 -0.9195
  317MPD2     N 4771   2.409   0.268  12.626 -0.6292 -0.1116 -0.5081
  317MPD2    H5 4772   2.401   0.167  12.626 -0.6796 -0.0971  2.2743
  317MPD2    N1 4773   2.341   0.230  12.149  0.0685 -0.4616 -0.2427
  317MPD2    H7 4774   2.340   0.131  12.167  2.0484 -0.4072  0.2274
  318TMC3    C1 4775   2.429   0.233  12.855  0.1335 -0.4756  0.6135
  318TMC3    C2 4776   2.339   0.134  12.848 -0.3552 -0.2881  0.3907
  318TMC3    C3 4777   2.343   0.048  12.953 -0.1952 -0.2325  0.0115
  318TMC3    C4 4778   2.509   0.250  12.962  0.4033  1.1533  0.2642
  318TMC3    C5 4779   2.511   0.161  13.060 -0.2290  0.2300  0.3018
  318TMC3    C6 4780   2.428   0.055  13.062 -0.3838 -0.0347  0.1473
  318TMC3     C 4781   2.445   0.326  12.748 -0.2740  0.2621 -0.4555
  318TMC3     O 4782   2.500   0.432  12.777  0.2769  0.6025  0.2073
  318TMC3     H 4783   2.290   0.111  12.753 -0.1619 -1.8083  0.6605
  318TMC3    H1 4784   2.570   0.339  12.971  0.2070  1.2746  0.4089
  318TMC3    H2 4785   2.438   4.708  13.143  0.2384  0.0662  0.1533
  318TMC3    C7 4786   2.600   0.194  13.169  0.2392  0.3508  0.4335
  318TMC3    C8 4787   2.247   4.665  12.958  0.3020 -1.0291 -0.0672
  318TMC3    O1 4788   2.608   0.316  13.188 -0.0384  0.7090  0.1211
  318TMC3    O2 4789   2.250   4.595  13.059 -0.2093 -0.5455  0.3909
  319MPD2     C 4790   2.431   1.845  16.390  0.4629 -0.0303 -0.0024
  319MPD2    C1 4791   2.433   1.712  16.424 -0.4677 -0.0182  0.1645
  319MPD2    C2 4792   2.428   1.611  16.321  0.2513 -0.6646  0.4442
  319MPD2    C3 4793   2.405   1.661  16.186 -0.3170 -0.2859 -0.8657
  319MPD2    C4 4794   2.403   1.798  16.163  0.2637 -0.1612 -0.6143
  319MPD2    C5 4795   2.416   1.889  16.264  0.6429  0.0166  0.0197
  319MPD2     H 4796   2.434   1.506  16.345 -0.2152 -1.0248 -1.0253
  319MPD2    H1 4797   2.391   1.833  16.061  1.0949  2.1145  0.0683
  319MPD2    H2 4798   2.435   1.926  16.462 -1.1116  0.2631 -0.2498
  319MPD2    H3 4799   2.428   1.995  16.244 -0.2297  0.0958 -0.0834
  319MPD2     N 4800   2.382   1.585  16.071 -0.0229 -0.3362 -0.0031
  319MPD2    H5 4801   2.391   1.630  15.980 -3.1110  1.0449  0.3626
  319MPD2    N1 4802   2.474   1.673  16.548 -0.0238  0.4519 -0.1713
  319MPD2    H7 4803   2.480   1.575  16.575  2.8507  0.6045 -0.2309
  320TMC3    C1 4804   2.385   1.391  15.935  0.0180 -0.0183  0.6505
  320TMC3    C2 4805   2.483   1.457  15.860  0.7074 -0.1672  0.2659
  320TMC3    C3 4806   2.528   1.396  15.744 -0.3137  0.0752 -0.5017
  320TMC3    C4 4807   2.335   1.266  15.897 -0.5569 -0.1324  0.3498
  320TMC3    C5 4808   2.380   1.209  15.778  0.7076  0.2975 -0.3680
  320TMC3    C6 4809   2.479   1.271  15.706  0.6870  0.2764  0.7233
  320TMC3     C 4810   2.362   1.450  16.066 -0.7489  0.3433  0.9703
  320TMC3     O 4811   2.323   1.369  16.146  0.0684  0.1709  0.1012
  320TMC3     H 4812   2.537   1.542  15.901  0.9935 -0.4185  0.4150
  320TMC3    H1 4813   2.254   1.227  15.957 -2.7534  0.5762 -2.1466
  320TMC3    H2 4814   2.531   1.219  15.626 -1.7817  0.8588 -1.2662
  320TMC3    C7 4815   2.381   1.064  15.772  0.2265  0.9457 -0.0870
  320TMC3    C8 4816   2.660   1.436  15.704  0.4377  0.2330  0.3772
  320TMC3    O1 4817   2.419   1.006  15.673  0.7088 -0.1818 -0.1726
  320TMC3    O2 4818   2.749   1.360  15.673 -0.1011 -0.2416  0.2601
  321TMC3    C1 4819   2.526   1.658  16.781 -0.0675 -1.3614 -0.6768
  321TMC3    C2 4820   2.550   1.524  16.755 -0.5580  0.0455  0.0229
  321TMC3    C3 4821   2.552   1.438  16.859 -0.2808 -0.1068  0.0941
  321TMC3    C4 4822   2.492   1.704  16.910  0.0805 -0.2884 -0.4575
  321TMC3    C5 4823   2.505   1.615  17.008 -1.2353 -0.4137 -0.1403
  321TMC3    C6 4824   2.512   1.480  16.981 -0.3698 -0.8915 -0.0443
  321TMC3     C 4825   2.506   1.743  16.662 -0.5607 -0.0601 -0.0848
  321TMC3     O 4826   2.498   1.863  16.684  0.1801  0.4212  0.1127
  321TMC3     H 4827   2.587   1.491  16.659 -2.7448 -0.0216 -0.7846
  321TMC3    H1 4828   2.478   1.810  16.929  1.3807 -0.6261  2.4122
  321TMC3    H2 4829   2.502   1.409  17.063 -1.6424  0.6259  1.1233
  321TMC3    C7 4830   2.598   1.651  17.115 -0.0665 -0.2841  0.1370
  321TMC3    C8 4831   2.646   1.325  16.866 -0.1688 -0.9051  0.1565
  321TMC3    O1 4832   2.648   1.560  17.179  0.1371 -0.1314  0.4020
  321TMC3    O2 4833   2.660   1.271  16.976 -0.1349  0.1915 -0.3941
  322MPD2     C 4834   1.746   2.777  13.649 -0.1393 -0.0732 -1.0160
  322MPD2    C1 4835   1.784   2.701  13.759 -0.0593 -0.0469  0.0871
  322MPD2    C2 4836   1.778   2.563  13.737  0.4110 -0.4221  0.3400
  322MPD2    C3 4837   1.724   2.503  13.616  0.2918  0.1804  0.3005
  322MPD2    C4 4838   1.676   2.588  13.513 -0.0992  0.3717 -0.8506
  322MPD2    C5 4839   1.694   2.724  13.527  0.0391 -0.6246  0.0122
  322MPD2     H 4840   1.815   2.501  13.817 -1.6656 -1.2317  0.6840
  322MPD2    H1 4841   1.645   2.560  13.413 -0.9664  1.4445 -0.8806
  322MPD2    H2 4842   1.742   2.885  13.659 -0.4333 -0.0408 -1.5081
  322MPD2    H3 4843   1.672   2.794  13.448  2.6941 -0.0023 -0.1512
  322MPD2     N 4844   1.730   2.361  13.590  0.4702  0.0750 -0.0176
  322MPD2    H5 4845   1.749   2.306  13.673  1.4874 -2.3661 -1.8856
  322MPD2    N1 4846   1.834   2.768  13.873  0.3821  0.5755 -0.7948
  322MPD2    H7 4847   1.842   2.869  13.879 -0.5546  0.5066  1.6937
  323TMC3    C1 4848   1.921   2.802  14.092  0.2518 -0.0069 -0.5296
  323TMC3    C2 4849   2.005   2.898  14.036 -0.0193 -0.4963 -0.3214
  323TMC3    C3 4850   2.103   2.939  14.119 -0.6509 -0.1227 -0.5641
  323TMC3    C4 4851   1.926   2.761  14.222 -0.0687 -0.3676  0.1540
  323TMC3    C5 4852   2.025   2.808  14.297  0.2765 -0.2904 -0.4936
  323TMC3    C6 4853   2.117   2.896  14.241  0.0026 -0.2368 -0.0537
  323TMC3     C 4854   1.858   2.714  13.994  0.7986  0.3442 -0.1427
  323TMC3     O 4855   1.849   2.603  14.042  0.1217 -0.3576  0.0781
  323TMC3     H 4856   1.997   2.929  13.932 -2.6294 -1.5882 -0.4293
  323TMC3    H1 4857   1.854   2.685  14.252  0.2386 -0.5840  0.3461
  323TMC3    H2 4858   2.215   2.918  14.284 -0.6379 -1.5756  2.0806
  323TMC3    C7 4859   2.069   2.721  14.411  0.5718 -0.1324  0.7595
  323TMC3    C8 4860   2.229   2.968  14.052 -0.0854  0.4008 -0.3052
  323TMC3    O1 4861   2.014   2.607  14.412 -0.1609  0.4608 -0.0811
  323TMC3    O2 4862   2.332   2.922  14.101 -0.3016  0.3839 -0.2143
  324MPD2     C 4863   3.997   4.013  13.622  1.0657 -0.1685 -0.1681
  324MPD2    C1 4864   4.025   4.092  13.728 -0.1857  0.4395  0.4653
  324MPD2    C2 4865   3.928   4.152  13.803  0.4647 -0.2124 -0.9553
  324MPD2    C3 4866   3.799   4.134  13.767  0.7436 -0.0056  0.1218
  324MPD2    C4 4867   3.766   4.046  13.665  0.0264  0.1469 -0.6672
  324MPD2    C5 4868   3.866   3.989  13.595 -0.1209 -0.8889 -0.0423
  324MPD2     H 4869   3.964   4.214  13.884 -3.0182 -0.3651  0.7343
  324MPD2    H1 4870   3.667   4.011  13.642  0.0046 -1.2966  1.6299
  324MPD2    H2 4871   4.075   3.961  13.568  1.2269  1.7697 -1.8296
  324MPD2    H3 4872   3.850   3.913  13.519  3.4895  0.1309 -1.7972
  324MPD2     N 4873   3.687   4.184  13.837  0.0414  0.0232  0.2975
  324MPD2    H5 4874   3.595   4.170  13.797  0.7990  0.7014 -1.6890
  324MPD2    N1 4875   4.156   4.115  13.777  0.1011  0.0660 -0.5044
  324MPD2    H7 4876   4.171   4.175  13.857  0.1387  0.8158 -1.0707
  325TMC3    C1 4877   3.564   4.285  14.016  0.1668 -0.5273  0.4477
  325TMC3    C2 4878   3.453   4.216  13.983 -0.1852  0.2458  0.2578
  325TMC3    C3 4879   3.336   4.260  14.032  0.1506  0.2645  0.3626
  325TMC3    C4 4880   3.564   4.397  14.092 -0.7633  0.3391 -0.0274
  325TMC3    C5 4881   3.443   4.440  14.130  1.1548  0.2900 -0.4601
  325TMC3    C6 4882   3.324   4.374  14.109  0.2891 -0.7209  0.3313
  325TMC3     C 4883   3.693   4.252  13.959  0.3694  0.4500 -0.2057
  325TMC3     O 4884   3.785   4.295  14.026  0.2963 -0.8368 -0.4269
  325TMC3     H 4885   3.463   4.117  13.938  0.3425  1.3967 -2.1797
  325TMC3    H1 4886   3.649   4.462  14.112 -0.8614  0.7828 -1.0570
  325TMC3    H2 4887   3.229   4.415  14.143 -0.3383 -1.0785 -1.0065
  325TMC3    C7 4888   3.440   4.543  14.235 -0.1256  1.8205 -0.3913
  325TMC3    C8 4889   3.229   4.172  14.032 -0.1320 -0.0405  0.3211
  325TMC3    O1 4890   3.522   4.632  14.227 -0.1453 -0.4002 -0.3090
  325TMC3    O2 4891   3.211   4.092  13.942 -0.1951  0.3672  0.4980
  326MPD2     C 4892   0.020   0.050  11.233  0.5099  0.0717  0.3989
  326MPD2    C1 4893   0.077   0.022  11.111  0.5835 -0.0520 -0.2488
  326MPD2    C2 4894   0.187   0.092  11.065 -0.3451  0.5815  0.5092
  326MPD2    C3 4895   0.242   0.190  11.146 -0.1484 -0.2780  0.8211
  326MPD2    C4 4896   0.187   0.212  11.268 -0.1303  0.1556  0.4148
  326MPD2    C5 4897   0.082   0.139  11.319  0.2112 -0.1180  0.4307
  326MPD2     H 4898   0.225   0.069  10.967 -2.3156  1.0493 -0.3626
  326MPD2    H1 4899   0.216   0.293  11.334  1.0241 -1.7359  2.2524
  326MPD2    H2 4900   4.662   4.714  11.269  0.4465  0.2822  0.5994
  326MPD2    H3 4901   0.043   0.158  11.418 -0.2146 -1.8244  0.5908
  326MPD2     N 4902   0.354   0.264  11.110 -0.0011 -0.5402 -0.4246
  326MPD2    H5 4903   0.403   0.319  11.180 -2.2782  0.4316  0.4104
  326MPD2    N1 4904   0.013   4.663  11.015 -0.1345  0.6574 -0.4973
  326MPD2    H7 4905   0.058   4.655  10.925 -0.0483  1.5778 -0.5408
  327TMC3    C1 4906   4.602   4.517  10.908 -0.4672 -0.1853  0.0869
  327TMC3    C2 4907   4.492   4.564  10.839 -0.1013  0.4326  0.7621
  327TMC3    C3 4908   4.488   4.574  10.708 -0.1773 -0.2580  0.1172
  327TMC3    C4 4909   4.711   4.482  10.835 -0.1360 -0.5694  0.2319
  327TMC3    C5 4910   4.711   4.489  10.699  0.3482 -0.1363 -0.2246
  327TMC3    C6 4911   4.594   4.529  10.632  0.5131  0.2094 -0.5900
  327TMC3     C 4912   4.622   4.592  11.028  0.1358  0.3657 -0.3536
  327TMC3     O 4913   4.537   4.600  11.118  0.5943  0.0716  0.0348
  327TMC3     H 4914   4.416   4.625  10.886  0.7489  0.7058  1.7860
  327TMC3    H1 4915   0.079   4.456  10.885  1.3334  2.7909 -0.7307
  327TMC3    H2 4916   4.588   4.523  10.524 -1.3186  0.0322 -0.4725
  327TMC3    C7 4917   0.111   4.518  10.629 -0.1882  0.1193  0.3118
  327TMC3    C8 4918   4.435   4.697  10.652  0.6576  0.7037  0.1211
  327TMC3    O1 4919   0.106   4.528  10.507 -0.4557  0.2587 -0.0013
  327TMC3    O2 4920   4.497   0.014  10.554 -0.4026  0.0253 -0.0158
  328MPD2     C 4921   2.595   0.955  16.682  0.1572  0.2919 -0.4347
  328MPD2    C1 4922   2.543   0.872  16.775 -0.4905 -0.0218 -0.7313
  328MPD2    C2 4923   2.424   0.800  16.743  0.3693 -0.4023  0.6570
  328MPD2    C3 4924   2.367   0.808  16.615 -0.7126  0.3881  0.3015
  328MPD2    C4 4925   2.439   0.884  16.520  0.7862  0.6242 -0.6044
  328MPD2    C5 4926   2.548   0.962  16.554  0.4829  0.2721  0.8853
  328MPD2     H 4927   2.381   0.736  16.819 -0.7724 -0.2813  0.1065
  328MPD2    H1 4928   2.388   0.903  16.426 -1.9938  0.9837  0.9738
  328MPD2    H2 4929   2.680   1.020  16.703 -1.8265  1.9129  2.4857
  328MPD2    H3 4930   2.595   1.031  16.484  0.2049  1.4487  1.8613
  328MPD2     N 4931   2.246   0.736  16.579  0.8512 -0.1388 -0.1360
  328MPD2    H5 4932   2.213   0.758  16.486 -0.1641 -0.3283  0.1817
  328MPD2    N1 4933   2.618   0.873  16.895  0.2188  0.0462  0.5527
  328MPD2    H7 4934   2.688   0.946  16.904  1.1357 -0.6578 -0.8902
  329TMC3    C1 4935   2.680   0.804  17.112  0.3309 -1.4227 -0.0551
  329TMC3    C2 4936   2.679   0.704  17.210  0.0724 -0.6383  0.2057
  329TMC3    C3 4937   2.771   0.699  17.313 -0.5301  0.1183 -0.3100
  329TMC3    C4 4938   2.778   0.892  17.125 -0.0114 -0.1684 -0.0348
  329TMC3    C5 4939   2.871   0.882  17.226  0.2204  0.4260 -0.0867
  329TMC3    C6 4940   2.872   0.783  17.324 -0.0240  0.1325 -0.2379
  329TMC3     C 4941   2.596   0.791  16.999  0.4832  0.3350  0.2529
  329TMC3     O 4942   2.503   0.718  17.009 -0.3986  0.2894 -0.4786
  329TMC3     H 4943   2.609   0.624  17.191  2.7965 -2.7728 -0.7285
  329TMC3    H1 4944   2.783   0.973  17.054 -0.6376  0.0031  0.1177
  329TMC3    H2 4945   2.942   0.784  17.407  1.1208 -1.4885 -1.1755
  329TMC3    C7 4946   2.946   1.002  17.253 -0.6424 -0.2998  0.3889
  329TMC3    C8 4947   2.722   0.639  17.441  0.3862  0.2605  0.2478
  329TMC3    O1 4948   2.907   1.108  17.213 -0.4478  0.5998 -0.5250
  329TMC3    O2 4949   2.806   0.608  17.524 -0.9227  0.2930  0.9453
  330TMC3    C1 4950   0.986   4.371   9.665 -0.2273  0.6395 -0.5162
  330TMC3    C2 4951   0.991   4.246   9.719 -0.6992  0.3681 -0.0632
  330TMC3    C3 4952   1.068   4.224   9.836  0.1382 -0.9477  0.0849
  330TMC3    C4 4953   1.041   4.484   9.727 -0.1858 -0.0749  0.7129
  330TMC3    C5 4954   1.119   4.455   9.841 -0.0890  0.8513  0.2056
  330TMC3    C6 4955   1.131   4.331   9.893 -0.3893  0.8028 -0.2409
  330TMC3     C 4956   0.957   4.391   9.527 -0.4261  0.4545 -0.5042
  330TMC3     O 4957   1.003   4.492   9.469 -0.4156  0.4224 -0.1066
  330TMC3     H 4958   0.956   4.159   9.663  1.7539 -0.5741 -0.1124
  330TMC3    H1 4959   1.055   4.578   9.675 -1.4458  0.9015  2.1432
  330TMC3    H2 4960   1.183   4.328   9.988 -0.0677 -0.5104 -0.4572
  330TMC3    C7 4961   1.197   4.559   9.903 -0.2592 -0.2516  1.0520
  330TMC3    C8 4962   1.099   4.092   9.885 -0.0257  0.3213  0.1458
  330TMC3    O1 4963   1.301   4.528   9.956  0.3868 -0.3731  0.3540
  330TMC3    O2 4964   1.180   4.084   9.977  0.2411  0.4132 -0.1877
  331MPD2     C 4965   3.215   3.064  12.511  0.1716  0.3654 -0.0803
  331MPD2    C1 4966   3.325   3.130  12.450 -0.9224  0.3609 -0.5361
  331MPD2    C2 4967   3.392   3.063  12.347 -0.1117  0.2026  0.0515
  331MPD2    C3 4968   3.362   2.931  12.317  0.2346 -0.0936  0.0997
  331MPD2    C4 4969   3.260   2.864  12.383 -0.3035 -0.5150  0.2811
  331MPD2    C5 4970   3.178   2.937  12.471 -0.6584  0.5176  1.0111
  331MPD2     H 4971   3.483   3.099  12.302  0.3419 -1.5071 -0.4037
  331MPD2    H1 4972   3.231   2.763  12.355 -0.7676  0.0969 -1.4164
  331MPD2    H2 4973   3.158   3.110  12.592  0.5952  1.0521 -0.1703
  331MPD2    H3 4974   3.103   2.887  12.531 -1.5559 -0.8794 -1.3013
  331MPD2     N 4975   3.435   2.874  12.211 -0.1282  0.5486 -0.9670
  331MPD2    H5 4976   3.502   2.935  12.166 -1.4974  2.4301 -0.4295
  331MPD2    N1 4977   3.372   3.254  12.491 -0.5328  0.4598  0.5670
  331MPD2    H7 4978   3.304   3.305  12.548 -0.6596  1.1234 -0.1733
  332TMC3    C1 4979   3.514   2.737  12.050 -0.3745 -0.3112 -0.3250
  332TMC3    C2 4980   3.519   2.839  11.959 -0.5552  0.4564 -0.1020
  332TMC3    C3 4981   3.625   2.846  11.875  0.4891 -0.0919  0.6579
  332TMC3    C4 4982   3.611   2.644  12.064  0.6805  0.6869 -0.1545
  332TMC3    C5 4983   3.724   2.669  11.988 -0.5855 -0.9917 -0.1682
  332TMC3    C6 4984   3.734   2.767  11.887 -0.1001 -0.3983  0.2265
  332TMC3     C 4985   3.429   2.747  12.168  0.7165 -0.5319  0.3413
  332TMC3     O 4986   3.387   2.648  12.223  0.4175 -0.1695  0.6609
  332TMC3     H 4987   3.439   2.912  11.956 -2.6774 -1.8273  1.3876
  332TMC3    H1 4988   3.598   2.566  12.137  2.5330  0.7960  0.2879
  332TMC3    H2 4989   3.828   2.786  11.837 -0.1183 -1.7972 -0.3606
  332TMC3    C7 4990   3.839   2.624  12.064  0.3033 -0.0521 -0.1101
  332TMC3    C8 4991   3.653   2.966  11.796  0.9708  0.4323  0.1773
  332TMC3    O1 4992   3.811   2.570  12.171 -0.9558 -0.1801  0.0356
  332TMC3    O2 4993   3.772   2.979  11.769 -0.3643 -1.0497  0.1899
  333MPD2     C 4994   3.829   3.293  11.144  0.0844 -0.2996 -0.3624
  333MPD2    C1 4995   3.867   3.180  11.081 -0.3405  0.4951 -0.3548
  333MPD2    C2 4996   3.799   3.062  11.092 -0.5344  0.4468  0.2454
  333MPD2    C3 4997   3.681   3.056  11.167 -0.2933  0.2214  0.5238
  333MPD2    C4 4998   3.645   3.169  11.239 -0.8198 -0.7448  0.2357
  333MPD2    C5 4999   3.721   3.278  11.231  0.2566  0.2492  0.2068
  333MPD2     H 5000   3.827   2.976  11.034 -0.3779  0.2301  0.6431
  333MPD2    H1 5001   3.567   3.169  11.315  1.0753  2.3280  2.1784
  333MPD2    H2 5002   3.882   3.387  11.142 -1.0271  0.3682  1.3391
  333MPD2    H3 5003   3.691   3.360  11.297  0.8711 -0.5657  1.5050
  333MPD2     N 5004   3.603   2.940  11.167  0.0771 -0.1983 -0.3450
  333MPD2    H5 5005   3.646   2.855  11.131  1.0167  0.8470 -1.6924
  333MPD2    N1 5006   3.980   3.194  10.995 -0.6324  0.2705  0.9043
  333MPD2    H7 5007   4.012   3.289  10.982  1.0483 -0.3700  0.2524
  334TMC3    C1 5008   4.154   3.151  10.836  0.3011 -0.3094  0.1296
  334TMC3    C2 5009   4.194   3.076  10.725  0.6462 -0.4774 -0.0270
  334TMC3    C3 5010   4.255   3.137  10.621 -0.1224 -0.5185 -0.0340
  334TMC3    C4 5011   4.166   3.289  10.831 -0.2316 -0.0892 -0.0122
  334TMC3    C5 5012   4.226   3.346  10.719 -0.0591 -0.5905  0.4973
  334TMC3    C6 5013   4.260   3.273  10.614 -0.0260 -0.1961  0.7048
  334TMC3     C 5014   4.040   3.095  10.917 -0.2804 -0.3889  0.0375
  334TMC3     O 5015   4.010   2.977  10.907  0.0667 -0.0535  0.6340
  334TMC3     H 5016   4.180   2.968  10.725  0.5405 -0.4634  0.2233
  334TMC3    H1 5017   4.132   3.351  10.913  0.1166  2.6887 -2.0070
  334TMC3    H2 5018   4.297   3.322  10.525 -0.3885  1.2808  1.3673
  334TMC3    C7 5019   4.245   3.489  10.721  0.4637 -0.4273 -0.0003
  334TMC3    C8 5020   4.318   3.057  10.519  0.4001  0.2990  0.4286
  334TMC3    O1 5021   4.220   3.544  10.829  0.3455  0.2578  0.5881
  334TMC3    O2 5022   4.298   2.937  10.509 -0.1470 -0.4594  0.2436
  335TMC3    C1 5023   3.038   0.093  17.255 -0.5443  0.6723  0.3412
  335TMC3    C2 5024   2.984   0.012  17.158 -0.2295  0.5923 -0.5503
  335TMC3    C3 5025   3.022   0.031  17.030 -0.4509  0.1766 -0.0141
  335TMC3    C4 5026   3.128   0.193  17.230  0.2134 -0.7702  0.0245
  335TMC3    C5 5027   3.154   0.216  17.091  0.3340  0.1109 -0.5784
  335TMC3    C6 5028   3.105   0.137  16.991 -0.2274 -1.2068 -0.3021
  335TMC3     C 5029   3.008   0.052  17.386  0.5628 -0.0600 -0.1547
  335TMC3     O 5030   2.992   4.654  17.408 -0.7699  0.6093 -0.0294
  335TMC3     H 5031   2.920   4.655  17.193  1.8289 -0.0318  1.8132
  335TMC3    H1 5032   3.168   0.261  17.304 -0.6158 -1.3328  1.0096
  335TMC3    H2 5033   3.144   0.138  16.890 -0.7336  1.3229 -0.4623
  335TMC3    C7 5034   3.283   0.276  17.063  0.7711 -0.8337 -0.0942
  335TMC3    C8 5035   2.997   4.642  16.941  0.2544 -0.0202  0.2012
  335TMC3    O1 5036   3.345   0.238  16.968  0.5426  0.3150 -0.1374
  335TMC3    O2 5037   2.947   4.543  16.991  0.5759 -0.0794 -0.1210
  336MPD2     C 5038   2.680   3.013  16.236  0.7034  0.0689 -0.0686
  336MPD2    C1 5039   2.695   2.981  16.104 -0.0701 -0.4275 -0.2071
  336MPD2    C2 5040   2.788   2.884  16.069 -0.1829  0.2314  0.7683
  336MPD2    C3 5041   2.836   2.801  16.166 -0.3824 -0.7297  0.7225
  336MPD2    C4 5042   2.809   2.836  16.299 -1.0014 -0.4605 -0.8417
  336MPD2    C5 5043   2.739   2.946  16.336  0.8783  0.2387 -0.6655
  336MPD2     H 5044   2.805   2.868  15.963  4.1497  0.0109  1.4976
  336MPD2    H1 5045   2.837   2.771  16.381  0.6005 -2.2731 -2.8246
  336MPD2    H2 5046   2.628   3.102  16.270 -2.0086 -1.4874 -0.1681
  336MPD2    H3 5047   2.722   2.977  16.438 -0.6660 -0.4681 -0.7077
  336MPD2     N 5048   2.914   2.689  16.136 -0.2294 -0.6460  0.1926
  336MPD2    H5 5049   2.933   2.631  16.218  0.7595 -0.3164  0.2010
  336MPD2    N1 5050   2.614   3.033  15.999  0.0739 -0.5253 -0.1309
  336MPD2    H7 5051   2.635   3.019  15.901 -2.4869 -0.9100 -0.6443
  337TMC3    C1 5052   2.425   3.151  15.893 -0.1558 -0.7249 -0.3199
  337TMC3    C2 5053   2.291   3.178  15.899 -0.1001 -0.4967  0.3952
  337TMC3    C3 5054   2.233   3.227  15.786  0.0701  0.9993 -0.5961
  337TMC3    C4 5055   2.500   3.178  15.780 -0.1675  0.0563 -0.1669
  337TMC3    C5 5056   2.440   3.249  15.675  0.0843  0.0369 -0.4542
  337TMC3    C6 5057   2.300   3.267  15.680 -0.3497 -0.5798 -0.6224
  337TMC3     C 5058   2.494   3.099  16.018  0.0845 -0.2412  0.2257
  337TMC3     O 5059   2.445   3.133  16.124 -0.1529  0.4758 -0.1439
  337TMC3     H 5060   2.230   3.166  15.988 -0.5535 -2.1638 -0.1309
  337TMC3    H1 5061   2.602   3.141  15.768  0.8502  2.0396  2.3018
  337TMC3    H2 5062   2.259   3.323  15.597 -1.0553  1.8893  1.3728
  337TMC3    C7 5063   2.497   3.292  15.549  0.0218  0.0448 -0.0138
  337TMC3    C8 5064   2.099   3.201  15.755  0.8357 -0.5751 -0.3311
  337TMC3    O1 5065   2.432   3.369  15.481 -0.7472 -0.1235 -0.7437
  337TMC3    O2 5066   2.011   3.217  15.833  0.1094 -0.1122 -0.1474
  338MPD2     C 5067   3.021   1.838   0.673  0.4807  0.2428  0.3605
  338MPD2    C1 5068   3.056   1.861   0.536  0.1223 -0.3262  0.5666
  338MPD2    C2 5069   2.979   1.944   0.461 -0.1268 -0.8142 -0.6720
  338MPD2    C3 5070   2.866   2.001   0.501  0.7046  0.4970 -0.5530
  338MPD2    C4 5071   2.828   1.987   0.635  0.3659  0.6956  0.2492
  338MPD2    C5 5072   2.908   1.905   0.714  0.2120  0.7224 -0.2743
  338MPD2     H 5073   3.018   1.964   0.362 -0.0895  0.3737 -0.4140
  338MPD2    H1 5074   2.743   2.036   0.681 -0.8119 -2.4021  1.3966
  338MPD2    H2 5075   3.084   1.779   0.739 -0.5681 -1.3810 -0.0736
  338MPD2    H3 5076   2.881   1.907   0.819 -0.0412 -0.7242 -0.3107
  338MPD2     N 5077   2.788   2.065   0.406  0.0082  0.2829  0.3422
  338MPD2    H5 5078   2.811   2.045   0.309  1.1724 -1.1252  0.9130
  338MPD2    N1 5079   3.162   1.804   0.469  0.7982  0.6594 -0.0261
  338MPD2    H7 5080   3.188   1.827   0.373 -0.9390 -0.0372 -0.6618
  339TMC3    C1 5081   2.606   2.134   0.302  0.5724 -0.3402 -0.1718
  339TMC3    C2 5082   2.529   2.032   0.260 -0.3001 -0.3059 -0.1676
  339TMC3    C3 5083   2.540   1.977   0.139 -0.4034 -0.1148 -0.4467
  339TMC3    C4 5084   2.695   2.193   0.212 -0.8559  0.2243 -0.2084
  339TMC3    C5 5085   2.690   2.153   0.081 -0.7619  0.0743 -0.2675
  339TMC3    C6 5086   2.611   2.046   0.044  0.2502  0.5224  0.2158
  339TMC3     C 5087   2.666   2.124   0.435 -0.5346  0.1402  0.3457
  339TMC3     O 5088   2.606   2.141   0.540 -0.1447  0.3873  0.0848
  339TMC3     H 5089   2.472   1.986   0.340  0.5881  0.6398  1.0097
  339TMC3    H1 5090   2.769   2.264   0.247 -1.0046 -0.0996  0.7661
  339TMC3    H2 5091   2.644   1.990  17.656  0.4438 -1.4799  1.5633
  339TMC3    C7 5092   2.783   2.206  17.682  0.1402 -0.1560 -0.0148
  339TMC3    C8 5093   2.519   1.833   0.112 -0.2656  0.1075  0.6516
  339TMC3    O1 5094   2.888   2.253   0.026 -0.5808 -0.2501 -0.1200
  339TMC3    O2 5095   2.525   1.799  17.694  0.2940  0.8216 -0.6078
  340MPD2     C 5096   3.742   4.423  10.550 -0.4438  0.4190 -0.3372
  340MPD2    C1 5097   3.818   4.340  10.481 -0.8506  0.8015  1.1011
  340MPD2    C2 5098   3.933   4.382  10.421  1.3813 -0.0724  0.0499
  340MPD2    C3 5099   3.969   4.513  10.427  0.1795  0.2220 -0.0772
  340MPD2    C4 5100   3.891   4.597  10.502  0.7049  0.0419  0.5818
  340MPD2    C5 5101   3.778   4.553  10.568 -0.2580 -0.4197 -0.6958
  340MPD2     H 5102   3.985   4.314  10.354 -0.2191  1.8385 -3.1168
  340MPD2    H1 5103   3.911   4.701  10.527  1.0223  0.2816 -0.6557
  340MPD2    H2 5104   3.646   4.399  10.595 -0.3830 -1.1917 -1.0755
  340MPD2    H3 5105   3.719   4.618  10.632  0.6428 -0.3484  0.0539
  340MPD2     N 5106   4.083   4.560  10.358  0.2007  0.1389 -0.3551
  340MPD2    H5 5107   4.133   4.500  10.293  0.3157  0.3885 -0.5011
  340MPD2    N1 5108   3.761   4.213  10.451 -0.4220 -0.1664 -0.0966
  340MPD2    H7 5109   3.661   4.200  10.451 -0.5141  0.4827 -0.9014
  341TMC3    C1 5110   3.752   3.990  10.380  0.0965  0.2130 -0.0247
  341TMC3    C2 5111   3.665   3.956  10.479 -0.6210  0.5214 -0.3152
  341TMC3    C3 5112   3.626   3.828  10.485  0.0043  0.1920  0.0919
  341TMC3    C4 5113   3.816   3.892  10.308 -0.0727  0.3255  0.0322
  341TMC3    C5 5114   3.777   3.766  10.310  0.2443 -0.0480 -0.1269
  341TMC3    C6 5115   3.688   3.735  10.411  0.1241 -0.2113  0.5799
  341TMC3     C 5116   3.831   4.108  10.400 -0.2282  0.4954  0.3364
  341TMC3     O 5117   3.950   4.096  10.375  0.3778 -0.1402  0.4034
  341TMC3     H 5118   3.622   4.026  10.549 -0.3773 -1.3050  1.6613
  341TMC3    H1 5119   3.879   3.933  10.229 -1.2961 -0.5426 -1.3856
  341TMC3    H2 5120   3.658   3.632  10.431 -2.7055  0.5691  0.3701
  341TMC3    C7 5121   3.805   3.689  10.194  0.2113  0.0912  0.8175
  341TMC3    C8 5122   3.493   3.789  10.537  0.2046 -0.1955 -0.3017
  341TMC3    O1 5123   3.859   3.751  10.098 -0.3922  0.2610  0.2278
  341TMC3    O2 5124   3.469   3.669  10.550 -0.1182  0.2603 -0.2170
  342MPD2     C 5125   1.461   3.162   0.146  0.2493 -0.0520 -0.2098
  342MPD2    C1 5126   1.478   3.168   0.009  0.8355 -0.1920 -0.2532
  342MPD2    C2 5127   1.455   3.287  17.648 -0.4652 -0.2050 -0.4007
  342MPD2    C3 5128   1.419   3.395   0.020 -0.1364  0.9068  0.2725
  342MPD2    C4 5129   1.410   3.389   0.162 -0.3610  0.1053  0.1399
  342MPD2    C5 5130   1.432   3.271   0.225  0.0750 -0.6280 -0.3594
  342MPD2     H 5131   1.451   3.298  17.541  0.8510 -0.0755 -0.4466
  342MPD2    H1 5132   1.376   3.474   0.219 -1.1999 -0.6953  0.8354
  342MPD2    H2 5133   1.475   3.070   0.202  0.8847 -0.8861 -1.7394
  342MPD2    H3 5134   1.422   3.251   0.331 -1.8555  1.7696 -0.0872
  342MPD2     N 5135   1.402   3.515  17.651 -0.5739 -0.0280  0.1743
  342MPD2    H5 5136   1.420   3.507  17.551  1.3997 -0.0065  0.5300
  342MPD2    N1 5137   1.498   3.055  17.621  0.6533  0.2365  0.3723
  342MPD2    H7 5138   1.509   3.079  17.523  0.4175  0.3583  0.3749
  343TMC3    C1 5139   1.506   2.833  17.554  0.1104  0.4417  0.1137
  343TMC3    C2 5140   1.617   2.855  17.478  0.1262  0.4215 -1.0769
  343TMC3    C3 5141   1.663   2.756  17.393 -0.2558 -0.3472  0.0229
  343TMC3    C4 5142   1.430   2.722  17.546  0.2871  0.0213 -0.4040
  343TMC3    C5 5143   1.482   2.623  17.462  0.5368 -0.4024  1.0145
  343TMC3    C6 5144   1.594   2.639  17.381 -0.4740  0.4189  0.0241
  343TMC3     C 5145   1.486   2.925  17.664  0.1280 -0.4296  0.1777
  343TMC3     O 5146   1.433   2.878   0.063  0.2602 -0.3516  0.8681
  343TMC3     H 5147   1.673   2.947  17.487 -0.1876  0.4175  1.0100
  343TMC3    H1 5148   1.357   2.708  17.625  3.4708  1.9431  2.8991
  343TMC3    H2 5149   1.631   2.549  17.332  2.1933  1.1438  0.7211
  343TMC3    C7 5150   1.395   2.510  17.430 -0.2583 -0.0777  0.0318
  343TMC3    C8 5151   1.795   2.769  17.339 -0.1711 -0.3137 -0.0543
  343TMC3    O1 5152   1.374   2.470  17.313 -0.0891 -0.0079  0.1224
  343TMC3    O2 5153   1.868   2.844  17.407 -0.2996  0.4978  0.5095
  344MPD2     C 5154   1.878   2.169  10.428  0.2360 -0.6135 -0.4440
  344MPD2    C1 5155   1.999   2.202  10.483 -0.1172  1.1666  0.5823
  344MPD2    C2 5156   2.051   2.337  10.474 -0.6753  0.4039 -0.4283
  344MPD2    C3 5157   1.976   2.432  10.403  0.2925  0.2012 -0.4135
  344MPD2    C4 5158   1.855   2.392  10.350 -0.4901  0.5606 -0.0916
  344MPD2    C5 5159   1.806   2.259  10.358 -0.1753 -0.1341 -1.1136
  344MPD2     H 5160   2.134   2.369  10.537 -0.7422  0.7143 -0.4952
  344MPD2    H1 5161   1.786   2.463  10.305 -0.0607 -0.0141 -1.6848
  344MPD2    H2 5162   1.848   2.065  10.435  0.0895 -0.4394  1.4864
  344MPD2    H3 5163   1.713   2.242  10.305 -1.7571  2.0134  0.9773
  344MPD2     N 5164   2.012   2.566  10.399 -0.2106  0.0415  0.1072
  344MPD2    H5 5165   1.952   2.629  10.346  1.9036  0.9928 -1.1272
  344MPD2    N1 5166   2.054   2.098  10.547  0.7737 -0.1837 -0.2210
  344MPD2    H7 5167   1.996   2.015  10.538 -0.9031  0.9513  0.1752
  345TMC3    C1 5168   2.107   2.776  10.450  0.2984  0.3775 -0.3341
  345TMC3    C2 5169   2.147   2.849  10.555  0.7394  0.0496 -0.8577
  345TMC3    C3 5170   2.111   2.983  10.566 -0.5111  0.6278 -0.3591
  345TMC3    C4 5171   2.025   2.820  10.354  0.5629  0.5017 -0.3028
  345TMC3    C5 5172   1.994   2.957  10.371 -0.2782 -0.1630  0.2131
  345TMC3    C6 5173   2.022   3.029  10.479  0.3363  0.8451  0.0594
  345TMC3     C 5174   2.103   2.632  10.479  0.1072 -0.5541 -0.0233
  345TMC3     O 5175   2.154   2.587  10.581  0.4409 -0.2581  0.0286
  345TMC3     H 5176   2.207   2.804  10.634 -0.5662  1.8094  1.1192
  345TMC3    H1 5177   2.029   2.776  10.255  0.6856 -0.7892  0.2665
  345TMC3    H2 5178   1.978   3.126  10.498  1.1630  1.1031  0.6357
  345TMC3    C7 5179   1.954   3.037  10.258 -0.5570  0.4416 -0.0181
  345TMC3    C8 5180   2.211   3.082  10.575 -0.2307 -0.0417 -0.3498
  345TMC3    O1 5181   1.971   3.159  10.278  0.3404 -0.4033 -0.0201
  345TMC3    O2 5182   2.183   3.180  10.503  0.0405 -0.5264  0.3441
  346MPD2     C 5183   2.467   3.966  14.149 -0.6255  0.1748 -0.4621
  346MPD2    C1 5184   2.493   4.095  14.127  0.7066 -0.2632 -0.2256
  346MPD2    C2 5185   2.490   4.178  14.238 -0.3379 -0.3641 -0.8072
  346MPD2    C3 5186   2.486   4.127  14.367  0.9755  0.2699 -0.1941
  346MPD2    C4 5187   2.445   3.999  14.382 -0.0025  0.1772 -1.0111
  346MPD2    C5 5188   2.439   3.920  14.273 -0.2849 -0.2272  0.1603
  346MPD2     H 5189   2.507   4.284  14.225 -1.4587  0.2541  2.8175
  346MPD2    H1 5190   2.433   3.956  14.481 -0.0965  1.5459 -0.4255
  346MPD2    H2 5191   2.465   3.893  14.069  0.0455 -0.2080 -0.1289
  346MPD2    H3 5192   2.442   3.812  14.282  0.7876 -0.3855 -2.0841
  346MPD2     N 5193   2.531   4.213  14.472 -0.0355  0.5216 -0.3489
  346MPD2    H5 5194   2.535   4.311  14.443  2.1653 -0.1212 -2.2406
  346MPD2    N1 5195   2.514   4.149  13.997 -0.0819 -0.0524 -0.0444
  346MPD2    H7 5196   2.511   4.251  13.990  0.0318  0.0244  1.0660
  347TMC3    C1 5197   2.646   4.263  14.666  0.5215  0.2061 -0.3410
  347TMC3    C2 5198   2.726   4.353  14.593  0.2792 -0.3899  0.0060
  347TMC3    C3 5199   2.838   4.396  14.666  0.6678 -0.2764  0.6603
  347TMC3    C4 5200   2.683   4.227  14.791 -0.1840  0.5028 -0.0159
  347TMC3    C5 5201   2.805   4.267  14.849  0.3107 -0.1646  0.5183
  347TMC3    C6 5202   2.889   4.355  14.785  0.5508  0.2605 -0.4525
  347TMC3     C 5203   2.562   4.167  14.598  0.4420  0.7503 -1.2269
  347TMC3     O 5204   2.562   4.050  14.640 -0.2831  0.5872  0.6095
  347TMC3     H 5205   2.702   4.381  14.491  0.8474 -1.7342 -0.4994
  347TMC3    H1 5206   2.622   4.152  14.840 -0.4068 -0.3630 -1.6229
  347TMC3    H2 5207   2.976   4.401  14.830 -0.3586 -0.9819  2.6097
  347TMC3    C7 5208   2.839   4.199  14.977  0.4147  0.4443  0.2529
  347TMC3    C8 5209   2.935   4.462  14.582  0.8402  0.8077 -0.1743
  347TMC3    O1 5210   2.741   4.154  15.032 -0.0625  0.0980 -0.4243
  347TMC3    O2 5211   2.918   4.456  14.464 -0.0196  0.0018 -0.1503
  348MPD2     C 5212   0.951   3.824  12.208 -0.4672 -0.0342  0.2883
  348MPD2    C1 5213   1.075   3.854  12.159 -0.3787  0.0958 -0.0984
  348MPD2    C2 5214   1.087   3.928  12.049  0.2448  0.8279 -0.2133
  348MPD2    C3 5215   0.973   3.979  11.983 -0.1086  1.0771 -0.1060
  348MPD2    C4 5216   0.842   3.945  12.028  0.2085  1.1594 -0.1451
  348MPD2    C5 5217   0.833   3.868  12.146 -0.0728  0.0030 -0.5513
  348MPD2     H 5218   1.186   3.956  12.015 -0.1546  1.5342 -0.8074
  348MPD2    H1 5219   0.753   3.974  11.974  0.2163 -0.1631 -0.8572
  348MPD2    H2 5220   0.942   3.778  12.306  1.6388  1.2442  1.0628
  348MPD2    H3 5221   0.738   3.831  12.181 -0.9524  0.6576 -2.2494
  348MPD2     N 5222   0.980   4.058  11.863 -0.2871  0.7402  0.2698
  348MPD2    H5 5223   0.895   4.047  11.809  1.7484 -1.2402 -2.5352
  348MPD2    N1 5224   1.191   3.813  12.224 -0.0947  0.0179  0.1092
  348MPD2    H7 5225   1.279   3.849  12.187 -0.7319  2.4715  1.0077
  349TMC3    C1 5226   1.341   3.677  12.337  0.6514 -0.6234 -0.0644
  349TMC3    C2 5227   1.342   3.540  12.363  0.3235 -0.2886  0.1134
  349TMC3    C3 5228   1.437   3.466  12.302  0.0081 -0.3188  0.5986
  349TMC3    C4 5229   1.428   3.734  12.252 -0.5110 -0.1114 -0.0391
  349TMC3    C5 5230   1.493   3.653  12.168  0.5203  0.1049  0.2432
  349TMC3    C6 5231   1.509   3.521  12.195  0.5741  0.2456  0.3422
  349TMC3     C 5232   1.206   3.722  12.324 -0.2070  0.3877 -0.3886
  349TMC3     O 5233   1.123   3.654  12.374  0.2830 -0.2963  0.8442
  349TMC3     H 5234   1.283   3.503  12.447  1.6881 -0.8002  0.8410
  349TMC3    H1 5235   1.426   3.842  12.243  0.7988  0.0618  1.7405
  349TMC3    H2 5236   1.559   3.457  12.123 -1.0386  0.4239 -0.9516
  349TMC3    C7 5237   1.516   3.691  12.036  0.2680 -0.0597 -0.4549
  349TMC3    C8 5238   1.432   3.330  12.342 -0.9602  0.0301 -0.6626
  349TMC3    O1 5239   1.525   3.602  11.951 -0.2207  0.0313  0.6189
  349TMC3    O2 5240   1.346   3.295  12.425 -0.2009  0.0406  0.1866
  350MPD2     C 5241   4.679   1.378   9.844  0.4135 -0.9612 -0.3102
  350MPD2    C1 5242   0.089   1.401   9.842  0.5391 -0.5735 -1.0451
  350MPD2    C2 5243   0.142   1.465   9.947 -0.3759  1.0464  0.7359
  350MPD2    C3 5244   0.071   1.497  10.063 -0.3136  0.3432  0.4230
  350MPD2    C4 5245   4.660   1.465  10.069  0.5031 -0.1077  0.3248
  350MPD2    C5 5246   4.602   1.419   9.951 -0.3485 -0.1335  0.4593
  350MPD2     H 5247   0.248   1.483   9.942 -0.6613  1.5297 -2.9995
  350MPD2    H1 5248   4.601   1.489  10.157 -1.1145 -1.6427 -0.3260
  350MPD2    H2 5249   4.625   1.320   9.771 -1.4302 -0.7189  0.8761
  350MPD2    H3 5250   4.494   1.405   9.943 -0.1738 -0.9628 -0.5568
  350MPD2     N 5251   0.125   1.555  10.176 -0.3374  0.0215  0.1527
  350MPD2    H5 5252   0.054   1.572  10.247  0.6592  3.8158  0.2411
  350MPD2    N1 5253   0.176   1.346   9.741 -0.4565  0.1285  0.5614
  350MPD2    H7 5254   0.274   1.337   9.766 -0.2775 -0.4535 -0.3102
  351TMC3    C1 5255   0.245   1.190   9.562 -0.3771  0.1374 -0.4693
  351TMC3    C2 5256   0.378   1.206   9.593  0.1851 -0.5294 -0.0805
  351TMC3    C3 5257   0.460   1.111   9.556  0.3195  0.1874 -0.0098
  351TMC3    C4 5258   0.196   1.075   9.516 -0.3055  0.2123 -0.7519
  351TMC3    C5 5259   0.286   0.974   9.490  0.1058  0.0503  1.1251
  351TMC3    C6 5260   0.418   0.998   9.501 -0.5217 -0.2173 -1.1764
  351TMC3     C 5261   0.139   1.281   9.621 -0.2455 -0.6056  0.5942
  351TMC3     O 5262   0.030   1.281   9.566  0.0868  0.2532 -0.0586
  351TMC3     H 5263   0.413   1.299   9.636 -0.1392 -1.5329  2.3347
  351TMC3    H1 5264   0.096   1.076   9.475  0.0337  1.3173 -1.5997
  351TMC3    H2 5265   0.484   0.916   9.478 -0.2558 -0.6177  0.9852
  351TMC3    C7 5266   0.239   0.839   9.461  0.5269 -0.7852 -0.4003
  351TMC3    C8 5267   0.596   1.105   9.595 -0.0262 -0.2438 -0.0428
  351TMC3    O1 5268   0.315   0.763   9.404 -0.3426  0.9009 -0.5217
  351TMC3    O2 5269   0.663   1.001   9.578  0.2534  0.6015 -0.5132
  352MPD2     C 5270   3.602   3.964   0.881  0.1186  0.6347  0.1270
  352MPD2    C1 5271   3.581   3.988   0.743  0.2733 -0.1411 -0.4426
  352MPD2    C2 5272   3.652   3.906   0.659 -0.3462  0.4268 -0.3632
  352MPD2    C3 5273   3.758   3.826   0.697 -0.6228  0.0122  0.6952
  352MPD2    C4 5274   3.785   3.813   0.832  0.1233  0.5606 -0.3060
  352MPD2    C5 5275   3.699   3.874   0.925  0.0288 -0.1425 -0.3940
  352MPD2     H 5276   3.635   3.913   0.552 -1.5943 -0.6589 -0.2300
  352MPD2    H1 5277   3.862   3.748   0.873 -1.0797 -1.1394 -0.7382
  352MPD2    H2 5278   3.556   4.023   0.960 -0.3068  2.4381 -1.4735
  352MPD2    H3 5279   3.708   3.854   1.031  0.8093  2.1251 -0.0389
  352MPD2     N 5280   3.829   3.747   0.605  0.7499  0.4974  0.1346
  352MPD2    H5 5281   3.901   3.693   0.652 -0.2660  1.0169  2.3157
  352MPD2    N1 5282   3.485   4.082   0.716  0.2021 -0.2521 -0.2044
  352MPD2    H7 5283   3.437   4.125   0.795 -0.5810 -1.3294 -0.0937
  353TMC3    C1 5284   3.893   3.625   0.408  0.2998  0.3459 -0.2114
  353TMC3    C2 5285   4.020   3.585   0.451  0.3238  0.2672  0.3516
  353TMC3    C3 5286   4.068   3.473   0.398 -0.7340  1.1327  0.1553
  353TMC3    C4 5287   3.830   3.548   0.317  0.8973 -0.3169 -0.6893
  353TMC3    C5 5288   3.883   3.431   0.273 -0.0833 -0.1040  0.1615
  353TMC3    C6 5289   3.999   3.385   0.324  0.1245  0.1322  0.6248
  353TMC3     C 5290   3.813   3.742   0.472 -0.1044  0.7591 -0.3961
  353TMC3     O 5291   3.741   3.808   0.396  0.0287  0.1716 -0.2252
  353TMC3     H 5292   4.088   3.639   0.517  0.5123  1.1326 -0.5405
  353TMC3    H1 5293   3.729   3.579   0.292  0.1812  0.2362  2.8185
  353TMC3    H2 5294   4.043   3.295   0.282  1.1139  0.7430  0.3634
  353TMC3    C7 5295   3.795   3.335   0.215  1.3464  0.4283 -0.3068
  353TMC3    C8 5296   4.190   3.428   0.454 -0.3220  1.0074  0.0458
  353TMC3    O1 5297   3.678   3.347   0.245  0.9173  0.4052 -0.1867
  353TMC3    O2 5298   4.286   3.504   0.466 -0.1019 -0.3350  0.5795
  354TMC3    C1 5299   0.292   4.709  13.167 -0.1570 -0.8833 -0.7916
  354TMC3    C2 5300   0.219   0.096  13.136 -0.0786  0.3236 -0.0612
  354TMC3    C3 5301   0.226   0.139  13.005 -0.3988 -0.0456  0.1735
  354TMC3    C4 5302   0.384   4.654  13.081  0.0611  0.2533 -0.9774
  354TMC3    C5 5303   0.374   4.683  12.946  0.2834 -0.6462  1.0636
  354TMC3    C6 5304   0.304   0.074  12.909  0.6430 -0.0490 -0.0288
  354TMC3     C 5305   0.298   4.650  13.297  0.0333  0.4249 -0.3518
  354TMC3     O 5306   0.374   4.552  13.313  0.0654 -0.7822  0.2748
  354TMC3     H 5307   0.167   0.157  13.209  0.6581 -0.1472  0.8381
  354TMC3    H1 5308   0.440   4.568  13.116  0.3231  0.0673 -1.8464
  354TMC3    H2 5309   0.294   0.101  12.805 -0.6949 -2.4993 -0.5540
  354TMC3    C7 5310   0.502   4.666  12.883  0.2084  0.1437 -0.0989
  354TMC3    C8 5311   0.166   0.263  12.951  0.3520 -0.3532 -0.5033
  354TMC3    O1 5312   0.568   4.567  12.894 -0.3637  0.4298  0.2319
  354TMC3    O2 5313   0.208   0.313  12.845 -0.8792  0.4083  0.1970
  355MPD2     C 5314   0.200   1.198  11.890 -0.8364  0.2495 -0.7668
  355MPD2    C1 5315   0.244   1.217  11.758  0.0037  0.0510 -0.0214
  355MPD2    C2 5316   0.385   1.221  11.734 -0.5181  0.1806  0.2069
  355MPD2    C3 5317   0.469   1.223  11.841  0.3927  0.4625 -0.5196
  355MPD2    C4 5318   0.426   1.198  11.969  0.1500  0.6983  0.3845
  355MPD2    C5 5319   0.294   1.198  11.992 -0.0648 -0.0403  0.4302
  355MPD2     H 5320   0.435   1.225  11.637  0.1011 -0.7903  0.4915
  355MPD2    H1 5321   0.494   1.196  12.054 -0.8789  2.9501  1.2574
  355MPD2    H2 5322   0.095   1.172  11.905 -0.8886  0.5925 -0.5410
  355MPD2    H3 5323   0.271   1.159  12.091 -1.4566  0.5089  0.3124
  355MPD2     N 5324   0.610   1.246  11.828 -0.3011  0.0267 -0.4187
  355MPD2    H5 5325   0.673   1.234  11.906 -0.4842 -1.5834 -0.5213
  355MPD2    N1 5326   0.146   1.204  11.656  0.2353 -0.7197 -0.0896
  355MPD2    H7 5327   0.060   1.156  11.679 -0.4866  0.8085  0.3918
  356TMC3    C1 5328   0.813   1.299  11.754  0.4717  0.5382  0.0520
  356TMC3    C2 5329   0.888   1.341  11.647  0.5730  0.5127  0.5391
  356TMC3    C3 5330   1.023   1.353  11.676 -0.4116 -0.0489 -0.6952
  356TMC3    C4 5331   0.854   1.300  11.882  0.6209 -0.0682 -0.2380
  356TMC3    C5 5332   0.989   1.319  11.898  0.3192 -0.4573 -0.0808
  356TMC3    C6 5333   1.078   1.343  11.799 -0.1092  0.6896 -0.5123
  356TMC3     C 5334   0.679   1.276  11.717  0.0837  0.1370  0.9831
  356TMC3     O 5335   0.646   1.279  11.599 -0.1642 -0.1538 -0.1093
  356TMC3     H 5336   0.854   1.342  11.544  1.9844  1.7591  0.0823
  356TMC3    H1 5337   0.794   1.289  11.972 -0.3562 -0.3098 -0.9232
  356TMC3    H2 5338   1.183   1.359  11.823  0.0312 -1.2717  0.2445
  356TMC3    C7 5339   1.048   1.283  12.025  0.6148  0.1854  0.2097
  356TMC3    C8 5340   1.105   1.373  11.560 -0.3584 -0.9415 -0.4000
  356TMC3    O1 5341   1.116   1.183  12.033  0.4410  0.1027 -0.4208
  356TMC3    O2 5342   1.073   1.325  11.451 -0.2876 -0.3021 -0.1300
  357MPD2     C 5343   0.111   1.259   1.045 -0.1344  0.4800 -0.1045
  357MPD2    C1 5344   0.041   1.142   1.069  0.5153 -0.0751 -0.0356
  357MPD2    C2 5345   4.624   1.133   1.047 -0.0705 -0.8721  0.0760
  357MPD2    C3 5346   4.550   1.245   1.007  0.4340 -0.6012 -0.0240
  357MPD2    C4 5347   4.623   1.363   0.982  0.5874 -0.3832  0.8010
  357MPD2    C5 5348   0.035   1.372   1.010 -0.0800 -0.1141 -0.3481
  357MPD2     H 5349   4.573   1.040   1.070  1.0641 -1.0804  1.7952
  357MPD2    H1 5350   4.578   1.456   0.949 -1.0436 -1.1572  0.8858
  357MPD2    H2 5351   0.214   1.265   1.075 -0.7211  0.9070  1.8364
  357MPD2    H3 5352   0.081   1.470   1.009  1.6584 -0.9473 -2.3922
  357MPD2     N 5353   4.409   1.244   0.989  0.4578 -0.0277  0.1274
  357MPD2    H5 5354   4.354   1.328   0.971  2.6793  1.1803 -0.9701
  357MPD2    N1 5355   0.122   1.028   1.091 -0.0595  0.2343 -0.2739
  357MPD2    H7 5356   0.221   1.043   1.077 -0.3352  2.4075  0.0819
  358TMC3    C1 5357   0.160   0.793   1.110  0.4901  0.2088  0.0952
  358TMC3    C2 5358   0.220   0.786   0.987  0.9103 -0.2338  1.2742
  358TMC3    C3 5359   0.224   0.659   0.929 -0.0905  0.3904 -0.5468
  358TMC3    C4 5360   0.124   0.679   1.178  0.1265 -0.1519 -0.1223
  358TMC3    C5 5361   0.161   0.554   1.132 -0.0283  0.6491  0.2179
  358TMC3    C6 5362   0.211   0.545   0.999 -0.9680  1.4945  0.1033
  358TMC3     C 5363   0.064   0.909   1.129 -0.0589  0.4355 -0.5463
  358TMC3     O 5364   4.679   0.896   1.183  0.2910 -0.0064 -0.2852
  358TMC3     H 5365   0.233   0.873   0.924 -1.1598  0.5373  1.9301
  358TMC3    H1 5366   0.087   0.696   1.279 -1.2912 -2.0593 -0.3097
  358TMC3    H2 5367   0.207   0.450   0.947 -0.0026  0.6098  1.6635
  358TMC3    C7 5368   0.095   0.439   1.188 -0.0842  0.5334  0.0848
  358TMC3    C8 5369   0.198   0.657   0.786  0.2269 -0.8278 -0.0776
  358TMC3    O1 5370   4.716   0.459   1.255  0.2963 -0.0962  0.2056
  358TMC3    O2 5371   0.240   0.753   0.717  0.4155 -0.6064 -0.0759
  359MPD2     C 5372   0.927   4.032  12.499  0.2315 -0.2389  0.2558
  359MPD2    C1 5373   0.846   4.122  12.427  0.2675  0.4474  0.4276
  359MPD2    C2 5374   0.709   4.094  12.427  0.7037 -0.6345 -0.5638
  359MPD2    C3 5375   0.655   3.999  12.517  0.1851  0.3090  0.1013
  359MPD2    C4 5376   0.745   3.925  12.599  0.5886 -0.4244  0.0281
  359MPD2    C5 5377   0.882   3.930  12.574  0.5691  0.3708 -0.4796
  359MPD2     H 5378   0.645   4.141  12.354 -0.9493 -0.5044  0.9611
  359MPD2    H1 5379   0.701   3.854  12.667  1.7678 -1.8209 -0.6558
  359MPD2    H2 5380   1.033   4.037  12.475 -0.2738  0.1980 -1.9176
  359MPD2    H3 5381   0.948   3.860  12.623 -0.8013 -0.8173 -0.3466
  359MPD2     N 5382   0.516   3.963  12.502 -0.3641 -0.4959 -0.0768
  359MPD2    H5 5383   0.480   3.890  12.562  1.2626 -2.0309 -0.9582
  359MPD2    N1 5384   0.904   4.210  12.336 -0.4683  0.2588 -0.0015
  359MPD2    H7 5385   0.848   4.245  12.258 -0.3612 -0.7903 -0.5468
  360TMC3    C1 5386   1.072   4.341  12.236 -0.1184 -0.5841 -0.6515
  360TMC3    C2 5387   1.194   4.415  12.243 -0.2038  0.1360 -0.3706
  360TMC3    C3 5388   1.213   4.515  12.149 -0.0967 -0.4816 -0.2962
  360TMC3    C4 5389   0.990   4.349  12.127 -0.6010  0.0126  0.2867
  360TMC3    C5 5390   1.018   4.457  12.047  0.0460 -0.7881 -0.5081
  360TMC3    C6 5391   1.128   4.535  12.052 -0.0254  0.2634  0.8095
  360TMC3     C 5392   1.033   4.259  12.344 -0.5026 -0.0135  0.6124
  360TMC3     O 5393   1.104   4.260  12.448 -0.2639  0.0218  0.5873
  360TMC3     H 5394   1.251   4.401  12.335 -1.0053  3.7062  0.6431
  360TMC3    H1 5395   0.923   4.268  12.103  0.1562 -1.2031  2.3066
  360TMC3    H2 5396   1.135   4.629  11.998 -0.2720 -0.4168 -0.4048
  360TMC3    C7 5397   0.962   4.462  11.910 -0.7713 -0.0062 -0.2094
  360TMC3    C8 5398   1.356   4.531  12.125  0.2187  0.1198 -0.0205
  360TMC3    O1 5399   1.023   4.535  11.831 -0.3896 -0.4056  0.2778
  360TMC3    O2 5400   1.417   4.486  12.220  0.4704  0.3681  0.5120
  361MPD2     C 5401   1.964   3.141  16.700 -0.3858  0.2822  0.1601
  361MPD2    C1 5402   2.036   3.229  16.774 -0.2713 -0.2759  0.1754
  361MPD2    C2 5403   2.171   3.222  16.770  0.3535  0.0021 -0.3468
  361MPD2    C3 5404   2.239   3.129  16.689 -0.8346  0.0533 -1.1108
  361MPD2    C4 5405   2.168   3.041  16.617  0.4612 -1.1062  0.2387
  361MPD2    C5 5406   2.032   3.050  16.629 -0.0626 -0.1357 -0.8300
  361MPD2     H 5407   2.235   3.301  16.807  2.2603 -1.6168 -0.1723
  361MPD2    H1 5408   2.209   2.963  16.553 -0.8543 -2.7489  1.4065
  361MPD2    H2 5409   1.857   3.136  16.683 -0.1377 -0.2563 -1.2300
  361MPD2    H3 5410   1.980   2.984  16.560 -1.0161  1.2184 -1.4158
  361MPD2     N 5411   2.379   3.117  16.678 -0.0132 -0.2386 -0.5607
  361MPD2    H5 5412   2.416   3.047  16.614 -0.4598  0.1316 -1.2179
  361MPD2    N1 5413   1.972   3.340  16.837 -0.0330 -0.1931  0.4631
  361MPD2    H7 5414   2.039   3.412  16.862 -1.5529  0.8298  1.5578
  362TMC3    C1 5415   1.788   3.463  16.883  0.2603 -0.5063  0.2108
  362TMC3    C2 5416   1.669   3.477  16.947 -0.5063 -0.1877  0.8002
  362TMC3    C3 5417   1.599   3.598  16.951  0.9443 -0.4718 -0.3633
  362TMC3    C4 5418   1.829   3.571  16.811 -0.2882 -0.6485  0.5361
  362TMC3    C5 5419   1.762   3.693  16.808 -0.1389 -0.2719  0.8085
  362TMC3    C6 5420   1.646   3.706  16.876 -0.3616 -0.6867 -0.0661
  362TMC3     C 5421   1.841   3.335  16.871  0.2885 -0.6058  0.3674
  362TMC3     O 5422   1.763   3.239  16.889  0.3990  0.1385 -0.1225
  362TMC3     H 5423   1.637   3.401  17.018 -0.6328 -0.3631  0.5569
  362TMC3    H1 5424   1.932   3.577  16.778 -0.9553 -0.2394 -1.4850
  362TMC3    H2 5425   1.577   3.786  16.852 -0.2924 -0.5910  0.0561
  362TMC3    C7 5426   1.763   3.759  16.682 -0.1859 -0.0453 -0.0323
  362TMC3    C8 5427   1.465   3.600  17.012 -0.0820 -0.2520  0.3830
  362TMC3    O1 5428   1.722   3.873  16.686  0.2024  0.2625 -0.3113
  362TMC3    O2 5429   1.417   3.490  17.047 -0.2607  0.2760 -0.0722
  363TMC3    C1 5430   1.651   1.844   9.710  0.3959 -0.4638 -0.1761
  363TMC3    C2 5431   1.607   1.723   9.661 -0.3895 -0.1404  0.2924
  363TMC3    C3 5432   1.520   1.722   9.559 -0.2855 -0.6263  0.4866
  363TMC3    C4 5433   1.593   1.960   9.662  0.3157 -0.1790  1.0730
  363TMC3    C5 5434   1.506   1.949   9.556  0.6714  0.3497 -0.4219
  363TMC3    C6 5435   1.463   1.835   9.498  0.6108  0.1347 -0.3636
  363TMC3     C 5436   1.778   1.837   9.781 -0.2590  0.3348  0.8068
  363TMC3     O 5437   1.816   1.726   9.819  0.4123 -0.5275  0.4163
  363TMC3     H 5438   1.633   1.629   9.708  0.8610  0.3387  0.5694
  363TMC3    H1 5439   1.613   2.051   9.718 -1.9293  0.2621  1.1437
  363TMC3    H2 5440   1.388   1.829   9.420 -0.0622  1.9209  0.1722
  363TMC3    C7 5441   1.433   2.070   9.515  0.4903 -0.4192 -0.1423
  363TMC3    C8 5442   1.444   1.601   9.525 -0.4377  0.0826  0.1844
  363TMC3    O1 5443   1.331   2.056   9.447  0.1932 -0.0881 -1.0411
  363TMC3    O2 5444   1.326   1.613   9.504  0.1530 -0.4109 -0.0826
  364MPD2     C 5445   4.161   0.397  10.610  0.4988 -0.2945  0.4720
  364MPD2    C1 5446   4.299   0.377  10.598  0.8281  0.2394 -0.5342
  364MPD2    C2 5447   4.348   0.250  10.628 -0.1458  0.8023 -0.2079
  364MPD2    C3 5448   4.265   0.146  10.671  0.4202  0.5173  0.1901
  364MPD2    C4 5449   4.131   0.175  10.697  0.0996 -0.1553 -0.1471
  364MPD2    C5 5450   4.085   0.304  10.669 -0.6772  0.2245 -0.1215
  364MPD2     H 5451   4.455   0.230  10.634 -0.3712 -0.4195 -0.2490
  364MPD2    H1 5452   4.068   0.105  10.751  0.2574  0.9920  1.4930
  364MPD2    H2 5453   4.112   0.490  10.584  0.9747 -0.6885 -1.8585
  364MPD2    H3 5454   3.981   0.329  10.684 -0.4538  0.9386  0.1997
  364MPD2     N 5455   4.310   0.017  10.709 -0.3674  0.2402 -0.2119
  364MPD2    H5 5456   4.258   4.685  10.775 -0.7506 -2.2157 -2.6414
  364MPD2    N1 5457   4.384   0.487  10.554 -0.7508  0.1943  0.2432
  364MPD2    H7 5458   4.335   0.574  10.534 -1.7656 -0.2649  0.7563
  365TMC3    C1 5459   4.573   0.618  10.489 -0.0065 -0.6763  1.0395
  365TMC3    C2 5460   4.679   0.618  10.402  0.0813  0.7774  0.3540
  365TMC3    C3 5461   4.723   0.745  10.371 -0.6226 -0.4032  0.1897
  365TMC3    C4 5462   4.514   0.721  10.547 -0.8082  0.0664 -0.1354
  365TMC3    C5 5463   4.570   0.842  10.517  0.9369 -0.3744  0.0470
  365TMC3    C6 5464   4.668   0.852  10.425  0.1071 -0.3461 -0.0489
  365TMC3     C 5465   4.520   0.491  10.529  0.4934 -0.0471  0.3466
  365TMC3     O 5466   4.588   0.390  10.534 -0.4142  0.2066 -0.5536
  365TMC3     H 5467   4.713   0.524  10.360  0.0827  0.9571 -0.0407
  365TMC3    H1 5468   4.445   0.708  10.629 -0.0154 -0.8496  0.3839
  365TMC3    H2 5469   4.684   0.948  10.378 -1.7851 -0.3397 -0.6763
  365TMC3    C7 5470   4.490   0.960  10.549 -0.0786  0.6717  0.4767
  365TMC3    C8 5471   0.120   0.766  10.293  0.0127 -0.5225 -0.6513
  365TMC3    O1 5472   4.495   1.057  10.472  0.0550  0.5617  0.3477
  365TMC3    O2 5473   0.143   0.889  10.278 -0.2709 -0.6679  0.1800
  366MPD2     C 5474   2.853   1.584  15.343 -0.0345  0.4724  0.6074
  366MPD2    C1 5475   2.927   1.674  15.280 -0.0762 -0.0804 -0.1607
  366MPD2    C2 5476   3.041   1.640  15.214  0.4435 -0.3478  0.1389
  366MPD2    C3 5477   3.081   1.508  15.216 -0.2763  0.8233  0.1167
  366MPD2    C4 5478   3.009   1.419  15.283  0.0016  0.0844  0.5329
  366MPD2    C5 5479   2.898   1.457  15.350  0.3586 -0.6521  0.9770
  366MPD2     H 5480   3.086   1.715  15.150  0.5089  0.7834  1.5020
  366MPD2    H1 5481   3.037   1.315  15.297 -2.3309 -1.1259 -3.9366
  366MPD2    H2 5482   2.759   1.605  15.393 -0.6105  0.6900 -0.5750
  366MPD2    H3 5483   2.836   1.381  15.396 -1.6988  0.4554  0.0140
  366MPD2     N 5484   3.199   1.449  15.163  0.7372 -0.0596 -0.2123
  366MPD2    H5 5485   3.205   1.350  15.186 -1.4658  0.1244  1.0902
  366MPD2    N1 5486   2.888   1.811  15.275  0.6044 -0.3838  0.4103
  366MPD2    H7 5487   2.966   1.865  15.240  0.2734  0.9989  1.8416
  367TMC3    C1 5488   2.781   2.024  15.285 -0.4164 -0.3860  0.0964
  367TMC3    C2 5489   2.901   2.092  15.271 -0.3922 -0.0543 -0.2125
  367TMC3    C3 5490   2.891   2.226  15.256 -0.5401  0.4999  0.6609
  367TMC3    C4 5491   2.665   2.086  15.247  0.1390  0.2337 -0.8019
  367TMC3    C5 5492   2.666   2.221  15.213 -0.6927 -0.0124 -0.3092
  367TMC3    C6 5493   2.773   2.294  15.233  0.3321 -0.7210 -0.2896
  367TMC3     C 5494   2.771   1.875  15.305  0.3355 -0.2224 -0.5477
  367TMC3     O 5495   2.660   1.826  15.314  0.1834  0.2361 -0.7731
  367TMC3     H 5496   2.987   2.057  15.327 -1.7202  0.2230  2.0179
  367TMC3    H1 5497   2.569   2.037  15.245 -0.0887  0.6986 -1.0567
  367TMC3    H2 5498   2.780   2.396  15.195  1.3354 -0.5872  0.2457
  367TMC3    C7 5499   2.550   2.278  15.138  0.4025 -0.2170 -0.4899
  367TMC3    C8 5500   3.001   2.296  15.307 -0.5875  0.0034 -0.3263
  367TMC3    O1 5501   2.542   2.398  15.144 -0.7450 -0.2756 -0.0903
  367TMC3    O2 5502   3.111   2.247  15.276 -0.7653  0.0142  0.3357
  368MPD2     C 5503   3.580   3.196  13.267  0.1595  0.4029 -0.5551
  368MPD2    C1 5504   3.608   3.314  13.208 -0.7560  0.1624 -0.5418
  368MPD2    C2 5505   3.739   3.344  13.170  0.1025 -0.4100 -0.5654
  368MPD2    C3 5506   3.837   3.250  13.188 -0.3713 -0.2226 -0.2623
  368MPD2    C4 5507   3.806   3.128  13.246  0.0048  0.2377  0.3350
  368MPD2    C5 5508   3.680   3.103  13.287 -0.6490  0.0965 -0.0937
  368MPD2     H 5509   3.762   3.441  13.127 -0.4381  1.3467  3.0598
  368MPD2    H1 5510   3.879   3.055  13.279 -1.4659 -0.0176  2.9854
  368MPD2    H2 5511   3.486   3.172  13.316  0.2258  2.1505  0.4421
  368MPD2    H3 5512   3.658   3.015  13.347  0.3258 -0.7441 -0.9691
  368MPD2     N 5513   3.972   3.284  13.151 -0.6153 -0.1597  0.1447
  368MPD2    H5 5514   4.045   3.216  13.166  0.6160  1.2571  0.5493
  368MPD2    N1 5515   3.500   3.402  13.188 -0.1424 -0.4874 -0.0853
  368MPD2    H7 5516   3.409   3.376  13.225  0.0885 -0.1679  0.6973
  369TMC3    C1 5517   3.384   3.606  13.137  0.2462 -0.5218  0.0970
  369TMC3    C2 5518   3.392   3.728  13.074  0.1616  0.0171 -0.4318
  369TMC3    C3 5519   3.293   3.825  13.102 -0.0578 -0.5667  0.0490
  369TMC3    C4 5520   3.292   3.586  13.239 -0.2496 -0.3009 -0.8952
  369TMC3    C5 5521   3.195   3.677  13.261 -0.9634  0.0151  0.3719
  369TMC3    C6 5522   3.193   3.796  13.191  0.6267  0.9018  0.1211
  369TMC3     C 5523   3.504   3.529  13.124  0.3002 -0.3280  0.6769
  369TMC3     O 5524   3.590   3.581  13.060 -0.1891 -0.1101  0.1051
  369TMC3     H 5525   3.462   3.743  12.993 -0.8699 -0.4831 -1.4055
  369TMC3    H1 5526   3.290   3.494  13.296 -0.9401  0.7111  0.7447
  369TMC3    H2 5527   3.127   3.878  13.217 -0.2246  0.4651 -0.6844
  369TMC3    C7 5528   3.098   3.648  13.366 -0.5726  1.0881  0.2358
  369TMC3    C8 5529   3.340   3.956  13.065 -0.5253  0.8248 -1.2642
  369TMC3    O1 5530   3.117   3.550  13.434 -0.0953 -0.4722  0.0392
  369TMC3    O2 5531   3.450   3.965  13.018  0.0898  0.0071 -0.8013
  370TMC3    C1 5532   3.391   4.316  15.992 -0.2728  0.1636  0.4449
  370TMC3    C2 5533   3.339   4.226  16.085  0.0224 -0.1967  0.5083
  370TMC3    C3 5534   3.291   4.106  16.033 -0.6912 -0.0221 -0.3756
  370TMC3    C4 5535   3.407   4.276  15.863  0.4985 -0.0129 -0.0498
  370TMC3    C5 5536   3.370   4.151  15.821  0.0070  0.8951 -0.4249
  370TMC3    C6 5537   3.303   4.064  15.904 -0.4614 -0.1875 -0.8162
  370TMC3     C 5538   3.497   4.400  16.044 -0.4670 -0.1306  0.7366
  370TMC3     O 5539   3.540   4.368  16.151 -0.1561 -0.3579 -0.4790
  370TMC3     H 5540   3.330   4.264  16.186  0.7458  2.4438 -0.4110
  370TMC3    H1 5541   3.469   4.341  15.802 -2.3064  0.1232 -2.7265
  370TMC3    H2 5542   3.263   3.970  15.869 -0.3994 -0.1456 -1.0015
  370TMC3    C7 5543   3.434   4.100  15.697 -0.7361  0.0543  1.0036
  370TMC3    C8 5544   3.236   4.008  16.130  0.1329 -0.4228  0.5193
  370TMC3    O1 5545   3.524   4.164  15.648  0.3898 -0.1031 -0.1296
  370TMC3    O2 5546   3.169   3.920  16.084 -0.2836  0.1266 -0.1275
  371TMC3    C1 5547   0.162   2.612  15.328 -0.4235 -0.3030  0.6830
  371TMC3    C2 5548   0.038   2.649  15.380  0.8228  0.0260 -0.2777
  371TMC3    C3 5549   4.706   2.774  15.358  0.1219 -0.5544 -0.1225
  371TMC3    C4 5550   0.238   2.707  15.271 -0.5471 -0.2395  0.3816
  371TMC3    C5 5551   0.179   2.830  15.249 -0.3541  0.1458  0.1526
  371TMC3    C6 5552   0.058   2.868  15.295 -0.1265  0.6444  0.3371
  371TMC3     C 5553   0.231   2.510  15.387  0.1300  0.9204 -0.6006
  371TMC3     O 5554   0.350   2.524  15.409  0.4614  0.3837  0.0703
  371TMC3     H 5555   4.704   2.582  15.442 -0.4287  0.3686 -1.0787
  371TMC3    H1 5556   0.332   2.686  15.220 -0.9138  0.2360 -0.5035
  371TMC3    H2 5557   0.022   2.969  15.277 -0.4478  0.1539 -1.7305
  371TMC3    C7 5558   0.229   2.916  15.155 -0.2659  0.1873 -0.4686
  371TMC3    C8 5559   4.575   2.800  15.424  0.3760  0.3621 -0.0366
  371TMC3    O1 5560   0.199   3.031  15.155 -0.6690  0.1916 -0.2992
  371TMC3    O2 5561   4.523   2.706  15.482  0.1749 -0.0983 -0.6918
  372MPD2     C 5562   3.884   3.719  13.372 -0.5656  0.4797 -0.1648
  372MPD2    C1 5563   4.018   3.690  13.383  0.0305 -0.0740  0.3729
  372MPD2    C2 5564   4.046   3.558  13.423  0.4265  0.3989  0.0896
  372MPD2    C3 5565   3.947   3.472  13.468  0.0189  0.1868 -0.7911
  372MPD2    C4 5566   3.810   3.512  13.463  0.2195  0.7788 -0.0376
  372MPD2    C5 5567   3.782   3.639  13.414 -0.1262 -0.1210 -0.3483
  372MPD2     H 5568   4.148   3.528  13.445  0.5667  0.9560  0.2099
  372MPD2    H1 5569   3.722   3.455  13.489  0.4421  0.6214  0.3722
  372MPD2    H2 5570   3.858   3.820  13.339  3.1057  1.6480  0.5442
  372MPD2    H3 5571   3.678   3.670  13.412 -0.6245 -1.8413 -1.0108
  372MPD2     N 5572   3.979   3.333  13.502 -0.1355 -0.1887 -0.1513
  372MPD2    H5 5573   4.070   3.296  13.475 -0.3525 -1.7635  1.3545
  372MPD2    N1 5574   4.117   3.787  13.349  0.5270  0.1330 -0.8938
  372MPD2    H7 5575   4.216   3.769  13.358  0.4603 -0.6823 -1.7806
  373TMC3    C1 5576   3.935   3.106  13.575  0.2685  0.2568  0.0567
  373TMC3    C2 5577   3.895   3.035  13.691  0.6687 -0.3794 -0.2701
  373TMC3    C3 5578   3.948   2.912  13.711  0.3194  0.1931  0.1042
  373TMC3    C4 5579   4.026   3.057  13.480  0.3479 -0.2807  0.4758
  373TMC3    C5 5580   4.063   2.930  13.501  0.9190  0.2697 -0.5986
  373TMC3    C6 5581   4.024   2.856  13.606  0.7223 -0.4666 -0.1638
  373TMC3     C 5582   3.884   3.246  13.557  0.6334  0.1862 -0.2448
  373TMC3     O 5583   3.776   3.265  13.605  0.3961 -0.0129  0.3907
  373TMC3     H 5584   3.827   3.077  13.764  0.5633 -3.3857  1.3897
  373TMC3    H1 5585   4.056   3.117  13.395 -1.7530  1.9162  1.2726
  373TMC3    H2 5586   4.064   2.760  13.634 -0.1220  0.0690  2.8158
  373TMC3    C7 5587   4.195   2.887  13.465  0.1229 -0.3295 -0.3486
  373TMC3    C8 5588   4.012   2.884  13.841  0.1547 -0.0707  0.4495
  373TMC3    O1 5589   4.218   2.772  13.441 -0.1029  0.3360  0.3094
  373TMC3    O2 5590   4.117   2.823  13.847 -0.5011  0.2398  0.3524
  374TMC3    C1 5591   0.362   3.812   9.620  0.1702  0.1466  0.2246
  374TMC3    C2 5592   0.457   3.890   9.683  0.3840  0.4210  0.8621
  374TMC3    C3 5593   0.547   3.962   9.608 -0.3857 -0.0179  0.0569
  374TMC3    C4 5594   0.359   3.796   9.485 -1.0982  0.4847 -0.2873
  374TMC3    C5 5595   0.460   3.853   9.413  0.3431 -0.7505 -0.3141
  374TMC3    C6 5596   0.550   3.942   9.479  0.2605  0.5548 -0.4771
  374TMC3     C 5597   0.257   3.769   9.704 -0.3691 -1.5415  0.2208
  374TMC3     O 5598   0.269   3.780   9.823  0.7793 -0.8411 -0.8096
  374TMC3     H 5599   0.458   3.896   9.791  1.0304 -0.4063  0.9024
  374TMC3    H1 5600   0.299   3.737   9.417 -1.3472  1.2347 -0.7130
  374TMC3    H2 5601   0.630   3.988   9.422  0.2745  1.6946  0.4731
  374TMC3    C7 5602   0.431   3.869   9.271  0.3315 -0.1613 -0.4083
  374TMC3    C8 5603   0.644   4.046   9.668  0.0901  0.0121 -0.0227
  374TMC3    O1 5604   0.398   3.772   9.203  0.3858  0.4613  0.2285
  374TMC3    O2 5605   0.721   4.113   9.599  0.2934 -0.1532  0.2910
  375MPD2     C 5606   4.658   0.468  16.859  0.0669 -0.4438  1.1108
  375MPD2    C1 5607   4.591   0.383  16.776  0.0892  0.0011 -0.1702
  375MPD2    C2 5608   4.674   0.306  16.686 -0.6544 -0.7273 -0.2288
  375MPD2    C3 5609   0.088   0.322  16.686  0.5629  0.5142  0.5773
  375MPD2    C4 5610   0.140   0.426  16.756  0.0870 -0.0521  0.3864
  375MPD2    C5 5611   0.058   0.507  16.835 -0.7919 -0.6836  0.2462
  375MPD2     H 5612   4.623   0.228  16.630 -2.7484  1.0931 -0.8233
  375MPD2    H1 5613   0.246   0.448  16.743 -0.1677  1.4935  0.9354
  375MPD2    H2 5614   4.621   0.513  16.951  0.6576  0.1470  1.0613
  375MPD2    H3 5615   0.094   0.586  16.900 -1.1647 -0.7999  0.5931
  375MPD2     N 5616   0.177   0.244  16.613 -0.0936 -0.0351  0.2536
  375MPD2    H5 5617   0.273   0.276  16.609  0.7192 -2.5910 -0.4101
  375MPD2    N1 5618   4.450   0.361  16.776 -0.8105  0.1564  0.3347
  375MPD2    H7 5619   4.420   0.292  16.709 -0.6848 -0.4470  0.9002
  376TMC3    C1 5620   0.261   0.062  16.489 -0.6465  0.2340 -0.3224
  376TMC3    C2 5621   0.392   0.089  16.523  0.3300 -0.5815  0.0594
  376TMC3    C3 5622   0.495   0.045  16.433 -0.6224 -0.1180 -0.0438
  376TMC3    C4 5623   0.230   4.716  16.381  0.4330  0.4620 -0.3364
  376TMC3    C5 5624   0.327   4.673  16.293 -0.2325  0.4475 -0.6974
  376TMC3    C6 5625   0.460   4.694  16.322 -0.3312 -0.6745 -0.4393
  376TMC3     C 5626   0.143   0.124  16.556  0.5703 -0.7609  0.0091
  376TMC3     O 5627   0.036   0.065  16.547  0.0105  0.5939  0.1821
  376TMC3     H 5628   0.409   0.148  16.612 -1.2124  0.5584 -0.3887
  376TMC3    H1 5629   0.126   4.703  16.352  0.6183 -2.0108  0.1237
  376TMC3    H2 5630   0.539   4.667  16.253 -0.4161  2.8551 -1.9687
  376TMC3    C7 5631   0.286   4.676  16.156  0.0827  0.1896 -0.6058
  376TMC3    C8 5632   0.602   0.138  16.409 -0.4874 -0.0952 -0.4072
  376TMC3    O1 5633   0.372   4.718  16.080  0.0929  0.4563  0.1821
  376TMC3    O2 5634   0.628   0.163  16.291  0.5567 -0.0452 -0.0247
  377MPD2     C 5635   2.426   3.805  12.064  0.4041  0.3582  0.4574
  377MPD2    C1 5636   2.513   3.839  12.162  0.6231  0.4038 -0.0859
  377MPD2    C2 5637   2.467   3.876  12.288 -1.1790  0.2758 -0.4404
  377MPD2    C3 5638   2.330   3.883  12.304  0.0847  0.0773  0.2062
  377MPD2    C4 5639   2.240   3.857  12.198 -0.7069 -0.6591 -0.3468
  377MPD2    C5 5640   2.294   3.812  12.082 -0.8507 -0.1291  0.6774
  377MPD2     H 5641   2.533   3.903  12.370 -1.2178 -0.5021 -0.1533
  377MPD2    H1 5642   2.132   3.868  12.203 -0.6339 -0.0659 -0.0329
  377MPD2    H2 5643   2.464   3.764  11.971 -0.9923  0.1672 -0.0224
  377MPD2    H3 5644   2.232   3.780  12.000 -1.1494 -0.2578  0.9561
  377MPD2     N 5645   2.273   3.904  12.432 -0.5048 -0.0219  0.3706
  377MPD2    H5 5646   2.172   3.914  12.432 -0.8229 -3.5299 -0.3458
  377MPD2    N1 5647   2.648   3.825  12.133 -0.3999 -0.2379  0.3593
  377MPD2    H7 5648   2.673   3.781  12.045 -1.3484  0.6873 -0.3605
  378TMC3    C1 5649   3.010   3.988  12.053 -0.4389  0.2533 -0.0931
  378TMC3    C2 5650   2.904   3.902  12.062  0.1219  0.2546 -0.1917
  378TMC3    C3 5651   2.881   3.842  12.185 -0.8975  0.0564  0.3670
  378TMC3    C4 5652   3.080   4.019  12.165 -0.0635 -0.0703 -0.2981
  378TMC3    C5 5653   3.064   3.941  12.276  0.6013  0.0330  0.0157
  378TMC3    C6 5654   2.968   3.849  12.287  0.1865  0.7677  0.9706
  378TMC3     C 5655   2.996   4.090  11.948  0.1619 -0.6025 -0.2777
  378TMC3     O 5656   2.965   4.048  11.840 -0.2195  0.1157 -0.0904
  378TMC3     H 5657   2.845   3.884  11.973 -1.7375  1.1545  0.8714
  378TMC3    H1 5658   3.151   4.101  12.171 -0.3602  0.0630  1.5521
  378TMC3    H2 5659   2.957   3.798  12.382 -0.7310  1.3501  1.1803
  378TMC3    C7 5660   3.143   3.967  12.394 -0.2342  0.2252 -0.0301
  378TMC3    C8 5661   2.744   3.828  12.231  0.9167  0.3745  0.0137
  378TMC3    O1 5662   3.085   3.954  12.498  0.5708 -0.6792 -0.4003
  378TMC3    O2 5663   2.730   3.843  12.351 -0.4944  0.3481  0.1929
  379MPD2     C 5664   4.249   2.497  15.881 -0.4157 -0.4084  0.1926
  379MPD2    C1 5665   4.121   2.450  15.860  0.3695  0.2462  0.7075
  379MPD2    C2 5666   4.075   2.338  15.929 -0.2570  0.2402  0.0335
  379MPD2    C3 5667   4.156   2.277  16.025 -0.1585  0.2882 -0.4754
  379MPD2    C4 5668   4.281   2.331  16.048 -0.4675 -0.0546 -0.1209
  379MPD2    C5 5669   4.327   2.439  15.978  0.1781 -0.3450 -0.2882
  379MPD2     H 5670   3.972   2.311  15.909  0.6347 -1.4489 -2.3409
  379MPD2    H1 5671   4.342   2.285  16.124 -1.1775 -0.5137  0.1620
  379MPD2    H2 5672   4.290   2.585  15.832 -1.7976 -0.2958 -0.7442
  379MPD2    H3 5673   4.432   2.465  15.985  0.2366 -0.9503  1.0155
  379MPD2     N 5674   4.115   2.165  16.107 -0.1895 -0.2576 -0.2113
  379MPD2    H5 5675   4.175   2.144  16.186  1.1192 -1.1694 -1.4419
  379MPD2    N1 5676   4.036   2.530  15.776 -0.4756 -0.0282 -0.0221
  379MPD2    H7 5677   4.082   2.591  15.710 -0.2681 -2.1763 -1.8543
  380TMC3    C1 5678   3.841   2.597  15.673 -0.2007 -0.0245 -0.3459
  380TMC3    C2 5679   3.904   2.580  15.549  0.1733  0.1895  0.2314
  380TMC3    C3 5680   3.823   2.581  15.437  0.5188  1.1890 -0.2105
  380TMC3    C4 5681   3.710   2.598  15.676 -0.6796  1.1617  1.0737
  380TMC3    C5 5682   3.634   2.588  15.563 -0.9187  0.1869 -0.2474
  380TMC3    C6 5683   3.685   2.576  15.438 -0.5106  0.2634  0.5703
  380TMC3     C 5684   3.899   2.540  15.795 -0.5086  0.3028 -0.2428
  380TMC3     O 5685   3.834   2.489  15.885  0.4844 -0.5081 -0.3038
  380TMC3     H 5686   4.007   2.546  15.545 -0.5639 -1.9810 -0.0620
  380TMC3    H1 5687   3.667   2.608  15.775 -2.7310  1.3487  0.1760
  380TMC3    H2 5688   3.622   2.590  15.351 -0.0414 -0.0766  0.1862
  380TMC3    C7 5689   3.498   2.638  15.576 -0.6194  0.3514  0.3820
  380TMC3    C8 5690   3.892   2.611  15.314 -0.0744  0.0428 -0.3336
  380TMC3    O1 5691   3.468   2.728  15.657  0.5737  0.0036 -0.1234
  380TMC3    O2 5692   3.834   2.578  15.209 -0.0844 -0.3751 -0.1571
  381TMC3    C1 5693   3.477   3.299  15.727 -0.1595 -0.5359  0.2841
  381TMC3    C2 5694   3.553   3.413  15.745 -0.0656 -0.1159  0.1895
  381TMC3    C3 5695   3.507   3.505  15.835  0.3645  0.0502  0.9302
  381TMC3    C4 5696   3.359   3.281  15.791 -0.0179 -0.2679 -0.4734
  381TMC3    C5 5697   3.315   3.377  15.876 -0.5163 -0.5258 -1.0406
  381TMC3    C6 5698   3.393   3.485  15.906 -0.0722 -0.0801 -0.5817
  381TMC3     C 5699   3.532   3.196  15.647 -0.2245 -0.5707  0.2773
  381TMC3     O 5700   3.460   3.097  15.626 -0.0550  0.3834  0.1116
  381TMC3     H 5701   3.643   3.438  15.689 -0.4198  0.2468 -0.2099
  381TMC3    H1 5702   3.306   3.191  15.764 -0.2871  0.3702 -2.0484
  381TMC3    H2 5703   3.348   3.566  15.963 -0.6180  0.9341 -2.4547
  381TMC3    C7 5704   3.222   3.322  15.976 -0.1083 -0.2932  0.0751
  381TMC3    C8 5705   3.609   3.610  15.869  0.2884 -0.1844 -0.1050
  381TMC3    O1 5706   3.233   3.200  15.994 -0.5629 -0.0309 -0.1023
  381TMC3    O2 5707   3.709   3.617  15.799  0.1427 -0.7914 -0.5228
  382MPD2     C 5708   2.116   1.667  16.455  0.5307 -0.6828 -0.4168
  382MPD2    C1 5709   2.127   1.664  16.591  0.4113 -0.3159  0.1239
  382MPD2    C2 5710   2.142   1.551  16.662  0.2305 -0.1540  0.0358
  382MPD2    C3 5711   2.147   1.426  16.595 -0.2722 -0.0164  0.0529
  382MPD2    C4 5712   2.113   1.431  16.464  0.3952 -0.6290 -0.3076
  382MPD2    C5 5713   2.104   1.551  16.393 -0.2416  0.9512 -0.4984
  382MPD2     H 5714   2.164   1.549  16.768 -0.1029  2.3020  0.1481
  382MPD2    H1 5715   2.120   1.344  16.400 -1.3843 -2.0556  1.4854
  382MPD2    H2 5716   2.106   1.764  16.406 -2.9155 -1.5662 -1.4527
  382MPD2    H3 5717   2.098   1.547  16.285 -2.4292  2.4618 -0.4467
  382MPD2     N 5718   2.189   1.302  16.654 -0.9245  0.0021 -0.2061
  382MPD2    H5 5719   2.175   1.229  16.585  2.3857 -1.0360  0.1826
  382MPD2    N1 5720   2.130   1.783  16.668  0.0710 -0.1559  0.3135
  382MPD2    H7 5721   2.128   1.777  16.769 -1.8533  0.8274  0.3351
  383TMC3    C1 5722   2.248   1.145  16.817 -0.4155 -0.6689  0.8544
  383TMC3    C2 5723   2.148   1.056  16.781 -1.0953  0.1030 -0.6669
  383TMC3    C3 5724   2.126   0.949  16.863 -0.0530 -0.3925 -0.0770
  383TMC3    C4 5725   2.332   1.127  16.922 -1.1467  0.3454 -0.0480
  383TMC3    C5 5726   2.312   1.019  16.999 -0.3649  0.5462 -0.7357
  383TMC3    C6 5727   2.202   0.930  16.980  0.0323  0.3142 -0.0332
  383TMC3     C 5728   2.227   1.288  16.788  0.8366 -0.0685  0.2106
  383TMC3     O 5729   2.259   1.364  16.879 -0.1682  0.8898  0.2706
  383TMC3     H 5730   2.080   1.088  16.704 -0.2114 -1.1951 -1.9823
  383TMC3    H1 5731   2.414   1.197  16.936  1.5545 -2.0650 -3.5989
  383TMC3    H2 5732   2.184   0.847  17.048  1.3910 -1.4512 -1.8228
  383TMC3    C7 5733   2.364   1.002  17.133  0.3543 -0.3814  0.0745
  383TMC3    C8 5734   1.988   0.891  16.854 -0.8417 -0.2262  0.5736
  383TMC3    O1 5735   2.312   0.926  17.217 -0.2992  0.3378 -0.7560
  383TMC3    O2 5736   1.910   0.936  16.774  0.3309  0.1546  0.2886
  384MPD2     C 5737   3.855   2.499  11.697 -0.3339  0.1894  0.1049
  384MPD2    C1 5738   3.906   2.394  11.767 -0.4560  0.2569 -0.0707
  384MPD2    C2 5739   4.040   2.371  11.782 -0.0681 -0.7062  0.0666
  384MPD2    C3 5740   4.129   2.450  11.719 -0.5184 -0.6962 -1.0647
  384MPD2    C4 5741   4.083   2.569  11.667  0.0783  0.2526  0.7752
  384MPD2    C5 5742   3.948   2.590  11.664  0.9523  0.4367  0.2001
  384MPD2     H 5743   4.067   2.292  11.851 -0.5862 -0.5156  0.4885
  384MPD2    H1 5744   4.160   2.641  11.642 -0.9382  1.1392  0.2249
  384MPD2    H2 5745   3.750   2.519  11.681 -0.4617  0.1239  0.8576
  384MPD2    H3 5746   3.917   2.687  11.627 -2.4093 -0.7747 -0.0834
  384MPD2     N 5747   4.273   2.426  11.725  0.3198  0.2312 -0.3309
  384MPD2    H5 5748   4.335   2.503  11.704  0.3039  1.1292  2.9015
  384MPD2    N1 5749   3.819   2.308  11.842  0.2175  0.9077 -0.5050
  384MPD2    H7 5750   3.866   2.235  11.895 -0.1940  0.3770 -0.8695
  385TMC3    C1 5751   4.466   2.308  11.783 -0.2149  0.0707  0.1084
  385TMC3    C2 5752   4.529   2.193  11.763 -0.2280  0.2958 -0.5185
  385TMC3    C3 5753   4.619   2.164  11.860  0.0288  0.0548 -0.5079
  385TMC3    C4 5754   4.494   2.397  11.883  0.4265  0.0678 -0.2614
  385TMC3    C5 5755   4.586   2.365  11.974 -0.1216  0.2152 -0.3041
  385TMC3    C6 5756   4.650   2.246  11.965 -0.1973 -0.7547  0.1936
  385TMC3     C 5757   4.325   2.303  11.753 -0.3556  0.6503 -0.4409
  385TMC3     O 5758   4.268   2.195  11.763 -0.3812 -0.4329 -0.4211
  385TMC3     H 5759   4.511   2.123  11.682  0.0803 -0.7420  0.3102
  385TMC3    H1 5760   4.426   2.480  11.892 -0.9729 -1.1407  0.2875
  385TMC3    H2 5761   4.704   2.217  12.054 -2.0495 -2.7555  0.6468
  385TMC3    C7 5762   4.534   2.378  12.114  0.1047  0.1924 -0.2332
  385TMC3    C8 5763   4.691   2.040  11.863 -0.2009 -0.1338 -0.3259
  385TMC3    O1 5764   4.603   2.437  12.194 -0.0640  0.0558 -0.1728
  385TMC3    O2 5765   0.078   2.049  11.911  0.0639 -0.1176 -0.1434
  386TMC3    C1 5766   4.576   4.269  12.163 -0.0538 -0.0956 -0.4519
  386TMC3    C2 5767   4.605   4.308  12.033  0.4623 -0.4567  0.5278
  386TMC3    C3 5768   4.550   4.424  11.993 -0.7772 -0.8545  0.0584
  386TMC3    C4 5769   4.494   4.340  12.249 -0.0620 -0.0548  0.2579
  386TMC3    C5 5770   4.436   4.452  12.201 -0.5959 -0.0549 -0.4504
  386TMC3    C6 5771   4.458   4.487  12.070 -0.5592  0.2764 -0.1665
  386TMC3     C 5772   4.573   4.123  12.201 -0.5495  0.4137 -0.9701
  386TMC3     O 5773   4.497   4.069  12.283  0.0554  0.3957  0.4760
  386TMC3     H 5774   4.660   4.241  11.968  1.1014  2.3845 -1.8698
  386TMC3    H1 5775   4.474   4.305  12.349 -0.0765  0.5643  0.4657
  386TMC3    H2 5776   4.404   4.568  12.023  0.0909  1.0119  0.3368
  386TMC3    C7 5777   4.291   4.424  12.215 -0.1541  0.2998 -0.4772
  386TMC3    C8 5778   4.525   4.433  11.849 -0.2074 -0.2235 -0.2905
  386TMC3    O1 5779   4.250   4.390  12.329  0.8456  0.0005  0.6084
  386TMC3    O2 5780   4.410   4.406  11.815 -0.1508 -0.0022  0.3596
  387MPD2     C 5781   1.946   4.371   9.511 -0.4010 -0.0783 -0.6969
  387MPD2    C1 5782   2.009   4.339   9.634 -0.3905 -0.4910  0.5380
  387MPD2    C2 5783   1.983   4.224   9.696  0.1351  0.2566  0.2823
  387MPD2    C3 5784   1.890   4.135   9.651 -0.3246  0.3041  0.5413
  387MPD2    C4 5785   1.818   4.167   9.533 -0.4368  0.2501 -0.2608
  387MPD2    C5 5786   1.858   4.278   9.460 -0.5047  0.2534  0.0845
  387MPD2     H 5787   2.031   4.190   9.787  0.8908 -0.2519 -0.3056
  387MPD2    H1 5788   1.743   4.095   9.503 -1.2058  0.6321  0.7806
  387MPD2    H2 5789   1.985   4.453   9.452  0.8291 -0.3285 -0.2436
  387MPD2    H3 5790   1.816   4.297   9.362 -0.5522 -0.8610 -0.1092
  387MPD2     N 5791   1.887   4.013   9.719 -0.2016  0.7206 -0.0134
  387MPD2    H5 5792   1.931   4.007   9.810 -0.8627 -3.3808  0.0460
  387MPD2    N1 5793   2.105   4.418   9.693 -0.2512 -0.0940 -0.2855
  387MPD2    H7 5794   2.142   4.386   9.782 -0.6009  2.4373  0.7832
  388TMC3    C1 5795   2.303   4.545   9.693 -0.0291 -0.6878 -0.3015
  388TMC3    C2 5796   2.370   4.663   9.674 -0.3325  0.1853  0.1384
  388TMC3    C3 5797   2.503   4.676   9.706 -0.1161 -0.1665  0.4718
  388TMC3    C4 5798   2.383   4.434   9.732  0.1523  0.2920  0.6750
  388TMC3    C5 5799   2.514   4.447   9.764 -0.6116 -0.3291  0.8703
  388TMC3    C6 5800   2.570   4.574   9.762 -0.3957  0.2032 -0.8476
  388TMC3     C 5801   2.172   4.526   9.639 -0.1631  0.1509  0.1501
  388TMC3     O 5802   2.136   4.600   9.546 -0.1446  0.0631  0.0724
  388TMC3     H 5803   2.320   0.025   9.632 -1.0400  0.1631  0.9404
  388TMC3    H1 5804   2.338   4.335   9.726  0.8073 -0.0186  0.8871
  388TMC3    H2 5805   2.671   4.583   9.801 -1.0887  3.2641  0.2689
  388TMC3    C7 5806   2.583   4.333   9.809  0.6006 -0.4270  0.0392
  388TMC3    C8 5807   2.573   0.080   9.700 -0.1807  0.9654 -0.2886
  388TMC3    O1 5808   2.636   4.347   9.921  0.4900  0.0556  0.2812
  388TMC3    O2 5809   2.696   0.087   9.712  0.0625 -0.5316  0.4241
  389MPD2     C 5810   1.019   1.862  10.380 -0.2922 -0.3578  0.6350
  389MPD2    C1 5811   1.074   1.975  10.435  0.1661  0.1559 -0.1576
  389MPD2    C2 5812   1.139   1.968  10.552 -0.3653 -0.3334  0.3791
  389MPD2    C3 5813   1.161   1.843  10.615  0.4452 -0.7495  0.9534
  389MPD2    C4 5814   1.090   1.733  10.568  0.9353 -0.5960  0.2634
  389MPD2    C5 5815   1.033   1.745  10.446 -0.5690 -0.0508  0.4328
  389MPD2     H 5816   1.171   2.060  10.599  1.6502 -0.1595 -1.3407
  389MPD2    H1 5817   1.082   1.645  10.630  0.2389  1.1057  2.5912
  389MPD2    H2 5818   0.969   1.853  10.284 -0.9599 -0.7150  1.0137
  389MPD2    H3 5819   0.986   1.660  10.399 -0.4195 -0.5164  1.1157
  389MPD2     N 5820   1.226   1.847  10.741  0.0770  0.3673  0.4503
  389MPD2    H5 5821   1.250   1.938  10.779  0.3768  0.8731 -0.9623
  389MPD2    N1 5822   1.048   2.093  10.359 -0.3193  0.1336 -0.5269
  389MPD2    H7 5823   0.966   2.099  10.299 -0.8047  0.7497  0.2014
  390TMC3    C1 5824   1.289   1.786  10.957 -0.3460 -0.3828  0.2470
  390TMC3    C2 5825   1.217   1.733  11.063 -0.8657 -0.1245 -0.1073
  390TMC3    C3 5826   1.180   1.800  11.178 -0.0399 -0.5762  0.1435
  390TMC3    C4 5827   1.340   1.908  10.976 -0.5996  0.1921 -0.3427
  390TMC3    C5 5828   1.305   1.973  11.096 -0.1457 -0.1977  0.3697
  390TMC3    C6 5829   1.228   1.922  11.198  1.0150  0.1458  0.3666
  390TMC3     C 5830   1.256   1.740  10.822  1.1503  0.9854  0.0257
  390TMC3     O 5831   1.232   1.623  10.797  0.1511  0.2928 -0.4316
  390TMC3     H 5832   1.177   1.633  11.054 -1.4581 -0.0671  1.7431
  390TMC3    H1 5833   1.397   1.956  10.898  1.5416 -1.3057  0.3119
  390TMC3    H2 5834   1.194   1.966  11.292 -0.4602 -0.9330  0.3223
  390TMC3    C7 5835   1.382   2.090  11.134 -0.1668  0.1866  0.0746
  390TMC3    C8 5836   1.063   1.749  11.253 -0.0459  0.5816  0.7278
  390TMC3    O1 5837   1.487   2.111  11.078  0.4719  0.6201  0.2812
  390TMC3    O2 5838   0.992   1.657  11.215 -0.3321  0.2585  0.1398
  391MPD2     C 5839   0.852   3.773  11.263  0.8026  0.0739 -0.1997
  391MPD2    C1 5840   0.946   3.877  11.242 -0.2980 -0.5838  0.9163
  391MPD2    C2 5841   0.976   3.909  11.108  0.2070  0.1613 -0.2960
  391MPD2    C3 5842   0.931   3.830  11.003  0.2921 -0.7037  0.4551
  391MPD2    C4 5843   0.868   3.707  11.026 -0.2164  0.4626  0.2492
  391MPD2    C5 5844   0.831   3.683  11.161  0.1133 -0.4928  0.1261
  391MPD2     H 5845   1.025   4.000  11.076 -1.5667  0.5098 -2.0536
  391MPD2    H1 5846   0.831   3.641  10.949 -0.8468 -0.7939  1.6119
  391MPD2    H2 5847   0.820   3.759  11.365  1.3548 -2.4214 -0.3699
  391MPD2    H3 5848   0.782   3.590  11.185 -0.1245 -0.6458 -0.9454
  391MPD2     N 5849   0.959   3.890  10.878  0.0865 -0.4399 -0.0768
  391MPD2    H5 5850   1.006   3.979  10.878  0.5065 -0.6640 -0.3593
  391MPD2    N1 5851   0.971   3.965  11.354 -0.0921 -0.1718 -0.0181
  391MPD2    H7 5852   0.913   3.948  11.435  1.2336  0.1458  0.9946
  392TMC3    C1 5853   0.927   3.938  10.646  0.2376 -0.3951 -0.3375
  392TMC3    C2 5854   0.834   3.962  10.543  0.0718 -0.1111 -0.1943
  392TMC3    C3 5855   0.871   4.050  10.443  0.7027 -0.6604 -0.1601
  392TMC3    C4 5856   1.040   4.010  10.657 -0.2840  0.7735 -0.1399
  392TMC3    C5 5857   1.074   4.089  10.551 -0.0138 -0.1939  0.3040
  392TMC3    C6 5858   0.987   4.115  10.448 -0.0089 -0.1591  0.0736
  392TMC3     C 5859   0.892   3.852  10.761  0.0615  0.1255  0.5324
  392TMC3     O 5860   0.800   3.774  10.757  0.1257 -0.0968 -0.0391
  392TMC3     H 5861   0.759   3.887  10.525  0.9672 -1.3929  1.4867
  392TMC3    H1 5862   1.121   3.986  10.725 -1.2465  0.0103  0.7327
  392TMC3    H2 5863   1.014   4.184  10.369  2.0119  0.9070  1.7033
  392TMC3    C7 5864   1.196   4.165  10.564 -0.8371  0.3179 -0.2950
  392TMC3    C8 5865   0.781   4.063  10.331 -0.1399 -0.5389  0.6196
  392TMC3    O1 5866   1.228   4.193  10.678 -0.0193 -0.1334  0.5356
  392TMC3    O2 5867   0.700   3.970  10.323 -0.9327  0.0165  0.2848
  393TMC3    C1 5868   4.411   2.186  10.186 -0.0225 -0.2547 -0.2779
  393TMC3    C2 5869   4.300   2.115  10.215  0.1942 -0.2056  0.2937
  393TMC3    C3 5870   4.269   2.099  10.346 -0.0414  0.2999 -0.4913
  393TMC3    C4 5871   4.493   2.242  10.280 -0.3630  0.4438 -0.2981
  393TMC3    C5 5872   4.458   2.227  10.408  0.3235 -0.2578  0.2138
  393TMC3    C6 5873   4.344   2.163  10.448 -0.2775 -1.0359  0.1217
  393TMC3     C 5874   4.455   2.210  10.049  0.2711 -0.4158 -0.1583
  393TMC3     O 5875   4.365   2.181   9.966  0.1375  0.6699  0.5152
  393TMC3     H 5876   4.245   2.071  10.132  0.2190  0.4638 -0.0747
  393TMC3    H1 5877   4.580   2.298  10.247  0.6447 -1.2769 -0.5734
  393TMC3    H2 5878   4.307   2.179  10.549  0.7790  0.5695  0.2452
  393TMC3    C7 5879   4.572   2.219  10.492  0.5292  0.2318  0.6361
  393TMC3    C8 5880   4.163   2.013  10.392  0.0157  0.3197 -0.5268
  393TMC3    O1 5881   4.681   2.209  10.446  0.1326  0.0596  0.5862
  393TMC3    O2 5882   4.147   2.017  10.510  0.2798 -0.0929  0.6757
  394TMC3    C1 5883   1.108   2.292  10.256 -0.8621  0.0615  0.3326
  394TMC3    C2 5884   1.049   2.238  10.145 -0.0948 -0.2258 -0.3973
  394TMC3    C3 5885   1.092   2.271  10.018 -1.0009 -0.2604 -0.5416
  394TMC3    C4 5886   1.205   2.385  10.236 -0.0719  0.1616 -0.1807
  394TMC3    C5 5887   1.234   2.432  10.113 -0.3401  0.0915 -0.3968
  394TMC3    C6 5888   1.184   2.369  10.005  0.5422 -0.0675 -0.4553
  394TMC3     C 5889   1.127   2.203  10.367  0.3963  0.6231  0.6339
  394TMC3     O 5890   1.213   2.226  10.450 -0.0380  0.4164  0.3750
  394TMC3     H 5891   0.960   2.176  10.149  1.2066 -2.0167  0.8051
  394TMC3    H1 5892   1.237   2.430  10.330 -0.9899 -1.4478  0.9005
  394TMC3    H2 5893   1.222   2.396   9.908  3.6177  1.7446  1.2365
  394TMC3    C7 5894   1.329   2.543  10.103 -0.3211 -0.1333  0.5851
  394TMC3    C8 5895   1.102   2.148   9.937 -0.1362  0.2708  0.0063
  394TMC3    O1 5896   1.335   2.604   9.998 -0.0560  0.5958 -0.0235
  394TMC3    O2 5897   1.042   2.138   9.830  0.3485  0.3270 -0.1774
  395TMC3    C1 5898   0.723   4.392  13.774 -0.4624  0.2277 -0.9894
  395TMC3    C2 5899   0.612   4.471  13.790  0.2766 -0.3448  0.1400
  395TMC3    C3 5900   0.624   4.601  13.835  0.2545 -0.2573  0.3239
  395TMC3    C4 5901   0.843   4.433  13.805 -0.1907 -0.7209 -0.0335
  395TMC3    C5 5902   0.856   4.556  13.850  0.2435 -0.2031 -0.3278
  395TMC3    C6 5903   0.750   4.642  13.863  0.8019 -0.5477 -0.1041
  395TMC3     C 5904   0.695   4.275  13.855 -0.7283 -0.1614  0.3427
  395TMC3     O 5905   0.617   4.300  13.947 -0.0588 -0.8044  0.0506
  395TMC3     H 5906   0.514   4.432  13.763  0.2446  0.4548 -0.8776
  395TMC3    H1 5907   0.927   4.366  13.790  1.4275  1.2055  0.3152
  395TMC3    H2 5908   0.755   0.014  13.912  0.6500 -0.7944  0.3951
  395TMC3    C7 5909   0.954   4.568  13.956 -0.0999  0.0374 -0.1794
  395TMC3    C8 5910   0.527   4.636  13.942 -0.1083  0.0063 -0.7484
  395TMC3    O1 5911   0.968   4.679  14.005 -0.0915  0.6955  0.5978
  395TMC3    O2 5912   0.506   0.030  13.966 -0.1376  0.0331 -0.6694
  396MPD2     C 5913   0.537   1.276  16.772 -0.0356 -0.1511  0.1866
  396MPD2    C1 5914   0.667   1.236  16.793  0.4912  0.1566  0.3497
  396MPD2    C2 5915   0.762   1.309  16.728 -0.2468 -0.1362 -0.2050
  396MPD2    C3 5916   0.728   1.416  16.643  0.4788  0.4609  0.1103
  396MPD2    C4 5917   0.597   1.458  16.625  0.6044 -0.9758  0.0697
  396MPD2    C5 5918   0.506   1.385  16.692 -0.2953 -0.5638  0.2016
  396MPD2     H 5919   0.866   1.278  16.733 -0.8807 -1.9089  1.8885
  396MPD2    H1 5920   0.564   1.537  16.558  0.0032 -0.7145  0.6829
  396MPD2    H2 5921   0.457   1.230  16.829 -0.0844  1.9301  1.7840
  396MPD2    H3 5922   0.402   1.416  16.692 -0.8339 -2.4254 -0.5713
  396MPD2     N 5923   0.831   1.489  16.571  0.0003  0.6686  0.0411
  396MPD2    H5 5924   0.925   1.450  16.579  1.0645  3.1301 -0.5233
  396MPD2    N1 5925   0.684   1.128  16.882  0.7899 -0.4198 -0.0927
  396MPD2    H7 5926   0.601   1.092  16.929  1.0655  0.7690  1.3114
  397TMC3    C1 5927   0.781   0.966  17.027  0.0827  0.0280 -0.1284
  397TMC3    C2 5928   0.900   0.925  17.092  0.1783  0.2220  0.6335
  397TMC3    C3 5929   0.896   0.807  17.151 -0.1433 -0.4198  0.9432
  397TMC3    C4 5930   0.670   0.895  17.031  0.3029 -0.2265  0.3143
  397TMC3    C5 5931   0.668   0.788  17.117 -0.4507 -0.0889  0.1689
  397TMC3    C6 5932   0.779   0.742  17.174 -0.0553  0.6190 -0.0849
  397TMC3     C 5933   0.802   1.069  16.918  0.0311 -0.0040 -0.8431
  397TMC3     O 5934   0.916   1.087  16.882  0.0795  0.9550  0.1347
  397TMC3     H 5935   0.992   0.977  17.067  1.2461 -1.2125  1.6301
  397TMC3    H1 5936   0.583   0.926  16.976 -0.9382 -1.1548  1.7406
  397TMC3    H2 5937   0.786   0.650  17.232  1.2542  3.3837  4.1114
  397TMC3    C7 5938   0.546   0.745  17.168 -0.2649 -0.6816 -0.0418
  397TMC3    C8 5939   1.013   0.770  17.235  0.2723 -0.5354  0.4441
  397TMC3    O1 5940   0.446   0.797  17.122  0.2745 -0.7928 -0.1195
  397TMC3    O2 5941   0.996   0.760  17.358 -0.2875 -0.7872  0.0636
  398MPD2     C 5942   3.623   1.480  17.646 -0.5300 -0.3803 -0.1493
  398MPD2    C1 5943   3.732   1.481   0.032 -0.1241 -0.4425  0.7885
  398MPD2    C2 5944   3.803   1.594   0.043 -0.6853 -0.1604 -0.3342
  398MPD2    C3 5945   3.789   1.699  17.654 -0.8020  0.0986  0.1810
  398MPD2    C4 5946   3.677   1.699  17.569 -1.3394 -0.4621  0.4921
  398MPD2    C5 5947   3.589   1.593  17.581  0.3484  0.6213 -0.2314
  398MPD2     H 5948   3.889   1.610   0.108 -1.0775  1.3958 -0.1849
  398MPD2    H1 5949   3.646   1.780  17.504  1.4848 -0.3309 -0.6982
  398MPD2    H2 5950   3.551   1.399  17.639  0.2158 -0.9079 -1.9225
  398MPD2    H3 5951   3.495   1.593  17.529 -0.8766 -2.4008  1.9696
  398MPD2     N 5952   3.873   1.813  17.665 -0.9645 -0.3761 -0.9698
  398MPD2    H5 5953   3.936   1.813   0.045  0.4497  1.7634 -2.1178
  398MPD2    N1 5954   3.779   1.368   0.093  0.0622  0.2352 -0.4850
  398MPD2    H7 5955   3.867   1.370   0.143  1.1572 -0.2586 -2.4207
  399TMC3    C1 5956   3.789   1.153   0.170 -0.2072 -0.2973 -0.4405
  399TMC3    C2 5957   3.925   1.165   0.169 -0.6929  0.2246  0.1223
  399TMC3    C3 5958   3.991   1.059   0.220  0.4608 -0.3212  0.6025
  399TMC3    C4 5959   3.714   1.044   0.209 -0.4472  0.0992  0.8489
  399TMC3    C5 5960   3.787   0.933   0.236 -0.0489 -0.2457 -0.0637
  399TMC3    C6 5961   3.923   0.943   0.249 -0.0251  0.1772 -0.1793
  399TMC3     C 5962   3.716   1.248   0.091  0.3794  0.5836  0.3482
  399TMC3     O 5963   3.632   1.205   0.012 -0.1490 -0.2601  0.1132
  399TMC3     H 5964   3.979   1.244   0.117  2.1355 -0.9201  1.2977
  399TMC3    H1 5965   3.613   1.038   0.170 -0.2537  0.9273  0.2202
  399TMC3    H2 5966   3.980   0.852   0.265  0.5598  0.8497  1.5226
  399TMC3    C7 5967   3.733   0.803   0.197  0.0143 -0.2989 -0.4776
  399TMC3    C8 5968   4.136   1.049   0.195  0.1814  0.1195  0.6262
  399TMC3    O1 5969   3.815   0.711   0.184 -0.8311 -0.3563 -0.0908
  399TMC3    O2 5970   4.184   1.126   0.113 -0.5209  0.0973  0.1719
  400TMC3    C1 5971   2.038   0.637  16.611  0.1823  0.6105  0.3189
  400TMC3    C2 5972   1.967   0.520  16.626 -0.0726 -0.2468 -1.1513
  400TMC3    C3 5973   1.853   0.495  16.555  0.5608  0.7021 -0.1586
  400TMC3    C4 5974   1.982   0.741  16.531 -0.7185  0.1947  0.2582
  400TMC3    C5 5975   1.863   0.711  16.477 -0.1711 -0.5531  0.1190
  400TMC3    C6 5976   1.793   0.593  16.484 -0.2109 -0.0302  0.5379
  400TMC3     C 5977   2.180   0.648  16.664  0.4506  0.3693  0.3493
  400TMC3     O 5978   2.222   0.569  16.752  1.0014  0.1246  0.3556
  400TMC3     H 5979   1.998   0.447  16.701 -1.1719 -0.2257 -0.6797
  400TMC3    H1 5980   2.037   0.833  16.513 -1.6498  1.1736  2.3930
  400TMC3    H2 5981   1.690   0.598  16.451  0.5784  0.3882 -1.8893
  400TMC3    C7 5982   1.794   0.827  16.438 -0.1662  0.8340 -0.5298
  400TMC3    C8 5983   1.770   0.380  16.590  0.2774  0.1939 -0.9926
  400TMC3    O1 5984   1.727   0.825  16.336  0.3362 -0.7750 -0.0046
  400TMC3    O2 5985   1.775   0.337  16.706  0.2151 -0.2564  0.0676
  401MPD2     C 5986   0.633   3.270   0.108  0.1878 -0.3113 -0.1982
  401MPD2    C1 5987   0.689   3.268   0.237 -0.8577  0.2959  0.0133
  401MPD2    C2 5988   0.733   3.134   0.273  0.2394  0.0981 -0.1429
  401MPD2    C3 5989   0.741   3.032   0.189  0.1548 -0.5533 -0.4392
  401MPD2    C4 5990   0.691   3.041   0.064  0.1747 -0.2700  0.1360
  401MPD2    C5 5991   0.631   3.160   0.033  0.4562 -0.0093  0.6694
  401MPD2     H 5992   0.766   3.121   0.375 -0.8922  0.9256  0.3301
  401MPD2    H1 5993   0.705   2.965  17.688  3.3997  1.3079 -0.8170
  401MPD2    H2 5994   0.587   3.361   0.072  0.4209 -0.3988 -0.7130
  401MPD2    H3 5995   0.594   3.171  17.631 -1.2562 -3.1398  0.9448
  401MPD2     N 5996   0.808   2.919   0.239  0.4591  0.3961  0.5284
  401MPD2    H5 5997   0.860   2.924   0.326  0.7488 -0.7015  0.4235
  401MPD2    N1 5998   0.699   3.380   0.321 -0.0257  0.9333  0.9045
  401MPD2    H7 5999   0.765   3.374   0.397  0.6292  0.0276  0.2606
  402TMC3    C1 6000   0.856   2.686   0.275  0.3218 -0.4934 -0.0916
  402TMC3    C2 6001   0.912   2.722   0.391 -0.1355 -0.2707  0.8363
  402TMC3    C3 6002   1.005   2.640   0.434  0.2210 -0.4080  0.1282
  402TMC3    C4 6003   0.905   2.578   0.203 -0.5018  0.1072 -0.2375
  402TMC3    C5 6004   1.026   2.523   0.232  0.0287 -0.0327  0.3776
  402TMC3    C6 6005   1.062   2.538   0.362  0.5908 -0.1155  0.3554
  402TMC3     C 6006   0.788   2.789   0.198  0.1038  0.2534  0.3308
  402TMC3     O 6007   0.714   2.759   0.108  0.7597 -0.2126 -0.2693
  402TMC3     H 6008   0.865   2.799   0.451  1.4342  0.0084  1.7001
  402TMC3    H1 6009   0.855   2.563   0.108 -1.3863 -1.3403  0.4459
  402TMC3    H2 6010   1.138   2.479   0.412  1.1569  1.7181  1.6331
  402TMC3    C7 6011   1.114   2.595   0.141 -0.0438 -0.1912 -0.6063
  402TMC3    C8 6012   1.067   2.656   0.567 -0.2941 -0.2831 -0.9992
  402TMC3    O1 6013   1.200   2.665   0.191  0.3347  0.4581  0.2050
  402TMC3    O2 6014   1.138   2.565   0.599 -0.1077  0.2944 -0.5508
  403MPD2     C 6015   4.007   2.232  12.818 -0.5791  0.1175 -0.2370
  403MPD2    C1 6016   3.935   2.174  12.920  0.5913  0.0103 -0.2817
  403MPD2    C2 6017   3.999   2.164  13.044 -0.7384 -1.4948 -0.3873
  403MPD2    C3 6018   4.134   2.202  13.059 -0.2138  0.1976 -0.6929
  403MPD2    C4 6019   4.203   2.242  12.947  0.5330  1.2521 -0.1329
  403MPD2    C5 6020   4.141   2.250  12.824 -0.4472 -0.5597 -0.0729
  403MPD2     H 6021   3.955   2.121  13.134 -0.3988 -0.3666  0.3202
  403MPD2    H1 6022   4.305   2.280  12.951  1.3979 -1.1450  0.4353
  403MPD2    H2 6023   3.968   2.256  12.720 -0.6886  0.6402 -0.0691
  403MPD2    H3 6024   4.183   2.301  12.738 -1.2162 -1.4774 -1.0005
  403MPD2     N 6025   4.200   2.190  13.188  0.0258  0.0872  0.5719
  403MPD2    H5 6026   4.139   2.169  13.268  0.9743 -3.6789  0.3158
  403MPD2    N1 6027   3.799   2.135  12.895  0.0346 -0.2590  0.5343
  403MPD2    H7 6028   3.764   2.139  12.800 -2.1973  1.4101  1.4292
  404TMC3    C1 6029   3.603   2.003  12.906 -0.0528  0.2110 -0.0292
  404TMC3    C2 6030   3.564   1.892  12.976  1.0390 -0.3551  0.0568
  404TMC3    C3 6031   3.517   1.784  12.914  1.0174 -0.6388  0.6680
  404TMC3    C4 6032   3.606   2.003  12.772  0.0314 -0.3587 -0.1784
  404TMC3    C5 6033   3.563   1.895  12.711  0.5851  0.2096 -0.7861
  404TMC3    C6 6034   3.516   1.784  12.776  0.2154 -0.3507  0.1512
  404TMC3     C 6035   3.713   2.071  12.975  0.4321 -0.4211  0.2200
  404TMC3     O 6036   3.721   2.071  13.097 -0.2769  0.8394  0.1839
  404TMC3     H 6037   3.581   1.908  13.081  0.7372  2.2305 -0.2806
  404TMC3    H1 6038   3.637   2.087  12.710  1.7817 -1.6793 -1.0800
  404TMC3    H2 6039   3.522   1.695  12.715  2.1138 -0.1600  0.0694
  404TMC3    C7 6040   3.536   1.920  12.570 -0.9287 -0.1885 -0.7664
  404TMC3    C8 6041   3.575   1.667  12.967 -0.5791  0.2606 -0.0675
  404TMC3    O1 6042   3.598   2.005  12.509  0.3966 -0.4567 -0.4669
  404TMC3    O2 6043   3.634   1.588  12.896 -0.2416  0.1450  0.2575
  405MPD2     C 6044   4.080   2.514  14.159 -0.8871  0.0102 -0.4193
  405MPD2    C1 6045   4.047   2.380  14.146 -0.2944 -0.7406  0.3776
  405MPD2    C2 6046   3.957   2.344  14.042 -0.1758  0.1271  0.4218
  405MPD2    C3 6047   3.881   2.443  13.983 -0.3231 -1.0466 -0.5801
  405MPD2    C4 6048   3.905   2.574  14.012  0.0950  0.8729 -0.4744
  405MPD2    C5 6049   4.009   2.606  14.094 -0.1592 -0.4202  0.0542
  405MPD2     H 6050   3.934   2.241  14.021 -2.0261  0.8114 -0.9337
  405MPD2    H1 6051   3.854   2.665  13.982 -1.2123  0.7978  1.5139
  405MPD2    H2 6052   4.143   2.550  14.240  1.1251 -1.6683 -1.2075
  405MPD2    H3 6053   4.020   2.711  14.119 -2.0079 -0.1887 -0.0931
  405MPD2     N 6054   3.780   2.403  13.898  0.2901 -0.0753  0.3620
  405MPD2    H5 6055   3.760   2.304  13.888  2.2463 -0.2033 -2.2575
  405MPD2    N1 6056   4.112   2.282  14.230 -0.2371  0.2084  0.3907
  405MPD2    H7 6057   4.187   2.316  14.289  0.8658 -2.7258  0.6753
  406TMC3    C1 6058   3.371   2.404  13.681  0.2022 -0.3553 -0.6658
  406TMC3    C2 6059   3.358   2.272  13.718  0.6045 -0.1986 -0.5836
  406TMC3    C3 6060   3.469   2.211  13.767  0.3389  0.3909  0.0091
  406TMC3    C4 6061   3.488   2.473  13.707 -0.0793  0.3367 -0.2453
  406TMC3    C5 6062   3.591   2.409  13.757 -0.4023  0.7378  0.0911
  406TMC3    C6 6063   3.587   2.272  13.782  0.0268  0.1421  0.1139
  406TMC3     C 6064   3.244   2.474  13.711 -0.5834 -0.0269 -0.4311
  406TMC3     O 6065   3.189   2.535  13.621  0.0772  0.1645  0.0599
  406TMC3     H 6066   3.266   2.216  13.724  0.9630 -0.6802  0.2919
  406TMC3    H1 6067   3.492   2.580  13.723  1.3643  0.2307  0.1385
  406TMC3    H2 6068   3.674   2.212  13.805  0.3736  0.1739 -1.1015
  406TMC3    C7 6069   3.683   2.493  13.842 -0.1155 -0.4622 -0.5412
  406TMC3    C8 6070   3.426   2.113  13.867  0.3162  0.6010  0.7280
  406TMC3    O1 6071   3.666   2.616  13.860 -0.4235  0.7175 -0.6671
  406TMC3    O2 6072   3.309   2.107  13.896 -0.3028  0.0305 -0.1364
  407MPD2     C 6073   1.318   4.051   9.433 -0.0302 -0.2782 -0.3471
  407MPD2    C1 6074   1.425   4.010   9.503 -0.2079  0.7045  0.2589
  407MPD2    C2 6075   1.481   4.088   9.610  0.2778  0.8831 -0.5570
  407MPD2    C3 6076   1.421   4.209   9.643  0.0223  0.9167 -0.3241
  407MPD2    C4 6077   1.313   4.256   9.567  0.1252 -0.0701 -0.2530
  407MPD2    C5 6078   1.265   4.178   9.458 -0.1019  0.2039  0.5831
  407MPD2     H 6079   1.569   4.048   9.659 -1.1776 -0.4106  1.0049
  407MPD2    H1 6080   1.273   4.356   9.582  1.0307 -0.0642  2.0309
  407MPD2    H2 6081   1.277   3.993   9.350 -0.4508 -2.3963  1.3468
  407MPD2    H3 6082   1.191   4.222   9.392  0.0280 -0.8955 -0.2884
  407MPD2     N 6083   1.479   4.303   9.729  0.4792 -0.3824 -0.7138
  407MPD2    H5 6084   1.445   4.399   9.724  1.8468  0.1480  0.1756
  407MPD2    N1 6085   1.488   3.885   9.471 -0.4582  0.7297  0.4714
  407MPD2    H7 6086   1.588   3.872   9.486 -0.8562 -2.1774  0.7729
  408TMC3    C1 6087   1.536   3.674   9.361  0.0167  0.0327 -0.7917
  408TMC3    C2 6088   1.666   3.715   9.337 -0.2295 -0.1367  0.6033
  408TMC3    C3 6089   1.759   3.616   9.306 -0.3862 -0.1431  0.7172
  408TMC3    C4 6090   1.494   3.547   9.355 -0.2784  0.3941 -0.9794
  408TMC3    C5 6091   1.592   3.451   9.333 -0.7127  0.0071 -0.7373
  408TMC3    C6 6092   1.720   3.484   9.303 -0.1109  0.2720 -0.0208
  408TMC3     C 6093   1.440   3.773   9.403  0.4382  0.6323 -0.0983
  408TMC3     O 6094   1.326   3.743   9.364 -0.3457 -0.1248 -0.4248
  408TMC3     H 6095   1.685   3.822   9.343  2.1632 -0.5289  0.1707
  408TMC3    H1 6096   1.390   3.516   9.352 -0.1092 -0.3394  0.7167
  408TMC3    H2 6097   1.787   3.404   9.273  0.3246  0.7261 -0.2719
  408TMC3    C7 6098   1.534   3.317   9.315 -0.2125 -0.0234 -0.3196
  408TMC3    C8 6099   1.905   3.638   9.332  0.2516  0.0572 -0.6324
  408TMC3    O1 6100   1.582   3.246   9.230 -0.3368 -0.1313  0.1488
  408TMC3    O2 6101   1.976   3.541   9.336  0.4785  0.4777  0.0353
  409MPD2     C 6102   0.898   4.620  16.547  0.6860 -0.1064  0.2422
  409MPD2    C1 6103   0.960   4.657  16.662  0.0658  0.2121 -0.0117
  409MPD2    C2 6104   1.052   0.036  16.652 -0.8025  0.1025 -0.2523
  409MPD2    C3 6105   1.095   0.085  16.527 -0.3855 -0.3463 -0.8101
  409MPD2    C4 6106   1.035   0.038  16.413  0.3609 -0.9139 -0.0897
  409MPD2    C5 6107   0.933   4.667  16.424  0.0364  0.2823 -0.0775
  409MPD2     H 6108   1.078   0.072  16.751  1.2033  1.3118 -1.2167
  409MPD2    H1 6109   1.055   0.073  16.312 -1.1755  1.5036  0.4315
  409MPD2    H2 6110   0.820   4.546  16.551  1.7192 -1.0865  1.9688
  409MPD2    H3 6111   0.903   4.637  16.325  0.2976  0.5359 -0.2309
  409MPD2     N 6112   1.176   0.197  16.516  0.5259  0.1250 -0.7323
  409MPD2    H5 6113   1.195   0.227  16.421 -0.2132 -1.1522 -1.2772
  409MPD2    N1 6114   0.950   4.596  16.785 -0.5807 -0.0333  0.1575
  409MPD2    H7 6115   1.022   4.627  16.850  1.1754 -0.4435 -1.5824
  410TMC3    C1 6116   1.296   0.389  16.570 -0.1560 -0.0031  0.8808
  410TMC3    C2 6117   1.359   0.466  16.669 -0.1353  0.0622 -0.7709
  410TMC3    C3 6118   1.413   0.587  16.636 -0.3164  0.5853  0.0325
  410TMC3    C4 6119   1.298   0.421  16.441  0.7778 -0.7473  0.1402
  410TMC3    C5 6120   1.356   0.542  16.407  0.7299  0.0124  0.2815
  410TMC3    C6 6121   1.406   0.624  16.508 -0.6060  0.2963  0.0679
  410TMC3     C 6122   1.226   0.268  16.619 -0.1859  0.2640 -0.5257
  410TMC3     O 6123   1.227   0.239  16.740 -0.9820 -0.0036 -0.6032
  410TMC3     H 6124   1.346   0.435  16.772 -0.8791 -1.8341 -1.4297
  410TMC3    H1 6125   1.297   0.343  16.366 -2.2422 -0.3907 -0.2017
  410TMC3    H2 6126   1.455   0.713  16.470 -0.9203  0.0134 -1.0064
  410TMC3    C7 6127   1.387   0.567  16.268  0.0997  0.4008  0.6608
  410TMC3    C8 6128   1.523   0.649  16.706 -0.1632 -0.1025 -0.4369
  410TMC3    O1 6129   1.409   0.471  16.202 -0.4613 -0.2350  0.3460
  410TMC3    O2 6130   1.569   0.754  16.664 -0.1871 -0.1562 -0.1397
  411MPD2     C 6131   1.941   0.375  14.318  0.0870  0.3250  0.6114
  411MPD2    C1 6132   1.803   0.373  14.303  0.4222 -0.4986  0.4654
  411MPD2    C2 6133   1.743   0.248  14.300  0.1974  0.2600 -0.5151
  411MPD2    C3 6134   1.816   0.133  14.304 -0.1955  0.2567  0.5930
  411MPD2    C4 6135   1.951   0.138  14.315 -0.7573  0.0323  0.1838
  411MPD2    C5 6136   2.017   0.259  14.324  0.2067 -0.4289 -0.1004
  411MPD2     H 6137   1.635   0.247  14.299  0.1898 -1.6706  2.1378
  411MPD2    H1 6138   2.021   0.056  14.302 -2.7250 -1.9493  2.1663
  411MPD2    H2 6139   1.985   0.473  14.325 -0.6595  0.6975  0.0340
  411MPD2    H3 6140   2.125   0.267  14.322 -0.1176  3.7411 -0.8103
  411MPD2     N 6141   1.757   0.004  14.279 -0.5179  0.7111  0.2170
  411MPD2    H5 6142   1.823   4.652  14.272 -0.0573  1.0943  0.3951
  411MPD2    N1 6143   1.740   0.495  14.295  0.3952  0.3728  0.1334
  411MPD2    H7 6144   1.801   0.577  14.297  3.3129 -1.8127  1.0643
  412TMC3    C1 6145   1.587   4.564  14.233  0.2524 -0.7446 -0.3931
  412TMC3    C2 6146   1.473   4.545  14.164 -0.0267  0.7583  0.3428
  412TMC3    C3 6147   1.451   4.434  14.088  0.2170  0.4289 -0.8050
  412TMC3    C4 6148   1.684   4.464  14.223 -0.2519  0.0311 -0.1812
  412TMC3    C5 6149   1.666   4.358  14.131  1.1468  0.6602 -0.1750
  412TMC3    C6 6150   1.546   4.347  14.065 -0.0648  0.4227 -0.4156
  412TMC3     C 6151   1.621   4.701  14.269  0.6516 -0.1829  0.1463
  412TMC3     O 6152   1.523   0.049  14.268  0.1180  0.2847 -0.8787
  412TMC3     H 6153   1.398   4.621  14.179  0.1372  1.0628 -0.3506
  412TMC3    H1 6154   1.773   4.466  14.285  0.0169 -0.0917 -0.5607
  412TMC3    H2 6155   1.537   4.263  13.998 -0.8684 -0.2496  0.5269
  412TMC3    C7 6156   1.787   4.298  14.071  0.1903 -0.5748 -0.1002
  412TMC3    C8 6157   1.353   4.453  13.990  0.6200 -0.1063  0.0182
  412TMC3    O1 6158   1.793   4.179  14.090  0.4102  0.2085  0.4240
  412TMC3    O2 6159   1.325   4.570  13.973  0.2416  0.3195 -0.4462
  413MPD2     C 6160   3.139   3.783  15.259 -0.7419 -0.1243 -0.0801
  413MPD2    C1 6161   3.040   3.717  15.193 -0.5138  0.0874 -0.6579
  413MPD2    C2 6162   3.067   3.671  15.062  0.0854 -0.5786  0.2931
  413MPD2    C3 6163   3.187   3.684  15.003 -0.3553  0.0220 -0.1719
  413MPD2    C4 6164   3.283   3.742  15.081 -0.1651  0.3885  0.3507
  413MPD2    C5 6165   3.258   3.795  15.203 -0.5024  0.0837  0.5313
  413MPD2     H 6166   2.993   3.622  15.000 -0.3070  1.0760 -0.5547
  413MPD2    H1 6167   3.381   3.759  15.039 -0.1274 -1.3366 -0.2916
  413MPD2    H2 6168   3.124   3.821  15.359  2.5945 -0.5180  0.5541
  413MPD2    H3 6169   3.336   3.849  15.255 -0.9776  0.4254  0.8817
  413MPD2     N 6170   3.206   3.627  14.877  0.0149 -0.0111  0.0706
  413MPD2    H5 6171   3.123   3.597  14.827 -0.3200  1.5127 -0.2646
  413MPD2    N1 6172   2.907   3.711  15.243  0.2308  0.2274 -0.3149
  413MPD2    H7 6173   2.837   3.669  15.182  0.1835 -2.6724  1.7107
  414TMC3    C1 6174   3.309   3.495  14.710  0.6466 -0.2050 -0.1039
  414TMC3    C2 6175   3.408   3.394  14.696 -0.4070  0.1211  0.3924
  414TMC3    C3 6176   3.410   3.318  14.587 -0.1580 -0.4844  0.0558
  414TMC3    C4 6177   3.226   3.524  14.610 -0.7579 -0.0440 -0.8067
  414TMC3    C5 6178   3.241   3.454  14.497 -1.1944  0.0408 -0.6141
  414TMC3    C6 6179   3.333   3.351  14.483  0.0643  0.3668  0.1720
  414TMC3     C 6180   3.326   3.584  14.827  0.4479 -0.4718 -0.7559
  414TMC3     O 6181   3.436   3.598  14.878  0.1445 -0.0113 -0.0724
  414TMC3     H 6182   3.453   3.370  14.792  1.0155 -0.6399 -0.4772
  414TMC3    H1 6183   3.168   3.615  14.600  1.8321  1.4541 -2.2083
  414TMC3    H2 6184   3.338   3.285  14.397 -0.7132 -1.0839  1.2350
  414TMC3    C7 6185   3.169   3.495  14.373 -0.3080  0.5248  0.6082
  414TMC3    C8 6186   3.533   3.246  14.554 -0.0998  0.2765 -0.6616
  414TMC3    O1 6187   3.050   3.509  14.400  0.5028 -0.1298  0.4163
  414TMC3    O2 6188   3.534   3.163  14.465  0.1763  0.8476 -0.2025
  415TMC3    C1 6189   4.079   1.439  10.289  0.2530 -0.2698 -0.3752
  415TMC3    C2 6190   4.169   1.540  10.307  0.6154 -0.0997 -1.0123
  415TMC3    C3 6191   4.235   1.587  10.195 -0.3122  0.6629 -0.5250
  415TMC3    C4 6192   4.046   1.386  10.167  0.2739  0.4660  0.0001
  415TMC3    C5 6193   4.108   1.444  10.055 -0.4706  0.1430 -0.1612
  415TMC3    C6 6194   4.208   1.541  10.069  0.4318  0.7375 -0.8359
  415TMC3     C 6195   4.009   1.381  10.405 -0.1895  0.4090  0.7845
  415TMC3     O 6196   3.908   1.316  10.369 -0.5679  0.5063 -0.2199
  415TMC3     H 6197   4.191   1.577  10.406 -1.3178  2.7156 -1.6357
  415TMC3    H1 6198   3.985   1.296  10.166 -1.0201  1.3406  1.0570
  415TMC3    H2 6199   4.245   1.587   9.979 -1.3550  3.6517 -0.0974
  415TMC3    C7 6200   4.029   1.466   9.939  0.0850 -0.0011 -0.0608
  415TMC3    C8 6201   4.330   1.694  10.224 -0.6310 -0.1931 -0.3525
  415TMC3    O1 6202   4.065   1.544   9.857  0.1677  0.2226  0.2242
  415TMC3    O2 6203   4.344   1.727  10.345 -0.5151 -0.6509 -0.1948
  416MPD2     C 6204   0.883   0.613  11.150 -0.4048 -0.4177  0.9128
  416MPD2    C1 6205   0.839   0.547  11.259 -0.8142 -0.1668  0.0369
  416MPD2    C2 6206   0.878   0.414  11.269 -0.1719  0.2216  0.5292
  416MPD2    C3 6207   0.935   0.350  11.159 -0.3402  0.2587 -0.5745
  416MPD2    C4 6208   0.985   0.423  11.057 -0.2307 -0.0486  0.1648
  416MPD2    C5 6209   0.952   0.552  11.052 -0.1924 -0.1250 -0.1371
  416MPD2     H 6210   0.844   0.357  11.354 -3.0008 -1.4764 -1.7502
  416MPD2    H1 6211   1.059   0.379  10.991 -0.9586 -1.5791  0.3771
  416MPD2    H2 6212   0.854   0.716  11.136  1.7743 -0.1769 -1.7057
  416MPD2    H3 6213   0.986   0.610  10.966  3.6960  0.8099  2.0473
  416MPD2     N 6214   0.952   0.212  11.172 -0.3936  0.3295 -0.4092
  416MPD2    H5 6215   0.931   0.163  11.258 -0.2945 -1.0588 -1.1816
  416MPD2    N1 6216   0.769   0.617  11.358 -0.3756 -0.0313  0.2791
  416MPD2    H7 6217   0.752   0.717  11.353 -0.5454 -0.1030 -0.6400
  417TMC3    C1 6218   0.629   0.670  11.534  0.0609 -0.4008  0.0985
  417TMC3    C2 6219   0.627   0.689  11.667  0.4883  0.6091  0.0702
  417TMC3    C3 6220   0.529   0.773  11.716 -0.0587 -0.1775  0.2760
  417TMC3    C4 6221   0.527   0.712  11.449 -0.2579 -0.5463  1.0922
  417TMC3    C5 6222   0.434   0.793  11.500 -0.5901  0.0199  0.7522
  417TMC3    C6 6223   0.430   0.822  11.634  0.4824  0.7924 -0.1404
  417TMC3     C 6224   0.716   0.567  11.475  0.0094  0.9527 -0.1041
  417TMC3     O 6225   0.714   0.452  11.519  0.1813  0.1168 -0.2873
  417TMC3     H 6226   0.705   0.650  11.731  0.0242 -1.2116 -0.4784
  417TMC3    H1 6227   0.532   0.690  11.343 -0.0606 -1.4911  1.2926
  417TMC3    H2 6228   0.361   0.898  11.666 -1.4475  0.4490 -3.5205
  417TMC3    C7 6229   0.323   0.830  11.424  1.1253  0.1163  0.0773
  417TMC3    C8 6230   0.496   0.802  11.852  0.3535 -0.3108 -0.0798
  417TMC3    O1 6231   0.255   0.930  11.449 -0.8520  0.2006 -0.0971
  417TMC3    O2 6232   0.381   0.785  11.893  0.3172 -0.3255  0.2110
  418TMC3    C1 6233   4.161   2.114  17.615 -0.7539 -0.0039  1.2507
  418TMC3    C2 6234   4.039   2.080  17.566 -0.5006 -0.2817 -0.1955
  418TMC3    C3 6235   3.946   2.031  17.655  0.4713 -0.2827 -0.0599
  418TMC3    C4 6236   4.199   2.089   0.044 -0.1778  0.1627  0.0619
  418TMC3    C5 6237   4.100   2.044   0.130 -0.3664 -0.3220  0.1415
  418TMC3    C6 6238   3.973   2.014   0.088 -0.0262  0.2740 -0.2209
  418TMC3     C 6239   4.270   2.128  17.527 -0.4723  0.5188 -0.3815
  418TMC3     O 6240   4.314   2.240  17.504 -0.5630 -0.5392 -0.4126
  418TMC3     H 6241   4.023   2.093  17.460  0.9895 -1.6964 -0.5931
  418TMC3    H1 6242   4.302   2.104   0.072 -0.1166 -0.2848  0.0821
  418TMC3    H2 6243   3.898   1.990   0.162  1.8108  0.0694  1.5892
  418TMC3    C7 6244   4.138   1.991   0.256  0.1844 -0.2639  0.0574
  418TMC3    C8 6245   3.860   1.929  17.595 -0.4040  0.2194 -0.0547
  418TMC3    O1 6246   4.081   1.887   0.296 -0.2775 -0.2533  0.3621
  418TMC3    O2 6247   3.816   1.949  17.481 -0.5346 -0.2144 -0.1440
  419MPD2     C 6248   2.667   0.059  12.470 -0.9087  1.2702  0.0963
  419MPD2    C1 6249   2.726   0.182  12.442  0.7578 -0.3308 -0.1948
  419MPD2    C2 6250   2.772   0.259  12.549  0.1719 -0.6776 -0.1601
  419MPD2    C3 6251   2.767   0.221  12.679 -0.3766  0.7152 -0.4789
  419MPD2    C4 6252   2.709   0.099  12.705 -0.3079 -0.0673 -0.1892
  419MPD2    C5 6253   2.659   0.021  12.602 -0.2962  0.6131  1.0680
  419MPD2     H 6254   2.822   0.353  12.527 -0.0266 -0.2633  1.1556
  419MPD2    H1 6255   2.688   0.065  12.806  0.4637 -0.5063 -0.1734
  419MPD2    H2 6256   2.627   4.711  12.400 -2.9780  2.9960 -0.4929
  419MPD2    H3 6257   2.618   4.649  12.630  0.7651  0.5141  2.2166
  419MPD2     N 6258   2.808   0.309  12.783  0.0171 -0.4112 -0.7236
  419MPD2    H5 6259   2.823   0.408  12.764  1.8398 -0.4866  0.3718
  419MPD2    N1 6260   2.734   0.236  12.311  0.4864  0.3700 -0.0099
  419MPD2    H7 6261   2.776   0.328  12.310  0.6277  0.2963 -1.0115
  420TMC3    C1 6262   2.861   0.394  13.001  0.6618 -0.4814  0.0841
  420TMC3    C2 6263   2.787   0.503  12.962  0.0791  0.7891  0.2609
  420TMC3    C3 6264   2.829   0.620  13.023  0.6004  0.3799 -0.7637
  420TMC3    C4 6265   2.953   0.393  13.107 -0.3138  0.5038 -0.1952
  420TMC3    C5 6266   2.987   0.512  13.164  0.7787 -0.2185  0.1807
  420TMC3    C6 6267   2.928   0.626  13.120 -0.7031 -0.4035  0.7664
  420TMC3     C 6268   2.834   0.274  12.917 -0.0053 -0.4291 -0.2481
  420TMC3     O 6269   2.832   0.165  12.963  0.0702  0.4147 -0.4443
  420TMC3     H 6270   2.714   0.501  12.883  3.3965 -1.4902 -2.7647
  420TMC3    H1 6271   2.992   0.297  13.139 -1.1435 -0.0822 -0.9484
  420TMC3    H2 6272   2.961   0.722  13.158 -1.7808 -0.0595  0.8235
  420TMC3    C7 6273   3.065   0.499  13.281 -0.7919  0.0502 -0.3229
  420TMC3    C8 6274   2.784   0.741  12.968 -0.4389 -0.1102  0.8328
  420TMC3    O1 6275   3.069   0.392  13.341  0.7793 -0.2440 -0.2557
  420TMC3    O2 6276   2.666   0.754  12.945 -0.3830  0.0645 -0.0332
  421TMC3    C1 6277   4.359   2.207  13.357  0.7493  0.3713 -0.6110
  421TMC3    C2 6278   4.454   2.286  13.407 -0.3087 -0.4011  0.5592
  421TMC3    C3 6279   4.496   2.259  13.539  0.5043 -0.2223 -0.0986
  421TMC3    C4 6280   4.312   2.106  13.432 -0.5189  0.0773 -0.4364
  421TMC3    C5 6281   4.386   2.064  13.538 -0.4114  0.3307 -0.3094
  421TMC3    C6 6282   4.470   2.143  13.607  0.1008  0.1959 -0.1457
  421TMC3     C 6283   4.327   2.223  13.216  0.4921  0.1766 -0.1913
  421TMC3     O 6284   4.407   2.283  13.149 -1.1373 -0.2389 -0.1229
  421TMC3     H 6285   4.487   2.372  13.350  1.8769 -1.4155  0.3076
  421TMC3    H1 6286   4.228   2.050  13.393 -1.5477  1.2579  0.0691
  421TMC3    H2 6287   4.496   2.126  13.711  2.1818  0.1000 -0.6862
  421TMC3    C7 6288   4.364   1.924  13.572  0.6960 -0.4888 -0.1968
  421TMC3    C8 6289   4.570   2.365  13.605 -0.4579  0.4291 -0.2923
  421TMC3    O1 6290   4.269   1.868  13.515 -0.1663  0.8757 -0.0827
  421TMC3    O2 6291   4.670   2.349  13.675 -0.8362  0.3994 -0.0128
  422TMC3    C1 6292   1.542   3.402  12.682 -0.0815  0.5568  0.1124
  422TMC3    C2 6293   1.484   3.523  12.671 -0.2207 -0.8120 -0.3764
  422TMC3    C3 6294   1.348   3.534  12.703  0.0868  0.1342  0.3891
  422TMC3    C4 6295   1.479   3.291  12.737  0.0390 -0.2041  0.6107
  422TMC3    C5 6296   1.341   3.306  12.757 -0.7068  0.5049 -0.6293
  422TMC3    C6 6297   1.272   3.424  12.735  0.2206  0.0268 -0.2150
  422TMC3     C 6298   1.669   3.382  12.607  0.5539  0.1801  0.1330
  422TMC3     O 6299   1.712   3.461  12.526 -0.2591  0.6220  0.2649
  422TMC3     H 6300   1.549   3.603  12.636 -1.6145  0.5504  0.1419
  422TMC3    H1 6301   1.526   3.194  12.744  1.3695  0.4135  0.2873
  422TMC3    H2 6302   1.166   3.447  12.747 -0.0256 -1.2115 -0.0697
  422TMC3    C7 6303   1.269   3.176  12.761 -0.0051 -0.0706  0.2372
  422TMC3    C8 6304   1.301   3.676  12.691  0.3307  0.3990  0.0562
  422TMC3    O1 6305   1.344   3.083  12.726  0.1025  0.0329  0.0584
  422TMC3    O2 6306   1.380   3.754  12.644  0.6627  0.0023 -0.3219
  423MPD2     C 6307   3.355   4.502   0.085  0.8915 -0.1853 -0.1405
  423MPD2    C1 6308   3.250   4.423   0.127  0.4275  0.6126  0.3967
  423MPD2    C2 6309   3.179   4.347   0.032 -0.4435  0.4835 -0.3681
  423MPD2    C3 6310   3.232   4.337  17.604 -0.6329  0.0206  0.4079
  423MPD2    C4 6311   3.339   4.411  17.567 -0.2101 -0.0340 -0.2637
  423MPD2    C5 6312   3.399   4.498  17.655  0.1526  0.2981 -0.1954
  423MPD2     H 6313   3.093   4.288   0.060 -0.1502  0.1010 -0.2798
  423MPD2    H1 6314   3.381   4.420  17.468  0.2773  0.2380 -0.0382
  423MPD2    H2 6315   3.413   4.564   0.152  2.7469 -1.0372 -0.9452
  423MPD2    H3 6316   3.475   4.565  17.618  1.0913  0.4320  1.9749
  423MPD2     N 6317   3.186   4.253  17.507  0.0482 -0.0373 -0.0281
  423MPD2    H5 6318   3.238   4.252  17.420  2.3049  2.1671  1.2844
  423MPD2    N1 6319   3.222   4.428   0.265 -0.5786 -0.0976  0.4940
  423MPD2    H7 6320   3.283   4.483   0.325  0.2361 -1.3154  0.7563
  424TMC3    C1 6321   3.175   4.323   0.460 -0.0102 -0.5257 -0.0432
  424TMC3    C2 6322   3.294   4.250   0.474  0.4880  0.0427  0.1756
  424TMC3    C3 6323   3.325   4.194   0.591  1.4751  0.0451 -0.2040
  424TMC3    C4 6324   3.083   4.321   0.559 -0.8642 -0.2574  0.7208
  424TMC3    C5 6325   3.107   4.254   0.675  0.1271 -0.4620 -0.1371
  424TMC3    C6 6326   3.230   4.186   0.699 -0.5100  0.5374 -0.0522
  424TMC3     C 6327   3.127   4.355   0.326  0.5359  0.0624 -0.4386
  424TMC3     O 6328   3.013   4.318   0.288 -0.0441  0.1014  0.0802
  424TMC3     H 6329   3.375   4.259   0.402 -0.3766  1.9269 -0.5591
  424TMC3    H1 6330   2.983   4.359   0.543 -1.6812 -2.6425  0.1197
  424TMC3    H2 6331   3.252   4.137   0.793  1.5187 -2.2576 -1.9353
  424TMC3    C7 6332   2.996   4.230   0.763 -0.2224 -0.3281 -0.7317
  424TMC3    C8 6333   3.444   4.110   0.591 -0.2329 -0.9141  0.5842
  424TMC3    O1 6334   2.894   4.283   0.728 -0.2260 -0.1712 -0.4495
  424TMC3    O2 6335   3.484   4.074   0.482 -0.4778  0.4198 -0.0330
  425MPD2     C 6336   2.019   3.569  17.209 -0.7746 -0.1456  0.4453
  425MPD2    C1 6337   1.919   3.479  17.223  0.2505  0.2481 -0.2756
  425MPD2    C2 6338   1.790   3.523  17.255 -0.5240  0.0300  0.0724
  425MPD2    C3 6339   1.770   3.659  17.269  0.0066 -0.4765  0.7585
  425MPD2    C4 6340   1.868   3.751  17.233  0.5312  0.1418 -0.2369
  425MPD2    C5 6341   1.992   3.704  17.206  0.3859 -0.0762  0.0011
  425MPD2     H 6342   1.714   3.448  17.272 -0.0213 -0.6439 -0.6904
  425MPD2    H1 6343   1.847   3.857  17.230  0.0271  0.0667  0.6767
  425MPD2    H2 6344   2.116   3.533  17.178 -0.6406  0.8937 -0.3598
  425MPD2    H3 6345   2.060   3.783  17.178  0.6110  0.6076  2.4772
  425MPD2     N 6346   1.640   3.696  17.321  0.0166 -0.2011 -0.3894
  425MPD2    H5 6347   1.577   3.620  17.343  2.1476 -1.8972 -0.1019
  425MPD2    N1 6348   1.959   3.340  17.234 -0.1322 -0.7586  0.1322
  425MPD2    H7 6349   2.059   3.323  17.237  0.0806  1.2677  4.4354
  426TMC3    C1 6350   1.946   3.104  17.217  0.2198 -0.1261  0.2464
  426TMC3    C2 6351   1.920   3.037  17.098  0.1211 -0.3938  0.1693
  426TMC3    C3 6352   2.012   2.948  17.052  0.7919 -0.5241 -0.2394
  426TMC3    C4 6353   2.064   3.086  17.282  0.7822  0.5054 -0.0017
  426TMC3    C5 6354   2.154   2.988  17.236  0.4986  0.5364  0.1656
  426TMC3    C6 6355   2.119   2.914  17.128  0.2596  0.3383  0.6009
  426TMC3     C 6356   1.874   3.231  17.227 -0.1920 -0.4002 -0.5686
  426TMC3     O 6357   1.751   3.222  17.217 -0.0575  0.3565 -0.1101
  426TMC3     H 6358   1.838   3.071  17.036  0.9716 -1.2820 -1.4279
  426TMC3    H1 6359   2.093   3.148  17.366 -0.5514 -0.7225  1.3764
  426TMC3    H2 6360   2.195   2.845  17.095 -1.8244 -2.2228  1.1812
  426TMC3    C7 6361   2.236   2.923  17.333 -0.2759  0.7604 -0.0444
  426TMC3    C8 6362   1.979   2.878  16.929 -0.0910  0.6643 -0.1238
  426TMC3    O1 6363   2.347   2.885  17.293 -0.1368 -0.2040  0.2387
  426TMC3    O2 6364   2.066   2.836  16.859 -0.0632 -0.0882 -0.2074
  427MPD2     C 6365   0.758   1.005  14.487  0.2358 -0.6183  0.1627
  427MPD2    C1 6366   0.717   0.877  14.507 -0.1599 -0.2487  0.1718
  427MPD2    C2 6367   0.579   0.848  14.509 -0.4543  0.1212 -0.5995
  427MPD2    C3 6368   0.483   0.946  14.504 -0.3918 -0.9900 -0.4344
  427MPD2    C4 6369   0.531   1.074  14.485  0.1461  1.0090  0.6044
  427MPD2    C5 6370   0.669   1.101  14.486 -0.0419 -0.1208  0.4294
  427MPD2     H 6371   0.542   0.746  14.517 -0.6081  0.2083 -0.2305
  427MPD2    H1 6372   0.458   1.154  14.480 -1.5517 -0.5315  0.7857
  427MPD2    H2 6373   0.859   1.041  14.467 -0.4649  1.1921 -0.0709
  427MPD2    H3 6374   0.698   1.205  14.479 -0.2028 -0.2832 -3.0273
  427MPD2     N 6375   0.342   0.927  14.502  0.1655  0.0835 -0.3553
  427MPD2    H5 6376   0.282   1.008  14.518 -1.4724 -0.9964 -1.0698
  427MPD2    N1 6377   0.805   0.771  14.536  0.8597  0.4928 -0.0234
  427MPD2    H7 6378   0.782   0.672  14.545 -0.1984  0.5502 -2.0722
  428TMC3    C1 6379   0.997   0.674  14.637 -0.7584  0.3246 -0.5807
  428TMC3    C2 6380   0.947   0.556  14.601 -0.7339 -0.0496 -0.4164
  428TMC3    C3 6381   0.994   0.448  14.675 -0.2151 -0.3295 -0.0829
  428TMC3    C4 6382   1.077   0.691  14.745  0.0939  0.4522 -0.5295
  428TMC3    C5 6383   1.128   0.585  14.806  0.1433  0.3125  0.7501
  428TMC3    C6 6384   1.074   0.461  14.782 -0.0967 -0.2561  0.0095
  428TMC3     C 6385   0.935   0.790  14.576  0.2529 -0.3927 -0.3947
  428TMC3     O 6386   1.007   0.888  14.575 -0.4618 -0.5694  0.1902
  428TMC3     H 6387   0.913   0.541  14.500  1.4408 -1.6368 -0.9088
  428TMC3    H1 6388   1.114   0.789  14.775  1.3801 -0.5702  1.2605
  428TMC3    H2 6389   1.101   0.375  14.844  0.2384 -0.1706 -0.0165
  428TMC3    C7 6390   1.245   0.604  14.892  0.1131 -0.3680  0.0277
  428TMC3    C8 6391   0.967   0.319  14.622 -0.4826 -0.2694 -0.0775
  428TMC3    O1 6392   1.243   0.704  14.958 -0.0404 -0.0636  0.1509
  428TMC3    O2 6393   1.026   0.226  14.677 -0.1569  0.3082  0.0049
  429MPD2     C 6394   1.244   1.070  17.328 -0.0759  0.2714 -0.5230
  429MPD2    C1 6395   1.381   1.044  17.313  0.9165  0.6534  0.4580
  429MPD2    C2 6396   1.440   1.125  17.222 -0.2943  0.5168 -0.0857
  429MPD2    C3 6397   1.388   1.240  17.166  0.0750  0.2603  0.0625
  429MPD2    C4 6398   1.264   1.279  17.206 -0.3130  0.4738  0.9309
  429MPD2    C5 6399   1.189   1.185  17.281 -0.2800  0.5840 -0.3257
  429MPD2     H 6400   1.542   1.104  17.192 -0.8343 -1.4293 -0.5565
  429MPD2    H1 6401   1.213   1.365  17.164  0.5974  0.4087 -0.3051
  429MPD2    H2 6402   1.184   1.013  17.398  0.6846  0.0595 -0.0412
  429MPD2    H3 6403   1.086   1.213  17.296 -0.1496  0.6372  0.4821
  429MPD2     N 6404   1.473   1.303  17.078 -0.0219  0.4688 -0.2292
  429MPD2    H5 6405   1.570   1.274  17.077 -0.4048 -0.8269 -0.4464
  429MPD2    N1 6406   1.444   0.930  17.359  0.1050 -0.2369 -0.0078
  429MPD2    H7 6407   1.539   0.909  17.331 -0.1729  0.1941 -1.2451
  430TMC3    C1 6408   1.536   1.456  16.913  0.1536  0.3127  0.4616
  430TMC3    C2 6409   1.501   1.554  16.831 -0.0633  0.5771  1.0848
  430TMC3    C3 6410   1.604   1.623  16.779 -0.5062 -0.4867  0.1310
  430TMC3    C4 6411   1.665   1.422  16.943 -0.6338  0.0471 -0.2761
  430TMC3    C5 6412   1.762   1.473  16.870  0.5940  0.1692  0.2738
  430TMC3    C6 6413   1.732   1.582  16.789  0.3394  0.2046 -0.3661
  430TMC3     C 6414   1.438   1.416  17.009 -0.3883 -0.7780  0.5102
  430TMC3     O 6415   1.335   1.482  17.020 -0.2687 -0.4050  0.7145
  430TMC3     H 6416   1.400   1.571  16.797 -0.2307  0.2739  1.4300
  430TMC3    H1 6417   1.699   1.345  17.012 -1.3387  0.3115  0.3697
  430TMC3    H2 6418   1.812   1.624  16.730  1.3984  1.3445  1.8738
  430TMC3    C7 6419   1.819   1.374  16.782 -0.5834 -0.2237 -0.3795
  430TMC3    C8 6420   1.572   1.663  16.641  0.3934 -0.8266  0.0057
  430TMC3    O1 6421   1.863   1.276  16.840  0.2393  0.4261 -0.7340
  430TMC3    O2 6422   1.484   1.594  16.590 -0.6515  0.0862 -0.1313
  431MPD2     C 6423   2.660   1.003  12.454  0.0439 -0.1587 -1.1124
  431MPD2    C1 6424   2.659   1.017  12.320 -0.3716  0.5157 -0.0770
  431MPD2    C2 6425   2.660   0.902  12.239 -0.1953 -0.2023  0.4833
  431MPD2    C3 6426   2.663   0.773  12.295 -0.1891 -0.3609  0.4365
  431MPD2    C4 6427   2.669   0.764  12.429  0.0721  0.2287  0.3156
  431MPD2    C5 6428   2.665   0.877  12.509 -0.1123 -0.2056 -0.6303
  431MPD2     H 6429   2.655   0.918  12.132 -2.1151 -1.7443  0.3607
  431MPD2    H1 6430   2.678   0.668  12.479 -0.8128  0.2841  0.5866
  431MPD2    H2 6431   2.642   1.086  12.521  2.3689  0.1114 -0.8333
  431MPD2    H3 6432   2.653   0.870  12.616 -2.2319 -0.6894 -0.9016
  431MPD2     N 6433   2.661   0.652  12.222 -0.3457  0.0591  0.7599
  431MPD2    H5 6434   2.655   0.563  12.269  1.5470 -0.6549 -0.3534
  431MPD2    N1 6435   2.690   1.144  12.263  0.2293  0.5195  0.2458
  431MPD2    H7 6436   2.684   1.154  12.162 -0.1235  1.8171  0.3958
  432TMC3    C1 6437   2.673   0.502  12.041 -0.2484  0.7762 -0.1210
  432TMC3    C2 6438   2.700   0.478  11.912 -0.6316  0.3745  0.3620
  432TMC3    C3 6439   2.720   0.346  11.877 -0.3832 -0.3997  0.4984
  432TMC3    C4 6440   2.661   0.399  12.131 -0.6289  0.0502 -0.5316
  432TMC3    C5 6441   2.695   0.277  12.094 -0.0490  0.0771  0.4646
  432TMC3    C6 6442   2.723   0.239  11.961 -0.3209 -0.1444 -0.1549
  432TMC3     C 6443   2.646   0.639  12.087 -0.8205  0.8274  0.2290
  432TMC3     O 6444   2.652   0.724  12.000 -0.0000  0.2283  0.4148
  432TMC3     H 6445   2.724   0.553  11.838 -0.7336  1.3603  1.3253
  432TMC3    H1 6446   2.616   0.419  12.228  1.9613 -1.4785  0.9738
  432TMC3    H2 6447   2.730   0.137  11.926  0.9145 -0.2653  0.4375
  432TMC3    C7 6448   2.694   0.179  12.198 -0.3888 -0.2422  0.3985
  432TMC3    C8 6449   2.794   0.309  11.762  0.1773 -0.0537 -0.8713
  432TMC3    O1 6450   2.644   0.070  12.177  0.4506 -0.4848 -0.3488
  432TMC3    O2 6451   2.770   0.201  11.704 -0.0008 -0.2112 -0.1892
  433MPD2     C 6452   1.746   4.526  10.533  0.0829  0.9779 -0.0869
  433MPD2    C1 6453   1.686   4.411  10.566  0.2437  0.0074 -0.5093
  433MPD2    C2 6454   1.651   4.389  10.700 -0.6924  0.2349 -0.0906
  433MPD2    C3 6455   1.694   4.482  10.797  0.6773 -0.5938 -0.3222
  433MPD2    C4 6456   1.756   4.596  10.762 -0.2898  0.2229  0.3862
  433MPD2    C5 6457   1.787   4.613  10.627 -0.2510 -0.5684  0.1231
  433MPD2     H 6458   1.611   4.292  10.727  1.6872 -0.7352 -0.0890
  433MPD2    H1 6459   1.793   4.665  10.837  2.1829 -0.2455 -0.4164
  433MPD2    H2 6460   1.795   4.529  10.437 -1.4441 -1.4950 -0.9543
  433MPD2    H3 6461   1.844   4.699  10.593 -0.7363 -1.6165 -3.3016
  433MPD2     N 6462   1.664   4.447  10.929  0.3101  0.1256  0.0751
  433MPD2    H5 6463   1.617   4.358  10.937 -0.7738  0.6043 -1.0839
  433MPD2    N1 6464   1.674   4.311  10.468 -1.0995 -0.2941  0.3779
  433MPD2    H7 6465   1.723   4.324  10.381 -2.7517 -2.1659 -0.8174
  434TMC3    C1 6466   1.654   4.089  10.376 -0.4026  0.7585  0.1806
  434TMC3    C2 6467   1.780   4.038  10.380 -0.8419 -0.0882 -0.4716
  434TMC3    C3 6468   1.802   3.904  10.411  0.1005 -0.4603 -0.3129
  434TMC3    C4 6469   1.553   3.996  10.372 -0.6005 -0.6278  0.0631
  434TMC3    C5 6470   1.576   3.863  10.387  0.2638 -0.0489  0.6585
  434TMC3    C6 6471   1.705   3.816  10.407  0.7678  0.1344  0.4062
  434TMC3     C 6472   1.631   4.182  10.489  0.0766  0.0666  0.8295
  434TMC3     O 6473   1.580   4.133  10.591 -0.6933 -0.3512  0.3913
  434TMC3     H 6474   1.861   4.110  10.380 -1.0155  0.1118  0.1878
  434TMC3    H1 6475   1.455   4.036  10.391 -0.3931 -0.2553  0.3386
  434TMC3    H2 6476   1.723   3.709  10.414  1.4979  0.3039  1.2802
  434TMC3    C7 6477   1.472   3.773  10.354  0.2871 -0.1812  0.0727
  434TMC3    C8 6478   1.936   3.847  10.448  0.0632 -0.7109 -0.2607
  434TMC3    O1 6479   1.384   3.802  10.270 -0.3891 -0.3542  0.4250
  434TMC3    O2 6480   1.952   3.726  10.466 -0.3206  0.3270 -0.4850
  435MPD2     C 6481   3.260   4.508  15.312  0.2647 -0.1711 -0.1156
  435MPD2    C1 6482   3.275   4.467  15.448 -1.0620  0.3514 -0.3094
  435MPD2    C2 6483   3.393   4.424  15.491  0.9018 -0.1003  0.5768
  435MPD2    C3 6484   3.496   4.414  15.398 -0.3187 -0.1556  0.5738
  435MPD2    C4 6485   3.488   4.461  15.273  0.9992  0.5779 -0.2041
  435MPD2    C5 6486   3.367   4.502  15.223 -0.5132 -0.9346 -0.5725
  435MPD2     H 6487   3.397   4.406  15.598  0.9543 -2.0344  0.2561
  435MPD2    H1 6488   3.570   4.452  15.202  0.2564 -4.2292 -0.4535
  435MPD2    H2 6489   3.181   4.560  15.258 -0.8163 -2.0024 -0.2839
  435MPD2    H3 6490   3.362   4.530  15.118 -1.5428  0.4946 -0.1469
  435MPD2     N 6491   3.617   4.366  15.455  0.6117  0.3347 -0.7018
  435MPD2    H5 6492   3.612   4.331  15.550  0.2322 -0.4099 -0.9978
  435MPD2    N1 6493   3.170   4.483  15.545 -0.5795 -0.1711 -0.8286
  435MPD2    H7 6494   3.199   4.464  15.640 -2.9897  0.0984 -0.0446
  436TMC3    C1 6495   2.901   4.508  15.854 -0.3272 -0.8936 -0.2857
  436TMC3    C2 6496   2.991   4.514  15.753  0.9099  0.4638 -0.0240
  436TMC3    C3 6497   2.944   4.509  15.625  0.7302 -0.4618 -0.2842
  436TMC3    C4 6498   2.766   4.479  15.833  0.2756  1.0489 -0.0208
  436TMC3    C5 6499   2.723   4.469  15.702  0.3376  0.1300  0.0816
  436TMC3    C6 6500   2.805   4.495  15.601 -0.5334 -0.4118  0.4312
  436TMC3     C 6501   2.933   4.585  15.969  0.0698  0.0532  0.8318
  436TMC3     O 6502   3.047   4.571  16.009 -0.7433  0.0764  0.1585
  436TMC3     H 6503   3.091   4.546  15.779  1.2759 -0.4484 -0.3184
  436TMC3    H1 6504   2.695   4.467  15.914 -0.4700 -1.7053 -1.0834
  436TMC3    H2 6505   2.780   4.462  15.500 -0.6752  1.9354 -0.3013
  436TMC3    C7 6506   2.584   4.461  15.662  1.0015  0.0134 -0.6745
  436TMC3    C8 6507   3.039   4.504  15.511  0.2048  0.2112 -0.4593
  436TMC3    O1 6508   2.554   4.509  15.554 -0.0515  0.1816 -0.0957
  436TMC3    O2 6509   2.986   4.507  15.400 -0.4462  0.1923  0.4631
  437TMC3    C1 6510   2.043   1.663  12.705 -0.4727 -0.0807  0.0639
  437TMC3    C2 6511   1.920   1.618  12.671 -0.5962  0.1627  0.0527
  437TMC3    C3 6512   1.852   1.684  12.571  0.2138  0.0873  0.7301
  437TMC3    C4 6513   2.106   1.752  12.630 -0.3509  0.0115  0.6433
  437TMC3    C5 6514   2.041   1.821  12.530  0.4605  0.3522  0.0111
  437TMC3    C6 6515   1.919   1.777  12.494  0.3156  0.1030 -0.0830
  437TMC3     C 6516   2.121   1.593  12.810 -0.5154 -0.5963  0.3868
  437TMC3     O 6517   2.244   1.604  12.810  0.6405 -0.5615  0.1120
  437TMC3     H 6518   1.871   1.527  12.703 -0.1167  0.2905  1.1390
  437TMC3    H1 6519   2.198   1.788  12.673  1.5602 -1.5215 -2.1311
  437TMC3    H2 6520   1.890   1.816  12.397  0.1937 -0.6504 -0.3494
  437TMC3    C7 6521   2.124   1.899  12.440 -0.4431 -0.6687  0.1055
  437TMC3    C8 6522   1.726   1.643  12.525 -0.5536 -0.3911 -0.0103
  437TMC3    O1 6523   2.055   1.970  12.370  0.2174  0.3064  0.7161
  437TMC3    O2 6524   1.675   1.539  12.562 -0.3787  0.1539 -0.1175
  438MPD2     C 6525   4.704   2.159  16.275  0.0599  0.7004  0.5872
  438MPD2    C1 6526   0.059   2.137  16.389  0.2881 -0.2873  0.5139
  438MPD2    C2 6527   0.043   2.219  16.502  0.1029  0.1568  0.3599
  438MPD2    C3 6528   4.670   2.318  16.503 -0.2735  0.0234 -0.2405
  438MPD2    C4 6529   4.584   2.324  16.392 -0.4941  1.1462 -0.1512
  438MPD2    C5 6530   4.601   2.245  16.286  0.1948 -0.4625  0.0376
  438MPD2     H 6531   0.103   2.196  16.589 -0.9117  0.7500  1.2129
  438MPD2    H1 6532   4.491   2.380  16.397 -1.3907 -0.5026  1.6445
  438MPD2    H2 6533   4.722   2.102  16.185 -1.0526  0.6997  0.3631
  438MPD2    H3 6534   4.530   2.260  16.205  1.0289  3.9230  0.1049
  438MPD2     N 6535   4.628   2.404  16.612 -0.1799 -0.0100  0.5220
  438MPD2    H5 6536   4.556   2.471  16.588  0.5846 -0.1933 -2.2448
  438MPD2    N1 6537   0.167   2.045  16.398 -0.0217  0.7237 -0.3407
  438MPD2    H7 6538   0.222   2.046  16.484  0.4839  0.4320 -0.6569
  439TMC3    C1 6539   0.313   1.876  16.315 -0.2787  0.3652 -0.1832
  439TMC3    C2 6540   0.344   1.796  16.203 -0.1987  0.8243 -0.1509
  439TMC3    C3 6541   0.476   1.784  16.160  0.4440  0.3228  0.0113
  439TMC3    C4 6542   0.418   1.949  16.366  0.2329  0.0002 -0.2697
  439TMC3    C5 6543   0.547   1.935  16.322  0.4512 -0.4757 -0.2005
  439TMC3    C6 6544   0.577   1.849  16.220  0.1125 -0.5809  0.2963
  439TMC3     C 6545   0.186   1.948  16.304 -0.1139  0.7055  0.3249
  439TMC3     O 6546   0.119   1.914  16.208 -0.2241 -0.2402 -0.4204
  439TMC3     H 6547   0.266   1.775  16.130  0.6008  0.2254 -0.8286
  439TMC3    H1 6548   0.396   2.027  16.439 -0.3465  0.5443 -1.0215
  439TMC3    H2 6549   0.681   1.837  16.191  0.1493 -1.3779  0.7520
  439TMC3    C7 6550   0.645   1.966  16.423 -0.4182 -0.1589  0.2554
  439TMC3    C8 6551   0.495   1.759  16.016  0.0197 -0.1571 -0.0486
  439TMC3    O1 6552   0.617   1.957  16.539  0.2483 -0.2386  0.3226
  439TMC3    O2 6553   0.591   1.815  15.967 -0.1629  0.2937 -0.0609
  440MPD2     C 6554   3.353   2.754  14.187  0.0871 -0.2072 -0.4407
  440MPD2    C1 6555   3.376   2.780  14.321 -0.5058  0.6250 -0.0254
  440MPD2    C2 6556   3.493   2.742  14.381  0.1731 -0.1707 -0.1762
  440MPD2    C3 6557   3.590   2.684  14.299 -0.3058 -0.0341  0.0319
  440MPD2    C4 6558   3.560   2.652  14.168 -0.2981  0.3821  0.0465
  440MPD2    C5 6559   3.442   2.694  14.108  0.3546 -0.0436 -0.6392
  440MPD2     H 6560   3.524   2.771  14.481  1.2180 -3.2045  0.3936
  440MPD2    H1 6561   3.628   2.591  14.110 -0.3975  1.5340 -1.2827
  440MPD2    H2 6562   3.265   2.799  14.143 -0.8223 -1.2635  0.3017
  440MPD2    H3 6563   3.425   2.681  14.001  0.5597  1.3801 -0.8476
  440MPD2     N 6564   3.713   2.644  14.345 -0.3273  0.4070 -0.1249
  440MPD2    H5 6565   3.781   2.597  14.286 -1.0024 -0.4392 -0.2310
  440MPD2    N1 6566   3.276   2.857  14.391  0.1250  0.0079 -0.0041
  440MPD2    H7 6567   3.203   2.890  14.329  0.4350 -0.8885 -0.8440
  441TMC3    C1 6568   3.895   2.608  14.479  0.5704  0.1687 -0.2542
  441TMC3    C2 6569   3.949   2.722  14.423  0.2111  0.1219  0.6133
  441TMC3    C3 6570   4.075   2.765  14.474 -0.2111  0.6390 -0.1845
  441TMC3    C4 6571   3.957   2.548  14.584  0.1990 -0.0960  0.6436
  441TMC3    C5 6572   4.070   2.602  14.637 -0.1297  0.2959  0.7436
  441TMC3    C6 6573   4.134   2.701  14.579  0.4232 -0.0893 -0.1475
  441TMC3     C 6574   3.748   2.619  14.474  0.6181  0.6482  0.2674
  441TMC3     O 6575   3.692   2.630  14.582 -0.2359  0.4233 -0.4474
  441TMC3     H 6576   3.901   2.774  14.341 -1.2846 -2.2883 -0.0466
  441TMC3    H1 6577   3.907   2.472  14.643  0.4969  0.7408  1.9866
  441TMC3    H2 6578   4.218   2.745  14.631  1.1007 -1.7626  0.1556
  441TMC3    C7 6579   4.053   2.608  14.785 -0.2151  0.2192  0.3606
  441TMC3    C8 6580   4.089   2.905  14.479  0.3912 -0.1442  0.8863
  441TMC3    O1 6581   3.940   2.605  14.832 -0.3713  0.1564 -0.2751
  441TMC3    O2 6582   4.194   2.959  14.492  0.6712  0.2649  0.2660
  442MPD2     C 6583   1.904   3.291  16.390  0.0204  0.1213  0.2535
  442MPD2    C1 6584   1.792   3.208  16.369  0.2900 -0.9023  0.3157
  442MPD2    C2 6585   1.774   3.149  16.245 -0.3655  0.5762 -0.9985
  442MPD2    C3 6586   1.855   3.175  16.137  0.2372 -0.2688  0.4761
  442MPD2    C4 6587   1.968   3.253  16.160  0.3653 -0.3576 -0.4668
  442MPD2    C5 6588   1.982   3.323  16.277 -0.5395 -0.4230 -0.3120
  442MPD2     H 6589   1.694   3.077  16.230  0.3312 -0.4419  0.1751
  442MPD2    H1 6590   2.043   3.264  16.082  0.8913 -2.1190 -0.2107
  442MPD2    H2 6591   1.926   3.327  16.490 -1.6155 -1.2992  1.1158
  442MPD2    H3 6592   2.071   3.379  16.304 -1.5601  0.8555  0.3784
  442MPD2     N 6593   1.842   3.121  16.006  0.1757  0.3246  0.0459
  442MPD2    H5 6594   1.909   3.160  15.941 -0.4396 -0.8572 -1.2907
  442MPD2    N1 6595   1.696   3.196  16.470 -0.8451 -0.4294 -0.1873
  442MPD2    H7 6596   1.627   3.124  16.453  1.5379 -2.6557 -0.5713
  443TMC3    C1 6597   1.541   3.273  16.622  0.4158  0.8235 -0.1027
  443TMC3    C2 6598   1.449   3.381  16.619  0.8633 -0.0765 -0.5343
  443TMC3    C3 6599   1.328   3.358  16.685 -0.0392  0.0378 -0.4381
  443TMC3    C4 6600   1.524   3.160  16.692 -0.6449 -0.9310  0.0207
  443TMC3    C5 6601   1.408   3.145  16.765  0.2040  0.4101 -0.5661
  443TMC3    C6 6602   1.308   3.244  16.763 -0.5977 -0.0610  0.0109
  443TMC3     C 6603   1.668   3.297  16.560 -0.6630  0.2453 -0.3599
  443TMC3     O 6604   1.710   3.412  16.562  0.0020  0.4586  0.1484
  443TMC3     H 6605   1.460   3.467  16.554 -0.0745  0.3803 -0.0834
  443TMC3    H1 6606   1.587   3.074  16.675 -1.2085 -1.2294 -0.5788
  443TMC3    H2 6607   1.209   3.237  16.807 -0.6813 -0.7238 -0.2749
  443TMC3    C7 6608   1.359   3.007  16.770  0.1852 -0.2931  0.1437
  443TMC3    C8 6609   1.222   3.379  16.586  0.0088 -0.4122  0.4311
  443TMC3    O1 6610   1.359   2.935  16.669 -0.5540 -0.3771  0.7292
  443TMC3    O2 6611   1.150   3.283  16.552  0.5315  0.0329  0.6121
  444MPD2     C 6612   2.047   2.636  17.287 -0.9090 -0.5920 -0.2519
  444MPD2    C1 6613   1.940   2.636  17.197 -0.3511  0.0347  0.1358
  444MPD2    C2 6614   1.949   2.562  17.082 -0.1908  0.1131 -0.4206
  444MPD2    C3 6615   2.070   2.501  17.050  0.0895  0.4541 -0.2054
  444MPD2    C4 6616   2.167   2.489  17.147 -0.5503  0.3800 -0.0816
  444MPD2    C5 6617   2.155   2.556  17.260  0.4252 -0.2368 -0.4209
  444MPD2     H 6618   1.874   2.560  17.004 -1.7926 -2.5399  1.1818
  444MPD2    H1 6619   2.262   2.440  17.125 -1.7728 -1.8648 -0.3759
  444MPD2    H2 6620   2.048   2.682  17.385 -2.9159 -0.8074 -0.1470
  444MPD2    H3 6621   2.241   2.562  17.327 -0.5176  3.2488  0.4901
  444MPD2     N 6622   2.078   2.457  16.913 -0.3739  0.6355  0.6467
  444MPD2    H5 6623   2.000   2.476  16.850  0.7770  1.3576 -0.5507
  444MPD2    N1 6624   1.815   2.689  17.231  0.3444  0.5909  0.8114
  444MPD2    H7 6625   1.737   2.655  17.176  2.5433 -0.8233 -1.4415
  445TMC3    C1 6626   2.188   2.381  16.706  0.6391 -0.3565  0.1322
  445TMC3    C2 6627   2.064   2.399  16.653 -0.1400 -1.3002  0.2839
  445TMC3    C3 6628   2.036   2.354  16.530 -0.5540 -0.4895  0.3702
  445TMC3    C4 6629   2.289   2.317  16.637  0.4356  0.3281 -0.3476
  445TMC3    C5 6630   2.256   2.276  16.508  0.2043  0.2976  0.3473
  445TMC3    C6 6631   2.132   2.289  16.451  0.8086  0.6816  0.2201
  445TMC3     C 6632   2.196   2.403  16.853 -0.3016  0.6876  0.2268
  445TMC3     O 6633   2.298   2.365  16.907  0.2942  0.0642 -0.5766
  445TMC3     H 6634   1.979   2.435  16.710  1.2113 -0.2191  1.5897
  445TMC3    H1 6635   2.391   2.332  16.670  0.2301  0.8084  0.0712
  445TMC3    H2 6636   2.123   2.248  16.351 -2.6357 -1.2131  1.3273
  445TMC3    C7 6637   2.363   2.219  16.420  0.3999  0.0517  1.0222
  445TMC3    C8 6638   1.904   2.363  16.474  0.1059  1.1001 -0.0440
  445TMC3    O1 6639   2.342   2.214  16.297 -0.1123  0.1608 -0.1452
  445TMC3    O2 6640   1.810   2.399  16.546 -0.3748 -0.2244 -0.1399
  446MPD2     C 6641   1.710   3.492  10.896 -0.0219 -0.0440  0.0512
  446MPD2    C1 6642   1.621   3.601  10.894 -0.1557  0.3690  0.6177
  446MPD2    C2 6643   1.672   3.730  10.891 -0.4400  0.3369  0.2363
  446MPD2    C3 6644   1.808   3.757  10.897 -0.2909 -0.3198  0.0107
  446MPD2    C4 6645   1.894   3.644  10.903 -0.6520 -0.1042  0.3040
  446MPD2    C5 6646   1.845   3.512  10.911 -0.0055 -0.5628  0.0687
  446MPD2     H 6647   1.598   3.808  10.875  1.1516  1.8624  0.2944
  446MPD2    H1 6648   2.000   3.667  10.903 -0.6707 -0.0077  1.9430
  446MPD2    H2 6649   1.671   3.393  10.880 -1.5065  0.8453 -1.7694
  446MPD2    H3 6650   1.905   3.423  10.902  1.4615  0.2958  1.4516
  446MPD2     N 6651   1.851   3.892  10.882  0.4962  0.6136  0.4512
  446MPD2    H5 6652   1.783   3.965  10.859 -1.3654 -1.0504  0.6985
  446MPD2    N1 6653   1.480   3.582  10.883 -0.6326  0.1047 -0.2364
  446MPD2    H7 6654   1.419   3.660  10.862  0.3319  1.0577  0.5239
  447TMC3    C1 6655   1.999   4.075  10.932  0.3131  0.4638  0.2359
  447TMC3    C2 6656   1.975   4.135  10.815 -0.0412 -0.0509  0.4536
  447TMC3    C3 6657   2.050   4.240  10.783 -0.2624 -0.7758 -0.4269
  447TMC3    C4 6658   2.097   4.123  11.017 -0.1178  0.7687  0.1940
  447TMC3    C5 6659   2.184   4.214  10.974  0.4228  0.3868 -0.6941
  447TMC3    C6 6660   2.161   4.280  10.853 -0.2629  0.0626  0.2368
  447TMC3     C 6661   1.968   3.930  10.945  0.4691 -0.2303 -0.9453
  447TMC3     O 6662   2.042   3.873  11.023  0.1419  0.2532 -0.2892
  447TMC3     H 6663   1.896   4.093  10.754 -0.0116  0.4968  0.0399
  447TMC3    H1 6664   2.085   4.100  11.123  1.1501  1.4808  0.4895
  447TMC3    H2 6665   2.226   4.361  10.823  0.6248 -1.4954 -2.0833
  447TMC3    C7 6666   2.309   4.216  11.046 -0.0810  0.2478 -0.0180
  447TMC3    C8 6667   2.032   4.285  10.648 -0.2738 -0.3665  0.0495
  447TMC3    O1 6668   2.387   4.301  11.009 -0.7253  0.1185  0.1873
  447TMC3    O2 6669   1.957   4.231  10.570  0.0728 -0.3136 -0.2669
  448TMC3    C1 6670   4.347   3.379  16.851  0.6829  0.3542  0.3451
  448TMC3    C2 6671   4.396   3.340  16.726  0.3013  0.5122  0.2607
  448TMC3    C3 6672   4.527   3.373  16.691  0.4762  0.2696  0.3083
  448TMC3    C4 6673   4.426   3.452  16.937 -0.1093 -0.5331  0.0867
  448TMC3    C5 6674   4.547   3.485  16.899  0.0910  0.0023 -0.5759
  448TMC3    C6 6675   4.601   3.453  16.779  0.2873 -0.4315 -0.0317
  448TMC3     C 6676   4.209   3.370  16.876 -0.5963  0.0837  0.3589
  448TMC3     O 6677   4.140   3.335  16.777 -0.0107  0.0505  0.5234
  448TMC3     H 6678   4.325   3.282  16.668  1.1405 -0.4996  0.2590
  448TMC3    H1 6679   4.378   3.503  17.020 -1.1903 -2.1321  0.4485
  448TMC3    H2 6680   4.691   3.490  16.731  0.9483 -3.3082 -1.0276
  448TMC3    C7 6681   4.619   3.576  16.981  0.6870 -0.3385 -0.1925
  448TMC3    C8 6682   4.588   3.289  16.591 -0.3049 -0.0360  0.0428
  448TMC3    O1 6683   4.687   3.655  16.918 -0.1871 -0.1267 -0.4193
  448TMC3    O2 6684   4.707   3.256  16.606 -0.6780  0.0648  0.1488
  449MPD2     C 6685   0.631   1.996  13.255 -0.2356  0.1139  0.5083
  449MPD2    C1 6686   0.620   1.868  13.289 -0.2635 -0.1385  0.3213
  449MPD2    C2 6687   0.497   1.822  13.334  0.1199 -0.0004 -0.0324
  449MPD2    C3 6688   0.382   1.898  13.333 -0.4302  0.1367  0.2732
  449MPD2    C4 6689   0.397   2.025  13.294  0.0305  0.2066 -0.2769
  449MPD2    C5 6690   0.518   2.077  13.256 -0.1954  0.2806 -0.0886
  449MPD2     H 6691   0.488   1.718  13.364 -2.2061  0.1099 -0.3828
  449MPD2    H1 6692   0.313   2.094  13.301  0.4307  0.1797  5.0579
  449MPD2    H2 6693   0.725   2.027  13.212  0.4501 -1.6783  0.7301
  449MPD2    H3 6694   0.528   2.181  13.229 -0.5577 -0.1401 -1.8129
  449MPD2     N 6695   0.259   1.838  13.377  0.2474  0.1168  0.1976
  449MPD2    H5 6696   0.269   1.740  13.399 -0.1219  0.1371  0.4498
  449MPD2    N1 6697   0.724   1.776  13.294 -0.0269  0.1641 -0.5239
  449MPD2    H7 6698   0.694   1.682  13.318 -0.0737  0.2387 -0.2906
  450TMC3    C1 6699   0.943   1.683  13.288 -0.0933  0.1490 -0.2025
  450TMC3    C2 6700   1.049   1.681  13.375 -0.8579  0.6190 -0.0349
  450TMC3    C3 6701   1.061   1.569  13.445  0.5270 -0.0542 -0.3268
  450TMC3    C4 6702   0.874   1.567  13.259 -0.8440 -0.2892 -0.4925
  450TMC3    C5 6703   0.883   1.454  13.336  0.1319  0.0317  0.4638
  450TMC3    C6 6704   0.974   1.465  13.440  0.4003  0.2428 -0.2939
  450TMC3     C 6705   0.860   1.805  13.285 -0.5724  0.2051  0.0996
  450TMC3     O 6706   0.921   1.908  13.291 -0.1812  0.2795  0.1378
  450TMC3     H 6707   1.112   1.767  13.396  0.3975 -0.4085  0.4382
  450TMC3    H1 6708   0.799   1.577  13.182  0.6933  1.1613 -1.8321
  450TMC3    H2 6709   0.961   1.397  13.523  0.3201 -2.0129 -2.1486
  450TMC3    C7 6710   0.748   1.426  13.389 -0.1134  0.2672  0.2736
  450TMC3    C8 6711   1.178   1.554  13.535 -0.0195 -0.0464 -0.2761
  450TMC3    O1 6712   0.684   1.528  13.409  0.0724 -0.6290  0.0927
  450TMC3    O2 6713   1.179   1.458  13.611 -0.1962  0.4471  0.2014
  451MPD2     C 6714   2.734   0.728   0.365 -0.5988  0.0880  0.2211
  451MPD2    C1 6715   2.651   0.669   0.458  0.2691 -0.3178  0.0174
  451MPD2    C2 6716   2.700   0.595   0.558  0.0561 -0.0204  0.9740
  451MPD2    C3 6717   2.835   0.572   0.570 -0.7389 -0.8434  0.0779
  451MPD2    C4 6718   2.911   0.622   0.467 -0.1575 -0.0921 -0.3325
  451MPD2    C5 6719   2.865   0.693   0.370  0.9235 -0.5638 -0.3383
  451MPD2     H 6720   2.634   0.552   0.633 -1.0234 -1.4793 -0.8023
  451MPD2    H1 6721   3.016   0.596   0.474  0.5753  2.2697 -2.3695
  451MPD2    H2 6722   2.701   0.788   0.281  1.2293 -0.9020 -1.2224
  451MPD2    H3 6723   2.926   0.738   0.293  0.4584 -1.8619 -1.4585
  451MPD2     N 6724   2.894   0.470   0.660 -0.0929 -0.1819  0.0425
  451MPD2    H5 6725   2.993   0.450   0.649 -0.0062  0.9515 -1.2628
  451MPD2    N1 6726   2.514   0.687   0.434  0.0339 -0.1778  0.0393
  451MPD2    H7 6727   2.479   0.754   0.365  2.2974  1.1776  0.1996
  452TMC3    C1 6728   2.894   0.309   0.827 -0.3526 -0.5119  0.3968
  452TMC3    C2 6729   2.883   0.302   0.959  0.1406 -0.6235 -0.4136
  452TMC3    C3 6730   2.969   0.222   1.029  0.7033  0.4517 -0.3334
  452TMC3    C4 6731   2.991   0.237   0.759 -0.5002 -0.6161  0.1866
  452TMC3    C5 6732   3.074   0.159   0.839 -0.5899 -0.6195  0.6877
  452TMC3    C6 6733   3.069   0.148   0.973  0.8086  0.0610  0.1223
  452TMC3     C 6734   2.818   0.401   0.755 -0.4051 -0.3603 -0.5378
  452TMC3     O 6735   2.706   0.418   0.801  0.3984 -0.1959  0.0706
  452TMC3     H 6736   2.802   0.362   1.000  1.0573  0.4397 -0.1699
  452TMC3    H1 6737   3.005   0.244   0.652 -1.0261 -0.9489  0.1019
  452TMC3    H2 6738   3.151   0.096   1.021 -1.5583 -2.2598  1.6475
  452TMC3    C7 6739   3.164   0.070   0.763  0.5638  0.1956  0.2392
  452TMC3    C8 6740   2.984   0.251   1.173  0.1787 -0.3327  0.1874
  452TMC3    O1 6741   3.169   0.084   0.644  0.4975 -0.2850  0.2654
  452TMC3    O2 6742   3.052   0.168   1.231  0.3529  0.3984  0.5306
  453TMC3    C1 6743   4.414   3.006  11.307 -0.2110  0.1680  0.1058
  453TMC3    C2 6744   4.277   3.021  11.327 -0.0564 -0.5932  0.6661
  453TMC3    C3 6745   4.190   2.966  11.234  0.4435  0.2053 -0.6686
  453TMC3    C4 6746   4.460   2.927  11.206  0.4273  0.1054 -0.2698
  453TMC3    C5 6747   4.369   2.865  11.128  0.7651  0.2872 -0.2799
  453TMC3    C6 6748   4.236   2.892  11.128  0.2871  0.1045  0.0655
  453TMC3     C 6749   4.505   3.083  11.385  0.3150  0.8119  0.0651
  453TMC3     O 6750   4.613   3.089  11.327 -0.6932  0.0715 -0.3255
  453TMC3     H 6751   4.244   3.057  11.423 -0.7978  2.0576 -0.5737
  453TMC3    H1 6752   4.565   2.905  11.193  0.9134  1.1617  1.8054
  453TMC3    H2 6753   4.168   2.841  11.062  3.2602  0.0409 -2.9662
  453TMC3    C7 6754   4.422   2.776  11.022 -0.1177 -0.3319 -0.1292
  453TMC3    C8 6755   4.062   2.930  11.287 -0.2158  0.2507 -0.2799
  453TMC3    O1 6756   4.378   2.797  10.909 -0.2462  0.0981  0.2982
  453TMC3    O2 6757   4.023   3.002  11.379 -0.3178 -0.7065  0.2732
  454MPD2     C 6758   2.583   2.510  16.165 -0.3686 -0.1430 -0.6717
  454MPD2    C1 6759   2.562   2.586  16.049  0.0364 -0.6196  0.1868
  454MPD2    C2 6760   2.460   2.677  16.050  0.1321 -0.1388  0.3642
  454MPD2    C3 6761   2.371   2.680  16.158 -0.4943  0.2528 -0.2809
  454MPD2    C4 6762   2.393   2.609  16.276  0.5509 -0.5175 -0.0835
  454MPD2    C5 6763   2.498   2.520  16.270 -0.1904 -0.3778  0.4438
  454MPD2     H 6764   2.434   2.730  15.960 -1.5274 -0.3338  0.7227
  454MPD2    H1 6765   2.339   2.623  16.369  3.0675  1.3079  1.1070
  454MPD2    H2 6766   2.669   2.445  16.162 -0.1226  0.0503  2.4279
  454MPD2    H3 6767   2.520   2.467  16.361 -2.2059 -3.6597 -0.9741
  454MPD2     N 6768   2.256   2.766  16.157 -0.4372  0.2967 -0.5236
  454MPD2    H5 6769   2.201   2.765  16.242 -0.0045 -1.3067 -0.2499
  454MPD2    N1 6770   2.634   2.578  15.928 -0.8096  0.2664  0.2508
  454MPD2    H7 6771   2.606   2.646  15.858 -1.8092 -0.8716 -0.4470
  455TMC3    C1 6772   2.074   2.814  16.070  0.2015 -0.9727  0.3315
  455TMC3    C2 6773   2.039   2.830  16.200  0.2158 -0.4626  0.3354
  455TMC3    C3 6774   1.958   2.738  16.263 -0.0142  0.4643  0.5990
  455TMC3    C4 6775   2.030   2.705  15.997  0.8174 -0.0252  0.8974
  455TMC3    C5 6776   1.969   2.602  16.073  0.1880 -0.6373 -0.8509
  455TMC3    C6 6777   1.920   2.626  16.198 -0.1058  0.2976  0.2810
  455TMC3     C 6778   2.215   2.843  16.054  1.0103 -0.1499 -0.1732
  455TMC3     O 6779   2.259   2.863  15.944  0.2891 -0.1119  0.1544
  455TMC3     H 6780   2.086   2.910  16.257  2.7292 -0.7998 -1.2480
  455TMC3    H1 6781   2.079   2.691  15.901 -1.0076  2.6208 -0.3918
  455TMC3    H2 6782   1.857   2.551  16.244 -0.1661  1.2950  1.8230
  455TMC3    C7 6783   2.064   2.490  16.076  0.3801  0.8097  0.7492
  455TMC3    C8 6784   1.961   2.727  16.406  0.1907  0.5495 -0.0113
  455TMC3    O1 6785   2.087   2.442  16.187  0.2861  0.4060 -0.3083
  455TMC3    O2 6786   2.067   2.759  16.452  1.0328  0.0699  0.2566
  456MPD2     C 6787   0.385   2.065  15.876  0.4890 -0.3171  0.3310
  456MPD2    C1 6788   0.496   2.113  15.947 -1.0949 -0.6966  0.4761
  456MPD2    C2 6789   0.478   2.186  16.066 -0.2380  0.3451  0.0438
  456MPD2    C3 6790   0.350   2.232  16.100  0.4027  0.1689  0.4240
  456MPD2    C4 6791   0.243   2.183  16.023  0.3498 -0.1367 -0.1669
  456MPD2    C5 6792   0.259   2.098  15.920 -0.1958  0.2354 -0.2686
  456MPD2     H 6793   0.564   2.230  16.114  0.5543 -1.6505  0.4659
  456MPD2    H1 6794   0.139   2.213  16.036 -0.3364 -2.5467 -0.1886
  456MPD2    H2 6795   0.396   2.005  15.786  1.6876  0.0690  0.2245
  456MPD2    H3 6796   0.174   2.058  15.866 -1.0232  0.6679  0.7218
  456MPD2     N 6797   0.339   2.335  16.198 -0.8782 -0.7388 -0.3510
  456MPD2    H5 6798   0.422   2.365  16.249 -0.8944  0.9561 -1.3355
  456MPD2    N1 6799   0.626   2.077  15.906 -0.1343 -0.5036  0.5090
  456MPD2    H7 6800   0.628   2.034  15.814 -1.9308  0.2562  0.0974
  457TMC3    C1 6801   0.240   2.494  16.339  0.7415 -0.0573 -0.3349
  457TMC3    C2 6802   0.169   2.605  16.326 -0.1204  0.1983 -0.1256
  457TMC3    C3 6803   0.196   2.706  16.415  0.6397  0.4097 -0.1071
  457TMC3    C4 6804   0.350   2.472  16.421  0.2731  0.0248  0.7359
  457TMC3    C5 6805   0.372   2.577  16.503 -0.6917 -0.3993 -0.2899
  457TMC3    C6 6806   0.298   2.692  16.506  0.1979  0.3101 -0.1530
  457TMC3     C 6807   0.224   2.403  16.228  0.1735  0.5594 -0.4513
  457TMC3     O 6808   0.129   2.424  16.154  0.2991  0.5669 -0.1979
  457TMC3     H 6809   0.095   2.608  16.247 -0.7895  0.1377  0.5004
  457TMC3    H1 6810   0.389   2.373  16.440 -0.1314 -0.5057 -1.1696
  457TMC3    H2 6811   0.316   2.771  16.579  0.1450  0.1932 -0.0138
  457TMC3    C7 6812   0.458   2.551  16.614  0.5929  0.1382  0.2419
  457TMC3    C8 6813   0.125   2.833  16.420 -0.2147 -0.0285 -0.5827
  457TMC3    O1 6814   0.470   2.434  16.643  0.2140 -0.6512  0.0686
  457TMC3    O2 6815   0.144   2.909  16.508  0.3519  0.3287  0.6061
  458MPD2     C 6816   2.575   2.104  12.319  0.2733  0.3366 -0.4111
  458MPD2    C1 6817   2.602   1.994  12.400  0.2422 -0.2697  0.1795
  458MPD2    C2 6818   2.491   1.925  12.443  0.1316 -0.2364  0.0422
  458MPD2    C3 6819   2.363   1.957  12.398  0.3554 -0.7808  0.4393
  458MPD2    C4 6820   2.344   2.059  12.305  0.1431  0.5205  0.2354
  458MPD2    C5 6821   2.453   2.135  12.272 -0.4843  0.5070 -0.5076
  458MPD2     H 6822   2.496   1.842  12.513  1.3132  2.1150  2.7201
  458MPD2    H1 6823   2.244   2.083  12.270 -0.3637 -1.6778  0.1774
  458MPD2    H2 6824   2.662   2.154  12.278  0.1910  0.6042 -0.2596
  458MPD2    H3 6825   2.439   2.223  12.212  1.0250  1.1292  0.0587
  458MPD2     N 6826   2.259   1.873  12.444  0.2652 -0.3082 -0.2898
  458MPD2    H5 6827   2.294   1.788  12.488  3.7698  1.5513  0.5572
  458MPD2    N1 6828   2.735   1.954  12.428  0.8027 -0.1599 -0.3217
  458MPD2    H7 6829   2.811   2.001  12.381 -0.1954 -0.0100 -1.7841
  459TMC3    C1 6830   2.900   1.886  12.583 -0.0135  0.0143 -0.1168
  459TMC3    C2 6831   2.939   2.015  12.599  0.0542 -0.7785 -0.0564
  459TMC3    C3 6832   3.048   2.034  12.682 -0.5128 -0.0148  0.7649
  459TMC3    C4 6833   2.949   1.780  12.659  1.0272 -0.0714 -1.4428
  459TMC3    C5 6834   3.053   1.809  12.739  0.4482 -0.4102  0.2166
  459TMC3    C6 6835   3.105   1.936  12.756  0.0146 -0.3769 -0.6509
  459TMC3     C 6836   2.771   1.854  12.519  0.7893  0.5371  0.3306
  459TMC3     O 6837   2.700   1.767  12.565 -0.1352 -0.3776 -0.2701
  459TMC3     H 6838   2.889   2.096  12.547  0.1305  0.7839  2.3028
  459TMC3    H1 6839   2.903   1.683  12.646  0.7254 -0.4334  2.3204
  459TMC3    H2 6840   3.195   1.943  12.815  0.9765 -0.1372 -2.1481
  459TMC3    C7 6841   3.141   1.701  12.762 -0.1969  0.0078 -0.3089
  459TMC3    C8 6842   3.146   2.130  12.628  0.5061  0.0352 -0.1076
  459TMC3    O1 6843   3.224   1.710  12.850 -0.5491 -0.2655 -0.0632
  459TMC3    O2 6844   3.120   2.163  12.515  0.8258 -0.2772 -0.3144
  460MPD2     C 6845   2.175   4.606  10.521 -0.2881 -0.3455  0.3274
  460MPD2    C1 6846   2.114   4.484  10.514 -0.1449 -0.7040  0.8095
  460MPD2    C2 6847   2.041   4.452  10.397 -0.4350  0.6263 -0.5046
  460MPD2    C3 6848   2.055   4.532  10.282 -0.1501 -0.2228  0.7713
  460MPD2    C4 6849   2.140   4.644  10.286 -0.5439  0.1760 -0.0515
  460MPD2    C5 6850   2.192   4.684  10.404 -0.3968  0.1042 -0.7241
  460MPD2     H 6851   1.968   4.372  10.397 -0.4162  0.6022  1.2098
  460MPD2    H1 6852   2.163   4.699  10.196 -2.1599 -1.2772 -1.3542
  460MPD2    H2 6853   2.212   4.645  10.615 -1.1883  2.2114 -0.3674
  460MPD2    H3 6854   2.257   0.046  10.400 -3.1202  2.1871  0.9069
  460MPD2     N 6855   1.987   4.507  10.159 -0.0242  0.5274 -0.2285
  460MPD2    H5 6856   2.027   4.559  10.082  1.9213 -0.3410  0.1944
  460MPD2    N1 6857   2.111   4.406  10.633 -0.2837  0.0688  0.0169
  460MPD2    H7 6858   2.139   4.446  10.722 -0.1713  1.1759 -0.5188
  461TMC3    C1 6859   1.813   4.451  10.017  0.6634 -0.6384  0.0285
  461TMC3    C2 6860   1.702   4.374   9.997 -0.3509  0.1735  0.7567
  461TMC3    C3 6861   1.635   4.390   9.879  0.6886 -0.2435 -0.2180
  461TMC3    C4 6862   1.853   4.550   9.929 -0.3979 -0.2749 -0.3606
  461TMC3    C5 6863   1.778   4.559   9.811 -0.4606 -0.8222  0.1906
  461TMC3    C6 6864   1.672   4.481   9.783 -0.0716  0.3199 -0.5132
  461TMC3     C 6865   1.887   4.412  10.134  0.6533 -0.9484 -1.3574
  461TMC3     O 6866   1.831   4.344  10.218  0.6234  0.0386  0.3253
  461TMC3     H 6867   1.670   4.291  10.058  2.7881 -1.2995  0.4226
  461TMC3    H1 6868   1.935   4.613   9.961 -1.1984 -0.1180  1.3684
  461TMC3    H2 6869   1.626   4.487   9.685  1.8731  4.1181 -1.1834
  461TMC3    C7 6870   1.820   4.672   9.722 -0.3425 -0.2831 -0.5401
  461TMC3    C8 6871   1.580   4.273   9.821 -0.0570 -0.2740 -0.4761
  461TMC3    O1 6872   1.898   0.032   9.761 -0.1849  0.2406  0.2563
  461TMC3    O2 6873   1.627   4.165   9.851  0.5217 -0.4713  0.3229
  462TMC3    C1 6874   1.837   0.859  17.678  0.0992 -0.7051 -0.1287
  462TMC3    C2 6875   1.949   0.784  17.670 -0.5001  0.0633  0.5068
  462TMC3    C3 6876   1.947   0.656   0.022 -0.2918 -1.0038  0.5787
  462TMC3    C4 6877   1.722   0.814   0.040  0.1968  0.8119  0.6318
  462TMC3    C5 6878   1.721   0.685   0.081 -0.2165  0.7758  0.2407
  462TMC3    C6 6879   1.833   0.605   0.076 -0.3984  0.5930  0.5377
  462TMC3     C 6880   1.812   0.972  17.600 -0.2209 -1.0224  1.3930
  462TMC3     O 6881   1.722   1.050  17.629 -0.1504  0.1463  0.0631
  462TMC3     H 6882   2.041   0.831  17.638 -1.1174  1.9133  1.4882
  462TMC3    H1 6883   1.630   0.869   0.033 -0.4869 -0.3775  0.2814
  462TMC3    H2 6884   1.835   0.511   0.130  1.0216  1.4990  2.0629
  462TMC3    C7 6885   1.599   0.602   0.104 -0.1640 -0.7925 -0.3850
  462TMC3    C8 6886   2.073   0.589   0.053  0.1572  0.0021  0.3170
  462TMC3    O1 6887   1.602   0.482   0.099 -0.4501  0.1229  0.1522
  462TMC3    O2 6888   2.077   0.516   0.149 -0.2133 -0.7644 -0.0202
  463MPD2     C 6889   3.376   3.752   2.294 -0.1610 -0.1701  0.6214
  463MPD2    C1 6890   3.387   3.700   2.168 -0.4027 -0.1420 -0.2508
  463MPD2    C2 6891   3.438   3.779   2.069  0.1220 -0.3072 -0.4586
  463MPD2    C3 6892   3.457   3.917   2.091 -0.5405  0.5019 -0.0930
  463MPD2    C4 6893   3.456   3.968   2.219 -0.0856 -0.3643 -0.2980
  463MPD2    C5 6894   3.418   3.879   2.317 -0.2234  0.3048  0.5768
  463MPD2     H 6895   3.444   3.735   1.970  0.0504  0.0667 -0.6309
  463MPD2    H1 6896   3.480   4.068   2.252  0.4941 -0.5725 -0.0848
  463MPD2    H2 6897   3.355   3.686   2.378  1.9698 -0.9014  0.5772
  463MPD2    H3 6898   3.419   3.925   2.416 -0.6087  2.2837 -0.3461
  463MPD2     N 6899   3.492   4.006   1.987  0.4966 -0.5000 -0.0590
  463MPD2    H5 6900   3.513   4.101   2.019 -2.4664 -0.6180  2.2522
  463MPD2    N1 6901   3.352   3.570   2.130 -0.1613  0.5035 -0.8223
  463MPD2    H7 6902   3.359   3.554   2.030  2.0177 -0.7595 -0.4541
  464TMC3    C1 6903   3.209   3.392   2.100  0.3639 -0.0464  0.5138
  464TMC3    C2 6904   3.204   3.432   1.965 -0.2134 -0.4710  0.5050
  464TMC3    C3 6905   3.153   3.347   1.874 -0.9755  0.0274 -0.2351
  464TMC3    C4 6906   3.161   3.277   2.140 -0.0786 -0.1158 -0.2799
  464TMC3    C5 6907   3.099   3.201   2.052  0.4681  0.2302  0.4724
  464TMC3    C6 6908   3.097   3.229   1.914 -0.5312  0.1759 -0.2568
  464TMC3     C 6909   3.273   3.482   2.199  0.3812 -0.4777  0.5125
  464TMC3     O 6910   3.248   3.477   2.319  0.0772 -0.0558  0.2352
  464TMC3     H 6911   3.254   3.520   1.927 -2.2818  1.0515  1.2791
  464TMC3    H1 6912   3.151   3.262   2.247  2.8759 -1.6757 -0.2046
  464TMC3    H2 6913   3.036   3.177   1.841 -1.2035  0.0141  0.4197
  464TMC3    C7 6914   3.038   3.081   2.110 -0.5472  0.1974 -0.1174
  464TMC3    C8 6915   3.135   3.395   1.735  0.5945  0.6709  0.8699
  464TMC3    O1 6916   3.029   3.068   2.235  0.3180  0.0924 -0.2546
  464TMC3    O2 6917   3.058   3.338   1.660 -0.1090 -0.2519  0.2661
  465MPD2     C 6918   4.584   2.818  16.849  0.8296  0.0736 -0.1312
  465MPD2    C1 6919   4.455   2.787  16.896  0.1293 -0.1202 -0.0343
  465MPD2    C2 6920   4.368   2.737  16.798  0.0404 -1.2982 -0.0300
  465MPD2    C3 6921   4.408   2.725  16.665  0.0428 -0.2628  0.3056
  465MPD2    C4 6922   4.534   2.753  16.625 -0.1331 -0.4229  0.0566
  465MPD2    C5 6923   4.616   2.806  16.715 -1.1841  0.2132 -0.1330
  465MPD2     H 6924   4.269   2.703  16.825 -0.7657  0.7674 -0.3772
  465MPD2    H1 6925   4.579   2.752  16.526  0.3117 -1.3623  0.2729
  465MPD2    H2 6926   4.658   2.871  16.908  1.8851 -0.1795 -1.2375
  465MPD2    H3 6927   4.716   2.832  16.680 -0.8841  0.2065  0.7111
  465MPD2     N 6928   4.314   2.679  16.574 -0.2019 -0.7898  0.0880
  465MPD2    H5 6929   4.216   2.666  16.601  0.5394  0.9344  3.6156
  465MPD2    N1 6930   4.414   2.813  17.032 -0.5574  0.8042 -0.1881
  465MPD2    H7 6931   4.323   2.781  17.063  0.9268 -1.6122  1.6848
  466TMC3    C1 6932   4.032   2.519  16.299 -0.0440  0.0352  0.1892
  466TMC3    C2 6933   4.037   2.572  16.174  0.5892 -0.2118 -0.0355
  466TMC3    C3 6934   4.148   2.648  16.139  0.5202  0.5353  0.1630
  466TMC3    C4 6935   4.126   2.550  16.394  0.6511  0.3194  0.1426
  466TMC3    C5 6936   4.234   2.628  16.357 -0.3475 -1.4360 -0.2499
  466TMC3    C6 6937   4.243   2.668  16.226  0.0323 -0.1053 -0.8132
  466TMC3     C 6938   3.923   2.437  16.349  0.2621 -0.3246 -0.2831
  466TMC3     O 6939   3.913   2.418  16.471 -0.0688 -0.3105  0.4845
  466TMC3     H 6940   3.958   2.564  16.100  0.2833 -3.2134  0.6213
  466TMC3    H1 6941   4.129   2.510  16.495  0.5385 -0.4811 -0.1687
  466TMC3    H2 6942   4.321   2.736  16.193  0.1886  0.7700  1.3362
  466TMC3    C7 6943   4.350   2.647  16.446 -0.7481  0.3437 -0.3036
  466TMC3    C8 6944   4.125   2.761  16.056  1.3184  0.0967 -0.2243
  466TMC3    O1 6945   4.460   2.626  16.401 -0.6214  0.2785  0.4292
  466TMC3    O2 6946   4.214   2.815  15.992  0.2714 -0.3256  0.3091
  467TMC3    C1 6947   0.355   0.702  13.659  0.1784  0.6072 -0.5703
  467TMC3    C2 6948   0.282   0.713  13.546 -0.8096  0.2580  0.3268
  467TMC3    C3 6949   0.152   0.753  13.551  0.2238 -0.8985  0.0702
  467TMC3    C4 6950   0.296   0.736  13.781 -1.1446 -0.0018  0.1368
  467TMC3    C5 6951   0.164   0.768  13.787  0.2072  0.4416 -0.4331
  467TMC3    C6 6952   0.093   0.779  13.673  0.5068  0.2892  0.2425
  467TMC3     C 6953   0.491   0.751  13.652 -0.7698  0.2563 -0.2382
  467TMC3     O 6954   0.533   0.807  13.753  0.1481  0.3356 -0.3943
  467TMC3     H 6955   0.330   0.701  13.449 -1.5551  0.0132 -0.0136
  467TMC3    H1 6956   0.360   0.741  13.868 -1.7143 -1.4682  0.6408
  467TMC3    H2 6957   4.714   0.811  13.680 -0.5229 -2.7352 -1.1013
  467TMC3    C7 6958   0.115   0.796  13.928 -0.0962 -0.4028  0.7666
  467TMC3    C8 6959   0.100   0.823  13.427  0.4973 -0.5627  0.2013
  467TMC3    O1 6960   0.194   0.770  14.017  0.1015 -0.0116  0.1653
  467TMC3    O2 6961   0.072   0.942  13.447 -0.9078 -0.3378 -0.2701
  468MPD2     C 6962   4.380   3.939  10.545  0.0710  0.1500 -0.2316
  468MPD2    C1 6963   4.327   3.906  10.668 -0.6671  0.7587 -0.2220
  468MPD2    C2 6964   4.277   3.780  10.686 -0.1146 -0.3920 -0.2359
  468MPD2    C3 6965   4.284   3.690  10.582  0.7465  0.1401 -0.3004
  468MPD2    C4 6966   4.317   3.729  10.457  0.5595  0.4704  0.0180
  468MPD2    C5 6967   4.378   3.854  10.438 -0.1536 -0.1836 -0.1572
  468MPD2     H 6968   4.256   3.744  10.786 -1.9946  0.7943 -0.2065
  468MPD2    H1 6969   4.301   3.659  10.375  1.4528  0.8812 -0.4999
  468MPD2    H2 6970   4.417   4.036  10.516 -0.9713  0.7319  0.3903
  468MPD2    H3 6971   4.413   3.881  10.339  0.8473 -0.4242  0.1268
  468MPD2     N 6972   4.270   3.552  10.600 -0.2235 -0.5786  0.2747
  468MPD2    H5 6973   4.275   3.496  10.516 -1.0053  0.8276 -0.7140
  468MPD2    N1 6974   4.335   3.990  10.779 -0.1809 -0.5957  0.2315
  468MPD2    H7 6975   4.296   3.945  10.860 -1.2443  0.1659  0.1475
  469TMC3    C1 6976   4.359   4.170  10.931 -0.5502  0.3610  0.5792
  469TMC3    C2 6977   4.466   4.212  11.010  0.1706 -0.8488 -0.6115
  469TMC3    C3 6978   4.447   4.231  11.143 -0.0843 -0.0330 -0.6482
  469TMC3    C4 6979   4.235   4.153  10.979  0.3352 -0.4081 -0.1506
  469TMC3    C5 6980   4.211   4.184  11.113 -0.3848 -0.4247 -0.0921
  469TMC3    C6 6981   4.320   4.226  11.194 -0.0746  0.0234 -0.1315
  469TMC3     C 6982   4.401   4.108  10.803  0.6102 -0.8078  0.9141
  469TMC3     O 6983   4.484   4.162  10.732  0.6438 -0.1883  0.6136
  469TMC3     H 6984   4.564   4.226  10.967  1.0490 -2.6398  0.8187
  469TMC3    H1 6985   4.159   4.132  10.905 -0.4442  1.5254  0.1010
  469TMC3    H2 6986   4.302   4.245  11.299  0.4935  1.8603 -0.3625
  469TMC3    C7 6987   4.081   4.137  11.150 -0.1460  0.3262  0.8885
  469TMC3    C8 6988   4.568   4.264  11.222 -0.4399 -0.6573 -0.2717
  469TMC3    O1 6989   4.029   4.058  11.074  0.3072  0.2319 -0.0386
  469TMC3    O2 6990   4.668   4.278  11.152 -0.0735  0.1389  0.2603
  470TMC3    C1 6991   0.183   4.414   0.702  0.2241  0.5517 -0.3319
  470TMC3    C2 6992   0.268   4.482   0.620  1.0175  0.0634  0.5502
  470TMC3    C3 6993   0.400   4.482   0.650 -0.2815  0.2692  0.0613
  470TMC3    C4 6994   0.218   4.372   0.828  0.4695  0.1856 -0.3037
  470TMC3    C5 6995   0.351   4.385   0.863 -0.2117 -0.6914  0.2243
  470TMC3    C6 6996   0.442   4.442   0.776  0.2919 -0.6337  0.7252
  470TMC3     C 6997   0.037   4.415   0.663  0.8722  1.3006 -0.0387
  470TMC3     O 6998   0.010   4.442   0.549  0.6731 -0.9332  0.1040
  470TMC3     H 6999   0.233   4.520   0.524 -1.0610 -1.9415  0.5179
  470TMC3    H1 7000   0.149   4.319   0.894 -0.6931 -0.6471 -2.1884
  470TMC3    H2 7001   0.548   4.455   0.799  0.6544  0.4226 -1.5102
  470TMC3    C7 7002   0.392   4.340   0.994 -0.0665  0.0121  0.9774
  470TMC3    C8 7003   0.474   4.586   0.581  0.3874 -0.7988 -0.7360
  470TMC3    O1 7004   0.511   4.351   1.005 -0.0215 -0.2040 -1.1510
  470TMC3    O2 7005   0.526   4.665   0.656  0.1527  0.3502  0.1961
  471MPD2     C 7006   1.721   1.834  16.187  0.5833 -0.1485  0.1000
  471MPD2    C1 7007   1.628   1.739  16.222  0.1853  0.4360 -0.2946
  471MPD2    C2 7008   1.612   1.722  16.354  0.3766  0.6401  0.3831
  471MPD2    C3 7009   1.688   1.783  16.456  0.2330  0.4465  0.3809
  471MPD2    C4 7010   1.786   1.871  16.415  0.2655 -0.2691 -0.1102
  471MPD2    C5 7011   1.796   1.901  16.285 -0.3459 -0.5163  0.4917
  471MPD2     H 7012   1.540   1.645  16.381 -0.3429  0.1860 -2.7703
  471MPD2    H1 7013   1.847   1.907  16.498  1.6824 -2.6679 -0.0981
  471MPD2    H2 7014   1.739   1.862  16.084  0.6476  1.5404  0.5795
  471MPD2    H3 7015   1.871   1.975  16.261  0.0146 -1.7923 -2.2481
  471MPD2     N 7016   1.668   1.749  16.589 -0.3335 -0.3085 -0.4444
  471MPD2    H5 7017   1.720   1.804  16.656 -1.5535 -1.9798  1.8467
  471MPD2    N1 7018   1.557   1.661  16.128  0.0058 -0.0505 -0.5629
  471MPD2    H7 7019   1.471   1.619  16.162  1.0645 -0.7011  1.2595
  472TMC3    C1 7020   1.515   1.537  15.930  1.4909 -0.5080 -0.4143
  472TMC3    C2 7021   1.380   1.550  15.939  0.3211  0.8377  0.3349
  472TMC3    C3 7022   1.313   1.434  15.910 -0.1831  0.5479 -0.6393
  472TMC3    C4 7023   1.589   1.425  15.894  0.4026 -0.2056  0.0181
  472TMC3    C5 7024   1.511   1.312  15.890  0.1541  0.3429  0.3336
  472TMC3    C6 7025   1.375   1.317  15.890  0.0117  0.1616 -0.0937
  472TMC3     C 7026   1.599   1.643  15.997 -0.2137  0.9587  0.3465
  472TMC3     O 7027   1.715   1.662  15.959  0.0394  0.0436  0.0552
  472TMC3     H 7028   1.330   1.643  15.965  2.4874  2.9021 -2.7062
  472TMC3    H1 7029   1.696   1.424  15.914  0.0175 -0.8939  1.9773
  472TMC3    H2 7030   1.315   1.231  15.863 -0.2814  0.8596 -1.6747
  472TMC3    C7 7031   1.585   1.187  15.926 -0.3758 -0.2437  0.4362
  472TMC3    C8 7032   1.171   1.449  15.902  0.4051  0.7980 -0.2418
  472TMC3    O1 7033   1.698   1.170  15.876  0.0571  0.5956  0.4244
  472TMC3    O2 7034   1.124   1.554  15.859  0.2771 -0.4285 -0.3670
  473MPD2     C 7035   1.511   3.415  13.756 -0.0412 -0.0206  0.7403
  473MPD2    C1 7036   1.575   3.509  13.682 -0.2506 -0.3383  0.3394
  473MPD2    C2 7037   1.681   3.585  13.733  0.0845  0.3539 -0.0490
  473MPD2    C3 7038   1.702   3.578  13.872  0.4841  0.2086  0.1877
  473MPD2    C4 7039   1.639   3.485  13.944  1.0987  0.5243 -0.0396
  473MPD2    C5 7040   1.543   3.408  13.885  0.5793 -0.2999  0.8350
  473MPD2     H 7041   1.735   3.661  13.678 -1.2782  0.5170 -1.1650
  473MPD2    H1 7042   1.666   3.473  14.049  2.8896 -1.4232 -0.7433
  473MPD2    H2 7043   1.424   3.361  13.720 -0.5005 -0.6258  2.7466
  473MPD2    H3 7044   1.484   3.345  13.950  0.5424 -1.3460 -0.2147
  473MPD2     N 7045   1.789   3.657  13.945  0.0024 -0.4004  0.2727
  473MPD2    H5 7046   1.804   3.635  14.043 -1.4823 -0.4080  0.4927
  473MPD2    N1 7047   1.539   3.539  13.548  0.4592 -0.5743  0.1302
  473MPD2    H7 7048   1.595   3.602  13.490 -0.0468 -0.0551  0.2085
  474TMC3    C1 7049   1.951   3.823  13.995  0.1354 -0.1476 -0.7241
  474TMC3    C2 7050   1.986   3.951  13.961 -0.2067  0.0126  0.3113
  474TMC3    C3 7051   2.042   4.029  14.062 -0.3565  0.8958  0.5555
  474TMC3    C4 7052   1.979   3.769  14.126 -0.6819 -0.4127 -0.2661
  474TMC3    C5 7053   2.020   3.857  14.222 -0.3969  0.4282 -0.7495
  474TMC3    C6 7054   2.054   3.982  14.190  0.3019 -0.0454 -0.5095
  474TMC3     C 7055   1.867   3.755  13.896 -0.1900 -0.6143 -0.2661
  474TMC3     O 7056   1.862   3.804  13.779  0.6657  0.4678  0.4438
  474TMC3     H 7057   1.977   3.988  13.859 -0.2032  0.1667  0.3673
  474TMC3    H1 7058   1.974   3.665  14.157 -0.2249 -0.3921 -0.1146
  474TMC3    H2 7059   2.081   4.055  14.265  0.3642  0.2319 -0.8027
  474TMC3    C7 7060   2.083   3.798  14.340 -0.5562  0.1738 -0.7363
  474TMC3    C8 7061   2.126   4.144  14.025 -0.1579  0.3054  0.0432
  474TMC3    O1 7062   2.138   3.688  14.333  0.6288  0.0049 -0.0746
  474TMC3    O2 7063   2.153   4.225  14.113 -0.5599 -0.5983 -0.1235
  475MPD2     C 7064   0.059   1.997  10.877  0.4097 -0.8076  0.2922
  475MPD2    C1 7065   0.044   1.957  10.750  0.2838 -0.2577  0.2600
  475MPD2    C2 7066   4.691   2.032  10.665  0.1823 -0.6966  0.5583
  475MPD2    C3 7067   4.622   2.144  10.714 -0.7890  0.3764  0.1218
  475MPD2    C4 7068   4.624   2.167  10.848  0.4859  0.1776  0.6197
  475MPD2    C5 7069   4.714   2.104  10.925 -0.5180  0.1157  0.0639
  475MPD2     H 7070   4.689   2.004  10.560 -0.1430 -2.2695  0.9849
  475MPD2    H1 7071   4.567   2.251  10.886  0.0408 -0.3944  1.2007
  475MPD2    H2 7072   0.128   1.939  10.937 -1.4217 -1.8700  1.3982
  475MPD2    H3 7073   4.720   2.140  11.027  0.4271  0.4719 -0.1145
  475MPD2     N 7074   4.544   2.225  10.629 -0.3559  0.1159 -0.3479
  475MPD2    H5 7075   4.455   2.259  10.663 -0.3740  0.3571 -0.6374
  475MPD2    N1 7076   0.121   1.839  10.705 -0.4685 -0.0919 -0.2328
  475MPD2    H7 7077   0.197   1.802  10.762 -3.5528 -2.4959  2.2936
  476TMC3    C1 7078   0.222   1.723  10.525 -1.0876 -0.4357  0.5236
  476TMC3    C2 7079   0.198   1.655  10.412  0.1237 -1.0863  0.3102
  476TMC3    C3 7080   0.285   1.654  10.313  0.2945 -0.1844  0.2478
  476TMC3    C4 7081   0.338   1.782  10.548  0.3965 -0.2401 -0.5158
  476TMC3    C5 7082   0.429   1.781  10.442  0.3623  0.5840  0.9291
  476TMC3    C6 7083   0.405   1.714  10.322  0.1382  0.3592  0.5007
  476TMC3     C 7084   0.101   1.773  10.581  0.2416 -0.3052  0.0744
  476TMC3     O 7085   0.009   1.786  10.503 -0.6778  0.4705 -0.2797
  476TMC3     H 7086   0.095   1.621  10.405 -0.4761  1.1662 -1.8398
  476TMC3    H1 7087   0.355   1.820  10.648 -0.3079  0.9748 -0.8471
  476TMC3    H2 7088   0.482   1.715  10.246 -2.0335 -0.2462 -1.7185
  476TMC3    C7 7089   0.538   1.876  10.444  1.0253 -0.7070 -0.9422
  476TMC3    C8 7090   0.254   1.585  10.193  0.0715  0.5276  0.5624
  476TMC3    O1 7091   0.631   1.857  10.367  0.4761  0.4055 -0.8099
  476TMC3    O2 7092   0.349   1.556  10.123 -0.1288 -0.0620 -0.3737
  477MPD2     C 7093   2.791   3.566  11.476  0.7293  0.1943 -0.4366
  477MPD2    C1 7094   2.686   3.476  11.462  0.2673 -0.4728  0.0449
  477MPD2    C2 7095   2.661   3.392  11.575 -0.0164 -0.1962  0.9802
  477MPD2    C3 7096   2.741   3.407  11.687 -0.6436 -0.2265  0.2442
  477MPD2    C4 7097   2.842   3.501  11.696  0.2815 -0.2769  0.0572
  477MPD2    C5 7098   2.860   3.578  11.588 -0.9563 -0.0205 -0.2531
  477MPD2     H 7099   2.575   3.327  11.583  0.2475 -0.8345 -1.2041
  477MPD2    H1 7100   2.906   3.513  11.782 -0.8529  3.1656  0.4312
  477MPD2    H2 7101   2.810   3.638  11.397 -0.6444 -1.2475 -2.0936
  477MPD2    H3 7102   2.933   3.657  11.593 -3.5152  2.2921  1.0864
  477MPD2     N 7103   2.710   3.327  11.792 -0.5554 -0.3113 -0.2256
  477MPD2    H5 7104   2.647   3.248  11.779  1.3372 -1.7479 -0.6890
  477MPD2    N1 7105   2.601   3.485  11.343 -0.1020 -0.4086  0.0559
  477MPD2    H7 7106   2.619   3.560  11.277 -0.2858  1.2446  1.9052
  478TMC3    C1 7107   2.389   3.467  11.224  0.0322  0.5431 -0.2869
  478TMC3    C2 7108   2.260   3.435  11.254  0.2277  0.1638 -0.1301
  478TMC3    C3 7109   2.161   3.510  11.183  0.2451  0.3001  0.8286
  478TMC3    C4 7110   2.427   3.531  11.110  0.4062  0.7428  0.6048
  478TMC3    C5 7111   2.327   3.588  11.034 -0.1771 -0.5995  0.3742
  478TMC3    C6 7112   2.196   3.585  11.074 -0.1306  0.0357 -0.6323
  478TMC3     C 7113   2.485   3.407  11.322 -0.5614 -0.9907  0.1881
  478TMC3     O 7114   2.447   3.303  11.375  0.3351  0.1658  0.5613
  478TMC3     H 7115   2.232   3.410  11.355  2.2392  1.0006  0.6284
  478TMC3    H1 7116   2.528   3.529  11.070  0.5255 -1.2269  0.9777
  478TMC3    H2 7117   2.128   3.652  11.022  0.0203  0.4237 -0.3313
  478TMC3    C7 7118   2.372   3.685  10.936  0.1689 -0.3666 -0.1012
  478TMC3    C8 7119   2.037   3.528  11.256  0.0687 -0.0045  0.1419
  478TMC3    O1 7120   2.487   3.727  10.937  0.0130 -0.3554 -0.1049
  478TMC3    O2 7121   2.010   3.445  11.343  0.0122  0.1686 -0.2434
  479MPD2     C 7122   1.545   0.399  14.920  0.4953  0.1202  0.1722
  479MPD2    C1 7123   1.462   0.498  14.955  0.0087 -0.2528 -0.2186
  479MPD2    C2 7124   1.506   0.605  15.038 -0.7736 -0.0481 -0.7844
  479MPD2    C3 7125   1.642   0.625  15.057 -0.5791  0.1841  0.2049
  479MPD2    C4 7126   1.729   0.531  15.008 -0.7679  0.5063 -0.2387
  479MPD2    C5 7127   1.676   0.411  14.956 -0.3844 -0.2133  0.3242
  479MPD2     H 7128   1.432   0.680  15.064  1.1308  2.1490 -1.7132
  479MPD2    H1 7129   1.837   0.537  15.016 -0.8280  1.7271 -0.3632
  479MPD2    H2 7130   1.518   0.306  14.872 -0.7529  0.5238  0.0859
  479MPD2    H3 7131   1.734   0.324  14.928 -0.8537 -0.0444 -1.1728
  479MPD2     N 7132   1.715   0.736  15.103 -0.2758  0.4211  0.1078
  479MPD2    H5 7133   1.811   0.741  15.070  1.0440  2.5846  4.2516
  479MPD2    N1 7134   1.337   0.496  14.889  0.5920 -0.3478 -0.2499
  479MPD2    H7 7135   1.318   0.427  14.816  1.6033  0.6496 -1.4581
  480TMC3    C1 7136   1.668   1.110  15.352  0.4223 -0.0636  0.3660
  480TMC3    C2 7137   1.643   1.206  15.258 -0.0784 -0.1360 -0.0812
  480TMC3    C3 7138   1.692   1.178  15.134  0.1049 -0.4854  0.1287
  480TMC3    C4 7139   1.718   0.980  15.323  0.2301 -0.2650  0.1474
  480TMC3    C5 7140   1.746   0.950  15.197 -0.1882 -0.1991 -0.4446
  480TMC3    C6 7141   1.746   1.053  15.104  0.3286 -0.0254 -0.4536
  480TMC3     C 7142   1.581   1.101  15.470 -0.2549 -0.3016  0.7449
  480TMC3     O 7143   1.608   1.014  15.552  0.4507 -0.2187 -0.1212
  480TMC3     H 7144   1.625   1.301  15.307  1.9541 -0.9015  2.1523
  480TMC3    H1 7145   1.702   0.896  15.389 -1.9200 -0.2156 -0.3192
  480TMC3    H2 7146   1.782   1.018  15.008  2.8676 -1.2387  0.9189
  480TMC3    C7 7147   1.653   0.841  15.158  0.4023 -1.0380 -0.0991
  480TMC3    C8 7148   1.655   1.264  15.029 -1.7934  0.4431 -0.9065
  480TMC3    O1 7149   1.529   0.852  15.171 -0.2149  0.7596  0.4143
  480TMC3    O2 7150   1.662   1.388  15.039  0.6085 -0.3019 -0.0783
  481MPD2     C 7151   3.568   0.569  14.519  0.4641 -0.1068 -0.5059
  481MPD2    C1 7152   3.442   0.511  14.512 -0.5355 -0.6389  0.2761
  481MPD2    C2 7153   3.374   0.462  14.627  0.1524  0.1279  0.5691
  481MPD2    C3 7154   3.428   0.507  14.744 -0.2489 -0.1589 -0.2231
  481MPD2    C4 7155   3.545   0.582  14.749  0.5038 -0.1256 -0.1259
  481MPD2    C5 7156   3.621   0.606  14.635 -0.0123  0.6459 -0.1973
  481MPD2     H 7157   3.289   0.395  14.618  1.9441 -1.8842 -1.5821
  481MPD2    H1 7158   3.582   0.624  14.842 -2.8807  3.1487 -0.2806
  481MPD2    H2 7159   3.619   0.588  14.425  0.2505  0.2320 -0.5541
  481MPD2    H3 7160   3.712   0.664  14.644  1.0159 -1.1476  0.8644
  481MPD2     N 7161   3.372   0.482  14.872 -0.2747  0.3835 -0.3082
  481MPD2    H5 7162   3.414   0.527  14.953  0.2440 -0.4843 -0.0968
  481MPD2    N1 7163   3.409   0.471  14.382  0.0814  0.4700 -0.0507
  481MPD2    H7 7164   3.481   0.481  14.312 -2.0460  0.7689 -2.1802
  482TMC3    C1 7165   3.310   0.349  14.207  1.0339 -0.3712 -0.3363
  482TMC3    C2 7166   3.240   0.235  14.177  0.2361  0.0906  0.0428
  482TMC3    C3 7167   3.194   0.220  14.054 -0.4091 -0.1333  0.0697
  482TMC3    C4 7168   3.329   0.444  14.109 -0.2247 -0.5663  0.2061
  482TMC3    C5 7169   3.272   0.425  13.988 -0.2531 -0.2676  0.9037
  482TMC3    C6 7170   3.204   0.317  13.951 -0.2471  0.3517  0.2911
  482TMC3     C 7171   3.305   0.380  14.347  0.3514  0.0969  0.0971
  482TMC3     O 7172   3.210   0.334  14.413  0.4949 -0.7511  0.3423
  482TMC3     H 7173   3.202   0.179  14.261  1.0735 -0.5223  0.0084
  482TMC3    H1 7174   3.394   0.529  14.123  0.0417 -0.7360 -0.0142
  482TMC3    H2 7175   3.167   0.292  13.853 -0.7727 -1.9443  1.0674
  482TMC3    C7 7176   3.305   0.533  13.892 -0.5467 -1.0891 -0.1045
  482TMC3    C8 7177   3.079   0.119  14.037  0.3725 -0.0961 -0.1326
  482TMC3    O1 7178   3.344   0.642  13.933 -0.1476  0.1713 -0.6643
  482TMC3    O2 7179   3.077   0.005  14.086 -0.2707  0.3537  0.0472
  483TMC3    C1 7180   0.696   3.612   0.380 -0.1056 -0.8320 -0.9502
  483TMC3    C2 7181   0.695   3.740   0.342 -0.1681 -0.1632  0.3788
  483TMC3    C3 7182   0.729   3.839   0.432  0.9940  0.2309  0.0877
  483TMC3    C4 7183   0.725   3.578   0.510 -0.0377  0.2629  0.1609
  483TMC3    C5 7184   0.779   3.669   0.595  0.0586  0.0759  0.0767
  483TMC3    C6 7185   0.792   3.799   0.552 -0.3991 -0.2865 -0.2129
  483TMC3     C 7186   0.655   3.507   0.288 -0.4876  0.2727  0.2236
  483TMC3     O 7187   0.591   3.544   0.193 -0.3349 -0.2244 -0.1115
  483TMC3     H 7188   0.663   3.769   0.243 -0.5988  1.9041  1.1239
  483TMC3    H1 7189   0.686   3.485   0.550  2.5116 -0.4258  1.0572
  483TMC3    H2 7190   0.849   3.867   0.615 -0.7035  0.3318 -0.6013
  483TMC3    C7 7191   0.851   3.628   0.713  0.1586 -0.3751 -0.2372
  483TMC3    C8 7192   0.728   3.976   0.391  0.3484  0.4763  0.8103
  483TMC3    O1 7193   0.929   3.533   0.710 -0.2356 -0.4766 -0.1886
  483TMC3    O2 7194   0.712   4.002   0.272 -0.4799 -0.3157  0.4783
  484MPD2     C 7195   3.438   2.277  12.791 -0.1615  0.3120  0.1807
  484MPD2    C1 7196   3.357   2.238  12.685 -0.3031  0.1829 -0.4860
  484MPD2    C2 7197   3.402   2.256  12.555 -1.0185  0.5332  0.1122
  484MPD2    C3 7198   3.521   2.325  12.534 -0.4271  0.4365 -0.4771
  484MPD2    C4 7199   3.592   2.383  12.647 -1.1637 -0.0672 -0.6395
  484MPD2    C5 7200   3.550   2.358  12.775 -0.3019 -0.2631  0.2882
  484MPD2     H 7201   3.340   2.229  12.471  1.2731 -2.0992 -0.7614
  484MPD2    H1 7202   3.688   2.431  12.626  0.0183 -0.9327  2.8389
  484MPD2    H2 7203   3.416   2.247  12.893  0.7521 -0.7795  0.0483
  484MPD2    H3 7204   3.619   2.379  12.856  1.3481  2.3400 -1.7598
  484MPD2     N 7205   3.571   2.350  12.407  0.0911  0.1823  0.1930
  484MPD2    H5 7206   3.668   2.379  12.396 -0.0235  1.4590  2.6654
  484MPD2    N1 7207   3.239   2.169  12.717 -0.3450 -0.4950  0.2108
  484MPD2    H7 7208   3.227   2.135  12.812 -2.4302 -1.9599 -0.5812
  485TMC3    C1 7209   3.613   2.279  12.189  1.0918 -0.1827  0.8102
  485TMC3    C2 7210   3.718   2.200  12.229  0.0401  0.2317 -0.1132
  485TMC3    C3 7211   3.781   2.131  12.134 -0.1118 -0.0787  0.1533
  485TMC3    C4 7212   3.567   2.287  12.058  0.4539  0.0680  0.0081
  485TMC3    C5 7213   3.640   2.223  11.963 -0.1498  0.3978  0.0401
  485TMC3    C6 7214   3.738   2.135  12.001 -0.5646 -0.5155 -0.5103
  485TMC3     C 7215   3.515   2.298  12.295  0.2273 -0.8276 -0.5167
  485TMC3     O 7216   3.398   2.318  12.258 -0.1609 -0.7633  0.2125
  485TMC3     H 7217   3.734   2.188  12.335 -1.5516 -1.8735 -0.1043
  485TMC3    H1 7218   3.485   2.355  12.036  2.0636  1.3708 -1.8769
  485TMC3    H2 7219   3.798   2.086  11.925 -1.0234 -0.9281 -0.6046
  485TMC3    C7 7220   3.682   2.326  11.870  0.8308 -0.2460 -0.8627
  485TMC3    C8 7221   3.926   2.138  12.146 -0.6916 -0.6270 -0.4677
  485TMC3    O1 7222   3.605   2.410  11.825  0.0133 -0.5456 -0.3375
  485TMC3    O2 7223   3.978   2.134  12.036  0.2399 -0.1221 -0.5043
  486MPD2     C 7224   0.947   1.294  12.943 -0.3044  0.0948  0.5594
  486MPD2    C1 7225   0.908   1.224  12.841 -0.8931  0.5505  0.8635
  486MPD2    C2 7226   0.841   1.288  12.737 -0.0224 -0.0417  0.3678
  486MPD2    C3 7227   0.822   1.421  12.736  0.1236  0.8183 -0.7609
  486MPD2    C4 7228   0.873   1.497  12.847  0.2047  0.1857  0.6107
  486MPD2    C5 7229   0.936   1.431  12.947 -0.3192 -0.0788  0.3347
  486MPD2     H 7230   0.816   1.220  12.657  0.2078 -0.7491  0.9051
  486MPD2    H1 7231   0.876   1.605  12.847 -0.7026  0.2101  1.1921
  486MPD2    H2 7232   1.001   1.242  13.022 -1.1073 -1.7609 -0.1124
  486MPD2    H3 7233   0.973   1.491  13.029  0.9648 -1.5820  0.8696
  486MPD2     N 7234   0.752   1.482  12.636  0.0279 -0.1021  0.1406
  486MPD2    H5 7235   0.721   1.424  12.559 -2.8717  2.3582 -0.5075
  486MPD2    N1 7236   0.929   1.085  12.848  0.6832 -0.2193  0.0810
  486MPD2    H7 7237   0.983   1.050  12.926 -2.7166 -1.2123  1.9788
  487TMC3    C1 7238   0.955   0.859  12.785 -0.4241  0.4435  0.9999
  487TMC3    C2 7239   0.887   0.746  12.755  0.3760 -0.4926 -0.8204
  487TMC3    C3 7240   0.915   0.634  12.832 -0.0356  0.0816  0.3065
  487TMC3    C4 7241   1.056   0.857  12.873  0.3158  0.2921  0.1455
  487TMC3    C5 7242   1.085   0.745  12.945  0.2185 -0.3570 -0.3611
  487TMC3    C6 7243   1.024   0.622  12.910 -0.4603  0.2823 -0.2448
  487TMC3     C 7244   0.886   0.986  12.761 -0.1242 -0.3759  0.1276
  487TMC3     O 7245   0.814   0.982  12.660 -0.0995  0.3918 -0.1174
  487TMC3     H 7246   0.805   0.741  12.683 -1.7303  0.4085  1.5219
  487TMC3    H1 7247   1.133   0.934  12.878 -1.0162  1.5549  1.5189
  487TMC3    H2 7248   1.027   0.544  12.985 -1.2094 -1.8144 -2.3617
  487TMC3    C7 7249   1.148   0.758  13.070  0.2524 -0.6067 -0.0201
  487TMC3    C8 7250   0.837   0.513  12.798 -0.9499  0.4904 -0.0599
  487TMC3    O1 7251   1.154   0.871  13.108 -0.1735  0.6347  0.1608
  487TMC3    O2 7252   0.722   0.531  12.761  0.2059 -0.2235  0.8493
  488MPD2     C 7253   0.855   2.567  15.927  0.1869 -0.6385 -0.4071
  488MPD2    C1 7254   0.906   2.662  16.012 -0.0890 -1.1529  0.0302
  488MPD2    C2 7255   0.902   2.628  16.145  0.3946  0.5448  0.6861
  488MPD2    C3 7256   0.840   2.515  16.193 -0.5091 -0.3058 -0.6480
  488MPD2    C4 7257   0.784   2.431  16.106  0.1187 -0.0853  0.4514
  488MPD2    C5 7258   0.794   2.455  15.974 -0.0386 -1.0265  0.2467
  488MPD2     H 7259   0.945   2.699  16.215  0.1754  0.9696  0.3898
  488MPD2    H1 7260   0.737   2.340  16.142  0.2745 -0.3479 -0.0104
  488MPD2    H2 7261   0.845   2.579  15.820 -0.1282 -1.0596 -0.4255
  488MPD2    H3 7262   0.754   2.374  15.914 -2.3321  0.4926 -0.2637
  488MPD2     N 7263   0.836   2.507  16.333  0.0560  0.2305 -0.3537
  488MPD2    H5 7264   0.875   2.589  16.378  1.6324 -1.3440  1.1362
  488MPD2    N1 7265   0.973   2.777  15.977 -0.6172  0.2686 -0.0356
  488MPD2    H7 7266   1.021   2.830  16.050 -1.3466 -0.0112  0.6459
  489TMC3    C1 7267   0.818   2.400  16.542  0.1492  0.1602 -0.4645
  489TMC3    C2 7268   0.930   2.469  16.585  0.4530 -0.1506  0.0248
  489TMC3    C3 7269   0.975   2.445  16.713 -0.4291 -0.2791 -0.0656
  489TMC3    C4 7270   0.762   2.305  16.621  0.1259 -0.1876 -0.5362
  489TMC3    C5 7271   0.810   2.282  16.742 -0.1836  0.1451 -0.1460
  489TMC3    C6 7272   0.912   2.353  16.797 -0.2260  0.1311 -0.0142
  489TMC3     C 7273   0.772   2.405  16.405 -0.1600  0.6091 -0.7481
  489TMC3     O 7274   0.689   2.326  16.370 -0.3825  0.2136 -0.7873
  489TMC3     H 7275   0.991   2.526  16.517 -1.4700  0.4515 -1.1911
  489TMC3    H1 7276   0.674   2.256  16.581  0.0412  0.4447 -1.1245
  489TMC3    H2 7277   0.945   2.321  16.895  3.2665 -0.7267 -1.5005
  489TMC3    C7 7278   0.732   2.203  16.826  0.5129 -0.2588  0.2053
  489TMC3    C8 7279   1.080   2.538  16.745 -0.0448 -0.3200  0.4493
  489TMC3    O1 7280   0.782   2.145  16.921  0.4709  0.3666  0.6648
  489TMC3    O2 7281   1.137   2.596  16.656 -0.2607 -0.4812 -0.2375
  490MPD2     C 7282   1.813   2.445  17.551 -0.0475  0.1495 -0.1134
  490MPD2    C1 7283   1.753   2.337  17.610  0.1616  0.1505  0.7225
  490MPD2    C2 7284   1.778   2.306   0.043  0.0418  0.5564  0.8010
  490MPD2    C3 7285   1.883   2.373   0.107 -0.0320 -0.1385 -0.3539
  490MPD2    C4 7286   1.954   2.474   0.044  0.0110 -0.8936  0.4510
  490MPD2    C5 7287   1.906   2.517  17.623 -0.4477 -0.4684 -0.3098
  490MPD2     H 7288   1.738   2.215   0.087  1.3678 -0.7239 -0.6783
  490MPD2    H1 7289   2.038   2.527   0.087  0.7258 -0.2376 -1.7629
  490MPD2    H2 7290   1.782   2.483  17.455  0.0113 -0.8657 -0.5354
  490MPD2    H3 7291   1.948   2.608  17.582 -1.6172 -0.5230 -1.6402
  490MPD2     N 7292   1.930   2.312   0.224 -0.2104  0.2725  0.1969
  490MPD2    H5 7293   1.869   2.239   0.258 -0.6726 -0.3425 -1.9777
  490MPD2    N1 7294   1.666   2.251  17.536 -0.3039 -0.5050 -0.1026
  490MPD2    H7 7295   1.623   2.176  17.589 -2.5916  0.7401 -0.2007
  491TMC3    C1 7296   1.535   2.158  17.364  0.2182  0.1181  0.8860
  491TMC3    C2 7297   1.485   2.076  17.457 -0.1706  0.0412 -0.7149
  491TMC3    C3 7298   1.423   1.958  17.425  0.2630 -0.3746 -0.4730
  491TMC3    C4 7299   1.512   2.132  17.231 -0.6430 -0.1700 -0.0014
  491TMC3    C5 7300   1.445   2.015  17.194 -0.5130 -0.2401  0.5560
  491TMC3    C6 7301   1.401   1.930  17.290  0.5357 -0.2156  0.2740
  491TMC3     C 7302   1.619   2.268  17.404  0.4607 -0.2404 -0.2702
  491TMC3     O 7303   1.663   2.336  17.312 -0.2335 -0.2796  0.1138
  491TMC3     H 7304   1.485   2.091  17.565  0.6056  2.2074 -0.9980
  491TMC3    H1 7305   1.557   2.199  17.158  0.7664 -0.0424  0.9804
  491TMC3    H2 7306   1.339   1.850  17.251 -1.1489  0.3637  1.7386
  491TMC3    C7 7307   1.402   1.993  17.060 -0.3938  0.6384  0.6892
  491TMC3    C8 7308   1.403   1.850  17.520  0.1675 -0.1643  0.3563
  491TMC3    O1 7309   1.333   1.893  17.039 -0.1065  0.0267  0.1820
  491TMC3    O2 7310   1.398   1.887  17.634  0.0295 -0.2859 -0.0145
  492MPD2     C 7311   2.419   2.055  11.307 -0.8985 -0.7091 -0.5159
  492MPD2    C1 7312   2.312   2.005  11.232 -0.6566 -0.0320  0.0043
  492MPD2    C2 7313   2.192   1.962  11.294  0.6208 -0.5352 -0.3404
  492MPD2    C3 7314   2.185   1.971  11.433 -0.4405  0.0443 -0.5140
  492MPD2    C4 7315   2.295   2.029  11.508 -0.0390 -0.1250  0.2098
  492MPD2    C5 7316   2.403   2.075  11.440  0.2957  0.3746 -0.5008
  492MPD2     H 7317   2.113   1.928  11.229 -0.7491  0.7012  0.6870
  492MPD2    H1 7318   2.288   2.053  11.613 -1.5463 -0.9687  0.3111
  492MPD2    H2 7319   2.512   2.095  11.268  0.0971 -1.1509  1.4254
  492MPD2    H3 7320   2.486   2.115  11.498 -1.1742  0.0206  1.8400
  492MPD2     N 7321   2.080   1.919  11.520  0.4365 -0.0343  0.0096
  492MPD2    H5 7322   2.094   1.908  11.620 -0.2702 -0.3828  0.0739
  492MPD2    N1 7323   2.335   1.984  11.092 -0.5619 -0.2976 -0.0472
  492MPD2    H7 7324   2.420   2.029  11.057 -0.9882  1.7471  1.5000
  493TMC3    C1 7325   2.307   1.884  10.877  0.9156  0.1343 -0.1009
  493TMC3    C2 7326   2.285   1.996  10.798  0.0216  0.2565 -0.1046
  493TMC3    C3 7327   2.196   1.987  10.698  0.5634  0.3406  0.1031
  493TMC3    C4 7328   2.267   1.759  10.831 -1.3426  0.0150  0.2718
  493TMC3    C5 7329   2.196   1.746  10.719 -0.7179  0.1648 -0.0138
  493TMC3    C6 7330   2.163   1.862  10.652 -0.0431  0.3259  0.0084
  493TMC3     C 7331   2.262   1.893  11.016  0.4636 -1.1511 -0.1191
  493TMC3     O 7332   2.173   1.810  11.032 -0.2935 -0.3008  0.3972
  493TMC3     H 7333   2.312   2.089  10.847 -1.2130  0.0504  0.9484
  493TMC3    H1 7334   2.305   1.670  10.879  1.2889  1.1919  0.3490
  493TMC3    H2 7335   2.097   1.843  10.568  0.2551  2.5322 -0.7098
  493TMC3    C7 7336   2.080   1.661  10.732 -0.0681 -0.2021 -0.0403
  493TMC3    C8 7337   2.176   2.097  10.611 -0.8363  0.2256  0.0217
  493TMC3    O1 7338   2.020   1.638  10.631 -0.2100  0.0461  0.3489
  493TMC3    O2 7339   2.259   2.188  10.614  0.1281  0.3997  0.7864
  494TMC3    C1 7340   2.624   3.615   0.123  0.1381 -0.3006  0.1815
  494TMC3    C2 7341   2.594   3.481   0.138 -0.5946 -0.6490  0.2326
  494TMC3    C3 7342   2.584   3.416   0.012 -0.4249 -0.6473  0.2724
  494TMC3    C4 7343   2.654   3.680   0.008 -0.2385  0.6010 -0.9061
  494TMC3    C5 7344   2.647   3.610  17.589  0.7849 -0.7061 -0.2412
  494TMC3    C6 7345   2.618   3.479  17.591  0.1357 -0.2558 -0.2036
  494TMC3     C 7346   2.662   3.689   0.246  0.4661  0.2642  0.1637
  494TMC3     O 7347   2.615   3.646   0.353 -0.1268 -0.1111  0.4283
  494TMC3     H 7348   2.567   3.437   0.233 -1.8941 -1.0554 -0.3323
  494TMC3    H1 7349   2.662   3.788   0.021 -1.0678  0.5548 -0.0563
  494TMC3    H2 7350   2.611   3.412  17.506  1.9683 -0.3554 -0.2880
  494TMC3    C7 7351   2.678   3.671  17.458  0.2203 -0.0030 -0.4017
  494TMC3    C8 7352   2.627   3.280   0.030 -0.7984  0.2744 -0.1468
  494TMC3    O1 7353   2.683   3.591  17.361  0.0004  0.8057  0.0622
  494TMC3    O2 7354   2.669   3.224  17.630 -0.1839  0.1085 -0.9735
  495TMC3    C1 7355   1.578   0.654  14.244 -0.0663  0.4201 -0.2687
  495TMC3    C2 7356   1.491   0.697  14.152  0.3956  1.0652 -0.5722
  495TMC3    C3 7357   1.445   0.828  14.150  0.4865 -0.4475  0.1309
  495TMC3    C4 7358   1.608   0.729  14.354 -1.1134 -0.0945  0.2313
  495TMC3    C5 7359   1.543   0.850  14.357 -0.6525  0.9308 -0.0399
  495TMC3    C6 7360   1.475   0.910  14.256  0.3079 -0.2674  0.5027
  495TMC3     C 7361   1.608   0.513  14.257 -0.6649  0.1723 -0.2292
  495TMC3     O 7362   1.544   0.432  14.192  0.4575 -0.1576  0.4032
  495TMC3     H 7363   1.452   0.617  14.090  0.5631  0.5556 -0.0144
  495TMC3    H1 7364   1.675   0.701  14.434  0.7832  0.5034 -1.1573
  495TMC3    H2 7365   1.428   1.007  14.271 -1.6977 -0.8881 -1.7546
  495TMC3    C7 7366   1.570   0.930  14.473 -0.0775  0.2661 -0.0652
  495TMC3    C8 7367   1.322   0.850  14.080  0.4556 -0.8493  0.3021
  495TMC3    O1 7368   1.580   0.854  14.570  0.6898 -0.1419 -0.1715
  495TMC3    O2 7369   1.259   0.947  14.121 -0.0524  0.2759 -0.5177
  496MPD2     C 7370   3.426   1.406  15.414 -0.2081  0.8849 -0.7680
  496MPD2    C1 7371   3.334   1.302  15.419 -0.7833 -0.3405 -0.1766
  496MPD2    C2 7372   3.244   1.287  15.524 -0.7329 -0.5109 -0.5242
  496MPD2    C3 7373   3.235   1.388  15.608  0.6700 -0.5952 -0.2809
  496MPD2    C4 7374   3.322   1.494  15.601 -0.2605  0.4547 -0.4750
  496MPD2    C5 7375   3.423   1.500  15.508 -0.0614 -0.4594 -0.2249
  496MPD2     H 7376   3.174   1.204  15.532 -1.1678 -0.1463 -0.5825
  496MPD2    H1 7377   3.318   1.584  15.661 -1.1146 -0.6698  1.1389
  496MPD2    H2 7378   3.517   1.411  15.355 -0.0562  0.9671 -0.5279
  496MPD2    H3 7379   3.500   1.575  15.516 -0.1561 -0.1211 -2.4728
  496MPD2     N 7380   3.133   1.384  15.708 -0.8181  0.3445 -0.2480
  496MPD2    H5 7381   3.062   1.313  15.694  2.3976 -3.0394  0.5712
  496MPD2    N1 7382   3.348   1.202  15.313 -0.3979  0.2646 -0.1247
  496MPD2    H7 7383   3.436   1.201  15.262 -1.2931  1.5322 -1.6916
  497TMC3    C1 7384   3.024   1.396  15.930 -0.0697 -0.1659 -0.1800
  497TMC3    C2 7385   2.957   1.275  15.899 -0.6855 -0.9631  0.1954
  497TMC3    C3 7386   2.819   1.273  15.938  0.1968 -0.1771 -0.3350
  497TMC3    C4 7387   2.973   1.490  16.025  0.1410 -0.6235  0.1065
  497TMC3    C5 7388   2.851   1.461  16.075 -0.0673 -0.4253  0.4694
  497TMC3    C6 7389   2.766   1.365  16.030 -0.0098  0.1423  0.0297
  497TMC3     C 7390   3.129   1.443  15.834  0.0893 -0.7739  0.1792
  497TMC3     O 7391   3.180   1.549  15.871  0.5136  0.2078  0.7808
  497TMC3     H 7392   2.993   1.210  15.820 -0.3547 -1.7819  1.0307
  497TMC3    H1 7393   3.021   1.586  16.041  0.9971 -1.3433  1.9010
  497TMC3    H2 7394   2.668   1.347  16.074  0.4103  0.9903  1.3157
  497TMC3    C7 7395   2.828   1.515  16.207  0.1346  0.1342  0.3057
  497TMC3    C8 7396   2.753   1.141  15.923  0.1013 -0.5123 -0.2144
  497TMC3    O1 7397   2.713   1.522  16.245 -0.2049 -0.8680  0.1509
  497TMC3    O2 7398   2.635   1.142  15.948  0.2196 -0.1685 -0.8143
  498MPD2     C 7399   0.038   1.947  10.136 -0.6453  1.0746  0.2025
  498MPD2    C1 7400   4.723   1.889  10.016 -0.6876  0.1661  0.6274
  498MPD2    C2 7401   4.606   1.812  10.020 -0.1817 -0.3000 -0.3972
  498MPD2    C3 7402   4.519   1.806  10.130  0.0497  0.5636  0.1083
  498MPD2    C4 7403   4.561   1.874  10.247  0.6026 -0.3179  0.5940
  498MPD2    C5 7404   4.683   1.936  10.249 -0.0080 -0.1333  0.1946
  498MPD2     H 7405   4.591   1.743   9.937  2.4421  0.7620 -1.7343
  498MPD2    H1 7406   4.512   1.880  10.343 -1.1191 -0.1598 -0.2891
  498MPD2    H2 7407   0.121   2.017  10.138  0.2198  0.0536  0.2106
  498MPD2    H3 7408   4.710   1.994  10.337 -0.1901  0.0482  0.1302
  498MPD2     N 7409   4.412   1.715  10.117 -0.2519  0.0241  0.3917
  498MPD2    H5 7410   4.407   1.654  10.036  0.1958  0.1572  0.2603
  498MPD2    N1 7411   0.081   1.900   9.900  0.0308  0.1073  0.0877
  498MPD2    H7 7412   0.041   1.860   9.815  1.2556 -1.9759  0.5237
  499TMC3    C1 7413   0.264   1.948   9.758  0.1306 -0.0717 -0.4760
  499TMC3    C2 7414   0.402   1.938   9.761 -0.2305  0.3032  0.1706
  499TMC3    C3 7415   0.480   2.011   9.678  0.2927  0.6018 -0.3878
  499TMC3    C4 7416   0.206   2.045   9.672 -0.5959 -0.2167 -0.0413
  499TMC3    C5 7417   0.288   2.112   9.584 -0.3246  0.1129  0.2167
  499TMC3    C6 7418   0.428   2.096   9.589  0.0633 -0.2638 -0.6378
  499TMC3     C 7419   0.213   1.941   9.892 -0.7997  0.3088  0.0753
  499TMC3     O 7420   0.289   1.966   9.985 -0.1542 -0.3361 -0.2573
  499TMC3     H 7421   0.450   1.873   9.834  0.8427  0.4921 -0.3766
  499TMC3    H1 7422   0.101   2.067   9.687 -0.7094 -0.9521  0.2363
  499TMC3    H2 7423   0.491   2.151   9.520 -1.2020  1.7150 -0.1943
  499TMC3    C7 7424   0.247   2.218   9.499  0.1291  0.0569 -0.1934
  499TMC3    C8 7425   0.622   1.976   9.659  0.1843  0.2983  0.5225
  499TMC3    O1 7426   0.337   2.292   9.465 -0.4680 -0.4773 -0.2009
  499TMC3    O2 7427   0.693   2.070   9.627 -0.5296  0.0687  0.1987
  500MPD2     C 7428   1.202   2.517  10.664  0.1464  0.1124 -0.7424
  500MPD2    C1 7429   1.231   2.618  10.578  1.0675  0.1079  0.3056
  500MPD2    C2 7430   1.142   2.638  10.467  0.5080 -0.0070 -0.0737
  500MPD2    C3 7431   1.027   2.552  10.443  0.2086 -1.1342  0.9253
  500MPD2    C4 7432   0.999   2.461  10.540 -0.0097 -0.0002  0.1608
  500MPD2    C5 7433   1.089   2.438  10.643 -0.9159 -0.7666  0.8174
  500MPD2     H 7434   1.166   2.718  10.398 -1.6755  0.1279 -0.6984
  500MPD2    H1 7435   0.907   2.403  10.540 -1.0047  1.5432  0.9133
  500MPD2    H2 7436   1.249   2.503  10.761 -0.6317  0.8145 -0.2607
  500MPD2    H3 7437   1.074   2.361  10.718  2.4946 -1.8468  0.4146
  500MPD2     N 7438   0.940   2.566  10.337  0.2611  0.1023 -0.3425
  500MPD2    H5 7439   0.849   2.522  10.326 -0.2557  0.9832  0.4202
  500MPD2    N1 7440   1.335   2.714  10.605 -0.5263  0.5512  0.1046
  500MPD2    H7 7441   1.321   2.804  10.559  2.7531  1.3033  0.5704
  501TMC3    C1 7442   1.515   2.812  10.714  0.4488 -0.4330 -0.9967
  501TMC3    C2 7443   1.471   2.936  10.674 -0.2360 -0.6078 -0.6221
  501TMC3    C3 7444   1.552   3.040  10.669 -1.4529 -0.0959  0.4631
  501TMC3    C4 7445   1.636   2.804  10.768  0.3314 -0.6139  0.0608
  501TMC3    C5 7446   1.720   2.909  10.758  0.1284  0.6174  0.3171
  501TMC3    C6 7447   1.685   3.027  10.708 -0.1244 -0.4379 -0.1118
  501TMC3     C 7448   1.435   2.700  10.693 -0.0296 -0.1192 -0.1539
  501TMC3     O 7449   1.469   2.602  10.753 -0.0779  0.0234 -1.1259
  501TMC3     H 7450   1.366   2.950  10.652 -0.9842  0.7039  3.8379
  501TMC3    H1 7451   1.665   2.720  10.830 -0.6916  0.4901  2.0330
  501TMC3    H2 7452   1.764   3.099  10.694 -1.0557  0.6267  0.1440
  501TMC3    C7 7453   1.852   2.900  10.802  0.2706  0.3828  0.0235
  501TMC3    C8 7454   1.513   3.176  10.625  0.6055  0.2569 -0.3564
  501TMC3    O1 7455   1.918   2.799  10.788 -0.0878 -0.0697  0.2920
  501TMC3    O2 7456   1.587   3.265  10.674 -0.2321 -0.2981  0.1657
  502TMC3    C1 7457   0.605   1.525  14.446 -0.6432 -0.0615 -0.0492
  502TMC3    C2 7458   0.544   1.639  14.394  1.2360 -0.4893  0.1735
  502TMC3    C3 7459   0.427   1.685  14.454 -0.6235  0.4693  0.0973
  502TMC3    C4 7460   0.542   1.455  14.549 -0.9547  0.1552  0.6574
  502TMC3    C5 7461   0.414   1.487  14.594 -0.2799 -0.3592 -0.2219
  502TMC3    C6 7462   0.361   1.606  14.545 -0.2602  0.2687  0.0166
  502TMC3     C 7463   0.742   1.555  14.475  0.2502  0.3425 -0.1533
  502TMC3     O 7464   0.807   1.592  14.378  0.1836  0.2718 -0.5720
  502TMC3     H 7465   0.602   1.706  14.332 -1.8067  0.8614 -1.1754
  502TMC3    H1 7466   0.579   1.363  14.592  0.9973 -1.2210 -3.9325
  502TMC3    H2 7467   0.256   1.620  14.568  0.0643  2.4752  0.1421
  502TMC3    C7 7468   0.410   1.465  14.734 -0.4516  0.1406 -0.4685
  502TMC3    C8 7469   0.446   1.816  14.506  0.1340 -0.4616 -0.0368
  502TMC3    O1 7470   0.506   1.421  14.796  0.0217 -0.3911  0.1771
  502TMC3    O2 7471   0.544   1.885  14.466 -0.6421  0.4012 -0.2673
  503MPD2     C 7472   2.840   2.514  16.594  0.0807 -0.5957  1.0667
  503MPD2    C1 7473   2.845   2.548  16.727  0.3644  0.2474  0.0006
  503MPD2    C2 7474   2.905   2.456  16.815 -0.1320 -0.1539  0.3115
  503MPD2    C3 7475   2.951   2.334  16.770  0.2672  0.2480 -0.1560
  503MPD2    C4 7476   2.949   2.311  16.636 -1.0843  0.3016 -1.0931
  503MPD2    C5 7477   2.898   2.402  16.543 -0.1688 -0.3024 -0.1724
  503MPD2     H 7478   2.903   2.482  16.920 -3.8015 -0.5282  0.3603
  503MPD2    H1 7479   2.988   2.216  16.601 -0.3955  0.6121 -1.1575
  503MPD2    H2 7480   2.796   2.587  16.527 -1.6445 -0.9328  1.8405
  503MPD2    H3 7481   2.900   2.375  16.439 -0.5585  0.3369 -0.3472
  503MPD2     N 7482   3.000   2.239  16.862 -0.1560 -0.2891 -0.0933
  503MPD2    H5 7483   3.000   2.271  16.959  0.3095  1.4803 -0.6675
  503MPD2    N1 7484   2.807   2.671  16.770  0.5369  0.2194 -0.1974
  503MPD2    H7 7485   2.826   2.694  16.867 -1.8885 -1.7829  0.7437
  504TMC3    C1 7486   3.100   2.038  16.945 -0.3201 -0.5096 -0.2396
  504TMC3    C2 7487   3.175   2.103  17.038  0.4412 -0.4095  0.3426
  504TMC3    C3 7488   3.276   2.030  17.107 -0.0944 -0.8125  0.2603
  504TMC3    C4 7489   3.124   1.910  16.911  0.5021  0.2254 -0.2828
  504TMC3    C5 7490   3.242   1.863  16.948 -0.3004 -0.0436  0.5762
  504TMC3    C6 7491   3.315   1.908  17.056  0.7956  0.1591 -0.6172
  504TMC3     C 7492   3.027   2.108  16.845 -0.9100 -0.0571 -0.1159
  504TMC3     O 7493   3.017   2.039  16.747 -0.1532  0.5812  0.2827
  504TMC3     H 7494   3.151   2.203  17.073 -1.1750  0.0320 -2.0964
  504TMC3    H1 7495   3.050   1.845  16.865  1.9751 -2.0302  0.5583
  504TMC3    H2 7496   3.396   1.851  17.101 -0.0461  0.0152  0.7109
  504TMC3    C7 7497   3.322   1.855  16.828  0.0966 -0.2081 -0.0238
  504TMC3    C8 7498   3.339   2.072  17.221 -0.5111 -0.4943 -0.5167
  504TMC3    O1 7499   3.439   1.825  16.841 -0.0256 -0.2695  0.3646
  504TMC3    O2 7500   3.323   2.194  17.235 -0.4844  0.4261  0.2915
  505MPD2     C 7501   3.201   1.449  10.386 -0.1613  0.8777  0.8141
  505MPD2    C1 7502   3.201   1.320  10.343  0.1078 -0.3334  0.2793
  505MPD2    C2 7503   3.235   1.221  10.434 -0.2067  0.5187 -0.0828
  505MPD2    C3 7504   3.267   1.255  10.561 -1.2192  0.3706  0.6360
  505MPD2    C4 7505   3.247   1.380  10.608 -0.2235 -0.2667 -0.3029
  505MPD2    C5 7506   3.211   1.480  10.521  0.7945  0.0931  0.1689
  505MPD2     H 7507   3.264   1.120  10.409  0.5946  1.4218 -2.8136
  505MPD2    H1 7508   3.267   1.405  10.711 -1.6064  2.5358 -0.7055
  505MPD2    H2 7509   3.196   1.530  10.313  0.5260 -1.2704 -1.6287
  505MPD2    H3 7510   3.219   1.581  10.561  0.2158 -0.0304  0.5970
  505MPD2     N 7511   3.331   1.163  10.650 -0.2343 -0.0713  0.4993
  505MPD2    H5 7512   3.370   1.200  10.736 -1.9416 -1.7065  1.9685
  505MPD2    N1 7513   3.184   1.295  10.199  0.6203  0.0965 -0.3212
  505MPD2    H7 7514   3.172   1.373  10.136 -0.9964 -1.0642 -1.4694
  506TMC3    C1 7515   3.143   1.163  10.004 -0.5174 -0.5973  0.9221
  506TMC3    C2 7516   3.225   1.230   9.922 -0.1001  0.0066 -0.1362
  506TMC3    C3 7517   3.269   1.166   9.812  0.4739 -0.1774 -0.0694
  506TMC3    C4 7518   3.105   1.033   9.978 -0.2290 -0.5222  0.2316
  506TMC3    C5 7519   3.173   0.965   9.882 -0.0664  0.0766 -0.1714
  506TMC3    C6 7520   3.252   1.034   9.798  0.0851 -0.0627  0.1529
  506TMC3     C 7521   3.169   1.167  10.147  0.0962 -0.2958 -0.8040
  506TMC3     O 7522   3.177   1.059  10.202  0.1505  0.0584 -0.2747
  506TMC3     H 7523   3.247   1.334   9.941 -1.3809 -0.0382  1.5816
  506TMC3    H1 7524   3.034   0.990  10.048 -0.8475  0.6394  0.3136
  506TMC3    H2 7525   3.311   0.989   9.719  1.4170  1.9084  0.0459
  506TMC3    C7 7526   3.242   0.843   9.914 -0.6164  0.4746  0.3825
  506TMC3    C8 7527   3.375   1.224   9.737  0.7356  0.6564  0.4099
  506TMC3    O1 7528   3.292   0.786   9.819 -0.0771  0.3536 -0.0421
  506TMC3    O2 7529   3.359   1.237   9.618 -0.1114 -0.1376 -0.8579
  507TMC3    C1 7530   4.053   2.150  14.585  0.5708 -0.1190  0.0806
  507TMC3    C2 7531   3.950   2.064  14.599  0.5669 -0.3254 -0.2461
  507TMC3    C3 7532   3.934   1.977  14.494  0.0729  0.7571 -0.1831
  507TMC3    C4 7533   4.132   2.165  14.469 -0.4644  0.3129  0.2368
  507TMC3    C5 7534   4.102   2.081  14.363  0.0199 -0.2527 -0.0822
  507TMC3    C6 7535   4.012   1.978  14.380 -0.1142  0.0316  0.5118
  507TMC3     C 7536   4.104   2.211  14.707  0.0508 -0.0003 -0.1921
  507TMC3     O 7537   4.195   2.294  14.698  0.0524 -0.4749  0.4054
  507TMC3     H 7538   3.871   2.078  14.671  1.6393 -1.9046  1.2496
  507TMC3    H1 7539   4.207   2.243  14.467 -0.3919  0.2744  1.2829
  507TMC3    H2 7540   4.001   1.897  14.309  2.6679  0.5792 -0.5558
  507TMC3    C7 7541   4.073   2.152  14.244  0.5574 -0.2893  0.4013
  507TMC3    C8 7542   3.796   1.949  14.475  0.2208 -0.1123  0.0023
  507TMC3    O1 7543   3.974   2.098  14.193  0.0293  0.0855  0.0015
  507TMC3    O2 7544   3.721   1.949  14.570 -0.5823 -0.1385  0.2801
  508MPD2     C 7545   4.724   4.505  16.008 -0.0779  0.2985 -0.1514
  508MPD2    C1 7546   0.106   4.593  16.012  0.1484  0.3062  0.0724
  508MPD2    C2 7547   0.135   4.663  15.898 -0.2344 -0.8695  0.0623
  508MPD2    C3 7548   0.049   4.675  15.795  0.3147  1.2252 -0.1528
  508MPD2    C4 7549   4.662   4.597  15.797  0.0386 -0.1570  0.4670
  508MPD2    C5 7550   4.646   4.505  15.899 -0.1095 -0.2934  0.1443
  508MPD2     H 7551   0.213   0.014  15.902  0.1036 -1.1907 -0.6012
  508MPD2    H1 7552   4.588   4.601  15.718  0.1204 -2.4624  0.2836
  508MPD2    H2 7553   4.714   4.438  16.092  3.7845 -0.1618 -0.0866
  508MPD2    H3 7554   4.563   4.436  15.902 -0.9985  0.7151 -1.5331
  508MPD2     N 7555   0.088   0.029  15.686 -0.2026  0.6541 -0.4039
  508MPD2    H5 7556   0.173   0.083  15.700  0.7771 -0.6519 -1.3917
  508MPD2    N1 7557   0.172   4.603  16.133  0.3342 -0.0618 -0.0841
  508MPD2    H7 7558   0.136   4.551  16.212 -1.1330  0.4665 -0.4003
  509TMC3    C1 7559   4.719   0.359  15.398 -0.2643  0.3983 -0.2901
  509TMC3    C2 7560   0.108   0.357  15.320 -0.1863  0.4637 -0.8050
  509TMC3    C3 7561   0.200   0.270  15.361  1.2155 -0.2300 -0.0375
  509TMC3    C4 7562   4.693   0.278  15.500 -0.2977  0.5526 -0.0756
  509TMC3    C5 7563   0.060   0.184  15.516 -0.0759  0.0746 -0.7167
  509TMC3    C6 7564   0.181   0.181  15.461 -0.5864  0.2351  0.5831
  509TMC3     C 7565   4.610   0.461  15.378 -0.0310  0.1930  0.2498
  509TMC3     O 7566   4.510   0.453  15.444  0.2338  0.1083  0.4403
  509TMC3     H 7567   0.114   0.409  15.225  1.5007  1.0641 -0.3705
  509TMC3    H1 7568   4.594   0.270  15.543 -0.3566  0.0912 -0.2876
  509TMC3    H2 7569   0.265   0.123  15.497 -1.1635 -1.4435 -0.7974
  509TMC3    C7 7570   0.012   0.066  15.583  0.3820 -0.8637 -0.2740
  509TMC3    C8 7571   0.330   0.276  15.296 -0.2824 -0.8411 -0.6486
  509TMC3    O1 7572   4.619   0.028  15.562 -0.3421  0.3442 -0.0722
  509TMC3    O2 7573   0.377   0.167  15.272 -0.3178  0.0567 -0.0628
  510MPD2     C 7574   2.693   1.469  14.031  0.1429 -0.6891 -0.3133
  510MPD2    C1 7575   2.780   1.440  14.131 -0.4543  0.2575  0.2100
  510MPD2    C2 7576   2.915   1.422  14.102  0.1148  0.8089 -0.1433
  510MPD2    C3 7577   2.957   1.433  13.967 -0.2146  0.5481  0.1047
  510MPD2    C4 7578   2.870   1.454  13.866 -0.2012  0.0062  0.2045
  510MPD2    C5 7579   2.737   1.466  13.901  0.2331 -0.3166  0.1316
  510MPD2     H 7580   2.987   1.387  14.175  1.8499 -0.8730 -2.6337
  510MPD2    H1 7581   2.895   1.450  13.761  0.4192 -1.5505  0.4136
  510MPD2    H2 7582   2.586   1.473  14.047  0.1521 -0.2760 -0.3675
  510MPD2    H3 7583   2.671   1.483  13.816 -1.6301 -0.1687  1.6116
  510MPD2     N 7584   3.098   1.415  13.951 -0.3636 -0.3708 -0.2099
  510MPD2    H5 7585   3.145   1.397  14.039 -1.3962  0.7650  0.5734
  510MPD2    N1 7586   2.723   1.434  14.261 -0.4981 -0.0362  0.1425
  510MPD2    H7 7587   2.625   1.411  14.278 -0.4479 -0.4521 -0.1229
  511TMC3    C1 7588   2.759   1.354  14.476  0.1152 -0.3303 -0.2721
  511TMC3    C2 7589   2.758   1.400  14.607  0.7843  0.1833  0.4069
  511TMC3    C3 7590   2.725   1.314  14.710  0.3448  0.1350 -0.1873
  511TMC3    C4 7591   2.731   1.231  14.441 -0.0773 -0.1066  0.0286
  511TMC3    C5 7592   2.692   1.148  14.542  0.1708  0.3171 -0.7494
  511TMC3    C6 7593   2.696   1.187  14.677  0.0007  0.5448  0.1579
  511TMC3     C 7594   2.804   1.440  14.367 -0.3190 -0.4698  0.0134
  511TMC3     O 7595   2.898   1.514  14.391  0.1023  0.1387  0.2317
  511TMC3     H 7596   2.793   1.500  14.630 -2.1668  0.9818  1.4066
  511TMC3    H1 7597   2.748   1.191  14.342  0.4852 -1.1807  0.5657
  511TMC3    H2 7598   2.682   1.113  14.754  1.8118 -1.4192 -1.4141
  511TMC3    C7 7599   2.652   1.011  14.512 -0.1136 -0.1441  0.6817
  511TMC3    C8 7600   2.653   1.369  14.819 -0.2765  0.4538 -0.2803
  511TMC3    O1 7601   2.619   0.995  14.394  0.0139 -0.1241  0.5690
  511TMC3    O2 7602   2.630   1.489  14.814  0.1184  0.4937 -0.5793
  512TMC3    C1 7603   1.557   0.891  13.106 -0.3856  0.1889 -0.2808
  512TMC3    C2 7604   1.603   0.804  13.205  0.8462 -0.2190  0.3001
  512TMC3    C3 7605   1.602   0.672  13.165  0.6350  0.6878 -0.1292
  512TMC3    C4 7606   1.496   0.858  12.987  0.3498  0.1808 -0.2204
  512TMC3    C5 7607   1.505   0.726  12.950  0.2202  0.0898  0.0432
  512TMC3    C6 7608   1.560   0.632  13.039 -0.3813  0.1134  0.2348
  512TMC3     C 7609   1.553   1.029  13.151 -0.3546 -0.6534 -0.4916
  512TMC3     O 7610   1.549   1.044  13.271  0.0918 -0.7002  0.0962
  512TMC3     H 7611   1.625   0.846  13.303 -0.9157  0.3078  0.4679
  512TMC3    H1 7612   1.450   0.925  12.916 -0.8443 -2.4819 -1.9316
  512TMC3    H2 7613   1.584   0.530  13.010 -0.1679 -0.0986  1.1471
  512TMC3    C7 7614   1.420   0.688  12.840  0.1455 -0.2872  0.8431
  512TMC3    C8 7615   1.672   0.566  13.242  0.2138  0.0860 -0.8841
  512TMC3    O1 7616   1.342   0.776  12.796  0.0329  0.1845  0.7944
  512TMC3    O2 7617   1.705   0.462  13.189 -0.0173  0.3753  0.4253
  513MPD2     C 7618   3.355   0.305  13.025 -0.2910  0.3576 -0.1924
  513MPD2    C1 7619   3.436   0.265  12.920 -0.2003  0.1167 -0.1580
  513MPD2    C2 7620   3.552   0.348  12.890 -0.2682  0.0474 -1.2026
  513MPD2    C3 7621   3.566   0.471  12.950 -0.0348  0.1779 -0.7411
  513MPD2    C4 7622   3.476   0.517  13.046 -0.0560 -0.0270  0.2250
  513MPD2    C5 7623   3.373   0.430  13.084  0.5730  0.2945  0.1717
  513MPD2     H 7624   3.625   0.310  12.819  2.6042 -0.9919  2.3131
  513MPD2    H1 7625   3.489   0.601  13.113 -0.8200  1.4112 -1.4510
  513MPD2    H2 7626   3.275   0.242  13.060 -1.6164  2.2323  0.1719
  513MPD2    H3 7627   3.312   0.465  13.166  1.8947 -1.0443  1.7250
  513MPD2     N 7628   3.668   0.550  12.904 -0.3803  0.5640  0.0251
  513MPD2    H5 7629   3.730   0.497  12.843 -0.6450 -3.0182  2.8707
  513MPD2    N1 7630   3.408   0.141  12.854 -0.3465  0.5343  0.1236
  513MPD2    H7 7631   3.345   0.079  12.903 -1.0218  0.3696 -0.9520
  514TMC3    C1 7632   3.545   0.143  12.646  0.2023  0.2081 -0.4303
  514TMC3    C2 7633   3.503   0.263  12.605  0.3545  0.8490  0.6244
  514TMC3    C3 7634   3.552   0.309  12.488 -0.4697 -0.0553 -0.2535
  514TMC3    C4 7635   3.628   0.061  12.568 -0.6683  0.2477  0.3266
  514TMC3    C5 7636   3.675   0.112  12.450  0.1348  0.4169  0.3635
  514TMC3    C6 7637   3.638   0.232  12.404  0.5520 -0.1046 -0.1392
  514TMC3     C 7638   3.474   0.073  12.752  0.5858  0.1160 -0.3909
  514TMC3     O 7639   3.456   4.675  12.737  0.3742 -0.3149  0.4353
  514TMC3     H 7640   3.445   0.328  12.670  0.5167  0.8585  0.7589
  514TMC3    H1 7641   3.652   4.688  12.608 -2.2493  0.2608  1.3188
  514TMC3    H2 7642   3.691   0.274  12.319 -1.0605  1.1471 -0.5456
  514TMC3    C7 7643   3.757   0.030  12.358  0.1448 -0.7079  0.0626
  514TMC3    C8 7644   3.567   0.451  12.484 -0.3180  0.1705  0.0356
  514TMC3    O1 7645   3.722   0.027  12.241  0.2600  0.3104  0.1615
  514TMC3    O2 7646   3.574   0.516  12.588 -0.0697 -0.6415 -0.5359
  515MPD2     C 7647   1.477   2.847  14.298  0.2111  0.9042  0.2938
  515MPD2    C1 7648   1.581   2.754  14.305 -0.2683  0.6269 -0.0658
  515MPD2    C2 7649   1.660   2.757  14.419  0.1785 -0.1502  0.4416
  515MPD2    C3 7650   1.638   2.847  14.525 -0.5916 -0.1759  0.1308
  515MPD2    C4 7651   1.540   2.942  14.505  0.1007  0.0453  0.3408
  515MPD2    C5 7652   1.461   2.945  14.395 -0.0009 -0.1469 -0.6045
  515MPD2     H 7653   1.739   2.683  14.430  0.0933 -0.6712 -2.3263
  515MPD2    H1 7654   1.536   3.018  14.581  1.8237  1.1201 -0.6561
  515MPD2    H2 7655   1.401   2.846  14.221  0.6029 -0.6456 -0.0603
  515MPD2    H3 7656   1.389   3.026  14.386 -1.2031 -1.5344 -3.3434
  515MPD2     N 7657   1.714   2.840  14.647 -0.1588  0.0857 -0.1371
  515MPD2    H5 7658   1.710   2.917  14.713  2.9028  0.7401 -0.6942
  515MPD2    N1 7659   1.598   2.649  14.209 -0.3146 -0.1131 -0.0836
  515MPD2    H7 7660   1.666   2.577  14.234 -2.0867 -1.1694  1.7153
  516TMC3    C1 7661   1.563   2.511  14.024  0.0359 -0.5109  0.2583
  516TMC3    C2 7662   1.516   2.509  13.899 -0.3250  0.0795 -0.1631
  516TMC3    C3 7663   1.478   2.383  13.860 -0.6090 -0.3410 -0.2708
  516TMC3    C4 7664   1.591   2.408  14.108  0.3136  0.4817 -0.0056
  516TMC3    C5 7665   1.543   2.289  14.062 -0.1551  0.3757  0.0008
  516TMC3    C6 7666   1.486   2.274  13.939 -0.4408  0.1305  0.0475
  516TMC3     C 7667   1.531   2.637  14.094  0.1533  0.6708 -0.7633
  516TMC3     O 7668   1.447   2.714  14.041  0.0379  0.1007 -0.6351
  516TMC3     H 7669   1.490   2.599  13.844  1.0407  0.8074  0.3835
  516TMC3    H1 7670   1.626   2.415  14.210 -2.2499  0.9527  0.8442
  516TMC3    H2 7671   1.447   2.179  13.905 -2.2589  1.3823 -1.3929
  516TMC3    C7 7672   1.514   2.190  14.158 -0.0309 -0.2620  0.3379
  516TMC3    C8 7673   1.392   2.372  13.744 -0.0505 -0.1599  0.1092
  516TMC3    O1 7674   1.496   2.225  14.276 -0.8911  0.5501 -0.5899
  516TMC3    O2 7675   1.314   2.278  13.731 -0.3600 -0.3445 -0.1712
  517MPD2     C 7676   0.917   4.152  17.382  0.6538 -0.5253  0.3141
  517MPD2    C1 7677   1.046   4.196  17.409  0.6803 -0.2523 -0.6711
  517MPD2    C2 7678   1.070   4.327  17.441 -0.2960  0.2669 -0.0712
  517MPD2    C3 7679   0.959   4.401  17.456 -0.0548  0.1406 -0.9531
  517MPD2    C4 7680   0.831   4.368  17.418  0.5174 -0.0562 -0.5300
  517MPD2    C5 7681   0.810   4.236  17.385 -0.7787 -0.0865  0.8709
  517MPD2     H 7682   1.171   4.357  17.465  0.6337 -1.9623 -1.1886
  517MPD2    H1 7683   0.742   4.429  17.414  0.4737 -0.0331  1.0743
  517MPD2    H2 7684   0.905   4.049  17.350 -2.5283 -0.2132  0.4983
  517MPD2    H3 7685   0.712   4.215  17.344  0.2431 -1.3717 -0.9168
  517MPD2     N 7686   0.967   4.525  17.511  0.2089 -0.1823  0.1068
  517MPD2    H5 7687   0.886   4.587  17.516  0.1923 -0.2600  0.7782
  517MPD2    N1 7688   1.150   4.101  17.413 -0.1325 -0.4586  0.6147
  517MPD2    H7 7689   1.245   4.136  17.403 -0.2635 -1.0243 -2.7228
  518TMC3    C1 7690   1.262   3.906  17.472 -0.1856  0.9537  0.0423
  518TMC3    C2 7691   1.257   3.826  17.583  0.2535 -0.3438  0.5608
  518TMC3    C3 7692   1.353   3.733  17.600 -0.0440 -0.5196  0.3657
  518TMC3    C4 7693   1.370   3.908  17.387  0.2386 -0.3087  0.3120
  518TMC3    C5 7694   1.467   3.818  17.415 -0.4148  0.4367  0.3905
  518TMC3    C6 7695   1.468   3.735  17.524 -0.1467 -0.3625  0.0200
  518TMC3     C 7696   1.136   3.972  17.440  0.2635 -0.0782 -0.1694
  518TMC3     O 7697   1.040   3.915  17.488 -0.3778 -0.0496  0.4361
  518TMC3     H 7698   1.164   3.805  17.635  0.1516  1.2223  1.0307
  518TMC3    H1 7699   1.375   3.964  17.294 -0.0764 -0.4951  0.1804
  518TMC3    H2 7700   1.560   3.686  17.551  0.0462  0.1433  0.2861
  518TMC3    C7 7701   1.587   3.825  17.338  0.7587 -0.0282  0.8190
  518TMC3    C8 7702   1.343   3.631  17.699  0.2057  0.1299  0.2484
  518TMC3    O1 7703   1.638   3.934  17.304 -0.3803  0.3775  0.0230
  518TMC3    O2 7704   1.287   3.657   0.102 -0.5163 -0.3332  0.1375
  519MPD2     C 7705   2.811   2.359  14.504  0.9281  0.4231  0.7647
  519MPD2    C1 7706   2.712   2.332  14.410 -0.7018  0.3609 -0.1483
  519MPD2    C2 7707   2.719   2.221  14.329  0.3956  0.1570  0.3100
  519MPD2    C3 7708   2.842   2.152  14.331  0.0296  0.0681 -0.4052
  519MPD2    C4 7709   2.942   2.179  14.429 -0.0487  0.3576  0.4734
  519MPD2    C5 7710   2.917   2.271  14.524  0.5605  0.8337 -0.2372
  519MPD2     H 7711   2.644   2.195  14.256  0.4914 -0.1258  0.3138
  519MPD2    H1 7712   3.038   2.133  14.450 -0.6722 -1.4060 -0.5287
  519MPD2    H2 7713   2.805   2.429  14.587  2.8738  1.0482  0.3842
  519MPD2    H3 7714   2.993   2.296  14.596 -0.5372  1.1417  0.8047
  519MPD2     N 7715   2.869   2.053  14.238 -0.1993  0.4097  0.6214
  519MPD2    H5 7716   2.968   2.032  14.234 -0.0718  1.4763 -1.6656
  519MPD2    N1 7717   2.603   2.426  14.400  0.1107 -0.0264  0.4245
  519MPD2    H7 7718   2.624   2.514  14.447 -0.1446 -0.3934  1.2221
  520TMC3    C1 7719   2.831   1.912  14.057  0.1148 -0.8511  0.5628
  520TMC3    C2 7720   2.756   1.903  13.945  0.5896  0.6055  0.0083
  520TMC3    C3 7721   2.813   1.851  13.835  0.0308  0.5206 -0.7571
  520TMC3    C4 7722   2.953   1.852  14.071 -0.1749 -0.2050  0.3874
  520TMC3    C5 7723   3.007   1.797  13.956 -0.2987  0.2113  0.8644
  520TMC3    C6 7724   2.937   1.795  13.834  0.6109  0.1576  0.0379
  520TMC3     C 7725   2.771   1.988  14.162 -0.3689 -0.0966 -0.3711
  520TMC3     O 7726   2.650   1.978  14.184 -1.0167  0.3151 -0.4708
  520TMC3     H 7727   2.657   1.947  13.952 -0.0106 -0.8579  0.7736
  520TMC3    H1 7728   2.998   1.848  14.169 -1.2592 -1.0154  0.8530
  520TMC3    H2 7729   2.974   1.745  13.746 -0.0541 -0.5633  0.1737
  520TMC3    C7 7730   3.145   1.784  13.964  0.6121 -0.6797 -0.2752
  520TMC3    C8 7731   2.743   1.860  13.709  0.4771  0.4518 -0.2235
  520TMC3    O1 7732   3.189   1.782  14.079  0.5459  0.1200 -0.0980
  520TMC3    O2 7733   2.803   1.832  13.606  0.1473 -0.4349 -0.1957
  521MPD2     C 7734   3.446   0.570  17.201 -0.6913  0.2274  0.1434
  521MPD2    C1 7735   3.432   0.448  17.147  0.5495  0.5586  0.1454
  521MPD2    C2 7736   3.552   0.395  17.091 -0.5839 -0.5210  0.0747
  521MPD2    C3 7737   3.671   0.470  17.081 -0.7157  0.1247  0.0351
  521MPD2    C4 7738   3.682   0.592  17.138  0.1372  0.2312 -0.2908
  521MPD2    C5 7739   3.565   0.638  17.196  0.0133  0.8923  0.2462
  521MPD2     H 7740   3.548   0.291  17.060 -0.6258 -0.5458  0.1616
  521MPD2    H1 7741   3.771   0.654  17.130  0.8860 -0.6059  1.4864
  521MPD2    H2 7742   3.359   0.622  17.239 -0.9935  0.4025 -0.7754
  521MPD2    H3 7743   3.561   0.737  17.240 -0.3891  0.1857  1.7805
  521MPD2     N 7744   3.782   0.412  17.010  0.1960 -0.5314  0.1175
  521MPD2    H5 7745   3.766   0.327  16.956  1.3008  0.7841 -2.2745
  521MPD2    N1 7746   3.311   0.379  17.151  0.0298  0.1459  0.1627
  521MPD2    H7 7747   3.235   0.410  17.210 -0.5068  2.3062 -1.6640
  522TMC3    C1 7748   4.004   0.398  16.921  0.0304  0.8695 -0.1760
  522TMC3    C2 7749   4.132   0.415  16.940  0.1004 -0.0938 -0.3862
  522TMC3    C3 7750   4.216   0.371  16.841 -0.5102  0.4907 -0.0381
  522TMC3    C4 7751   3.946   0.352  16.804 -0.6080  0.0719  0.3877
  522TMC3    C5 7752   4.033   0.296  16.716 -0.4841  0.1400 -0.3305
  522TMC3    C6 7753   4.169   0.309  16.731  0.8628  0.2648  0.1237
  522TMC3     C 7754   3.909   0.470  17.007  0.7738  0.5648 -0.4445
  522TMC3     O 7755   3.958   0.545  17.093  0.2938 -0.0650 -0.2255
  522TMC3     H 7756   4.170   0.450  17.036 -1.3581 -0.3517  0.2723
  522TMC3    H1 7757   3.841   0.358  16.779 -0.5046  0.3322  0.0137
  522TMC3    H2 7758   4.241   0.266  16.663 -0.9647 -0.0631 -1.5898
  522TMC3    C7 7759   3.995   0.197  16.617 -0.8701  0.6825  0.8520
  522TMC3    C8 7760   4.354   0.432  16.850  0.9384 -0.8779 -0.2418
  522TMC3    O1 7761   4.073   0.123  16.563  0.4830 -0.2027 -0.3902
  522TMC3    O2 7762   4.380   0.512  16.940 -0.0129  0.3935 -0.1284
  523MPD2     C 7763   1.685   0.027   9.380 -0.7467 -0.1622  0.8347
  523MPD2    C1 7764   1.737   0.050   9.506  0.4675 -0.0465 -0.4637
  523MPD2    C2 7765   1.767   0.181   9.537  0.1033 -1.0306  0.2025
  523MPD2    C3 7766   1.749   0.288   9.448 -0.4776 -0.7906  0.2618
  523MPD2    C4 7767   1.704   0.258   9.317 -0.4162  0.4002 -0.1035
  523MPD2    C5 7768   1.669   0.129   9.293 -0.4769 -0.8753  0.0525
  523MPD2     H 7769   1.795   0.205   9.639  1.6284 -1.8420 -0.0147
  523MPD2    H1 7770   1.701   0.334   9.239 -0.0719 -0.4400 -0.9267
  523MPD2    H2 7771   1.649   4.656   9.344  1.6663  0.2855 -2.8028
  523MPD2    H3 7772   1.630   0.110   9.194 -3.7907  1.6496  0.8601
  523MPD2     N 7773   1.762   0.425   9.476  0.5054  0.4879 -0.1938
  523MPD2    H5 7774   1.716   0.495   9.418 -1.5628 -0.8020 -0.0934
  523MPD2    N1 7775   1.742   4.673   9.606 -0.0122  0.2150 -0.0365
  523MPD2    H7 7776   1.699   4.586   9.576  0.6983 -0.4810  0.9375
  524TMC3    C1 7777   1.843   0.610   9.599  0.1788 -0.4592  0.1899
  524TMC3    C2 7778   1.955   0.666   9.648  0.0494 -0.3207 -0.0255
  524TMC3    C3 7779   1.966   0.805   9.649 -0.2221  0.3388 -0.4337
  524TMC3    C4 7780   1.736   0.681   9.550  0.2841 -0.4246 -0.3257
  524TMC3    C5 7781   1.754   0.818   9.548  0.2226  0.3760  0.4636
  524TMC3    C6 7782   1.864   0.882   9.599 -0.4634 -0.5795  0.2183
  524TMC3     C 7783   1.838   0.468   9.585  0.5770  0.3700  0.7500
  524TMC3     O 7784   1.928   0.404   9.634 -0.3000 -0.4809 -0.6016
  524TMC3     H 7785   2.041   0.605   9.672  0.4750  0.3296  0.0824
  524TMC3    H1 7786   1.651   0.631   9.503  1.5802 -1.9334 -1.0568
  524TMC3    H2 7787   1.874   0.990   9.605  0.1666 -0.6433  0.3011
  524TMC3    C7 7788   1.636   0.895   9.522  0.2355 -0.0109  0.1967
  524TMC3    C8 7789   2.080   0.867   9.702  0.1816 -0.1247  0.6132
  524TMC3    O1 7790   1.532   0.830   9.497  0.6479 -0.7985 -0.3821
  524TMC3    O2 7791   2.107   0.969   9.640  0.1586 -0.3637 -0.3207
  525MPD2     C 7792   4.197   1.809  14.110  0.3030 -0.6311 -0.5001
  525MPD2    C1 7793   4.328   1.837  14.151  0.1476 -1.1082 -0.7709
  525MPD2    C2 7794   4.386   1.952  14.106 -0.2940  0.2690 -0.1318
  525MPD2    C3 7795   4.321   2.047  14.029 -0.2600  0.4339  0.0014
  525MPD2    C4 7796   4.195   2.012  13.984  0.0833 -0.3043 -0.0352
  525MPD2    C5 7797   4.143   1.901  14.030  0.0936  0.6247 -0.6719
  525MPD2     H 7798   4.484   1.984  14.139 -0.5170  1.9441 -1.0694
  525MPD2    H1 7799   4.140   2.072  13.912 -1.9305 -0.0520  1.6869
  525MPD2    H2 7800   4.137   1.721  14.128  0.8087 -0.4996  1.7840
  525MPD2    H3 7801   4.043   1.877  13.995  0.1980 -0.2951 -0.3435
  525MPD2     N 7802   4.380   2.168  13.987  0.1286 -0.0985  0.2374
  525MPD2    H5 7803   4.316   2.222  13.930  0.8446  1.1175  0.5911
  525MPD2    N1 7804   4.401   1.752  14.243  0.2682 -0.3065  0.2345
  525MPD2    H7 7805   4.502   1.752  14.237  0.0523  0.7564 -3.0252
  526TMC3    C1 7806   4.423   1.581  14.411  0.1636  0.2803 -0.5331
  526TMC3    C2 7807   4.395   1.555  14.544 -0.5429  0.2722 -0.4438
  526TMC3    C3 7808   4.476   1.491  14.624 -0.1892  0.0975  0.0159
  526TMC3    C4 7809   4.546   1.561  14.370 -0.3448 -0.4558  0.3102
  526TMC3    C5 7810   4.642   1.513  14.456 -0.9377  0.6326 -0.8361
  526TMC3    C6 7811   4.604   1.466  14.578  0.0325 -0.8895  0.2728
  526TMC3     C 7812   4.332   1.663  14.329  0.4527 -0.8723 -0.0325
  526TMC3     O 7813   4.213   1.649  14.349  0.2000  0.1682 -0.1502
  526TMC3     H 7814   4.296   1.573  14.584  0.1652  1.0232  0.9848
  526TMC3    H1 7815   4.583   1.601  14.276  2.0285 -0.0355  1.4035
  526TMC3    H2 7816   4.676   1.417  14.644 -1.5400 -0.3445  2.3981
  526TMC3    C7 7817   0.049   1.469  14.401 -0.0971 -0.2467  0.3331
  526TMC3    C8 7818   4.447   1.515  14.765  0.4592 -0.9957  0.0303
  526TMC3    O1 7819   0.108   1.383  14.464 -0.2951  0.3046 -0.6303
  526TMC3    O2 7820   4.524   1.592  14.822  0.0793 -0.0299 -0.2061
  527MPD2     C 7821   2.761   4.100   1.202  0.8414  0.2412 -0.1134
  527MPD2    C1 7822   2.899   4.073   1.204  0.2398 -0.3299  0.2108
  527MPD2    C2 7823   2.985   4.093   1.102  0.4020 -0.0228 -0.3495
  527MPD2    C3 7824   2.931   4.141   0.982 -0.1528 -0.5314  0.7606
  527MPD2    C4 7825   2.794   4.156   0.974 -0.6216  0.4442 -0.4939
  527MPD2    C5 7826   2.712   4.142   1.080 -0.0184  0.4268  0.2757
  527MPD2     H 7827   3.089   4.066   1.113  0.0572  0.1240  3.0613
  527MPD2    H1 7828   2.751   4.199   0.884  1.2582 -0.2205 -1.7063
  527MPD2    H2 7829   2.695   4.088   1.287  1.6123 -1.1597  0.2916
  527MPD2    H3 7830   2.610   4.178   1.069 -0.3822 -0.3165  1.1703
  527MPD2     N 7831   3.021   4.168   0.883 -0.2089 -0.3448  0.3076
  527MPD2    H5 7832   3.115   4.132   0.894 -0.0672 -0.0746  0.0053
  527MPD2    N1 7833   2.956   4.033   1.322  0.0000  0.6836  0.2603
  527MPD2    H7 7834   3.057   4.035   1.331 -0.2464  0.8933  3.0608
  528TMC3    C1 7835   2.963   3.956   1.551  0.3017  0.2620 -0.2737
  528TMC3    C2 7836   3.056   4.048   1.596 -0.5494  0.2357  0.1351
  528TMC3    C3 7837   3.117   4.021   1.713 -0.0124  0.1159  0.6558
  528TMC3    C4 7838   2.934   3.842   1.618  1.1054  1.0344 -0.3234
  528TMC3    C5 7839   2.998   3.817   1.735 -0.9016  0.2290  0.3506
  528TMC3    C6 7840   3.089   3.908   1.792 -0.0263 -0.0923 -0.4736
  528TMC3     C 7841   2.888   3.971   1.428 -0.2689  0.4764 -0.7108
  528TMC3     O 7842   2.776   3.918   1.433 -0.7470  0.5068  0.5836
  528TMC3     H 7843   3.070   4.146   1.552  1.2017 -0.7871 -1.5501
  528TMC3    H1 7844   2.865   3.772   1.572  3.9342 -2.2991  0.5578
  528TMC3    H2 7845   3.159   3.879   1.869 -2.0061 -0.8332  1.0317
  528TMC3    C7 7846   2.941   3.703   1.811  0.5072  0.0445 -0.7697
  528TMC3    C8 7847   3.170   4.144   1.777 -0.2581 -0.0937  0.0525
  528TMC3    O1 7848   2.875   3.628   1.745  0.4026  0.0933  0.4514
  528TMC3    O2 7849   3.194   4.248   1.717 -0.0711  0.5527 -0.0244
  529MPD2     C 7850   0.495   3.468   0.712  0.4481  0.8065 -0.2688
  529MPD2    C1 7851   0.463   3.364   0.626  0.0583 -0.1861 -0.4228
  529MPD2    C2 7852   0.357   3.380   0.538 -0.2486  0.3705 -0.0398
  529MPD2    C3 7853   0.286   3.496   0.537 -0.7013 -0.1751 -0.0560
  529MPD2    C4 7854   0.326   3.605   0.619  0.5068  0.2462 -0.1047
  529MPD2    C5 7855   0.432   3.588   0.706  0.2123  0.0465  0.7889
  529MPD2     H 7856   0.323   3.301   0.473 -1.7639  0.7004  0.3559
  529MPD2    H1 7857   0.273   3.699   0.620 -0.5399 -0.3403 -1.3787
  529MPD2    H2 7858   0.578   3.452   0.780 -0.1563  2.5990  0.8875
  529MPD2    H3 7859   0.470   3.676   0.757  2.2449 -0.2625 -0.2190
  529MPD2     N 7860   0.175   3.519   0.458 -0.2364 -0.0295 -0.4512
  529MPD2    H5 7861   0.150   3.618   0.458  1.1535  0.3326 -3.6858
  529MPD2    N1 7862   0.511   3.233   0.640  0.5716  0.5445  0.3190
  529MPD2    H7 7863   0.453   3.161   0.600  0.7976  0.9207 -0.6796
  530TMC3    C1 7864   0.634   3.053   0.734 -0.2926  0.2607 -0.0064
  530TMC3    C2 7865   0.697   3.021   0.853 -0.0047  0.5247 -0.4512
  530TMC3    C3 7866   0.712   2.891   0.884  0.8242  0.5886 -0.6585
  530TMC3    C4 7867   0.586   2.956   0.652 -0.2579  0.2607  1.4882
  530TMC3    C5 7868   0.582   2.830   0.693  0.3695  0.2470  0.1055
  530TMC3    C6 7869   0.660   2.791   0.800 -0.3235  0.0137 -0.0696
  530TMC3     C 7870   0.623   3.198   0.708  0.3311 -0.3574 -0.0859
  530TMC3     O 7871   0.701   3.274   0.769  0.0948  0.6015 -0.5699
  530TMC3     H 7872   0.731   3.103   0.916  0.7903  0.0748 -0.2953
  530TMC3    H1 7873   0.546   2.981   0.554 -1.1133 -0.3690  1.6786
  530TMC3    H2 7874   0.664   2.688   0.832  0.9573  0.2713  0.6056
  530TMC3    C7 7875   0.562   2.733   0.589  0.3010  0.1341 -0.4746
  530TMC3    C8 7876   0.739   2.869   1.027  0.2710 -0.1565 -0.2589
  530TMC3    O1 7877   0.567   2.769   0.471 -0.0392  0.6654  0.0741
  530TMC3    O2 7878   0.685   2.949   1.105  0.2215  0.0658  0.3122
  531MPD2     C 7879   4.034   0.045  12.782  0.5308 -0.4803  0.0643
  531MPD2    C1 7880   3.996   0.153  12.707 -0.3718  0.6942 -0.4735
  531MPD2    C2 7881   3.934   0.125  12.585  0.6024  0.7919  0.0057
  531MPD2    C3 7882   3.927   4.719  12.539 -0.4326 -0.4411  0.4059
  531MPD2    C4 7883   3.989   4.619  12.607  0.1051  0.1773 -0.0305
  531MPD2    C5 7884   4.045   4.640  12.727  0.4114  0.0554 -0.8511
  531MPD2     H 7885   3.900   0.203  12.517  0.2825  0.3147 -0.3842
  531MPD2    H1 7886   3.973   4.517  12.576  0.1315 -0.4521  2.0355
  531MPD2    H2 7887   4.075   0.058  12.882 -0.5923 -1.5655  0.6724
  531MPD2    H3 7888   4.084   4.562  12.791 -0.8305  1.6004  1.8137
  531MPD2     N 7889   3.863   4.685  12.418 -0.0994 -0.8424  0.6497
  531MPD2    H5 7890   3.907   4.611  12.364 -1.1878 -2.1514  1.5345
  531MPD2    N1 7891   4.007   0.280  12.768  0.9233  0.5281  0.4298
  531MPD2    H7 7892   4.032   0.287  12.866 -1.5993  2.7157  0.9426
  532TMC3    C1 7893   3.960   0.504  12.805  0.5732 -0.3457 -0.1786
  532TMC3    C2 7894   3.872   0.606  12.784 -0.3459 -0.0379  0.0375
  532TMC3    C3 7895   3.847   0.692  12.892  0.0719  0.2017 -0.2904
  532TMC3    C4 7896   4.043   0.507  12.912 -0.0446  0.1109  0.4210
  532TMC3    C5 7897   4.032   0.608  13.006 -0.3682  0.1383  0.1308
  532TMC3    C6 7898   3.938   0.706  12.997  0.1990 -0.1538 -0.3173
  532TMC3     C 7899   3.956   0.394  12.712  0.7175 -1.2457 -0.1963
  532TMC3     O 7900   3.884   0.411  12.613 -0.0115 -0.2945 -0.2459
  532TMC3     H 7901   3.807   0.605  12.698  2.3244 -1.7104 -1.9784
  532TMC3    H1 7902   4.129   0.441  12.917  0.2054  0.4470  0.5820
  532TMC3    H2 7903   3.921   0.771  13.082 -1.2134  0.3723 -0.9944
  532TMC3    C7 7904   4.105   0.594  13.128  1.0513 -0.5522  0.1764
  532TMC3    C8 7905   3.709   0.666  12.946 -0.5657  0.4458 -0.9790
  532TMC3    O1 7906   4.138   0.696  13.189  0.1913  0.4195  0.3897
  532TMC3    O2 7907   3.665   0.736  13.035 -0.4815  0.1182 -0.2786
  533TMC3    C1 7908   4.514   2.349  14.012 -0.0801 -0.4540  0.4962
  533TMC3    C2 7909   4.638   2.400  14.019 -0.2577 -0.2015 -0.8196
  533TMC3    C3 7910   4.663   2.519  14.085  0.3496  0.2412 -0.4371
  533TMC3    C4 7911   4.409   2.411  14.073  0.5048  0.5263  0.7519
  533TMC3    C5 7912   4.437   2.519  14.150 -0.2913 -0.0160 -0.1728
  533TMC3    C6 7913   4.559   2.585  14.146  0.1250 -0.2647  0.3392
  533TMC3     C 7914   4.506   2.209  14.021  0.4605  0.2107  0.6383
  533TMC3     O 7915   4.608   2.145  14.049  0.0765  0.1839 -0.2750
  533TMC3     H 7916   4.709   2.344  13.960 -0.4632 -0.7135 -0.5776
  533TMC3    H1 7917   4.309   2.371  14.086  0.4792  0.2072 -0.4393
  533TMC3    H2 7918   4.576   2.678  14.199 -0.9918 -0.7329  1.5144
  533TMC3    C7 7919   4.390   2.502  14.285 -0.2369 -0.4479  0.0872
  533TMC3    C8 7920   0.071   2.519  14.154 -0.0686  0.3365  0.2194
  533TMC3    O1 7921   4.344   2.393  14.311  0.1360  0.9240  0.0603
  533TMC3    O2 7922   0.059   2.506  14.275  0.4510 -0.1205 -0.6119
  534MPD2     C 7923   2.822   2.887   2.166 -0.2506  0.5426 -0.5620
  534MPD2    C1 7924   2.887   2.904   2.042 -0.3041  0.7086 -0.2802
  534MPD2    C2 7925   2.849   2.833   1.928 -0.0185  0.6272  0.5084
  534MPD2    C3 7926   2.758   2.726   1.934 -0.4229 -0.0285  0.0827
  534MPD2    C4 7927   2.697   2.709   2.055  0.1375  0.5315 -1.2356
  534MPD2    C5 7928   2.731   2.782   2.167 -0.8623 -0.1235 -0.1365
  534MPD2     H 7929   2.897   2.866   1.836  0.8212 -1.8537  0.0361
  534MPD2    H1 7930   2.629   2.626   2.072  1.5072 -0.2145  0.5613
  534MPD2    H2 7931   2.840   2.925   2.265  1.5560 -0.0859 -0.6486
  534MPD2    H3 7932   2.678   2.755   2.258 -2.7174  1.6192 -0.6979
  534MPD2     N 7933   2.725   2.653   1.821 -0.1953 -0.6946  0.0543
  534MPD2    H5 7934   2.652   2.583   1.827 -1.4870  0.7463  1.2012
  534MPD2    N1 7935   2.990   2.996   2.013  0.3679 -0.5331 -0.1165
  534MPD2    H7 7936   3.028   2.995   1.918 -0.5405 -1.5059 -0.4715
  535TMC3    C1 7937   2.739   2.548   1.606  0.5027 -0.2532 -0.4283
  535TMC3    C2 7938   2.601   2.537   1.600  0.7406  0.8182 -0.4512
  535TMC3    C3 7939   2.542   2.476   1.489 -0.9312  0.1085  0.6513
  535TMC3    C4 7940   2.818   2.490   1.517 -0.2511  0.4816 -0.2827
  535TMC3    C5 7941   2.754   2.429   1.411 -0.4616 -0.2040 -0.2138
  535TMC3    C6 7942   2.620   2.426   1.387  1.4511  0.3356  0.4133
  535TMC3     C 7943   2.799   2.645   1.703 -0.6072 -0.6232  0.0840
  535TMC3     O 7944   2.919   2.667   1.687 -0.1264 -0.0924  0.0352
  535TMC3     H 7945   2.539   2.591   1.670  0.9410  0.9777 -0.3953
  535TMC3    H1 7946   2.926   2.495   1.528 -0.0584  1.0013 -2.3276
  535TMC3    H2 7947   2.574   2.378   1.302 -2.6950  0.2257  2.7236
  535TMC3    C7 7948   2.829   2.362   1.309 -0.6351  0.1001 -0.1388
  535TMC3    C8 7949   2.393   2.478   1.471  0.4051 -0.1631 -0.4180
  535TMC3    O1 7950   2.781   2.361   1.195  0.5451 -0.0475 -0.4651
  535TMC3    O2 7951   2.358   2.451   1.358 -0.6999  0.4873  0.4982
  536MPD2     C 7952   1.360   1.912  15.930 -0.5878 -0.8486  0.1423
  536MPD2    C1 7953   1.227   1.884  15.946 -0.2529 -0.2067  0.7985
  536MPD2    C2 7954   1.147   1.848  15.843 -0.0306  0.2314  0.4119
  536MPD2    C3 7955   1.188   1.857  15.719 -0.1262 -0.3013  0.0254
  536MPD2    C4 7956   1.316   1.895  15.692 -0.8514  0.2522  0.5491
  536MPD2    C5 7957   1.406   1.921  15.799 -0.0582 -0.4368  0.1403
  536MPD2     H 7958   1.041   1.826  15.856  0.0148  1.8568  3.4684
  536MPD2    H1 7959   1.336   1.895  15.586 -3.5607  1.2785  0.0564
  536MPD2    H2 7960   1.430   1.924  16.012 -1.5137 -1.3418  1.0017
  536MPD2    H3 7961   1.512   1.932  15.782 -0.8581  1.1300 -3.8238
  536MPD2     N 7962   1.087   1.831  15.626  0.6544 -0.4109  0.0814
  536MPD2    H5 7963   0.994   1.811  15.663  0.0779  0.1509 -1.0688
  536MPD2    N1 7964   1.186   1.861  16.084  0.4151 -0.1210  0.6769
  536MPD2    H7 7965   1.256   1.901  16.146  1.4908  0.3971 -0.8586
  537TMC3    C1 7966   1.060   1.774  16.272 -0.6505  0.4832 -0.4475
  537TMC3    C2 7967   1.160   1.808  16.358  0.6581 -0.5869  0.6678
  537TMC3    C3 7968   1.142   1.758  16.488 -0.9220  0.7715 -0.8353
  537TMC3    C4 7969   0.946   1.704  16.310  0.6153  0.8459 -0.1833
  537TMC3    C5 7970   0.936   1.652  16.435  0.3889  0.4394  0.5362
  537TMC3    C6 7971   1.033   1.678  16.531  0.0325  0.0092 -0.0123
  537TMC3     C 7972   1.069   1.800  16.125 -0.1198 -0.2051  0.3438
  537TMC3     O 7973   0.975   1.765  16.058 -0.1967  0.5681  0.0772
  537TMC3     H 7974   1.257   1.839  16.321  0.3713  1.3342  1.5151
  537TMC3    H1 7975   0.872   1.673  16.237  0.1335 -0.0300  0.6776
  537TMC3    H2 7976   1.017   1.659  16.636 -0.9651 -1.3727 -0.4023
  537TMC3    C7 7977   0.807   1.594  16.481  0.7581 -0.6773  0.7294
  537TMC3    C8 7978   1.250   1.798  16.585 -0.3486 -0.6026  0.5313
  537TMC3    O1 7979   0.703   1.619  16.418 -0.6551 -0.3732 -0.4727
  537TMC3    O2 7980   1.249   1.729  16.686  0.2194 -0.4271  0.1423
  538TMC3    C1 7981   2.497   0.352  10.642 -0.0220  0.8444 -0.2838
  538TMC3    C2 7982   2.448   0.341  10.508 -0.6072  0.3339  0.2296
  538TMC3    C3 7983   2.341   0.422  10.472 -0.4486 -0.5482 -0.2813
  538TMC3    C4 7984   2.438   0.441  10.730 -0.9385  0.4498  0.1851
  538TMC3    C5 7985   2.337   0.523  10.682 -0.1887 -0.2536  0.2665
  538TMC3    C6 7986   2.290   0.516  10.557 -0.1697  0.4672 -0.1490
  538TMC3     C 7987   2.590   0.244  10.686  0.4413  0.2397  0.1677
  538TMC3     O 7988   2.657   0.190  10.599  0.0421 -0.0467  0.3191
  538TMC3     H 7989   2.475   0.256  10.446 -0.0779  3.3757 -3.6708
  538TMC3    H1 7990   2.484   0.453  10.828 -1.2662  1.1428  0.2541
  538TMC3    H2 7991   2.200   0.567  10.526 -0.7040 -0.1513  0.3853
  538TMC3    C7 7992   2.259   0.577  10.789  0.2969  0.0143  0.9209
  538TMC3    C8 7993   2.328   0.456  10.336  0.4485 -0.2347 -0.6944
  538TMC3    O1 7994   2.310   0.626  10.888  0.1653  0.2315  0.0327
  538TMC3    O2 7995   2.261   0.555  10.300 -0.3848  0.5701  0.7386
  539MPD2     C 7996   1.873   3.663  11.463 -0.5171 -0.4098  0.3182
  539MPD2    C1 7997   1.912   3.717  11.345  0.6924 -0.4118  0.7289
  539MPD2    C2 7998   1.867   3.846  11.322  0.1282 -0.5078 -0.3150
  539MPD2    C3 7999   1.789   3.915  11.410  0.0280 -0.2038  0.3345
  539MPD2    C4 8000   1.763   3.864  11.534 -0.2899 -0.1984  0.0243
  539MPD2    C5 8001   1.812   3.742  11.564  0.2603  0.2400  0.4880
  539MPD2     H 8002   1.876   3.880  11.220 -1.3905 -0.2470 -0.3627
  539MPD2    H1 8003   1.708   3.922  11.608  2.9701  0.7747  1.6791
  539MPD2    H2 8004   1.891   3.559  11.489 -1.3587 -0.9890 -1.4554
  539MPD2    H3 8005   1.788   3.696  11.659  0.6938 -0.2160  0.3726
  539MPD2     N 8006   1.727   4.036  11.392  0.4190  0.7174 -0.5276
  539MPD2    H5 8007   1.674   4.072  11.471  0.3258 -0.9568  0.1799
  539MPD2    N1 8008   1.998   3.656  11.251  0.7864  0.3303 -0.5823
  539MPD2    H7 8009   2.021   3.716  11.172  0.9729  0.2340 -0.6015
  540TMC3    C1 8010   1.642   4.234  11.274 -0.5353  0.7158 -0.1082
  540TMC3    C2 8011   1.660   4.308  11.159  0.0590 -0.0805 -0.8677
  540TMC3    C3 8012   1.650   4.441  11.165  0.2430  0.0148  0.1381
  540TMC3    C4 8013   1.623   4.307  11.395  0.7848 -0.0962 -0.1634
  540TMC3    C5 8014   1.626   4.444  11.399  0.5924  0.2104  0.3711
  540TMC3    C6 8015   1.631   4.516  11.281  0.0041 -0.0800 -0.3841
  540TMC3     C 8016   1.725   4.113  11.276  0.1887 -0.1371  0.2245
  540TMC3     O 8017   1.762   4.084  11.166  0.0125 -0.6497 -0.3202
  540TMC3     H 8018   1.705   4.264  11.071 -2.0114 -3.5975 -0.2002
  540TMC3    H1 8019   1.617   4.245  11.483 -2.1696 -0.9639 -0.9818
  540TMC3    H2 8020   1.635   4.624  11.282  0.7618 -0.0997 -2.4439
  540TMC3    C7 8021   1.617   4.510  11.523 -0.5209  0.4331 -0.9283
  540TMC3    C8 8022   1.686   4.518  11.043  0.8803 -0.5899 -0.4608
  540TMC3    O1 8023   1.566   4.617  11.515 -0.1358 -0.2199 -0.5940
  540TMC3    O2 8024   1.698   4.639  11.057  0.0820 -0.6485 -0.0228
  541MPD2     C 8025   4.620   0.444  13.117 -0.3489 -0.4661  0.1850
  541MPD2    C1 8026   4.722   0.426  13.031  0.4109  0.2672 -0.6343
  541MPD2    C2 8027   0.026   0.523  12.935  0.0127 -0.0926  0.0744
  541MPD2    C3 8028   4.670   0.632  12.916 -1.0602 -1.1448 -0.2689
  541MPD2    C4 8029   4.574   0.655  13.009  0.2106  0.0131  0.2984
  541MPD2    C5 8030   4.552   0.565  13.113  0.1173  0.1883 -0.2948
  541MPD2     H 8031   0.122   0.510  12.886  0.3441  0.7624  0.4902
  541MPD2    H1 8032   4.514   0.745  13.013 -0.5338 -0.5404  1.7747
  541MPD2    H2 8033   4.600   0.367  13.190  1.1710 -2.6334 -1.7078
  541MPD2    H3 8034   4.469   0.576  13.183  1.3016  2.2998  0.7698
  541MPD2     N 8035   4.711   0.736  12.821 -0.5061  0.7672 -0.0502
  541MPD2    H5 8036   4.664   0.826  12.830  1.1809  1.4160  2.1413
  541MPD2    N1 8037   0.069   0.310  13.039  0.0240  0.6807 -0.0836
  541MPD2    H7 8038   0.040   0.255  13.120 -0.0025 -1.1349 -1.3299
  542TMC3    C1 8039   0.087   0.848  12.643  0.1676  0.0152 -0.3695
  542TMC3    C2 8040   0.141   0.829  12.524  0.9238  1.1701 -0.2190
  542TMC3    C3 8041   0.208   0.936  12.468 -0.3119 -1.2363  0.2575
  542TMC3    C4 8042   0.082   0.964  12.715 -0.2957  0.0302  0.2729
  542TMC3    C5 8043   0.154   1.069  12.652  0.0937  0.0844  0.4128
  542TMC3    C6 8044   0.216   1.056  12.532  0.0975  0.6674 -0.9354
  542TMC3     C 8045   0.079   0.724  12.720 -1.0709  0.3269  0.1458
  542TMC3     O 8046   0.155   0.635  12.684  0.6977  0.5719  0.3286
  542TMC3     H 8047   0.125   0.733  12.477 -0.2339  0.7011  1.1495
  542TMC3    H1 8048   0.048   0.978  12.817 -4.6696 -0.1337 -1.1828
  542TMC3    H2 8049   0.259   1.144  12.485  2.7060  0.1753  0.5345
  542TMC3    C7 8050   0.121   1.202  12.681 -0.4577  0.3281 -0.8228
  542TMC3    C8 8051   0.295   0.907  12.357 -0.1319 -0.5710 -0.0020
  542TMC3    O1 8052   0.188   1.294  12.630 -0.4236  0.2477  0.8470
  542TMC3    O2 8053   0.266   0.810  12.294  0.1415 -0.1684  0.1407
  543TMC3    C1 8054   4.590   2.482  16.830  0.6456  0.9033 -0.8617
  543TMC3    C2 8055   4.478   2.403  16.838  0.4638 -0.2351 -0.0290
  543TMC3    C3 8056   4.407   2.379  16.951  0.5681  0.3591 -0.7412
  543TMC3    C4 8057   4.645   2.523  16.943  0.3773  0.5216 -0.5523
  543TMC3    C5 8058   4.576   2.500  17.060 -0.3555  0.7386 -0.4025
  543TMC3    C6 8059   4.458   2.430  17.071 -0.3523 -0.4745 -0.0189
  543TMC3     C 8060   4.687   2.428  16.731  0.3641  0.2315  0.5593
  543TMC3     O 8061   0.073   2.393  16.762 -0.1744  0.5628  0.0421
  543TMC3     H 8062   4.427   2.369  16.748  1.4545 -0.7445 -0.3999
  543TMC3    H1 8063   0.018   2.570  16.942  0.9720 -0.6395  1.4639
  543TMC3    H2 8064   4.415   2.404  17.168  0.1766  1.3899  0.7107
  543TMC3    C7 8065   4.627   2.552  17.192  0.5491  0.1786 -0.2569
  543TMC3    C8 8066   4.342   2.246  16.953 -0.2738  0.4205  0.1751
  543TMC3    O1 8067   4.589   2.495  17.294 -0.7868  0.4878  0.7575
  543TMC3    O2 8068   4.353   2.177  16.855 -0.4057  0.2324  0.6001
  544MPD2     C 8069   4.103   1.826  17.119 -0.2123 -0.4814  0.0985
  544MPD2    C1 8070   4.216   1.848  17.041 -0.2069 -0.0885  0.3095
  544MPD2    C2 8071   4.277   1.969  17.021 -0.5119 -0.9606 -0.1115
  544MPD2    C3 8072   4.221   2.082  17.083 -1.2928  0.4788 -1.0913
  544MPD2    C4 8073   4.107   2.064  17.164 -0.3776  0.8960  0.3659
  544MPD2    C5 8074   4.046   1.935  17.183 -0.5763 -0.3644  0.1920
  544MPD2     H 8075   4.368   1.975  16.962 -0.5177  0.8079  0.0829
  544MPD2    H1 8076   4.056   2.146  17.214  1.7602  1.5355  1.4875
  544MPD2    H2 8077   4.043   1.737  17.131 -0.7855 -0.0840  0.1615
  544MPD2    H3 8078   3.951   1.919  17.232 -1.4068 -1.1172 -1.7007
  544MPD2     N 8079   4.269   2.215  17.069  0.0379 -0.1329  0.0959
  544MPD2    H5 8080   4.245   2.287  17.137 -0.5999 -0.7138  0.4923
  544MPD2    N1 8081   4.268   1.725  16.989 -0.1584 -0.0215 -0.1476
  544MPD2    H7 8082   4.223   1.638  17.017 -1.6163  0.6134 -0.4954
  545TMC3    C1 8083   4.419   1.572  16.879  0.6711  0.9316 -0.1430
  545TMC3    C2 8084   4.524   1.539  16.790  0.2129  0.8998  0.1980
  545TMC3    C3 8085   4.562   1.410  16.783 -0.2059  0.4023  0.5255
  545TMC3    C4 8086   4.379   1.478  16.966  0.0785  0.0016 -0.0396
  545TMC3    C5 8087   4.424   1.351  16.962  0.9663  0.0026  0.6195
  545TMC3    C6 8088   4.513   1.310  16.870 -0.2458  0.3357  0.5904
  545TMC3     C 8089   4.376   1.711  16.898 -0.1445 -0.2603 -0.3282
  545TMC3     O 8090   4.448   1.792  16.834  0.0684  0.0930 -0.6261
  545TMC3     H 8091   4.549   1.603  16.706 -3.1712 -0.7459 -2.0375
  545TMC3    H1 8092   4.311   1.501  17.048  2.8949  0.3300  2.1940
  545TMC3    H2 8093   4.530   1.204  16.857  1.0514  0.4795  1.1384
  545TMC3    C7 8094   4.378   1.255  17.055  0.2161 -0.6868 -0.2178
  545TMC3    C8 8095   4.658   1.362  16.697 -0.0364  0.5810 -0.1105
  545TMC3    O1 8096   4.263   1.266  17.092  0.1970 -0.0029 -0.3035
  545TMC3    O2 8097   4.675   1.242  16.692  0.0644 -0.0428  0.8034
  546MPD2     C 8098   1.088   2.128  17.592  0.2118 -0.3822  0.1909
  546MPD2    C1 8099   1.116   2.176  17.466 -0.2417 -0.4795 -0.4534
  546MPD2    C2 8100   1.202   2.287  17.454 -0.3417 -0.3743 -0.0269
  546MPD2    C3 8101   1.260   2.352  17.558  0.0384  0.1702 -0.4238
  546MPD2    C4 8102   1.230   2.306  17.683  0.0789 -0.1942  0.1316
  546MPD2    C5 8103   1.147   2.192  17.700 -0.5550 -0.1872 -0.5732
  546MPD2     H 8104   1.218   2.330  17.356 -0.0031 -0.7276 -0.1284
  546MPD2    H1 8105   1.279   2.346   0.072  1.1272  0.5735 -0.7987
  546MPD2    H2 8106   1.023   2.043  17.610  0.7688 -1.2839 -2.1190
  546MPD2    H3 8107   1.117   2.162   0.100 -2.7420  3.5683 -0.0975
  546MPD2     N 8108   1.343   2.463  17.546 -0.0506 -0.6354 -0.4361
  546MPD2    H5 8109   1.386   2.498  17.630  0.2156 -0.1970 -0.7557
  546MPD2    N1 8110   1.048   2.123  17.359  0.4904 -0.3578 -0.5221
  546MPD2    H7 8111   0.991   2.042  17.382  1.8413 -0.9091  0.8838
  547TMC3    C1 8112   0.994   2.040  17.150 -0.2140  0.9443 -0.6731
  547TMC3    C2 8113   1.043   2.003  17.028  0.6506 -0.2614 -0.3617
  547TMC3    C3 8114   0.971   1.908  16.966 -0.1751  0.3072  0.0840
  547TMC3    C4 8115   0.888   1.968  17.208 -0.6206  0.3916 -0.4401
  547TMC3    C5 8116   0.824   1.868  17.141  0.3304  0.2265  0.5051
  547TMC3    C6 8117   0.871   1.827  17.023  0.2452 -0.8187 -0.1586
  547TMC3     C 8118   1.078   2.130  17.227 -1.0513  0.0468 -0.4740
  547TMC3     O 8119   1.182   2.170  17.175 -0.0004 -0.1426 -0.1813
  547TMC3     H 8120   1.139   2.036  16.992 -0.0840  1.7559 -0.4638
  547TMC3    H1 8121   0.848   1.989  17.307 -0.2887 -1.1537  0.0168
  547TMC3    H2 8122   0.828   1.741  16.972 -0.7257 -1.4618  1.7372
  547TMC3    C7 8123   0.780   1.762  17.227  0.4113 -0.1324 -0.3479
  547TMC3    C8 8124   0.978   1.894  16.820 -0.6570  0.0472  0.2523
  547TMC3    O1 8125   0.673   1.769  17.287 -0.1845 -0.2400  0.3829
  547TMC3    O2 8126   0.913   1.800  16.771  0.7132  0.3031 -0.7281
  548MPD2     C 8127   1.147   2.726  12.375  0.1118  0.1123 -0.2736
  548MPD2    C1 8128   1.048   2.661  12.431  0.6916 -0.3476  0.5058
  548MPD2    C2 8129   1.064   2.532  12.475  0.2900  0.3670  0.8574
  548MPD2    C3 8130   1.180   2.458  12.454 -0.0044  0.2518  0.0190
  548MPD2    C4 8131   1.291   2.533  12.400  0.1427 -0.0123  0.7138
  548MPD2    C5 8132   1.266   2.667  12.363  0.3588 -0.7032 -0.2233
  548MPD2     H 8133   0.974   2.478  12.503  0.2198  0.7508  1.3797
  548MPD2    H1 8134   1.387   2.482  12.394 -0.3076 -0.7773  0.1052
  548MPD2    H2 8135   1.144   2.829  12.343 -1.9868 -0.1116 -0.7992
  548MPD2    H3 8136   1.341   2.728  12.314  0.3658 -1.9639 -1.7977
  548MPD2     N 8137   1.189   2.321  12.490 -0.4562  0.6037 -0.7355
  548MPD2    H5 8138   1.279   2.278  12.473 -2.1959 -2.8041 -1.3294
  548MPD2    N1 8139   0.922   2.730  12.441  0.5147 -0.2670 -0.7794
  548MPD2    H7 8140   0.922   2.830  12.429  2.9450 -0.1678  0.0671
  549TMC3    C1 8141   0.689   2.727  12.407 -0.2938  0.0648  0.9326
  549TMC3    C2 8142   0.708   2.831  12.327 -0.1856 -0.0133 -0.4572
  549TMC3    C3 8143   0.595   2.880  12.270  0.3806 -0.0758 -0.3244
  549TMC3    C4 8144   0.571   2.652  12.411 -0.1676 -0.2118  0.2109
  549TMC3    C5 8145   0.468   2.699  12.336 -0.0834 -0.3340 -0.8749
  549TMC3    C6 8146   0.476   2.816  12.265  0.5676 -0.0267 -0.1866
  549TMC3     C 8147   0.801   2.670  12.470  0.7940  0.7650 -0.6150
  549TMC3     O 8148   0.772   2.561  12.514  0.2116 -0.2406  0.0314
  549TMC3     H 8149   0.794   2.896  12.340 -0.4446  0.2292  0.0444
  549TMC3    H1 8150   0.553   2.573  12.482 -0.9624  0.1766  0.4510
  549TMC3    H2 8151   0.394   2.844  12.199 -1.0258 -1.6093  1.1485
  549TMC3    C7 8152   0.360   2.601  12.309 -0.3984 -0.3550 -0.0529
  549TMC3    C8 8153   0.610   2.981  12.170  1.1609 -0.7575  0.6142
  549TMC3    O1 8154   0.264   2.635  12.244  0.1270  0.3630 -0.2020
  549TMC3    O2 8155   0.504   3.014  12.118 -0.1751 -0.0409  0.2500
  550TMC3    C1 8156   4.319   0.451  12.273  0.2259  0.1751  0.2047
  550TMC3    C2 8157   4.267   0.525  12.376 -0.6480 -0.2932 -0.2013
  550TMC3    C3 8158   4.248   0.664  12.363  0.4606 -0.0059  0.2697
  550TMC3    C4 8159   4.360   0.511  12.157 -0.2067  0.3117 -0.2937
  550TMC3    C5 8160   4.336   0.648  12.151 -0.8806 -0.2557 -0.2448
  550TMC3    C6 8161   4.284   0.723  12.249  0.3133 -0.1975  0.0396
  550TMC3     C 8162   4.253   0.329  12.248  0.4477  0.7052  0.6820
  550TMC3     O 8163   4.158   0.295  12.314  0.2802  0.2629 -0.1101
  550TMC3     H 8164   4.236   0.463  12.460 -1.5785  2.0376  1.1801
  550TMC3    H1 8165   4.389   0.461  12.066 -0.7648 -1.2296  0.3834
  550TMC3    H2 8166   4.287   0.831  12.240  0.9888 -0.2772 -0.7125
  550TMC3    C7 8167   4.308   0.712  12.021 -0.2933 -0.1394  0.2047
  550TMC3    C8 8168   4.192   0.729  12.469 -0.9442 -0.1519  0.5758
  550TMC3    O1 8169   4.256   0.822  12.011 -0.0571  0.0026  0.1013
  550TMC3    O2 8170   4.217   0.677  12.578 -0.3104  0.1395  0.3587
  551TMC3    C1 8171   1.927   3.126  13.469  0.3876 -1.0568  0.4537
  551TMC3    C2 8172   2.053   3.120  13.415 -0.7051  0.5616 -0.3093
  551TMC3    C3 8173   2.143   3.216  13.446  0.0129 -0.1792  0.4543
  551TMC3    C4 8174   1.898   3.224  13.564  0.5293  0.2091  0.7218
  551TMC3    C5 8175   1.981   3.326  13.583  0.2600 -0.0612 -0.3116
  551TMC3    C6 8176   2.106   3.325  13.526 -0.3915  0.4539  1.0929
  551TMC3     C 8177   1.821   3.050  13.405  0.4942  0.5517 -0.1782
  551TMC3     O 8178   1.846   2.983  13.303 -0.3501 -0.1362  0.6682
  551TMC3     H 8179   2.081   3.043  13.344 -1.0906 -0.2202  0.3959
  551TMC3    H1 8180   1.806   3.218  13.621  0.1456 -1.3339 -0.0728
  551TMC3    H2 8181   2.178   3.403  13.546  1.5367 -1.0016 -0.1851
  551TMC3    C7 8182   1.965   3.395  13.709  0.5966  0.0142  0.0211
  551TMC3    C8 8183   2.260   3.239  13.366  0.1536 -0.0056  0.2462
  551TMC3    O1 8184   1.885   3.347  13.788 -0.3431 -0.2426 -0.4930
  551TMC3    O2 8185   2.338   3.146  13.347  0.9920 -0.6178  0.3772
  552MPD2     C 8186   4.022   0.689  13.503  0.2184 -0.2365 -0.1403
  552MPD2    C1 8187   3.959   0.609  13.596  0.2948  0.1588  0.4889
  552MPD2    C2 8188   4.015   0.583  13.716 -0.2219  0.2275  0.0672
  552MPD2    C3 8189   4.145   0.626  13.743  0.3733  0.5031  0.3113
  552MPD2    C4 8190   4.215   0.698  13.643  0.5975  0.4335  0.1385
  552MPD2    C5 8191   4.146   0.737  13.529  0.0818 -0.0016 -0.2374
  552MPD2     H 8192   3.966   0.517  13.787  0.7761  0.9816  1.4416
  552MPD2    H1 8193   4.319   0.727  13.657  0.6135  0.0549  0.7926
  552MPD2    H2 8194   3.979   0.721  13.408  2.0401  0.1029 -0.8641
  552MPD2    H3 8195   4.192   0.796  13.451  0.7072  0.3713  0.4147
  552MPD2     N 8196   4.220   0.585  13.853 -0.4787  0.2672 -0.3691
  552MPD2    H5 8197   4.320   0.600  13.842 -0.0436 -0.6640  2.1205
  552MPD2    N1 8198   3.836   0.547  13.575 -0.3276 -0.1345  0.0771
  552MPD2    H7 8199   3.790   0.515  13.660  1.9007  1.2337  1.8195
  553TMC3    C1 8200   3.646   0.459  13.478 -0.4276 -0.2001  0.3971
  553TMC3    C2 8201   3.601   0.392  13.361  0.6991  0.2689 -0.0334
  553TMC3    C3 8202   3.518   0.289  13.376 -0.5610 -0.4332 -0.5727
  553TMC3    C4 8203   3.598   0.418  13.603  0.0270  1.1141 -0.2161
  553TMC3    C5 8204   3.496   0.321  13.606 -0.2914 -0.0408  0.8484
  553TMC3    C6 8205   3.453   0.259  13.492  0.2421  0.1988 -0.0214
  553TMC3     C 8206   3.769   0.537  13.456 -0.6871  0.2600  0.2982
  553TMC3     O 8207   3.802   0.563  13.342  0.7014  0.3583 -0.1369
  553TMC3     H 8208   3.654   0.407  13.267 -2.6629  1.4351 -1.7630
  553TMC3    H1 8209   3.616   0.484  13.687  1.4219 -0.9577  1.1307
  553TMC3    H2 8210   3.398   0.167  13.509  0.7775 -0.1158 -0.0040
  553TMC3    C7 8211   3.487   0.233  13.721 -0.2938  0.1398 -0.0368
  553TMC3    C8 8212   3.549   0.181  13.294 -0.5626  0.5415 -0.1048
  553TMC3    O1 8213   3.384   0.174  13.749  0.4979  0.6117  0.3550
  553TMC3    O2 8214   3.660   0.185  13.239  0.2366  0.2897 -0.2319
  554TMC3    C1 8215   1.091   4.174  11.692 -0.4614  0.3254 -0.7871
  554TMC3    C2 8216   1.053   4.093  11.588 -0.5925  0.6407  0.7693
  554TMC3    C3 8217   1.067   4.152  11.468  0.3844 -0.3529 -0.0635
  554TMC3    C4 8218   1.139   4.296  11.671 -0.0911  0.0377 -0.0384
  554TMC3    C5 8219   1.137   4.361  11.553 -0.1295 -0.1008 -0.0958
  554TMC3    C6 8220   1.109   4.282  11.448 -0.6621  0.3619 -0.0177
  554TMC3     C 8221   1.093   4.127  11.825 -0.0426  0.9793 -0.4388
  554TMC3     O 8222   1.173   4.177  11.902  0.0147 -0.5532  0.4091
  554TMC3     H 8223   1.018   3.993  11.608  0.7152 -0.1187 -0.7485
  554TMC3    H1 8224   1.175   4.345  11.761  0.6283 -1.3991  0.4536
  554TMC3    H2 8225   1.126   4.311  11.344  1.2947 -4.0351 -0.9186
  554TMC3    C7 8226   1.230   4.470  11.535  0.1664 -0.0326  0.1988
  554TMC3    C8 8227   1.056   4.071  11.345 -0.3799  0.0222 -0.0703
  554TMC3    O1 8228   1.295   4.449  11.434 -0.7852 -0.4621  0.4793
  554TMC3    O2 8229   1.114   4.118  11.247 -0.0514 -0.2003  0.3977
  555TMC3    C1 8230   0.314   3.596  14.546  0.5429 -0.1450  0.4042
  555TMC3    C2 8231   0.288   3.714  14.621 -0.3299 -0.3606  0.6787
  555TMC3    C3 8232   0.249   3.691  14.747 -0.0112  0.0087 -0.9785
  555TMC3    C4 8233   0.313   3.472  14.597 -0.3283 -0.7582  0.9468
  555TMC3    C5 8234   0.267   3.458  14.730 -0.3541 -0.1659  0.8363
  555TMC3    C6 8235   0.242   3.569  14.805 -0.2285  0.0442  0.5341
  555TMC3     C 8236   0.309   3.600  14.408 -0.5700  0.0993 -0.2133
  555TMC3     O 8237   0.369   3.510  14.348 -1.0200  0.0018  0.0850
  555TMC3     H 8238   0.296   3.813  14.576  0.9753 -0.5820  0.4240
  555TMC3    H1 8239   0.347   3.387  14.539  0.0046 -0.5564  0.8414
  555TMC3    H2 8240   0.208   3.566  14.908  3.5382 -0.7717  1.7340
  555TMC3    C7 8241   0.269   3.330  14.802  0.3486 -0.4919  0.4441
  555TMC3    C8 8242   0.236   3.807  14.833 -0.0460  0.6235 -0.6937
  555TMC3    O1 8243   0.228   3.333  14.918 -0.8964  0.2272 -0.1413
  555TMC3    O2 8244   0.239   3.914  14.776  0.0543 -0.3220  0.3885
  556MPD2     C 8245   3.501   0.261  10.499  0.0513  0.0903 -0.1710
  556MPD2    C1 8246   3.375   0.320  10.512  0.2781 -0.2318 -0.3886
  556MPD2    C2 8247   3.302   0.341  10.399  0.0956 -0.4159  0.4748
  556MPD2    C3 8248   3.345   0.298  10.276  0.1039  0.2231  0.3313
  556MPD2    C4 8249   3.473   0.255  10.264  0.8304 -0.2845  0.1115
  556MPD2    C5 8250   3.554   0.232  10.375 -0.0346  0.5930  0.0251
  556MPD2     H 8251   3.196   0.356  10.416 -0.1430 -0.7450 -0.7348
  556MPD2    H1 8252   3.521   0.225  10.171 -0.4520  1.3928 -1.0871
  556MPD2    H2 8253   3.566   0.230  10.580  1.8876  1.1610 -1.2201
  556MPD2    H3 8254   3.658   0.201  10.368 -0.3468 -0.9970  2.5046
  556MPD2     N 8255   3.259   0.302  10.160 -0.0480  0.0734  0.0421
  556MPD2    H5 8256   3.167   0.338  10.182 -0.4643 -0.3684 -0.9862
  556MPD2    N1 8257   3.324   0.353  10.632  0.2879  0.3107  0.3165
  556MPD2    H7 8258   3.225   0.377  10.631 -0.8380 -4.4346  1.0577
  557TMC3    C1 8259   3.183   0.272   9.940  0.7069  0.4549 -0.6004
  557TMC3    C2 8260   3.202   0.292   9.809  0.2966  0.3702 -0.2309
  557TMC3    C3 8261   3.092   0.298   9.726  0.9344 -0.8753 -0.2559
  557TMC3    C4 8262   3.058   0.248   9.993 -0.3618  0.0409  0.2030
  557TMC3    C5 8263   2.949   0.259   9.908  0.2302  0.3034  0.0578
  557TMC3    C6 8264   2.962   0.285   9.774 -0.9541  0.5918  0.5360
  557TMC3     C 8265   3.294   0.268  10.030  0.0658 -0.3125  1.1674
  557TMC3     O 8266   3.405   0.259   9.975 -0.2301 -0.2210 -0.7277
  557TMC3     H 8267   3.303   0.307   9.770  0.2284  1.3896 -0.0328
  557TMC3    H1 8268   3.038   0.239  10.099  1.1994 -0.0739  0.4836
  557TMC3    H2 8269   2.873   0.290   9.711  0.2796 -0.0154 -1.2391
  557TMC3    C7 8270   2.816   0.247   9.962  0.2818 -0.0738 -0.0031
  557TMC3    C8 8271   3.107   0.263   9.582  0.0579  0.0319 -0.1802
  557TMC3    O1 8272   2.785   0.163  10.047  0.0648 -0.5245 -0.4240
  557TMC3    O2 8273   3.175   0.335   9.508  0.4938  0.1206  0.7762
  558TMC3    C1 8274   0.858   2.651  10.140 -0.2740 -0.0224  0.2151
  558TMC3    C2 8275   0.732   2.667  10.188  0.5049  0.4158 -0.0289
  558TMC3    C3 8276   0.624   2.701  10.103 -0.0085 -0.3646  0.1098
  558TMC3    C4 8277   0.885   2.659  10.005  0.1204  0.1275  0.1398
  558TMC3    C5 8278   0.785   2.702   9.924  1.2105 -0.6320 -0.3652
  558TMC3    C6 8279   0.650   2.720   9.971 -0.7155  0.5497 -0.2152
  558TMC3     C 8280   0.973   2.649  10.231 -0.0638  0.0410 -0.3280
  558TMC3     O 8281   1.079   2.698  10.193  0.5645 -0.3395 -0.3178
  558TMC3     H 8282   0.723   2.690  10.294 -2.7989  0.9868 -0.4232
  558TMC3    H1 8283   0.988   2.652   9.973 -0.6880 -0.5271 -2.2583
  558TMC3    H2 8284   0.568   2.752   9.907  0.3992  1.9955 -0.9076
  558TMC3    C7 8285   0.822   2.762   9.795 -0.7275 -0.4193 -0.2907
  558TMC3    C8 8286   0.496   2.752  10.151 -0.3346  0.6612  0.3387
  558TMC3    O1 8287   0.938   2.770   9.760 -0.7904  0.8668 -0.7465
  558TMC3    O2 8288   0.419   2.812  10.074  0.3289  0.0673 -0.4140
  559MPD2     C 8289   0.828   3.714  10.170  0.2031  0.0736 -0.2355
  559MPD2    C1 8290   0.767   3.599  10.218 -0.3865 -0.1561 -0.0604
  559MPD2    C2 8291   0.825   3.543  10.331  1.1194  0.3317 -0.4254
  559MPD2    C3 8292   0.932   3.604  10.394  0.5964 -0.7542  0.1135
  559MPD2    C4 8293   1.004   3.699  10.322 -0.4834 -0.1658 -0.1502
  559MPD2    C5 8294   0.946   3.758  10.215 -0.5462  0.2203  0.0491
  559MPD2     H 8295   0.775   3.455  10.369  0.4865  1.0641  0.4191
  559MPD2    H1 8296   1.099   3.738  10.358  0.0016 -1.5889  0.1054
  559MPD2    H2 8297   0.786   3.757  10.079 -0.3170  0.7064  0.3033
  559MPD2    H3 8298   1.004   3.842  10.177  0.0012 -0.3108 -0.2914
  559MPD2     N 8299   0.975   3.548  10.519 -0.0352  0.5134 -0.5272
  559MPD2    H5 8300   0.933   3.463  10.555  0.3374  1.4837  2.1965
  559MPD2    N1 8301   0.638   3.575  10.165  0.6182 -0.5094  0.3773
  559MPD2    H7 8302   0.592   3.646  10.110 -0.1408 -1.7831 -0.6078
  560TMC3    C1 8303   1.115   3.527  10.701  0.3820 -0.1051  0.0562
  560TMC3    C2 8304   1.034   3.422  10.747 -0.1934 -0.2252  0.2592
  560TMC3    C3 8305   1.082   3.337  10.848  0.5777  0.6637  0.1727
  560TMC3    C4 8306   1.243   3.550  10.752 -0.1608  0.4915  0.0776
  560TMC3    C5 8307   1.282   3.455  10.843  0.7805 -0.3008  0.4407
  560TMC3    C6 8308   1.210   3.350  10.895  0.0062 -1.3645 -0.1291
  560TMC3     C 8309   1.076   3.611  10.588  0.2349  0.2906  0.0991
  560TMC3     O 8310   1.135   3.717  10.571 -0.1441  0.4043  0.2802
  560TMC3     H 8311   0.940   3.389  10.705 -1.3610  1.7559  1.3157
  560TMC3    H1 8312   1.292   3.635  10.706  1.6455 -0.2175  0.6894
  560TMC3    H2 8313   1.256   3.298  10.978  0.4074 -1.7447 -0.5893
  560TMC3    C7 8314   1.419   3.459  10.889 -0.3424 -0.8499 -0.0711
  560TMC3    C8 8315   1.001   3.218  10.875  0.4525 -0.5279  0.0635
  560TMC3    O1 8316   1.462   3.354  10.937 -0.3923 -0.7272 -0.1913
  560TMC3    O2 8317   0.885   3.215  10.838  0.0874 -0.6084  0.3136
  561TMC3    C1 8318   3.443   2.567  11.195 -0.5306 -0.1586  0.9179
  561TMC3    C2 8319   3.380   2.544  11.314 -0.3947 -0.3226  1.2274
  561TMC3    C3 8320   3.344   2.652  11.394 -0.4572  0.4208  0.3167
  561TMC3    C4 8321   3.475   2.699  11.162 -0.8931  0.3619  0.4959
  561TMC3    C5 8322   3.435   2.796  11.246  0.5022  0.1409  0.2832
  561TMC3    C6 8323   3.368   2.779  11.358 -0.4652  0.0591 -0.1511
  561TMC3     C 8324   3.469   2.462  11.103  0.2727 -0.3086 -0.7154
  561TMC3     O 8325   3.472   2.349  11.153 -0.1870  0.3317 -0.0328
  561TMC3     H 8326   3.347   2.443  11.332 -3.3671  0.2095 -1.3018
  561TMC3    H1 8327   3.510   2.734  11.065 -3.7373  0.3914 -0.5334
  561TMC3    H2 8328   3.340   2.862  11.422  0.1394 -1.2990  1.8857
  561TMC3    C7 8329   3.475   2.931  11.223  0.0706  0.0717  0.4609
  561TMC3    C8 8330   3.311   2.622  11.533  0.6729 -0.5353  0.5905
  561TMC3    O1 8331   3.405   3.014  11.276 -0.3409 -0.1275  0.5846
  561TMC3    O2 8332   3.314   2.502  11.565  0.4207 -0.0073  0.3646
  562TMC3    C1 8333   4.371   3.960  15.947 -0.3744  0.2574 -0.4534
  562TMC3    C2 8334   4.314   4.084  15.912 -0.4333  0.3074  1.3217
  562TMC3    C3 8335   4.349   4.135  15.791  0.1156  0.5483  0.0738
  562TMC3    C4 8336   4.448   3.885  15.860 -0.4966  0.2659 -0.3121
  562TMC3    C5 8337   4.478   3.945  15.733  0.6159 -0.0158 -0.3136
  562TMC3    C6 8338   4.437   4.067  15.706  0.3846  0.1626  0.1009
  562TMC3     C 8339   4.339   3.916  16.079 -0.1587  0.5615 -0.1003
  562TMC3     O 8340   4.230   3.948  16.128  0.1579 -0.3965 -0.4571
  562TMC3     H 8341   4.260   4.138  15.989 -0.6784  1.3315  0.4277
  562TMC3    H1 8342   4.480   3.788  15.895 -1.7717 -0.7333 -1.9071
  562TMC3    H2 8343   4.456   4.114  15.610  1.8989 -1.0162 -0.1730
  562TMC3    C7 8344   4.507   3.867  15.617 -0.5289 -0.1590  0.0709
  562TMC3    C8 8345   4.314   4.273  15.760 -0.5955 -0.4804  0.1493
  562TMC3    O1 8346   4.490   3.913  15.508  0.8848 -0.4328  0.9449
  562TMC3    O2 8347   4.301   4.349  15.857 -0.1674 -0.1279 -0.0452
  563MPD2     C 8348   1.799   0.250  15.230 -0.9225 -0.3315  0.1295
  563MPD2    C1 8349   1.832   0.360  15.300  0.0419 -0.2795  0.8913
  563MPD2    C2 8350   1.958   0.387  15.342 -0.2871 -0.2072  0.0722
  563MPD2    C3 8351   2.048   0.283  15.340 -0.1206  0.0658 -0.4476
  563MPD2    C4 8352   2.011   0.164  15.270  0.6438  0.3387 -0.0474
  563MPD2    C5 8353   1.887   0.151  15.214 -0.3824 -0.1931  0.6613
  563MPD2     H 8354   1.989   0.480  15.388 -1.0720  0.3310 -0.4930
  563MPD2    H1 8355   2.065   0.071  15.283 -2.4578 -1.3947  0.2571
  563MPD2    H2 8356   1.698   0.232  15.195 -0.7138 -1.6054  0.1919
  563MPD2    H3 8357   1.846   0.068  15.159 -0.6916 -0.6623  1.6047
  563MPD2     N 8358   2.170   0.297  15.412 -0.4818 -0.9489  0.0666
  563MPD2    H5 8359   2.187   0.384  15.461  0.1786 -0.0344 -1.7657
  563MPD2    N1 8360   1.723   0.449  15.330  0.3170 -0.2427  0.6944
  563MPD2    H7 8361   1.632   0.406  15.319 -0.9384  1.4074  4.7078
  564TMC3    C1 8362   1.612   0.584  15.477  0.3121 -0.1035  0.5286
  564TMC3    C2 8363   1.506   0.507  15.433  0.0603  0.4274  0.7779
  564TMC3    C3 8364   1.456   0.420  15.531 -0.2005 -0.0495 -0.0637
  564TMC3    C4 8365   1.663   0.578  15.605 -0.0135 -0.2743  0.5459
  564TMC3    C5 8366   1.603   0.504  15.705 -0.3118 -0.3737 -0.3001
  564TMC3    C6 8367   1.498   0.429  15.664  1.0087  0.0577 -0.4418
  564TMC3     C 8368   1.728   0.573  15.391 -0.0840  0.6179  0.0299
  564TMC3     O 8369   1.828   0.644  15.404  0.2566  0.1793 -0.3095
  564TMC3     H 8370   1.468   0.506  15.332  0.6970 -0.4536  0.5594
  564TMC3    H1 8371   1.758   0.625  15.626 -0.6861  0.6657  1.4957
  564TMC3    H2 8372   1.451   0.376  15.746 -1.3412  1.0739 -1.1483
  564TMC3    C7 8373   1.687   0.433  15.797 -0.1050 -0.3084  0.8177
  564TMC3    C8 8374   1.472   0.286  15.472 -0.1427  0.5082  0.4168
  564TMC3    O1 8375   1.660   0.407  15.915 -0.6065  0.3097  0.1262
  564TMC3    O2 8376   1.494   0.285  15.353  0.2665  0.2229 -0.1095
  565TMC3    C1 8377   2.628   2.500  10.226  0.2190  0.1641 -0.5236
  565TMC3    C2 8378   2.638   2.366  10.218 -0.5523  0.7326 -0.0833
  565TMC3    C3 8379   2.596   2.295  10.103 -0.8192 -0.3550 -0.0892
  565TMC3    C4 8380   2.604   2.572  10.108  0.6735 -0.7034 -0.7712
  565TMC3    C5 8381   2.567   2.499   9.996 -0.1786  0.4538 -0.2899
  565TMC3    C6 8382   2.551   2.363   9.992 -0.0131  0.4544 -0.5542
  565TMC3     C 8383   2.728   2.565  10.303 -0.4904 -0.1423  0.2183
  565TMC3     O 8384   2.818   2.632  10.246  0.3349 -0.3222  0.1245
  565TMC3     H 8385   2.674   2.304  10.299 -0.4167 -0.4135 -1.0095
  565TMC3    H1 8386   2.619   2.679  10.103 -0.8310 -0.4758 -0.3620
  565TMC3    H2 8387   2.569   2.319   9.894 -1.5462 -1.3335 -0.0429
  565TMC3    C7 8388   2.539   2.575   9.877 -0.4469 -0.7461 -0.1634
  565TMC3    C8 8389   2.599   2.149  10.109 -0.0310 -0.1498 -0.1870
  565TMC3    O1 8390   2.602   2.676   9.874  0.3656 -0.0879  0.3575
  565TMC3    O2 8391   2.602   2.095  10.223 -0.1874  0.3782  0.6328
  566MPD2     C 8392   4.211   3.179  14.202  0.3247 -0.5173  0.6757
  566MPD2    C1 8393   4.263   3.130  14.085  0.4781 -0.6504  0.0444
  566MPD2    C2 8394   4.180   3.058  14.003  1.0279  0.4656 -0.3627
  566MPD2    C3 8395   4.045   3.032  14.028 -0.3525  0.1191 -0.1416
  566MPD2    C4 8396   3.993   3.084  14.148 -0.1210  0.5348  0.3759
  566MPD2    C5 8397   4.075   3.157  14.230  0.8072  0.9995  0.3312
  566MPD2     H 8398   4.216   3.027  13.905  0.4670  1.0769 -0.7593
  566MPD2    H1 8399   3.893   3.056  14.176  0.1835 -0.2543  0.6715
  566MPD2    H2 8400   4.268   3.237  14.275 -0.4481  1.7830 -0.5341
  566MPD2    H3 8401   4.035   3.179  14.328 -0.0042  1.0797 -0.0171
  566MPD2     N 8402   3.962   2.961  13.935  0.3089 -0.3272  0.3087
  566MPD2    H5 8403   3.861   2.969  13.943  0.2602 -3.1319  2.4291
  566MPD2    N1 8404   4.401   3.156  14.060  0.4027 -0.3764 -0.1482
  566MPD2    H7 8405   4.449   3.199  14.138  0.1894  0.1323 -0.2910
  567TMC3    C1 8406   4.601   3.201  13.934 -0.4066 -0.0734  0.9068
  567TMC3    C2 8407   4.631   3.280  13.826  0.5349 -0.1668  0.8754
  567TMC3    C3 8408   4.716   3.389  13.840  0.3315  0.6851 -0.2724
  567TMC3    C4 8409   4.652   3.231  14.059 -0.5385 -0.6432 -0.6379
  567TMC3    C5 8410   0.014   3.340  14.063  0.9989 -0.2567  0.9626
  567TMC3    C6 8411   0.052   3.413  13.961  0.0537  0.4812 -0.2545
  567TMC3     C 8412   4.461   3.156  13.936  0.1153 -0.0666  0.3515
  567TMC3     O 8413   4.421   3.114  13.829 -0.0430 -0.1233 -0.1125
  567TMC3     H 8414   4.570   3.267  13.737  0.8790  1.2655  0.4465
  567TMC3    H1 8415   4.629   3.181  14.152  0.0204  1.5223  0.6455
  567TMC3    H2 8416   0.109   3.503  13.978  1.1074  0.3557 -3.1893
  567TMC3    C7 8417   0.022   3.394  14.195 -0.8216  0.2182  0.3420
  567TMC3    C8 8418   4.675   3.512  13.771  0.2190 -0.3377  0.2194
  567TMC3    O1 8419   0.132   3.392  14.244  0.0661 -0.3312 -0.2005
  567TMC3    O2 8420   4.556   3.534  13.751  0.2038 -0.2377 -0.1489
  568MPD2     C 8421   1.819   3.622  16.345  0.6857  0.1830 -0.3001
  568MPD2    C1 8422   1.817   3.721  16.441 -0.6509  0.2054  0.0619
  568MPD2    C2 8423   1.806   3.851  16.400 -0.1892  0.4813  0.4254
  568MPD2    C3 8424   1.804   3.883  16.265 -0.0440  0.9481 -0.4476
  568MPD2    C4 8425   1.811   3.774  16.169  0.4345  0.2940 -0.2273
  568MPD2    C5 8426   1.837   3.647  16.213 -0.3421  0.7284 -0.4834
  568MPD2     H 8427   1.812   3.926  16.477 -0.6923 -0.3511  1.2729
  568MPD2    H1 8428   1.808   3.787  16.061 -0.0051  0.2041 -0.2267
  568MPD2    H2 8429   1.825   3.520  16.382 -1.6594  0.3811  0.6309
  568MPD2    H3 8430   1.848   3.564  16.144  2.3206 -0.0191  0.8409
  568MPD2     N 8431   1.791   4.016  16.233 -0.2068  0.4137  0.5990
  568MPD2    H5 8432   1.785   4.078  16.314  0.6816  0.5388  0.5704
  568MPD2    N1 8433   1.793   3.679  16.575  0.2260 -0.0607  0.0173
  568MPD2    H7 8434   1.781   3.578  16.585  0.2465  0.0440  1.1174
  569TMC3    C1 8435   1.754   4.205  16.098 -0.2965  0.1388 -0.3938
  569TMC3    C2 8436   1.695   4.277  16.198 -0.1848 -0.4496 -0.1210
  569TMC3    C3 8437   1.637   4.397  16.163 -0.3123  0.2574 -0.3535
  569TMC3    C4 8438   1.754   4.256  15.968  0.1277 -0.2585 -0.0251
  569TMC3    C5 8439   1.690   4.371  15.939  0.5211  0.3311  0.0936
  569TMC3    C6 8440   1.635   4.444  16.043  0.8875  0.3942 -0.7747
  569TMC3     C 8441   1.783   4.071  16.105 -0.0699 -0.2444  0.8835
  569TMC3     O 8442   1.756   4.004  16.008  0.3525 -0.0882 -0.0607
  569TMC3     H 8443   1.669   4.229  16.292  0.3249 -0.2842  0.1022
  569TMC3    H1 8444   1.813   4.200  15.895  1.5118  0.0363  0.8640
  569TMC3    H2 8445   1.583   4.537  16.025 -0.2559 -0.5927 -2.5925
  569TMC3    C7 8446   1.700   4.416  15.802  0.5091 -0.4068  0.0499
  569TMC3    C8 8447   1.609   4.477  16.280 -0.6176  0.2536  0.4974
  569TMC3    O1 8448   1.726   4.334  15.714 -0.3586 -0.5324  0.3208
  569TMC3    O2 8449   1.594   4.416  16.384 -0.7216 -0.0046  0.7955
  570TMC3    C1 8450   1.073   2.955  15.857  0.0321 -0.1875 -0.5683
  570TMC3    C2 8451   1.155   3.000  15.757 -0.3559 -0.9141  0.5063
  570TMC3    C3 8452   1.215   3.118  15.769  0.3526  0.0196 -0.0629
  570TMC3    C4 8453   1.052   3.035  15.970 -0.1904 -0.0742 -0.0726
  570TMC3    C5 8454   1.101   3.164  15.964  0.2239 -0.0498  0.3730
  570TMC3    C6 8455   1.178   3.207  15.869  0.0722 -0.0376 -0.2851
  570TMC3     C 8456   1.010   2.824  15.850  0.1811  0.5502  0.8415
  570TMC3     O 8457   0.987   2.767  15.739  0.1012 -0.0781 -0.3426
  570TMC3     H 8458   1.196   2.928  15.687  1.8480  1.6308 -0.8121
  570TMC3    H1 8459   0.977   3.017  16.047 -1.2305 -1.1891 -1.3485
  570TMC3    H2 8460   1.218   3.308  15.863 -0.0781  0.1174  1.4476
  570TMC3    C7 8461   1.098   3.243  16.087 -0.3377  0.4731 -0.7094
  570TMC3    C8 8462   1.300   3.162  15.658  0.2708  0.1952 -0.5743
  570TMC3    O1 8463   1.085   3.182  16.189 -0.0882  0.2893 -0.0567
  570TMC3    O2 8464   1.396   3.234  15.681  0.3536  0.5433  0.1479
  571MPD2     C 8465   3.348   0.012  17.420 -0.0284  0.3419 -0.5112
  571MPD2    C1 8466   3.447   0.016  17.324 -0.1753 -0.4791  0.8381
  571MPD2    C2 8467   3.543   0.112  17.328 -0.5448 -0.0298 -0.6180
  571MPD2    C3 8468   3.535   0.214  17.418  0.2899 -0.1493 -0.2666
  571MPD2    C4 8469   3.438   0.207  17.519 -0.3521  0.9556  0.5036
  571MPD2    C5 8470   3.349   0.107  17.521 -0.1027 -0.5211 -0.1982
  571MPD2     H 8471   3.618   0.119  17.250  1.0385  0.0201  0.9104
  571MPD2    H1 8472   3.422   0.286  17.592  2.3029  1.1387  0.9043
  571MPD2    H2 8473   3.271   4.660  17.422  1.1672 -0.8456 -0.1878
  571MPD2    H3 8474   3.283   0.113  17.607 -0.4059  3.0628 -0.6766
  571MPD2     N 8475   3.627   0.315  17.441 -0.8868  0.6356  0.3580
  571MPD2    H5 8476   3.616   0.368  17.527  1.8553  3.4660 -1.0479
  571MPD2    N1 8477   3.454   4.639  17.228 -0.2638 -0.0594 -0.3299
  571MPD2    H7 8478   3.387   4.563  17.233  0.2252 -0.4915 -0.3445
  572TMC3    C1 8479   3.818   0.424  17.438 -0.5681  0.1331  0.2566
  572TMC3    C2 8480   3.943   0.400  17.479 -0.2488  0.0737  0.1502
  572TMC3    C3 8481   3.986   0.473  17.591  0.2647  0.8643  0.2856
  572TMC3    C4 8482   3.738   0.518  17.483  0.7506  0.1510 -0.7545
  572TMC3    C5 8483   3.796   0.608  17.575  0.1190 -0.4935 -0.8120
  572TMC3    C6 8484   3.918   0.584  17.632 -0.2730 -0.1623  0.5367
  572TMC3     C 8485   3.750   0.319  17.377 -0.9884 -0.3843 -0.9412
  572TMC3     O 8486   3.812   0.247  17.300  0.5423  0.4977  0.2400
  572TMC3     H 8487   3.988   0.304  17.457  0.1098 -0.4837  3.3156
  572TMC3    H1 8488   3.647   0.553  17.435  0.3802  0.0230 -0.1582
  572TMC3    H2 8489   3.952   0.621   0.028  1.9911 -0.5500 -0.1264
  572TMC3    C7 8490   3.765   0.750  17.540 -0.0846  0.1324 -0.5853
  572TMC3    C8 8491   4.085   0.406  17.673  0.3160 -0.5394  0.2165
  572TMC3    O1 8492   3.655   0.779  17.499 -0.1922 -1.0496  0.2433
  572TMC3    O2 8493   4.165   0.331  17.615  0.1349 -0.1548  0.5397
  573MPD2     C 8494   4.707   0.430   0.597 -0.2546 -0.6167  0.2433
  573MPD2    C1 8495   0.070   0.533   0.611 -0.1006  0.0132  0.2292
  573MPD2    C2 8496   0.112   0.601   0.493  0.1695  0.3031 -0.1743
  573MPD2    C3 8497   0.073   0.551   0.368 -0.1739  0.0842  0.4587
  573MPD2    C4 8498   4.699   0.459   0.360  0.7424 -0.2288  0.3808
  573MPD2    C5 8499   4.653   0.398   0.474 -0.2693  0.3642  0.5479
  573MPD2     H 8500   0.194   0.671   0.499  0.2029  0.1740  0.8255
  573MPD2    H1 8501   4.642   0.434   0.271  0.3142  2.3407 -0.0638
  573MPD2    H2 8502   4.674   0.371   0.681  0.7491 -0.2474  0.9067
  573MPD2    H3 8503   4.572   0.327   0.468 -0.6291  0.7156  1.2609
  573MPD2     N 8504   0.104   0.612   0.244  0.9702 -0.6389 -0.2516
  573MPD2    H5 8505   0.049   0.575   0.167 -2.0610  3.5859 -0.0836
  573MPD2    N1 8506   0.102   0.566   0.749 -0.0464  0.8998  0.8214
  573MPD2    H7 8507   0.049   0.514   0.819 -0.0317 -2.0608 -1.3522
  574TMC3    C1 8508   0.201   0.737   0.075  0.0322  0.1876  0.6868
  574TMC3    C2 8509   0.079   0.734   0.014 -0.2356  0.4735  0.7789
  574TMC3    C3 8510   0.082   0.773  17.586  0.2833 -0.4262  1.0730
  574TMC3    C4 8511   0.316   0.786   0.019 -0.1496  0.1838 -0.4145
  574TMC3    C5 8512   0.306   0.818  17.589 -0.5389 -0.2634 -0.9047
  574TMC3    C6 8513   0.191   0.821  17.521 -0.6694  1.3152  0.1512
  574TMC3     C 8514   0.201   0.705   0.214 -0.4505 -0.2430  1.0411
  574TMC3     O 8515   0.290   0.746   0.282 -0.4852 -0.0380  0.3442
  574TMC3     H 8516   4.711   0.712   0.065  0.1438  3.1501  2.6464
  574TMC3    H1 8517   0.412   0.783   0.068 -0.0162  1.8565 -0.5823
  574TMC3    H2 8518   0.196   0.845  17.415 -0.4007 -1.9680 -0.5618
  574TMC3    C7 8519   0.424   0.891  17.541  0.0298  0.7066 -0.2291
  574TMC3    C8 8520   4.676   0.783  17.529  0.2295 -0.4102 -0.7653
  574TMC3    O1 8521   0.528   0.873  17.601  0.2341  0.1538  0.2246
  574TMC3    O2 8522   4.585   0.733  17.585  0.1537  0.8460  0.6289
  575TMC3    C1 8523   2.753   1.258  10.294  0.5527  0.5301 -0.0725
  575TMC3    C2 8524   2.803   1.248  10.421  0.3575  0.8702  0.3501
  575TMC3    C3 8525   2.827   1.369  10.487 -0.0871  0.1802 -0.2428
  575TMC3    C4 8526   2.713   1.377  10.243  0.1293  0.4122 -0.3831
  575TMC3    C5 8527   2.715   1.488  10.314 -0.7123  0.2690 -0.0694
  575TMC3    C6 8528   2.785   1.490  10.433 -0.2318  0.5626 -0.6328
  575TMC3     C 8529   2.750   1.140  10.211  0.2389  0.0265 -0.0386
  575TMC3     O 8530   2.707   1.168  10.102  0.1487  0.1078 -0.0294
  575TMC3     H 8531   2.807   1.152  10.471  1.0402  0.8349  0.2381
  575TMC3    H1 8532   2.674   1.391  10.142  2.2097 -0.4941 -1.3165
  575TMC3    H2 8533   2.786   1.582  10.488  0.3265  0.3610 -0.3110
  575TMC3    C7 8534   2.667   1.612  10.254  0.1346 -0.0610  0.4817
  575TMC3    C8 8535   2.889   1.349  10.621 -0.0671  0.1407 -0.5119
  575TMC3    O1 8536   2.709   1.717  10.306 -0.5084  0.0561 -0.0612
  575TMC3    O2 8537   2.909   1.232  10.660 -0.3915  0.7496  0.2888
  576MPD2     C 8538   2.571   3.239  12.651 -0.3142 -0.3017 -0.1334
  576MPD2    C1 8539   2.516   3.285  12.538  0.7137  0.1533 -0.4561
  576MPD2    C2 8540   2.402   3.355  12.543 -0.1126 -0.3404  0.6784
  576MPD2    C3 8541   2.332   3.361  12.661 -0.1206 -0.4298 -0.7268
  576MPD2    C4 8542   2.386   3.318  12.778 -0.4191  0.8328  0.1986
  576MPD2    C5 8543   2.515   3.264  12.775 -0.7885  0.6693 -0.4198
  576MPD2     H 8544   2.359   3.389  12.449 -1.0821  0.4916  1.4189
  576MPD2    H1 8545   2.332   3.322  12.871 -0.5780  0.2879  0.1342
  576MPD2    H2 8546   2.670   3.196  12.655  0.2077  0.9643  0.7770
  576MPD2    H3 8547   2.558   3.231  12.869 -3.0645 -2.4591 -0.4419
  576MPD2     N 8548   2.210   3.433  12.664 -0.1476 -0.0598 -0.6543
  576MPD2    H5 8549   2.187   3.476  12.575 -1.0284 -1.9651 -1.3565
  576MPD2    N1 8550   2.580   3.278  12.409  0.8854 -0.1805 -0.2520
  576MPD2    H7 8551   2.537   3.329  12.332  1.5227 -0.6290 -0.9078
  577TMC3    C1 8552   2.720   3.171  12.246 -0.7042  0.3108 -0.7218
  577TMC3    C2 8553   2.783   3.056  12.213 -0.4258 -0.1838 -0.3334
  577TMC3    C3 8554   2.812   3.032  12.077  0.2682  0.5808 -0.8461
  577TMC3    C4 8555   2.694   3.266  12.149  0.5327 -0.4939  0.9561
  577TMC3    C5 8556   2.724   3.235  12.014  0.8655  0.3724 -0.2737
  577TMC3    C6 8557   2.773   3.117  11.975  0.1397 -0.3553 -0.5758
  577TMC3     C 8558   2.689   3.193  12.387  0.7663  0.4424 -0.2102
  577TMC3     O 8559   2.757   3.131  12.465 -0.3433 -0.9167 -0.1175
  577TMC3     H 8560   2.820   2.988  12.288 -1.8752 -0.9197 -0.2755
  577TMC3    H1 8561   2.662   3.366  12.176 -1.3752 -1.3036  1.7224
  577TMC3    H2 8562   2.818   3.101  11.878 -0.2993  0.6494 -0.9460
  577TMC3    C7 8563   2.749   3.343  11.920  0.2732  0.4619  0.1745
  577TMC3    C8 8564   2.899   2.912  12.059  0.8095  0.2426 -0.4019
  577TMC3    O1 8565   2.790   3.442  11.976  0.9469  0.4852 -0.6218
  577TMC3    O2 8566   2.898   2.822  12.145 -0.5457  0.1895 -0.0540
  578MPD2     C 8567   1.054   2.908   0.836 -0.0108 -0.0726  0.4197
  578MPD2    C1 8568   1.096   2.794   0.771 -0.0869 -0.2638  0.8848
  578MPD2    C2 8569   1.173   2.708   0.849 -0.2773  0.7879 -0.2571
  578MPD2    C3 8570   1.213   2.738   0.975 -0.5306  0.2367 -0.9471
  578MPD2    C4 8571   1.161   2.849   1.037 -0.2908  0.1526  0.0061
  578MPD2    C5 8572   1.083   2.935   0.963 -0.2011 -0.0183 -0.5593
  578MPD2     H 8573   1.210   2.616   0.806 -0.3009  0.4462  0.4463
  578MPD2    H1 8574   1.174   2.890   1.137 -0.0197  2.0355 -0.7947
  578MPD2    H2 8575   0.986   2.980   0.793  1.2843  1.5726  1.1213
  578MPD2    H3 8576   1.038   3.022   1.009 -0.6670 -1.6943  2.1476
  578MPD2     N 8577   1.313   2.657   1.023 -0.0073  0.2897  0.1494
  578MPD2    H5 8578   1.328   2.569   0.976 -1.3493 -0.3454  0.9104
  578MPD2    N1 8579   1.047   2.770   0.639  0.5213  0.1646 -0.7083
  578MPD2    H7 8580   0.971   2.830   0.607  0.1983  0.3855  0.4838
  579TMC3    C1 8581   1.496   2.591   1.152  0.1367 -0.3257  0.7481
  579TMC3    C2 8582   1.554   2.583   1.276 -0.5101 -0.3077 -0.4196
  579TMC3    C3 8583   1.652   2.487   1.297  0.1709 -0.3753 -0.5554
  579TMC3    C4 8584   1.535   2.503   1.055 -0.2815  0.1390  0.1435
  579TMC3    C5 8585   1.628   2.403   1.077  0.8102  0.0892 -0.3014
  579TMC3    C6 8586   1.693   2.396   1.202  0.2933  0.5511 -0.9287
  579TMC3     C 8587   1.377   2.666   1.142 -0.3355  0.0546  0.9253
  579TMC3     O 8588   1.348   2.729   1.244 -0.3405  0.6567 -0.0183
  579TMC3     H 8589   1.519   2.652   1.351 -1.4750 -0.4224 -0.7641
  579TMC3    H1 8590   1.493   2.509   0.955  0.8066 -1.6268 -0.4236
  579TMC3    H2 8591   1.774   2.325   1.214 -1.0572 -0.5530  1.5006
  579TMC3    C7 8592   1.625   2.284   0.996 -0.9091 -0.3481 -0.1548
  579TMC3    C8 8593   1.720   2.507   1.423  0.7229  0.2239  0.1279
  579TMC3    O1 8594   1.732   2.221   0.983 -0.2546 -0.0146 -0.0907
  579TMC3    O2 8595   1.673   2.587   1.503 -0.6126 -0.2367 -0.3725
  580TMC3    C1 8596   1.158   2.497  12.077  0.3429 -0.3295 -0.0924
  580TMC3    C2 8597   1.253   2.530  11.984 -0.5609 -0.4394  0.3730
  580TMC3    C3 8598   1.292   2.422  11.902  0.2135  0.3095 -0.5782
  580TMC3    C4 8599   1.126   2.367  12.108 -0.7481  0.1766 -0.0727
  580TMC3    C5 8600   1.170   2.271  12.025 -0.0058 -0.0003 -0.2350
  580TMC3    C6 8601   1.249   2.292  11.915 -0.1877  0.1619  0.2987
  580TMC3     C 8602   1.053   2.597  12.090  0.5134  0.5188 -0.6000
  580TMC3     O 8603   1.075   2.713  12.054 -0.7801  0.1851  0.3547
  580TMC3     H 8604   1.278   2.628  11.947 -0.0821 -0.4719  0.6183
  580TMC3    H1 8605   1.062   2.332  12.189  1.6810 -2.7552  0.5930
  580TMC3    H2 8606   1.282   2.212  11.850  1.9641 -0.2102  1.8262
  580TMC3    C7 8607   1.130   2.133  12.061 -0.1674 -0.3494  0.1791
  580TMC3    C8 8608   1.355   2.469  11.773 -0.5848  0.3012 -0.0227
  580TMC3    O1 8609   1.113   2.102  12.181 -0.0837 -0.2692 -0.6037
  580TMC3    O2 8610   1.442   2.553  11.784 -0.2257  0.5489 -0.2724
  581MPD2     C 8611   3.158   1.786  14.539 -0.2051  0.4118 -0.0679
  581MPD2    C1 8612   3.139   1.858  14.655  0.1531  0.1315 -0.0356
  581MPD2    C2 8613   3.015   1.906  14.690 -0.1912  0.6169  0.6151
  581MPD2    C3 8614   2.908   1.883  14.607  0.2539 -0.1270  0.3296
  581MPD2    C4 8615   2.925   1.800  14.493 -0.0537 -0.2228  0.2737
  581MPD2    C5 8616   3.049   1.748  14.458 -0.6751 -0.1737 -0.9264
  581MPD2     H 8617   3.003   1.958  14.785  0.1085  1.2720  0.2929
  581MPD2    H1 8618   2.841   1.767  14.434  0.7623  1.7266 -2.0222
  581MPD2    H2 8619   3.260   1.754  14.519 -0.2642 -0.1167  0.4664
  581MPD2    H3 8620   3.066   1.678  14.377 -0.4609 -0.2873 -0.7835
  581MPD2     N 8621   2.777   1.925  14.650  0.6481  0.7158  0.9845
  581MPD2    H5 8622   2.774   1.988  14.730  0.3631  1.6370  0.2456
  581MPD2    N1 8623   3.247   1.853  14.751  0.0044  0.5616  0.1935
  581MPD2    H7 8624   3.324   1.787  14.739  0.0147  0.4130  1.0810
  582TMC3    C1 8625   3.323   1.849  14.976  0.0929 -0.1133  0.5230
  582TMC3    C2 8626   3.325   1.913  15.095 -0.8779 -0.4889 -0.1859
  582TMC3    C3 8627   3.333   1.842  15.217 -0.1656 -0.2509  0.9444
  582TMC3    C4 8628   3.318   1.719  14.975 -0.2424  0.1687 -0.2741
  582TMC3    C5 8629   3.313   1.649  15.095  0.2308 -0.0620 -0.7318
  582TMC3    C6 8630   3.328   1.707  15.222 -0.1042  0.3062  0.0458
  582TMC3     C 8631   3.248   1.922  14.870  0.1748 -0.3307  0.2467
  582TMC3     O 8632   3.199   2.028  14.898  0.4340  0.5274  0.1459
  582TMC3     H 8633   3.338   2.021  15.093  1.8517 -0.7816  0.9379
  582TMC3    H1 8634   3.324   1.667  14.881 -1.3060 -1.1408  0.3948
  582TMC3    H2 8635   3.344   1.655  15.316  4.5894  1.2206 -0.2687
  582TMC3    C7 8636   3.305   1.507  15.087  0.9319  0.7614  0.3648
  582TMC3    C8 8637   3.329   1.924  15.344  0.0784  0.3284  0.3485
  582TMC3    O1 8638   3.375   1.436  15.015  0.2378 -0.4878 -0.7131
  582TMC3    O2 8639   3.297   1.870  15.447  0.2443 -0.3337  0.1029
  583MPD2     C 8640   3.041   3.273  16.201 -0.2896  0.7150 -0.2413
  583MPD2    C1 8641   3.066   3.399  16.156  0.2177 -0.5491  0.7078
  583MPD2    C2 8642   3.024   3.505  16.225 -0.5105 -0.2698 -0.3557
  583MPD2    C3 8643   2.958   3.487  16.343 -0.0703 -0.1959 -0.5727
  583MPD2    C4 8644   2.920   3.357  16.385  0.6775  0.3001 -0.1101
  583MPD2    C5 8645   2.952   3.252  16.305 -0.3797  0.2545  0.8083
  583MPD2     H 8646   3.053   3.600  16.182  1.9263 -0.3639  1.0554
  583MPD2    H1 8647   2.847   3.340  16.464  2.7868 -2.6660  1.1895
  583MPD2    H2 8648   3.078   3.180  16.161 -0.3618 -0.4885  2.4711
  583MPD2    H3 8649   2.936   3.149  16.333  4.1984  0.1269  2.9771
  583MPD2     N 8650   2.931   3.606  16.417 -0.7550  0.2519 -0.4227
  583MPD2    H5 8651   2.945   3.693  16.367 -1.1773 -0.1436 -1.2318
  583MPD2    N1 8652   3.151   3.417  16.046  0.0465  0.3690 -0.3293
  583MPD2    H7 8653   3.156   3.510  16.004 -2.3512 -0.1235 -1.6834
  584TMC3    C1 8654   2.908   3.737  16.620 -0.0452  0.2523 -0.4527
  584TMC3    C2 8655   2.937   3.854  16.552  0.1688  0.0439  0.3115
  584TMC3    C3 8656   2.960   3.966  16.633 -0.2302 -0.1532 -0.3187
  584TMC3    C4 8657   2.915   3.726  16.754  1.1704  0.7193 -0.0714
  584TMC3    C5 8658   2.943   3.831  16.832 -0.2623  0.2241 -0.7372
  584TMC3    C6 8659   2.968   3.955  16.772 -0.6388 -0.5996  0.1521
  584TMC3     C 8660   2.909   3.608  16.550  0.5571  0.3692  0.1154
  584TMC3     O 8661   2.895   3.518  16.627  0.1276  0.1885  0.4375
  584TMC3     H 8662   2.926   3.867  16.445 -1.9319 -0.0363  0.5195
  584TMC3    H1 8663   2.899   3.631  16.804  1.2478 -0.3028 -1.9707
  584TMC3    H2 8664   2.993   4.034  16.842 -0.5128  0.4836 -1.1068
  584TMC3    C7 8665   2.897   3.820  16.974 -0.0067 -0.4936  0.5184
  584TMC3    C8 8666   2.978   4.094  16.574 -0.1974  0.7784 -0.2911
  584TMC3    O1 8667   2.914   3.714  17.032 -0.9408 -0.1024 -0.1524
  584TMC3    O2 8668   2.976   4.091  16.449 -0.0964 -0.1006  0.2192
  585MPD2     C 8669   2.754   2.567   0.730  0.2135  0.4562  0.6122
  585MPD2    C1 8670   2.785   2.495   0.618 -0.1041  0.1537  0.6894
  585MPD2    C2 8671   2.697   2.502   0.512  0.1949 -0.2528  0.3531
  585MPD2    C3 8672   2.572   2.564   0.524 -0.6368 -0.9102  0.0328
  585MPD2    C4 8673   2.545   2.634   0.637  0.3118  0.0396  0.4191
  585MPD2    C5 8674   2.631   2.635   0.746 -0.0450  0.4433 -0.6566
  585MPD2     H 8675   2.722   2.445   0.423  0.7295  1.4183 -0.5652
  585MPD2    H1 8676   2.466   2.708   0.644  0.6494  0.5335 -1.1960
  585MPD2    H2 8677   2.832   2.577   0.805 -0.2310  0.8628  1.0207
  585MPD2    H3 8678   2.620   2.706   0.827  0.0982  0.4544 -0.6471
  585MPD2     N 8679   2.470   2.556   0.425  0.1635  0.5754 -0.1990
  585MPD2    H5 8680   2.377   2.594   0.439  0.3507  0.6840  0.7115
  585MPD2    N1 8681   2.906   2.422   0.615  0.2777  0.2521 -0.5565
  585MPD2    H7 8682   2.958   2.410   0.701  0.7261 -0.9617 -1.0003
  586TMC3    C1 8683   2.373   2.471   0.217 -1.0676 -0.1375 -0.3679
  586TMC3    C2 8684   2.391   2.410   0.095  0.4541  0.1868  0.1420
  586TMC3    C3 8685   2.302   2.309   0.059  0.3440  0.1366  0.3591
  586TMC3    C4 8686   2.253   2.453   0.281  0.3266  0.5095 -0.6725
  586TMC3    C5 8687   2.162   2.368   0.228 -0.3646  0.0339  0.6647
  586TMC3    C6 8688   2.192   2.284   0.130 -0.4552  0.0324 -0.3453
  586TMC3     C 8689   2.495   2.508   0.292 -0.3701 -0.5935  0.6367
  586TMC3     O 8690   2.603   2.480   0.240  0.7456  0.4435 -0.0758
  586TMC3     H 8691   2.487   2.420   0.048  0.2612  0.2053 -0.2487
  586TMC3    H1 8692   2.238   2.507   0.374 -1.2890  1.5685 -1.5465
  586TMC3    H2 8693   2.118   2.206   0.112 -0.5338  0.1622 -0.5871
  586TMC3    C7 8694   2.037   2.353   0.300 -0.5694  0.3840 -0.1086
  586TMC3    C8 8695   2.337   2.227  17.647  0.0173  0.0595  0.1403
  586TMC3    O1 8696   2.045   2.357   0.421 -0.0517 -0.3008  0.2989
  586TMC3    O2 8697   2.403   2.279  17.557  0.5055  0.6696  0.1404
  587TMC3    C1 8698   4.379   1.063  16.356  0.3132  0.3498 -0.2593
  587TMC3    C2 8699   4.401   1.199  16.359  0.3782  0.5371 -0.3027
  587TMC3    C3 8700   4.529   1.242  16.328  0.6042 -1.3575  0.0362
  587TMC3    C4 8701   4.477   0.973  16.317  0.5135  0.6253 -0.8101
  587TMC3    C5 8702   4.596   1.023  16.282 -0.6237 -0.1156  0.7216
  587TMC3    C6 8703   4.628   1.157  16.297 -0.3352 -1.3776  0.4094
  587TMC3     C 8704   4.247   1.000  16.379 -0.1907 -0.3595 -0.3960
  587TMC3     O 8705   4.240   0.883  16.349  0.5486  0.2038  0.0863
  587TMC3     H 8706   4.320   1.270  16.378 -0.5842  0.1892 -3.0997
  587TMC3    H1 8707   4.464   0.866  16.329 -1.2477  0.9210 -0.1553
  587TMC3    H2 8708   0.002   1.196  16.274 -0.5808 -1.5713 -0.9417
  587TMC3    C7 8709   4.710   0.931  16.267  0.2992  0.4393 -0.2989
  587TMC3    C8 8710   4.556   1.385  16.358  0.2000 -0.1320  0.5996
  587TMC3    O1 8711   0.092   0.982  16.285  0.0082  0.0864 -0.1925
  587TMC3    O2 8712   4.654   1.428  16.299  0.7861 -0.0425 -0.6240
  588TMC3    C1 8713   1.870   3.774   9.723  0.6074 -0.3334 -0.0619
  588TMC3    C2 8714   1.824   3.649   9.692  0.9846  1.2140  0.1823
  588TMC3    C3 8715   1.899   3.535   9.714  0.4345  0.4296 -0.2856
  588TMC3    C4 8716   1.992   3.786   9.775 -0.6294  0.1375 -0.1877
  588TMC3    C5 8717   2.071   3.677   9.796 -0.0997  0.5206  0.2413
  588TMC3    C6 8718   2.024   3.549   9.780  0.7286  0.3082 -0.1620
  588TMC3     C 8719   1.829   3.898   9.667  0.1303  0.2424  0.0666
  588TMC3     O 8720   1.743   3.881   9.581  0.1760  0.6773 -0.2421
  588TMC3     H 8721   1.729   3.629   9.643  0.2171  1.7575  1.4519
  588TMC3    H1 8722   2.036   3.876   9.818 -1.1300  0.2501  0.0926
  588TMC3    H2 8723   2.083   3.462   9.805  0.3453 -0.1214 -0.7503
  588TMC3    C7 8724   2.207   3.705   9.856  0.8402  0.4408 -0.1714
  588TMC3    C8 8725   1.831   3.404   9.727 -0.7649  0.2499 -0.3988
  588TMC3    O1 8726   2.253   3.621   9.932 -0.2762  0.6866 -0.5917
  588TMC3    O2 8727   1.756   3.382   9.632 -0.3568  0.0824  0.2330
  589TMC3    C1 8728   0.990   0.582   0.364  0.4494  0.0877 -0.3896
  589TMC3    C2 8729   1.117   0.533   0.400 -0.0727 -0.0328  0.1329
  589TMC3    C3 8730   1.129   0.414   0.460  0.8004 -0.5665 -0.9469
  589TMC3    C4 8731   0.877   0.517   0.404  0.4546 -0.4552 -1.4290
  589TMC3    C5 8732   0.886   0.388   0.463 -0.3124 -0.1050 -0.4176
  589TMC3    C6 8733   1.015   0.341   0.481 -0.1036  0.3051 -0.3214
  589TMC3     C 8734   0.968   0.725   0.343  0.1869 -0.8783  0.0052
  589TMC3     O 8735   0.849   0.757   0.320  0.5171  0.5263  0.0122
  589TMC3     H 8736   1.205   0.587   0.365 -1.1780  0.8685 -1.2403
  589TMC3    H1 8737   0.779   0.558   0.382  0.0139 -0.6069  0.2751
  589TMC3    H2 8738   1.029   0.237   0.508  0.7448 -0.4181 -3.5819
  589TMC3    C7 8739   0.779   0.298   0.467 -0.0380  1.0572  0.4239
  589TMC3    C8 8740   1.255   0.344   0.459 -0.4306  0.1120 -0.3951
  589TMC3    O1 8741   0.740   0.264   0.578 -0.4281  0.1104  0.0828
  589TMC3    O2 8742   1.256   0.221   0.469  0.2884  0.4488 -0.3745
  590MPD2     C 8743   0.818   0.343  16.635 -0.0252 -0.6010  0.4605
  590MPD2    C1 8744   0.770   0.292  16.515  0.3776  0.0686  0.4990
  590MPD2    C2 8745   0.827   0.354  16.402  1.1008 -0.4614  0.7346
  590MPD2    C3 8746   0.920   0.452  16.404 -0.1341  0.6116  0.1366
  590MPD2    C4 8747   0.980   0.497  16.522 -0.3718 -0.1131  0.1509
  590MPD2    C5 8748   0.923   0.431  16.632  0.0018  0.2881  1.0832
  590MPD2     H 8749   0.799   0.327  16.301  0.9246 -2.0243  1.2027
  590MPD2    H1 8750   1.057   0.572  16.536  0.5172 -0.8263 -0.9140
  590MPD2    H2 8751   0.793   0.302  16.732  0.3852  1.2070  1.3310
  590MPD2    H3 8752   0.962   0.455  16.731 -1.3701  1.1965  1.3939
  590MPD2     N 8753   0.946   0.501  16.269 -0.1034  0.2592 -0.0109
  590MPD2    H5 8754   0.891   0.469  16.189  0.5851  3.9916 -1.9924
  590MPD2    N1 8755   0.672   0.186  16.521 -0.6030 -0.4376  0.1106
  590MPD2    H7 8756   0.652   0.137  16.607 -0.6498 -0.8188 -0.1174
  591TMC3    C1 8757   1.045   0.617  16.099  0.0762 -0.3099  0.1461
  591TMC3    C2 8758   1.061   0.509  16.016  0.4290 -0.7090  0.8343
  591TMC3    C3 8759   1.109   0.534  15.891  0.5339 -0.9623 -0.0811
  591TMC3    C4 8760   1.076   0.742  16.049  0.0231  0.2491 -0.1645
  591TMC3    C5 8761   1.102   0.762  15.913 -0.3964  0.3025 -0.0690
  591TMC3    C6 8762   1.110   0.661  15.824  0.2082  0.2168  0.4490
  591TMC3     C 8763   1.031   0.599  16.246 -0.4944  0.0300 -0.3092
  591TMC3     O 8764   1.068   0.680  16.328 -0.0835  0.4782 -0.1745
  591TMC3     H 8765   1.056   0.410  16.061 -0.9334 -1.2514 -0.5557
  591TMC3    H1 8766   1.069   0.827  16.116 -1.1990  0.8044 -0.9895
  591TMC3    H2 8767   1.171   0.677  15.736 -1.0652  1.8480 -0.1296
  591TMC3    C7 8768   1.111   0.902  15.872  0.2828 -0.6039 -0.5130
  591TMC3    C8 8769   1.129   0.410  15.812 -0.4488  0.4611  0.5144
  591TMC3    O1 8770   1.051   0.986  15.939 -0.2844  0.6674 -0.1672
  591TMC3    O2 8771   1.148   0.307  15.865  0.1177  0.0851 -0.3373
  592MPD2     C 8772   1.445   1.646  11.290  0.2287 -0.0720  0.6878
  592MPD2    C1 8773   1.416   1.714  11.406  0.2789  0.1096  0.0012
  592MPD2    C2 8774   1.339   1.651  11.505  1.4882  0.0335  0.2004
  592MPD2    C3 8775   1.273   1.531  11.481  0.3737 -0.5506  0.0632
  592MPD2    C4 8776   1.301   1.464  11.360 -0.6070 -0.0456 -0.2212
  592MPD2    C5 8777   1.386   1.524  11.276  0.2225 -0.1222 -0.2841
  592MPD2     H 8778   1.310   1.698  11.598  0.8807  0.5789 -0.2679
  592MPD2    H1 8779   1.275   1.361  11.337 -0.3018  0.6850 -3.8428
  592MPD2    H2 8780   1.499   1.689  11.207  0.7310 -0.7862  0.6432
  592MPD2    H3 8781   1.409   1.470  11.185 -3.1652 -1.9325 -0.0587
  592MPD2     N 8782   1.188   1.487  11.582  0.5043 -0.0770 -0.7525
  592MPD2    H5 8783   1.190   1.528  11.675  3.0911 -0.8607 -0.4633
  592MPD2    N1 8784   1.472   1.839  11.426  0.7287 -0.1080 -0.4008
  592MPD2    H7 8785   1.542   1.870  11.359 -0.6209 -0.3595 -1.9254
  593TMC3    C1 8786   1.532   2.047  11.537  0.2874  0.4735  0.5127
  593TMC3    C2 8787   1.540   2.102  11.665  0.6548 -0.3428 -0.3953
  593TMC3    C3 8788   1.651   2.175  11.687  0.6639  0.4995  0.0550
  593TMC3    C4 8789   1.620   2.065  11.436 -0.5156  0.1725  0.1502
  593TMC3    C5 8790   1.724   2.156  11.456 -0.4737  0.1935 -0.0713
  593TMC3    C6 8791   1.741   2.214  11.585  0.1530 -0.7052  0.0749
  593TMC3     C 8792   1.435   1.934  11.522 -0.4117 -0.4770 -0.3855
  593TMC3     O 8793   1.331   1.930  11.587 -0.3256  0.1703  0.4321
  593TMC3     H 8794   1.470   2.072  11.742  0.0055 -0.4749 -1.0379
  593TMC3    H1 8795   1.599   2.037  11.333  1.1834  1.9548 -0.6871
  593TMC3    H2 8796   1.809   2.296  11.602  1.2087 -1.1474 -2.0231
  593TMC3    C7 8797   1.819   2.203  11.358  0.3128  0.1125  0.1549
  593TMC3    C8 8798   1.660   2.245  11.815  0.3121 -0.0289  0.3102
  593TMC3    O1 8799   1.904   2.280  11.398  0.1633  0.4250 -0.0587
  593TMC3    O2 8800   1.553   2.237  11.871  0.0251 -0.0190  0.0641
  594MPD2     C 8801   0.148   0.258  14.302  0.5600 -0.0570 -0.2674
  594MPD2    C1 8802   0.095   0.342  14.208 -0.4559  0.3789  0.8314
  594MPD2    C2 8803   0.162   0.451  14.159  0.2215  0.7820 -0.0560
  594MPD2    C3 8804   0.297   0.460  14.188 -0.4810 -0.5325 -0.4666
  594MPD2    C4 8805   0.353   0.359  14.269 -1.3876  0.4094  0.0177
  594MPD2    C5 8806   0.280   0.258  14.308  0.1184 -0.0184 -0.9949
  594MPD2     H 8807   0.110   0.532  14.108 -0.0909  0.2212 -0.6364
  594MPD2    H1 8808   0.459   0.357  14.292 -1.6559  0.3483  1.2579
  594MPD2    H2 8809   0.088   0.177  14.341  1.3427 -0.3400  0.3537
  594MPD2    H3 8810   0.321   0.196  14.387 -1.6992 -2.2864 -1.8295
  594MPD2     N 8811   0.353   0.580  14.166  0.3182 -0.3322  0.1384
  594MPD2    H5 8812   0.295   0.654  14.128  1.4692  0.2466 -0.4978
  594MPD2    N1 8813   4.681   0.320  14.183 -0.2406  0.5803 -0.8347
  594MPD2    H7 8814   4.630   0.257  14.244  1.3835 -0.7515 -0.8528
  595TMC3    C1 8815   0.663   0.883  14.057 -0.1310  0.6555 -0.2044
  595TMC3    C2 8816   0.623   0.764  14.099 -0.0868 -0.3103 -0.5758
  595TMC3    C3 8817   0.507   0.749  14.155  0.1491 -0.6611  0.1017
  595TMC3    C4 8818   0.583   0.994  14.075  0.4182  0.5599 -0.0381
  595TMC3    C5 8819   0.464   0.980  14.148  0.6802  0.4992  0.2803
  595TMC3    C6 8820   0.425   0.852  14.180 -0.1626 -0.3247 -0.5249
  595TMC3     C 8821   0.799   0.891  13.997 -0.0349  0.4972 -0.6817
  595TMC3     O 8822   0.863   0.990  14.023  0.2424 -0.3942 -0.4000
  595TMC3     H 8823   0.690   0.679  14.091  0.4729  0.1174 -0.3825
  595TMC3    H1 8824   0.623   1.089  14.041  0.6581 -0.7165 -3.2688
  595TMC3    H2 8825   0.336   0.832  14.239 -1.5837  2.3003 -1.7819
  595TMC3    C7 8826   0.374   1.089  14.182  0.0053  0.0666 -0.0790
  595TMC3    C8 8827   0.478   0.612  14.197  0.9184  0.4422  0.5384
  595TMC3    O1 8828   0.259   1.057  14.214 -0.1160 -0.1720  0.1138
  595TMC3    O2 8829   0.571   0.545  14.242 -0.1496 -0.1635  0.1457
  596MPD2     C 8830   4.009   3.601  16.247 -0.0744 -0.2446 -0.3321
  596MPD2    C1 8831   3.984   3.724  16.191  0.3697 -0.1436 -1.1799
  596MPD2    C2 8832   4.012   3.735  16.056 -0.6000  0.1064 -0.3782
  596MPD2    C3 8833   4.069   3.635  15.976 -0.4828  0.7346 -0.7263
  596MPD2    C4 8834   4.089   3.510  16.028  0.9049 -0.2746  0.1914
  596MPD2    C5 8835   4.060   3.503  16.162  0.1805 -0.5884  0.5987
  596MPD2     H 8836   3.971   3.826  16.013  1.5303  1.3312  0.1737
  596MPD2    H1 8837   4.148   3.433  15.980  2.0141  0.5883  0.1938
  596MPD2    H2 8838   3.992   3.580  16.352 -0.3596 -2.9431 -0.9422
  596MPD2    H3 8839   4.055   3.402  16.202  4.1581 -0.9440  0.2151
  596MPD2     N 8840   4.102   3.652  15.842  0.8562 -0.3211 -0.2309
  596MPD2    H5 8841   4.118   3.567  15.788  1.8870 -1.1334  1.3406
  596MPD2    N1 8842   3.933   3.831  16.270 -0.2541 -0.5519  0.4248
  596MPD2    H7 8843   3.929   3.924  16.229 -0.5763 -1.2318 -1.0739
  597TMC3    C1 8844   3.873   3.963  16.453 -0.5616 -0.1553  0.2959
  597TMC3    C2 8845   3.942   4.074  16.407 -0.4450 -0.0993 -0.0361
  597TMC3    C3 8846   3.899   4.191  16.461 -0.1610  0.2789  0.2292
  597TMC3    C4 8847   3.767   3.967  16.535 -0.0635 -0.1671 -0.1135
  597TMC3    C5 8848   3.721   4.085  16.585 -0.5259  0.4738 -0.1886
  597TMC3    C6 8849   3.787   4.192  16.543  0.0607  0.7030 -0.0743
  597TMC3     C 8850   3.895   3.830  16.402  0.3535  0.6807 -0.4698
  597TMC3     O 8851   3.877   3.737  16.476  0.0392 -0.8157  0.4591
  597TMC3     H 8852   4.033   4.076  16.348 -1.4858  1.5831 -1.5909
  597TMC3    H1 8853   3.707   3.878  16.550 -0.3586 -0.2739 -1.8102
  597TMC3    H2 8854   3.750   4.289  16.574 -0.7344  0.5080 -0.4211
  597TMC3    C7 8855   3.610   4.098  16.676  0.5226  0.7919 -0.5004
  597TMC3    C8 8856   3.957   4.321  16.427  0.0114  0.7002 -0.2433
  597TMC3    O1 8857   3.585   3.994  16.733  0.1484 -0.0255  0.4502
  597TMC3    O2 8858   3.958   4.406  16.513  0.5814 -0.0605 -0.8615
  598TMC3    C1 8859   2.529   0.237  15.090  0.0449  0.4255  0.0081
  598TMC3    C2 8860   2.434   0.145  15.101  0.6050  0.7465 -0.6036
  598TMC3    C3 8861   2.357   0.107  14.995  0.2481 -0.8188 -0.7804
  598TMC3    C4 8862   2.543   0.302  14.971 -0.1514  0.5150 -0.0661
  598TMC3    C5 8863   2.456   0.271  14.870 -0.4979  0.1157  0.2517
  598TMC3    C6 8864   2.366   0.164  14.875 -0.5744  0.0888 -0.7335
  598TMC3     C 8865   2.605   0.274  15.205 -0.0146 -0.2481 -0.9410
  598TMC3     O 8866   2.627   0.189  15.293  0.2587 -0.1645 -0.3359
  598TMC3     H 8867   2.435   0.086  15.192 -1.4758  0.2499 -0.9223
  598TMC3    H1 8868   2.632   0.360  14.948  0.1925 -0.2599 -0.6896
  598TMC3    H2 8869   2.293   0.161  14.796 -0.8065  0.8892 -0.5496
  598TMC3    C7 8870   2.468   0.343  14.751 -0.1391 -0.5279 -0.9001
  598TMC3    C8 8871   2.255   0.003  15.003  0.1925  0.2739  1.1323
  598TMC3    O1 8872   2.440   0.295  14.643  0.1758 -0.0838 -0.2266
  598TMC3    O2 8873   2.184   4.708  14.902 -0.4089 -0.3859  0.2048
  599MPD2     C 8874   2.201   2.402  15.367  0.1437 -0.6462  0.1113
  599MPD2    C1 8875   2.239   2.475  15.478 -0.0602  0.1030 -0.6063
  599MPD2    C2 8876   2.154   2.576  15.528  0.3817 -0.2208 -0.4475
  599MPD2    C3 8877   2.027   2.597  15.473 -0.4536  0.3632  0.1004
  599MPD2    C4 8878   1.991   2.512  15.374 -0.1668  0.5964 -0.4824
  599MPD2    C5 8879   2.076   2.419  15.313 -0.6292  0.0616  1.1571
  599MPD2     H 8880   2.196   2.638  15.605  0.6143  0.3715 -1.0545
  599MPD2    H1 8881   1.888   2.526  15.345 -0.3258 -0.4507 -0.4050
  599MPD2    H2 8882   2.271   2.331  15.323  0.8756 -1.1543  2.0807
  599MPD2    H3 8883   2.048   2.353  15.232 -2.2953 -0.9675  2.5794
  599MPD2     N 8884   1.934   2.683  15.534 -0.1835  0.3744  0.0159
  599MPD2    H5 8885   1.842   2.662  15.498 -0.3879 -3.5717  2.7870
  599MPD2    N1 8886   2.360   2.451  15.550 -0.1018  0.2725  0.4468
  599MPD2    H7 8887   2.375   2.502  15.637  1.2916 -2.4294  1.8046
  600TMC3    C1 8888   1.835   2.825  15.695  0.2148  0.1317  0.7634
  600TMC3    C2 8889   1.712   2.800  15.646  0.2759 -0.2314  0.3857
  600TMC3    C3 8890   1.606   2.875  15.689 -1.2509  0.8628  0.0681
  600TMC3    C4 8891   1.857   2.919  15.802 -0.1815 -0.1011  0.0864
  600TMC3    C5 8892   1.746   3.006  15.830 -0.0215 -0.6602 -0.3191
  600TMC3    C6 8893   1.624   2.970  15.778 -0.1192  0.1095  0.2673
  600TMC3     C 8894   1.959   2.764  15.643 -0.8360 -0.0138 -0.6867
  600TMC3     O 8895   2.062   2.793  15.700 -1.2765  0.1385 -0.1798
  600TMC3     H 8896   1.686   2.719  15.578 -0.6969  0.2079  0.2292
  600TMC3    H1 8897   1.957   2.946  15.836  0.0236 -0.8117  0.0460
  600TMC3    H2 8898   1.541   3.040  15.785  0.4166  0.3993  3.5321
  600TMC3    C7 8899   1.731   3.048  15.969 -0.3512 -0.7761 -0.1045
  600TMC3    C8 8900   1.494   2.796  15.718  0.4337 -0.1394 -0.1070
  600TMC3    O1 8901   1.623   3.018  16.027 -0.0428  0.4265 -0.4000
  600TMC3    O2 8902   1.462   2.704  15.644  0.4979  0.1672  0.2049
  601MPD2     C 8903   3.869   1.248  17.435 -0.8751 -0.9523  0.0629
  601MPD2    C1 8904   3.766   1.162  17.396  0.4281 -0.0309 -0.4523
  601MPD2    C2 8905   3.767   1.029  17.426  0.7168  0.5213 -0.8797
  601MPD2    C3 8906   3.873   0.974  17.495 -0.1556  0.2202  0.3540
  601MPD2    C4 8907   3.985   1.054  17.516 -0.3692  0.1002 -0.0725
  601MPD2    C5 8908   3.987   1.188  17.485 -0.4506  0.0104  0.1564
  601MPD2     H 8909   3.696   0.962  17.380 -0.1574 -0.8642  2.4852
  601MPD2    H1 8910   4.071   1.011  17.568  1.4209  1.8286 -1.5858
  601MPD2    H2 8911   3.860   1.356  17.431  1.6442 -0.7237  0.8225
  601MPD2    H3 8912   4.072   1.253  17.501 -2.0452  2.1695 -0.1718
  601MPD2     N 8913   3.877   0.837  17.537 -0.0955 -0.4858  0.2163
  601MPD2    H5 8914   3.967   0.813  17.578  0.3467  2.6969  1.1186
  601MPD2    N1 8915   3.650   1.219  17.339 -0.6087 -0.0462 -0.0275
  601MPD2    H7 8916   3.576   1.151  17.325 -0.3504 -0.1028 -1.1217
  602TMC3    C1 8917   3.490   1.360  17.241  0.0226  0.5787  0.7356
  602TMC3    C2 8918   3.424   1.478  17.254 -0.4978 -0.0751  0.2490
  602TMC3    C3 8919   3.293   1.492  17.205 -0.1913 -0.0566  0.3567
  602TMC3    C4 8920   3.424   1.261  17.179 -0.3542 -0.2454  0.7572
  602TMC3    C5 8921   3.300   1.279  17.126  0.4590 -0.1254  0.3011
  602TMC3    C6 8922   3.228   1.394  17.133 -0.1073  0.0947 -0.1637
  602TMC3     C 8923   3.621   1.350  17.310  0.3768  0.1269 -0.9450
  602TMC3     O 8924   3.683   1.455  17.323  0.4607  0.3405  0.3123
  602TMC3     H 8925   3.471   1.565  17.298  0.2055 -0.3220 -0.0246
  602TMC3    H1 8926   3.468   1.164  17.158  1.1195  0.7233 -0.6659
  602TMC3    H2 8927   3.148   1.426  17.066  0.6624  1.0496 -0.6348
  602TMC3    C7 8928   3.264   1.198  17.008 -0.3656  0.5989  0.3814
  602TMC3    C8 8929   3.229   1.620  17.220 -0.1515 -1.0379  0.3080
  602TMC3    O1 8930   3.354   1.148  16.941 -0.1696 -0.3881  0.1615
  602TMC3    O2 8931   3.297   1.712  17.262 -0.1664 -0.2861  0.0890
  603TMC3    C1 8932   2.547   1.124  10.672 -0.8263  0.3951  0.9441
  603TMC3    C2 8933   2.635   1.100  10.780 -0.0942 -0.0569 -0.0341
  603TMC3    C3 8934   2.664   1.198  10.869 -0.3347 -0.4919  0.0523
  603TMC3    C4 8935   2.508   1.249  10.641 -0.7071  0.2648  0.2415
  603TMC3    C5 8936   2.551   1.348  10.724  0.0429  0.2360  0.3274
  603TMC3    C6 8937   2.628   1.330  10.841 -0.4654  0.0143 -0.2978
  603TMC3     C 8938   2.558   1.040  10.552 -0.3995 -0.1056 -0.2020
  603TMC3     O 8939   2.513   1.077  10.447 -0.3178 -0.1500  0.5853
  603TMC3     H 8940   2.679   1.002  10.793  0.3952  0.2382  0.5184
  603TMC3    H1 8941   2.446   1.268  10.554 -0.1502 -0.3093 -0.2806
  603TMC3    H2 8942   2.635   1.413  10.910  4.9915 -0.3348 -0.4019
  603TMC3    C7 8943   2.526   1.486  10.675  0.2635 -0.4158 -0.4562
  603TMC3    C8 8944   2.657   1.154  11.009  0.5794  0.0360 -0.9956
  603TMC3    O1 8945   2.601   1.570  10.716  0.6043  0.5596  0.0398
  603TMC3    O2 8946   2.595   1.051  11.023  0.1058 -0.0644  0.2092
  604MPD2     C 8947   2.790   0.144  16.369  0.5474  0.1589 -0.1148
  604MPD2    C1 8948   2.673   0.089  16.316  0.4095 -0.0093 -0.4976
  604MPD2    C2 8949   2.685   0.019  16.195 -0.2230  0.3753 -0.5438
  604MPD2    C3 8950   2.813   4.723  16.137  0.0196 -0.6396  0.3680
  604MPD2    C4 8951   2.919   0.066  16.190 -0.0494 -1.0476  0.6804
  604MPD2    C5 8952   2.911   0.129  16.315  1.0434  0.1457  0.1934
  604MPD2     H 8953   2.599   4.695  16.149  0.5766 -0.0607 -1.5714
  604MPD2    H1 8954   3.018   0.061  16.145  1.6167  2.8727  3.8735
  604MPD2    H2 8955   2.799   0.217  16.449  0.4370  0.2254 -0.1636
  604MPD2    H3 8956   2.992   0.173  16.372  0.0347  0.3643  1.4372
  604MPD2     N 8957   2.823   4.648  16.019 -0.1224 -0.0639 -0.1376
  604MPD2    H5 8958   2.741   4.648  15.959 -1.0470 -0.2883  1.1310
  604MPD2    N1 8959   2.551   0.113  16.381 -0.6613  0.6594  0.2159
  604MPD2    H7 8960   2.557   0.168  16.466 -1.8273  0.8684  0.1647
  605TMC3    C1 8961   2.311   0.127  16.389 -0.1624 -0.4935  0.0696
  605TMC3    C2 8962   2.329   0.245  16.454 -0.2390  0.3168  0.4978
  605TMC3    C3 8963   2.250   0.348  16.423  0.5041  0.3742 -0.1660
  605TMC3    C4 8964   2.203   0.113  16.302  0.8163 -0.1297  0.5164
  605TMC3    C5 8965   2.123   0.218  16.271  0.1218  0.0778  0.0293
  605TMC3    C6 8966   2.143   0.336  16.334 -0.0447  0.1806  0.6641
  605TMC3     C 8967   2.430   0.054  16.347 -0.0183 -0.4578  0.0123
  605TMC3     O 8968   2.402   4.691  16.268  0.0332  0.3360  0.2323
  605TMC3     H 8969   2.415   0.247  16.520  1.1741  0.4098 -1.3638
  605TMC3    H1 8970   2.194   0.028  16.236 -0.0720 -1.3695  2.2091
  605TMC3    H2 8971   2.083   0.420  16.302  1.7330  1.0134 -0.4438
  605TMC3    C7 8972   2.024   0.213  16.173  0.1890 -0.0088 -0.0822
  605TMC3    C8 8973   2.315   0.473  16.405  0.1799 -0.0217  0.4277
  605TMC3    O1 8974   1.930   0.290  16.198  0.0422  0.1201  0.1401
  605TMC3    O2 8975   2.248   0.554  16.342  0.2388 -0.4016  0.9618
  606TMC3    C1 8976   4.079   2.996  17.122 -0.3643 -0.4384 -0.5638
  606TMC3    C2 8977   4.134   3.038  17.242  0.0016 -0.2907 -0.5766
  606TMC3    C3 8978   4.095   2.979  17.359  0.1820 -0.8664 -0.2669
  606TMC3    C4 8979   3.997   2.890  17.117  0.1013  0.7891 -0.0486
  606TMC3    C5 8980   3.975   2.827  17.234 -0.1432 -0.3397 -0.5925
  606TMC3    C6 8981   4.017   2.867  17.357 -0.0046  0.2064 -0.1927
  606TMC3     C 8982   4.137   3.032  16.994 -0.1112  0.3332  1.0329
  606TMC3     O 8983   4.256   3.060  16.994 -0.1461  0.3473  0.3968
  606TMC3     H 8984   4.209   3.116  17.244  0.3912 -0.6845  0.3275
  606TMC3    H1 8985   3.970   2.834  17.028  1.6513  1.1938 -0.7735
  606TMC3    H2 8986   3.963   2.840  17.447 -0.1689 -1.1964 -0.7138
  606TMC3    C7 8987   3.868   2.731  17.227 -0.3003 -1.1498  0.1663
  606TMC3    C8 8988   4.144   3.041  17.479  0.5799  0.0237 -0.6164
  606TMC3    O1 8989   3.774   2.751  17.148  0.0871 -0.2369  0.2534
  606TMC3    O2 8990   4.214   3.142  17.461  0.0990  0.6334  0.1326
  607MPD2     C 8991   1.471   1.297  11.658  0.4098  0.3742 -0.6672
  607MPD2    C1 8992   1.520   1.380  11.762  0.7659 -0.1638  0.2338
  607MPD2    C2 8993   1.512   1.334  11.894  0.3771  0.4025 -0.0884
  607MPD2    C3 8994   1.455   1.208  11.914  0.0569 -0.4721  0.3161
  607MPD2    C4 8995   1.410   1.132  11.816 -0.0650  0.4073  0.4990
  607MPD2    C5 8996   1.408   1.175  11.690 -0.0346  0.5169 -0.0919
  607MPD2     H 8997   1.561   1.399  11.965  1.4322 -0.1210 -0.3311
  607MPD2    H1 8998   1.363   1.035  11.830  0.2093  0.6005  2.8340
  607MPD2    H2 8999   1.472   1.329  11.554  0.7170 -1.4773 -1.2277
  607MPD2    H3 9000   1.372   1.119  11.604 -0.7343  1.1360 -0.1984
  607MPD2     N 9001   1.466   1.160  12.050  0.6672 -0.5192  0.1245
  607MPD2    H5 9002   1.511   1.225  12.114  0.0349 -0.7201  0.7684
  607MPD2    N1 9003   1.570   1.510  11.741  0.0684  0.4032 -0.1858
  607MPD2    H7 9004   1.584   1.574  11.818  1.6597  1.4577 -1.3573
  608TMC3    C1 9005   1.685   1.698  11.645  0.3927 -0.3800 -0.1744
  608TMC3    C2 9006   1.678   1.762  11.763  0.3812 -0.5765  0.8752
  608TMC3    C3 9007   1.771   1.855  11.797  0.5634  0.8058  0.4859
  608TMC3    C4 9008   1.782   1.724  11.556 -0.5358 -0.2732 -0.1744
  608TMC3    C5 9009   1.874   1.819  11.584 -0.6430 -0.3722 -0.2671
  608TMC3    C6 9010   1.877   1.879  11.707 -0.9886 -0.0073  0.2466
  608TMC3     C 9011   1.617   1.560  11.622 -0.2784  0.4343  0.3483
  608TMC3     O 9012   1.650   1.499  11.521  0.2850  0.1163  0.0765
  608TMC3     H 9013   1.602   1.733  11.834  0.2707  0.6195  1.2530
  608TMC3    H1 9014   1.802   1.670  11.464 -0.9517 -0.0060 -0.4209
  608TMC3    H2 9015   1.961   1.943  11.733  0.0556  0.2716 -3.6754
  608TMC3    C7 9016   1.971   1.853  11.480 -0.0246 -0.1263  0.0550
  608TMC3    C8 9017   1.840   1.827  11.927  0.7603 -0.6041 -0.3403
  608TMC3    O1 9018   1.947   1.814  11.364  0.4367  0.2845  0.5110
  608TMC3    O2 9019   1.943   1.893  11.942  0.6594  0.1859  0.4243
  609TMC3    C1 9020   0.265   4.673   9.580 -0.4008  0.1265  0.4493
  609TMC3    C2 9021   0.166   4.587   9.603  0.5921 -0.1718  0.0887
  609TMC3    C3 9022   0.113   4.523   9.494 -0.4221  0.5696 -0.5040
  609TMC3    C4 9023   0.321   4.679   9.453  0.2166  0.4274  0.4977
  609TMC3    C5 9024   0.267   4.613   9.348  0.1635  0.2286  0.1276
  609TMC3    C6 9025   0.165   4.529   9.364 -0.5915 -0.4790  0.5454
  609TMC3     C 9026   0.276   0.062   9.668 -0.3306  0.0673  0.0184
  609TMC3     O 9027   0.177   0.101   9.726 -0.1042 -0.1284  0.3758
  609TMC3     H 9028   0.121   4.581   9.701  1.3205  0.8086  0.4807
  609TMC3    H1 9029   0.397   0.029   9.432 -0.5829  1.3017  0.7111
  609TMC3    H2 9030   0.123   4.474   9.282 -3.6546 -0.1794  1.9277
  609TMC3    C7 9031   0.330   4.608   9.219  0.0993 -0.2620  0.3562
  609TMC3    C8 9032   0.016   4.413   9.508 -0.0057 -1.0662 -0.5201
  609TMC3    O1 9033   0.280   4.544   9.128  0.2227 -0.3654 -0.2702
  609TMC3    O2 9034   4.720   4.334   9.419  0.0009 -0.1262 -0.1241
  610TMC3    C1 9035   2.170   1.285  12.657 -0.0591 -0.7244 -0.1618
  610TMC3    C2 9036   2.206   1.377  12.563  0.2252  0.4676 -0.1685
  610TMC3    C3 9037   2.337   1.401  12.549 -0.0365 -0.0249 -0.0559
  610TMC3    C4 9038   2.260   1.202  12.727  0.0962  0.1986 -0.2166
  610TMC3    C5 9039   2.389   1.233  12.701  0.2949  0.0245 -0.1763
  610TMC3    C6 9040   2.431   1.326  12.601  0.4843 -0.0085 -0.4315
  610TMC3     C 9041   2.034   1.241  12.652 -0.3721 -0.5496  0.3806
  610TMC3     O 9042   1.953   1.318  12.597  0.3384 -0.2532  0.1199
  610TMC3     H 9043   2.129   1.441  12.522  0.1173 -0.8270 -1.9735
  610TMC3    H1 9044   2.230   1.144  12.814  2.5010 -0.9203 -0.1249
  610TMC3    H2 9045   2.532   1.352  12.570  0.7977  0.5683  1.0425
  610TMC3    C7 9046   2.497   1.153  12.765  0.2209  0.5817  0.2010
  610TMC3    C8 9047   2.381   1.491  12.444  0.5910 -0.2090  0.7230
  610TMC3    O1 9048   2.455   1.075  12.850  0.3752 -0.2174 -0.2926
  610TMC3    O2 9049   2.350   1.608  12.465  0.2987 -0.1667 -0.5941
  611MPD2     C 9050   1.507   1.081  10.315  0.4049  0.1914 -0.4849
  611MPD2    C1 9051   1.435   1.179  10.252 -0.7063  0.1556  0.5561
  611MPD2    C2 9052   1.495   1.293  10.207  1.2854  0.0667 -0.8794
  611MPD2    C3 9053   1.627   1.334  10.243  0.0902 -0.1569 -0.7299
  611MPD2    C4 9054   1.695   1.244  10.312 -0.1028  0.1660 -0.2865
  611MPD2    C5 9055   1.632   1.124  10.341 -0.1539  0.3856 -0.1218
  611MPD2     H 9056   1.442   1.359  10.140 -0.7717 -1.2956 -0.5745
  611MPD2    H1 9057   1.797   1.266  10.340  0.1715 -2.6387  0.8447
  611MPD2    H2 9058   1.469   0.992  10.364  1.4944 -1.4168 -2.5660
  611MPD2    H3 9059   1.682   1.053  10.406 -0.9870  0.5066  0.6554
  611MPD2     N 9060   1.685   1.468  10.222  0.0296 -0.8007  0.3187
  611MPD2    H5 9061   1.774   1.496  10.262  0.8530  1.4068 -3.1065
  611MPD2    N1 9062   1.296   1.157  10.231  0.4854 -0.3957 -0.6658
  611MPD2    H7 9063   1.261   1.080  10.286  1.9019 -0.8145 -0.3665
  612TMC3    C1 9064   1.710   1.677  10.130 -0.1517  0.2458  0.3498
  612TMC3    C2 9065   1.835   1.681  10.178 -0.2880  0.3750 -0.4248
  612TMC3    C3 9066   1.887   1.802  10.221  0.4767 -0.3369 -0.5050
  612TMC3    C4 9067   1.641   1.794  10.106  0.4946 -0.2450  0.2548
  612TMC3    C5 9068   1.696   1.915  10.140  0.1817 -0.9940 -0.6567
  612TMC3    C6 9069   1.817   1.917  10.199  0.1614 -0.2081 -0.8561
  612TMC3     C 9070   1.634   1.556  10.135  0.3794  0.4526 -0.0631
  612TMC3     O 9071   1.523   1.553  10.071 -0.3497 -0.3704 -0.0868
  612TMC3     H 9072   1.897   1.592  10.176  1.1336  1.3490 -0.3327
  612TMC3    H1 9073   1.547   1.783  10.054  0.5470 -0.0982  0.1303
  612TMC3    H2 9074   1.865   2.012  10.221  1.4713 -0.8428 -0.9822
  612TMC3    C7 9075   1.649   2.030  10.068  0.2261  0.4664 -0.2042
  612TMC3    C8 9076   2.028   1.819  10.264  0.0131  0.1673  0.2958
  612TMC3    O1 9077   1.540   2.013  10.018  0.0612  0.5497 -0.3679
  612TMC3    O2 9078   2.067   1.930  10.265 -0.0271 -0.0063  0.2702
  613MPD2     C 9079   0.097   3.564  16.302  0.4913  0.0624  0.0237
  613MPD2    C1 9080   0.068   3.582  16.165  0.5264 -0.3061  0.6648
  613MPD2    C2 9081   0.010   3.479  16.093  0.2742  0.0140  0.0806
  613MPD2    C3 9082   4.721   3.354  16.156 -0.4398  0.3163  0.1258
  613MPD2    C4 9083   0.038   3.335  16.280 -0.1925  0.3479 -0.0333
  613MPD2    C5 9084   0.084   3.441  16.356 -0.1270 -0.5821  0.1323
  613MPD2     H 9085   4.707   3.492  15.989 -0.8718  0.2279  0.4028
  613MPD2    H1 9086   0.035   3.241  16.334 -0.1869  1.3264  1.6766
  613MPD2    H2 9087   0.148   3.642  16.358 -2.8894  1.5804  0.9826
  613MPD2    H3 9088   0.125   3.425  16.455 -1.2760 -1.7436  0.4257
  613MPD2     N 9089   4.676   3.240  16.087 -0.2247  0.1051 -0.7329
  613MPD2    H5 9090   4.680   3.155  16.142  2.5080  0.7838  0.1205
  613MPD2    N1 9091   0.110   3.708  16.106 -0.0086  0.2633 -0.8803
  613MPD2    H7 9092   0.178   3.769  16.152 -1.6212  0.7061  0.9151
  614TMC3    C1 9093   0.162   3.827  15.916  0.3647 -0.5029  0.1122
  614TMC3    C2 9094   0.272   3.749  15.917  0.4350 -0.6615 -0.7034
  614TMC3    C3 9095   0.326   3.705  15.803  0.3643  0.8381  0.0701
  614TMC3    C4 9096   0.105   3.878  15.805 -0.1476  0.3080  0.7988
  614TMC3    C5 9097   0.170   3.849  15.688  0.5642 -0.0526  0.2001
  614TMC3    C6 9098   0.278   3.764  15.690  0.1285 -0.0759  0.1333
  614TMC3     C 9099   0.062   3.751  15.987 -0.4176  1.0729 -0.1122
  614TMC3     O 9100   4.694   3.715  15.911  0.4837 -0.3519  0.4405
  614TMC3     H 9101   0.315   3.711  16.009 -1.2638 -2.5118 -0.6575
  614TMC3    H1 9102   0.013   3.936  15.805 -0.3085  0.0497  1.9611
  614TMC3    H2 9103   0.348   3.759  15.607 -1.6715 -3.1444 -1.2024
  614TMC3    C7 9104   0.130   3.911  15.558 -0.1557 -0.4749  0.0975
  614TMC3    C8 9105   0.374   3.571  15.802  0.3185 -0.2033  0.2766
  614TMC3    O1 9106   0.070   4.012  15.568 -0.4384 -0.2492 -0.3776
  614TMC3    O2 9107   0.337   3.518  15.906  0.4438 -0.2140 -0.7908
  615MPD2     C 9108   4.525   0.182  16.098  0.8385 -0.8062 -0.0556
  615MPD2    C1 9109   4.416   0.263  16.121 -0.5374  0.1195  0.5118
  615MPD2    C2 9110   4.326   0.284  16.017  0.1301 -0.1352 -0.0511
  615MPD2    C3 9111   4.339   0.225  15.899  0.0277  0.6240  0.0759
  615MPD2    C4 9112   4.455   0.150  15.870 -0.3579  0.1728  0.0948
  615MPD2    C5 9113   4.543   0.129  15.976 -0.1669  0.4499 -0.0843
  615MPD2     H 9114   4.254   0.364  16.025 -1.0037 -0.9656 -2.0519
  615MPD2    H1 9115   4.472   0.097  15.777  1.2974  2.3982 -0.8820
  615MPD2    H2 9116   4.586   0.151  16.182  0.3052 -1.0774  0.2311
  615MPD2    H3 9117   4.630   0.065  15.965 -2.3504 -2.7658  1.4167
  615MPD2     N 9118   4.241   0.237  15.800 -0.1902  0.5232 -0.7285
  615MPD2    H5 9119   4.266   0.220  15.703  1.1639  0.7184 -0.4068
  615MPD2    N1 9120   4.400   0.349  16.235  0.2397 -0.6265 -0.2898
  615MPD2    H7 9121   4.316   0.406  16.234  0.3899 -0.3598  2.5669
  616TMC3    C1 9122   4.450   0.458  16.426  0.3038  0.0820 -0.5483
  616TMC3    C2 9123   4.551   0.531  16.484 -0.1362 -0.8995  0.6488
  616TMC3    C3 9124   4.518   0.620  16.580 -0.0491  0.6328  0.5514
  616TMC3    C4 9125   4.318   0.493  16.439  0.3967 -1.5930  1.0072
  616TMC3    C5 9126   4.285   0.588  16.528 -0.6006 -0.0297  0.2574
  616TMC3    C6 9127   4.384   0.649  16.602 -0.3452 -0.2245 -0.0208
  616TMC3     C 9128   4.484   0.344  16.343 -0.5335 -0.4741 -0.6723
  616TMC3     O 9129   4.600   0.305  16.363  0.0864  0.4847 -0.2312
  616TMC3     H 9130   4.653   0.500  16.466  0.5079  0.2812  2.2941
  616TMC3    H1 9131   4.237   0.432  16.399 -1.7633  1.9944 -0.0582
  616TMC3    H2 9132   4.359   0.734  16.664 -1.2088  1.6054 -2.9096
  616TMC3    C7 9133   4.146   0.600  16.568  0.3943 -0.5720  0.7018
  616TMC3    C8 9134   4.609   0.737  16.599  0.1432 -0.3962 -0.0866
  616TMC3    O1 9135   4.133   0.620  16.689 -0.4955 -0.1800  0.0908
  616TMC3    O2 9136   4.565   0.827  16.672  0.0461  0.3670  0.6441
  617MPD2     C 9137   2.536   3.247  13.748  0.1752  0.0677 -0.1498
  617MPD2    C1 9138   2.571   3.170  13.848 -0.3866 -0.4423 -0.6053
  617MPD2    C2 9139   2.470   3.108  13.923 -0.8349  0.4112 -0.1273
  617MPD2    C3 9140   2.339   3.127  13.890 -0.2566 -0.6927  0.0130
  617MPD2    C4 9141   2.313   3.224  13.796 -0.3566  1.0071 -0.2437
  617MPD2    C5 9142   2.411   3.285  13.724  0.0384 -0.0540  0.5791
  617MPD2     H 9143   2.494   3.041  14.004  1.5582 -0.4648 -1.5698
  617MPD2    H1 9144   2.215   3.263  13.768 -0.0916  1.2530 -0.8227
  617MPD2    H2 9145   2.608   3.303  13.689  0.7329 -2.8255 -2.2395
  617MPD2    H3 9146   2.386   3.363  13.654  0.9852 -0.0029  0.2972
  617MPD2     N 9147   2.222   3.071  13.957 -0.3741 -0.2998 -0.2728
  617MPD2    H5 9148   2.132   3.115  13.938 -0.2191 -0.0595 -0.4637
  617MPD2    N1 9149   2.711   3.145  13.859  0.9346 -0.2303 -0.1480
  617MPD2    H7 9150   2.773   3.185  13.789  2.8547  0.9189  2.2168
  618TMC3    C1 9151   2.901   3.011  13.901  0.3552  0.2829 -0.6320
  618TMC3    C2 9152   2.932   2.946  13.782  0.1126 -0.3302  0.6002
  618TMC3    C3 9153   3.064   2.900  13.773 -0.6410 -0.3774  0.3212
  618TMC3    C4 9154   2.987   3.034  14.004  0.2234 -0.0702  0.0107
  618TMC3    C5 9155   3.116   2.999  13.981 -0.3834  0.1645 -0.2916
  618TMC3    C6 9156   3.157   2.920  13.872  0.0485 -0.0634  0.3218
  618TMC3     C 9157   2.767   3.053  13.937 -0.0316  0.4008  0.0775
  618TMC3     O 9158   2.709   2.987  14.022 -0.2063  0.1738 -0.0793
  618TMC3     H 9159   2.854   2.925  13.709 -0.0919 -1.6301  1.2041
  618TMC3    H1 9160   2.977   3.117  14.074 -0.5301 -1.0723  1.0743
  618TMC3    H2 9161   3.263   2.896  13.873  0.3377  1.0891 -1.4270
  618TMC3    C7 9162   3.215   3.068  14.049 -0.0404  0.4132 -1.1602
  618TMC3    C8 9163   3.107   2.883  13.641  0.3318  0.4728 -0.5798
  618TMC3    O1 9164   3.231   3.045  14.169  0.2996  0.4979 -0.2651
  618TMC3    O2 9165   3.023   2.895  13.551  1.0071  0.2013 -0.3690
  619MPD2     C 9166   3.815   4.551  13.784  0.1267 -0.2469 -0.7750
  619MPD2    C1 9167   3.792   4.473  13.678 -0.6702  0.2130  0.1147
  619MPD2    C2 9168   3.666   4.437  13.643  0.4187  1.1945  0.2430
  619MPD2    C3 9169   3.561   4.484  13.715  0.1639 -0.9069  0.1655
  619MPD2    C4 9170   3.577   4.566  13.822 -0.4135  0.1761 -0.1104
  619MPD2    C5 9171   3.706   4.608  13.852 -0.4280 -0.1972  0.2279
  619MPD2     H 9172   3.642   4.370  13.561 -0.3921  0.1720  1.3225
  619MPD2    H1 9173   3.492   4.608  13.874 -0.3437  1.5636 -1.1315
  619MPD2    H2 9174   3.909   4.593  13.819 -0.6700  2.0238 -1.3719
  619MPD2    H3 9175   3.734   4.681  13.927 -0.1182  2.3888 -2.3796
  619MPD2     N 9176   3.427   4.446  13.689  0.1419 -0.0990  0.2812
  619MPD2    H5 9177   3.348   4.501  13.719  1.5734  1.6650  0.8277
  619MPD2    N1 9178   3.892   4.436  13.588  0.3209  0.5301 -0.0526
  619MPD2    H7 9179   3.857   4.384  13.509 -1.7371  1.2208  0.3903
  620TMC3    C1 9180   4.092   4.435  13.469  0.3652 -1.0518 -0.1603
  620TMC3    C2 9181   4.014   4.382  13.369  0.2791 -0.0487 -0.5513
  620TMC3    C3 9182   4.020   4.435  13.240 -0.4121  0.4483  0.2358
  620TMC3    C4 9183   4.182   4.540  13.445  0.5228 -0.0384 -0.2507
  620TMC3    C5 9184   4.195   4.574  13.312  0.5210  0.7223  0.5454
  620TMC3    C6 9185   4.127   4.517  13.212 -0.4119 -0.3742  0.4370
  620TMC3     C 9186   4.028   4.457  13.598 -0.2779  0.8863  0.5589
  620TMC3     O 9187   4.088   4.510  13.688 -0.0195  0.1013  0.1412
  620TMC3     H 9188   3.939   4.309  13.396  0.8716  0.5594  2.7426
  620TMC3    H1 9189   4.239   4.587  13.524 -0.7847  0.7298  0.2488
  620TMC3    H2 9190   4.129   4.558  13.111 -0.5189 -1.6717 -0.0862
  620TMC3    C7 9191   4.253   4.703  13.279 -0.0489  0.1948 -0.0144
  620TMC3    C8 9192   3.892   4.492  13.194  1.2196 -0.9799  0.3332
  620TMC3    O1 9193   4.274   0.007  13.161  0.2900  0.0770 -0.4338
  620TMC3    O2 9194   3.900   4.603  13.139  0.2261  0.0629 -0.4789
  621MPD2     C 9195   0.521   4.379   9.512  0.6639  0.6465 -0.0932
  621MPD2    C1 9196   0.441   4.380   9.621 -0.2925  0.8747  0.2191
  621MPD2    C2 9197   0.467   4.463   9.725 -1.4257 -0.4204 -0.3160
  621MPD2    C3 9198   0.562   4.558   9.721  0.0705 -0.2196  0.4179
  621MPD2    C4 9199   0.637   4.568   9.610  0.2321  0.4883 -0.0151
  621MPD2    C5 9200   0.617   4.480   9.503  0.5870  0.0681 -0.0279
  621MPD2     H 9201   0.405   4.456   9.813 -1.1822  2.6530  0.1111
  621MPD2    H1 9202   0.714   4.644   9.601 -1.5869  2.1987 -1.3416
  621MPD2    H2 9203   0.507   4.333   9.415 -0.5452 -0.0398  0.3985
  621MPD2    H3 9204   0.679   4.493   9.414 -0.7359 -0.1519 -0.9724
  621MPD2     N 9205   0.590   4.631   9.839  0.6626 -0.7299 -0.9834
  621MPD2    H5 9206   0.531   4.621   9.921  2.5274 -0.1361  0.4335
  621MPD2    N1 9207   0.327   4.293   9.645 -0.1875 -0.0362  0.1569
  621MPD2    H7 9208   0.287   4.295   9.738  0.3010  0.4358  0.3536
  622TMC3    C1 9209   0.179   4.114   9.592 -0.0931 -0.5901 -0.2972
  622TMC3    C2 9210   0.130   4.103   9.723  0.3252 -0.2377 -0.1462
  622TMC3    C3 9211   0.029   4.019   9.748 -0.1368  0.6727  0.2052
  622TMC3    C4 9212   0.124   4.042   9.498 -0.1330  0.4329  0.3317
  622TMC3    C5 9213   0.006   3.973   9.527 -0.5160 -0.1709  0.4808
  622TMC3    C6 9214   4.687   3.945   9.655  0.2026  0.6223  0.2387
  622TMC3     C 9215   0.294   4.191   9.556  0.1588 -0.5902 -0.0063
  622TMC3     O 9216   0.338   4.171   9.445 -0.1917 -0.2130 -0.6225
  622TMC3     H 9217   0.192   4.127   9.808  1.6283 -1.9985 -0.5943
  622TMC3    H1 9218   0.161   4.024   9.397  0.3925 -2.7899  1.0994
  622TMC3    H2 9219   4.606   3.874   9.665 -1.2658  1.7896 -3.4624
  622TMC3    C7 9220   4.685   3.882   9.417  0.2860  0.0063 -0.5683
  622TMC3    C8 9221   4.704   3.999   9.883  0.5905  1.2451  0.6311
  622TMC3    O1 9222   0.058   3.836   9.358 -0.1714 -0.6503  0.1185
  622TMC3    O2 9223   4.630   3.904   9.899 -0.0486  0.3462 -0.7281
  623MPD2     C 9224   2.933   0.117  15.572  0.8416  0.0062 -0.2091
  623MPD2    C1 9225   2.838   0.132  15.670  0.5479  0.8662  0.8214
  623MPD2    C2 9226   2.882   0.169  15.798 -0.7330 -0.0567  0.7851
  623MPD2    C3 9227   3.016   0.202  15.827  0.5294  0.0363 -0.0352
  623MPD2    C4 9228   3.110   0.177  15.727 -0.3091  0.4663 -0.7982
  623MPD2    C5 9229   3.064   0.125  15.612 -0.0542 -0.0319  0.2302
  623MPD2     H 9230   2.806   0.178  15.875  0.4377  3.9860  1.4376
  623MPD2    H1 9231   3.216   0.190  15.749 -0.5881  0.2005  0.6955
  623MPD2    H2 9232   2.906   0.080  15.474  1.6994  0.7343 -0.7221
  623MPD2    H3 9233   3.136   0.111  15.532 -1.5586  1.0419 -1.3007
  623MPD2     N 9234   3.050   0.254  15.948  0.1637 -0.3989 -0.3156
  623MPD2    H5 9235   2.970   0.288  16.001  0.9226 -0.0235  0.5742
  623MPD2    N1 9236   2.704   0.095  15.638 -0.6555  0.0998 -0.2220
  623MPD2    H7 9237   2.679   0.110  15.541 -3.7311 -0.9002  0.4007
  624TMC3    C1 9238   3.279   0.301  16.345 -0.0199 -0.3199 -0.0614
  624TMC3    C2 9239   3.206   0.408  16.384 -0.1810 -0.3865 -0.2157
  624TMC3    C3 9240   3.118   0.469  16.296  0.1147 -1.3877  0.3616
  624TMC3    C4 9241   3.286   0.261  16.214  0.1953  0.2322 -0.2577
  624TMC3    C5 9242   3.197   0.321  16.130  0.2588 -0.2650 -0.4288
  624TMC3    C6 9243   3.112   0.420  16.170 -0.4613 -0.3193  0.2038
  624TMC3     C 9244   3.392   0.260  16.432  0.2677  0.2523 -0.8038
  624TMC3     O 9245   3.416   0.338  16.529  0.7565  0.1499  0.1655
  624TMC3     H 9246   3.213   0.440  16.488  1.1808  0.7870 -0.6712
  624TMC3    H1 9247   3.349   0.181  16.178  0.1817 -0.1345  0.5531
  624TMC3    H2 9248   3.057   0.462  16.086 -0.2553 -1.2242 -0.3794
  624TMC3    C7 9249   3.178   0.265  15.997 -0.0366 -0.2678 -0.0805
  624TMC3    C8 9250   2.984   0.493  16.358 -0.4671 -0.2986  0.4925
  624TMC3    O1 9251   3.276   0.208  15.958 -0.0544 -0.2492 -0.2182
  624TMC3    O2 9252   2.951   0.423  16.455 -0.0928  0.0257 -0.8817
  625MPD2     C 9253   3.796   1.203   0.553  0.7240  0.2218 -0.4617
  625MPD2    C1 9254   3.842   1.328   0.501 -0.5895 -0.0784  0.0507
  625MPD2    C2 9255   3.976   1.356   0.495 -0.0071 -0.7925  0.6137
  625MPD2    C3 9256   4.065   1.254   0.541 -0.4283 -0.1166  0.3675
  625MPD2    C4 9257   4.017   1.138   0.595  0.3469 -0.0030 -0.3921
  625MPD2    C5 9258   3.882   1.108   0.597 -0.5142 -0.3717 -0.0431
  625MPD2     H 9259   3.997   1.440   0.429  0.0496 -1.1296  0.1986
  625MPD2    H1 9260   4.089   1.062   0.626  1.5743  0.9271 -0.9416
  625MPD2    H2 9261   3.691   1.183   0.569  0.6350 -0.1133 -1.5221
  625MPD2    H3 9262   3.849   1.018   0.648 -2.7318 -0.0849 -0.9486
  625MPD2     N 9263   4.201   1.293   0.545  0.1510 -0.4384  0.5944
  625MPD2    H5 9264   4.234   1.381   0.508  2.8187 -1.0731  1.4706
  625MPD2    N1 9265   3.762   1.437   0.456  0.4407 -0.0752 -0.0223
  625MPD2    H7 9266   3.809   1.522   0.427 -1.0188  1.0086  0.7845
  626TMC3    C1 9267   3.562   1.563   0.423 -0.1584  0.2858 -0.2013
  626TMC3    C2 9268   3.603   1.653   0.324  0.3063  0.1197  0.9067
  626TMC3    C3 9269   3.512   1.746   0.281 -0.2164 -0.0432 -0.5197
  626TMC3    C4 9270   3.438   1.570   0.474  0.4087 -0.1909 -0.2458
  626TMC3    C5 9271   3.364   1.681   0.444 -1.1940 -0.3363 -0.7011
  626TMC3    C6 9272   3.395   1.764   0.338 -0.0860 -0.3440  0.3460
  626TMC3     C 9273   3.625   1.435   0.453  0.0623  0.6948 -0.3994
  626TMC3     O 9274   3.551   1.348   0.497  0.6548  0.2915  0.3205
  626TMC3     H 9275   3.705   1.650   0.288  0.5816 -0.8981  1.8009
  626TMC3    H1 9276   3.402   1.514   0.559  2.2180 -2.0643 -0.7305
  626TMC3    H2 9277   3.344   1.858   0.323  0.0715 -0.4850 -1.0501
  626TMC3    C7 9278   3.243   1.701   0.522 -0.2985  0.4508  0.6286
  626TMC3    C8 9279   3.546   1.839   0.177 -0.4199  0.5080 -0.1521
  626TMC3    O1 9280   3.235   1.637   0.623 -0.3041 -0.8759 -0.3973
  626TMC3    O2 9281   3.640   1.910   0.209 -0.3355  0.3582  0.2971
  627MPD2     C 9282   1.967   1.824  14.471  0.4900 -0.1003  0.1252
  627MPD2    C1 9283   2.071   1.764  14.539 -0.1735 -0.2048 -0.3778
  627MPD2    C2 9284   2.069   1.631  14.551 -0.4711 -0.9362  0.1093
  627MPD2    C3 9285   1.960   1.555  14.502  0.1460  0.8190 -0.0275
  627MPD2    C4 9286   1.860   1.611  14.432 -0.1642  0.1856  0.1222
  627MPD2    C5 9287   1.862   1.750  14.426  0.8557 -0.4413  0.4604
  627MPD2     H 9288   2.147   1.571  14.598 -0.0790 -1.7572 -1.5896
  627MPD2    H1 9289   1.776   1.555  14.392  0.9007 -1.8693  0.7182
  627MPD2    H2 9290   1.957   1.931  14.458 -0.5878  0.1817  3.2516
  627MPD2    H3 9291   1.780   1.808  14.386  1.6193 -1.3743 -2.5089
  627MPD2     N 9292   1.964   1.417  14.531  0.3213  0.0622  0.3010
  627MPD2    H5 9293   2.037   1.394  14.597  2.6010  0.9696 -1.9020
  627MPD2    N1 9294   2.181   1.832  14.593 -0.0200 -0.2980  1.2020
  627MPD2    H7 9295   2.265   1.786  14.627 -0.7853 -2.3034  0.4026
  628TMC3    C1 9296   2.316   2.006  14.637 -0.9963  0.2597  0.0050
  628TMC3    C2 9297   2.420   1.927  14.599 -0.2002  0.2516 -0.5072
  628TMC3    C3 9298   2.549   1.980  14.626  0.2150 -0.2980  0.1937
  628TMC3    C4 9299   2.340   2.133  14.689 -0.3107  0.0323  0.2716
  628TMC3    C5 9300   2.465   2.177  14.711  0.5392  0.0593 -0.2888
  628TMC3    C6 9301   2.573   2.099  14.686  0.3106 -0.6054 -0.2180
  628TMC3     C 9302   2.181   1.964  14.605 -0.1366  0.3680  0.6689
  628TMC3     O 9303   2.086   2.038  14.617  0.3918 -0.4848 -0.4752
  628TMC3     H 9304   2.411   1.829  14.554  2.7219 -0.3485  0.1928
  628TMC3    H1 9305   2.254   2.187  14.727  0.2427  1.2511 -0.2092
  628TMC3    H2 9306   2.665   2.152  14.666  0.5487 -1.3780 -1.1266
  628TMC3    C7 9307   2.493   2.316  14.734 -0.2015  1.2059 -0.2257
  628TMC3    C8 9308   2.660   1.902  14.586 -0.3880  0.2633 -0.1609
  628TMC3    O1 9309   2.595   2.352  14.789 -0.5783  0.4537 -0.1551
  628TMC3    O2 9310   2.634   1.816  14.504  0.4204 -0.9286 -0.0226
  629MPD2     C 9311   0.319   1.006  16.621  0.1507  0.1756  0.9496
  629MPD2    C1 9312   0.343   0.882  16.564  0.6891  0.4345  0.1027
  629MPD2    C2 9313   0.241   0.787  16.547 -0.1266  0.1637  0.0017
  629MPD2    C3 9314   0.112   0.820  16.586 -0.1438 -1.1353 -0.5106
  629MPD2    C4 9315   0.089   0.939  16.655 -0.0345 -0.1847 -0.3884
  629MPD2    C5 9316   0.195   1.022  16.677 -0.3457 -0.2622  0.3057
  629MPD2     H 9317   0.252   0.688  16.504 -0.2063  0.7538 -1.4023
  629MPD2    H1 9318   0.000   0.973  16.707 -0.8975 -3.1085  0.0011
  629MPD2    H2 9319   0.397   1.081  16.623  0.5668 -0.1634 -2.0711
  629MPD2    H3 9320   0.167   1.114  16.726  0.9210 -0.2454  1.0025
  629MPD2     N 9321   0.017   0.721  16.570  0.1558  0.0647  0.5714
  629MPD2    H5 9322   0.048   0.645  16.511 -1.6782  0.3509 -0.7477
  629MPD2    N1 9323   0.472   0.872  16.511 -0.2527  0.6040  0.3575
  629MPD2    H7 9324   0.532   0.952  16.530 -0.7325  1.2733 -0.9631
  630TMC3    C1 9325   0.679   0.797  16.452 -0.1986  0.5463  0.5997
  630TMC3    C2 9326   0.712   0.910  16.384 -0.2928 -0.1700  0.0307
  630TMC3    C3 9327   0.823   0.978  16.428  0.7067 -0.1851 -0.1745
  630TMC3    C4 9328   0.738   0.753  16.562 -0.2458 -0.2527  0.6303
  630TMC3    C5 9329   0.846   0.828  16.608  0.0648  0.2659  0.5224
  630TMC3    C6 9330   0.904   0.931  16.529 -0.1457  0.3233  0.2976
  630TMC3     C 9331   0.538   0.766  16.463  0.6158  0.2851 -0.2240
  630TMC3     O 9332   0.493   0.654  16.462 -0.3520 -0.4198  0.2254
  630TMC3     H 9333   0.660   0.933  16.292  0.6279 -2.5863 -1.1136
  630TMC3    H1 9334   0.693   0.681  16.630 -1.9426  0.5968  0.4019
  630TMC3    H2 9335   0.998   0.982  16.545  1.6745 -3.0220  0.2191
  630TMC3    C7 9336   0.920   0.783  16.722  0.2371  0.0322  0.6850
  630TMC3    C8 9337   0.892   1.057  16.332 -1.0598  0.5987 -0.1597
  630TMC3    O1 9338   0.852   0.740  16.816 -0.5998 -0.2547 -0.1506
  630TMC3    O2 9339   1.014   1.070  16.345 -0.9017  0.5918  0.0499
  631MPD2     C 9340   3.212   0.497  15.462  0.5299  0.3125  0.7464
  631MPD2    C1 9341   3.308   0.521  15.369  0.0853 -0.3191  0.0804
  631MPD2    C2 9342   3.438   0.464  15.384  0.2150  0.0998  0.5504
  631MPD2    C3 9343   3.471   0.396  15.498  0.0130  0.7051 -0.3143
  631MPD2    C4 9344   3.369   0.373  15.592 -0.0234  0.0897 -0.6580
  631MPD2    C5 9345   3.247   0.431  15.575 -0.5671  0.1424 -0.3573
  631MPD2     H 9346   3.523   0.497  15.326 -0.2342 -1.4927 -0.9839
  631MPD2    H1 9347   3.400   0.330  15.687 -0.4573 -1.4782 -1.2171
  631MPD2    H2 9348   3.116   0.546  15.451  0.4613 -0.1999 -0.9443
  631MPD2    H3 9349   3.184   0.429  15.663  0.1327  3.1242  0.2054
  631MPD2     N 9350   3.598   0.348  15.513  0.1865 -0.2363 -0.0489
  631MPD2    H5 9351   3.671   0.375  15.448  1.0366  0.7841  1.3165
  631MPD2    N1 9352   3.278   0.617  15.271 -0.3879  0.4825  0.2404
  631MPD2    H7 9353   3.186   0.659  15.278 -0.6844 -0.0317 -0.4947
  632TMC3    C1 9354   3.318   0.788  15.115  0.4251  0.5340  0.2571
  632TMC3    C2 9355   3.277   0.884  15.200  0.3898  0.3910 -0.0457
  632TMC3    C3 9356   3.299   1.015  15.180  0.2266  0.4841 -0.1918
  632TMC3    C4 9357   3.398   0.830  15.013  0.4048 -0.3607  0.2273
  632TMC3    C5 9358   3.443   0.959  14.999 -0.7174 -0.1017 -0.0102
  632TMC3    C6 9359   3.385   1.061  15.084 -0.1663 -0.3318  0.3428
  632TMC3     C 9360   3.355   0.658  15.165 -0.3712  0.2507 -0.2351
  632TMC3     O 9361   3.455   0.609  15.114  0.0650  0.1657  0.0737
  632TMC3     H 9362   3.228   0.859  15.293  0.9378 -1.0385 -0.1495
  632TMC3    H1 9363   3.434   0.762  14.937 -1.6517 -1.4059  0.1955
  632TMC3    H2 9364   3.396   1.167  15.065  1.5573 -0.3920  0.9814
  632TMC3    C7 9365   3.536   0.995  14.891 -0.2132 -0.2989 -0.5859
  632TMC3    C8 9366   3.264   1.095  15.298 -0.6992 -0.1066  1.0472
  632TMC3    O1 9367   3.547   0.912  14.801 -0.0218  0.4887 -0.1297
  632TMC3    O2 9368   3.160   1.070  15.355  0.0123  0.0399  0.3658
  633MPD2     C 9369   3.193   2.989  16.833  0.6144 -0.1337  0.6816
  633MPD2    C1 9370   3.221   2.930  16.719 -0.0193 -0.4798 -0.3462
  633MPD2    C2 9371   3.221   2.793  16.700  0.1271  0.1039  0.3504
  633MPD2    C3 9372   3.185   2.716  16.809 -0.8783  0.5517 -0.5301
  633MPD2    C4 9373   3.148   2.775  16.925  0.5605  0.1967  0.1500
  633MPD2    C5 9374   3.155   2.912  16.940  0.3603  0.8256 -0.6562
  633MPD2     H 9375   3.262   2.751  16.609 -1.9215  0.6256 -0.8348
  633MPD2    H1 9376   3.119   2.719  17.013  1.1844 -1.2999 -0.6109
  633MPD2    H2 9377   3.197   3.097  16.848  0.8676 -0.0188 -0.2193
  633MPD2    H3 9378   3.135   2.961  17.035  0.1569 -1.6121  0.5782
  633MPD2     N 9379   3.199   2.570  16.809  0.4201  0.3308 -0.7472
  633MPD2    H5 9380   3.177   2.524  16.897  0.5954 -1.2527 -1.5212
  633MPD2    N1 9381   3.271   3.007  16.610  0.5915  0.2324  0.0535
  633MPD2    H7 9382   3.310   2.953  16.533 -0.9176  1.2134 -1.3825
  634TMC3    C1 9383   3.322   3.191  16.463  0.5395 -0.2079  0.2939
  634TMC3    C2 9384   3.418   3.121  16.400  0.3183 -0.8919 -0.7297
  634TMC3    C3 9385   3.490   3.176  16.296  0.1273  1.1869  0.4333
  634TMC3    C4 9386   3.292   3.319  16.419 -0.9893  0.5623 -0.0291
  634TMC3    C5 9387   3.363   3.371  16.312  0.2248 -0.1943  0.1705
  634TMC3    C6 9388   3.466   3.307  16.255  0.6387 -0.5322 -0.4495
  634TMC3     C 9389   3.258   3.143  16.590  0.0366 -0.2904  0.1067
  634TMC3     O 9390   3.194   3.228  16.647  0.1254 -0.5754 -0.1046
  634TMC3     H 9391   3.444   3.019  16.429  0.7104 -0.6119 -0.0886
  634TMC3    H1 9392   3.205   3.374  16.454 -2.0516 -0.0064 -1.7543
  634TMC3    H2 9393   3.530   3.357  16.183  0.9876 -2.1194 -1.2594
  634TMC3    C7 9394   3.358   3.520  16.296  0.2502 -0.7325  0.1581
  634TMC3    C8 9395   3.585   3.092  16.225  1.2128 -0.1899 -0.3363
  634TMC3    O1 9396   3.381   3.561  16.184  0.2218  0.4800  0.9163
  634TMC3    O2 9397   3.584   2.971  16.239  0.0332  0.1784 -0.0734
  635TMC3    C1 9398   3.561   4.477  17.084  0.0900 -0.2117  0.4106
  635TMC3    C2 9399   3.668   4.453  16.999 -0.7940 -0.2555  0.5405
  635TMC3    C3 9400   3.723   4.326  17.003  0.0364  0.0818  0.1288
  635TMC3    C4 9401   3.510   4.385  17.163 -0.1419  0.4365  0.1608
  635TMC3    C5 9402   3.556   4.253  17.149 -0.6340  1.0486  0.0940
  635TMC3    C6 9403   3.669   4.225  17.079 -0.1434  0.0438  0.2924
  635TMC3     C 9404   3.556   4.614  17.134 -0.1768 -0.5082 -0.7170
  635TMC3     O 9405   3.624   4.702  17.083 -0.6523 -0.6765  0.1962
  635TMC3     H 9406   3.716   4.528  16.937 -2.4466 -1.7618 -2.5511
  635TMC3    H1 9407   3.446   4.411  17.246 -2.7334 -1.3348 -1.2742
  635TMC3    H2 9408   3.727   4.134  17.090 -0.5839 -0.3799 -0.9047
  635TMC3    C7 9409   3.506   4.156  17.247  0.4877  0.0756 -0.7066
  635TMC3    C8 9410   3.843   4.302  16.928 -0.4136 -0.1422  0.4697
  635TMC3    O1 9411   3.412   4.198  17.317  0.5292  0.0513  0.0452
  635TMC3    O2 9412   3.890   4.405  16.896  0.4378  0.3242 -0.8010
  636MPD2     C 9413   4.603   3.660  15.431 -0.2443  0.0978  0.0743
  636MPD2    C1 9414   4.598   3.644  15.566  0.7736  0.1741  0.4041
  636MPD2    C2 9415   4.627   3.521  15.620  0.2527  0.2694 -0.2129
  636MPD2    C3 9416   4.660   3.417  15.543  0.2250 -0.5575 -0.2972
  636MPD2    C4 9417   4.666   3.429  15.407  0.2775 -1.0558  0.1751
  636MPD2    C5 9418   4.645   3.556  15.353 -0.5993 -0.1712 -0.3014
  636MPD2     H 9419   4.604   3.499  15.724 -2.7243 -0.2780 -0.9872
  636MPD2    H1 9420   4.685   3.343  15.343 -1.5190 -0.8966 -0.5577
  636MPD2    H2 9421   4.589   3.761  15.393  1.2704 -0.1937 -1.2347
  636MPD2    H3 9422   4.645   3.573  15.246 -1.1791 -2.2565 -0.6387
  636MPD2     N 9423   4.664   3.297  15.614 -0.3643  0.4721  0.1250
  636MPD2    H5 9424   4.647   3.299  15.714 -0.1627  0.2259  0.1638
  636MPD2    N1 9425   4.556   3.747  15.654  0.7859 -0.0737 -0.3354
  636MPD2    H7 9426   4.555   3.727  15.753 -0.5088  0.6732 -0.1988
  637TMC3    C1 9427   4.698   3.082  15.663  0.3731  0.6296  0.8247
  637TMC3    C2 9428   4.613   3.118  15.762  0.2137 -0.3724 -1.1059
  637TMC3    C3 9429   4.645   3.102  15.895  0.0985  0.1996 -0.5734
  637TMC3    C4 9430   0.091   3.012  15.686 -0.1126 -0.9175 -0.3274
  637TMC3    C5 9431   0.123   3.000  15.826  0.0854 -0.2237  0.6102
  637TMC3    C6 9432   0.044   3.048  15.925  0.7236 -0.4486 -0.4283
  637TMC3     C 9433   4.701   3.174  15.560 -0.2234  0.2009  0.8127
  637TMC3     O 9434   0.047   3.151  15.464 -0.1009  0.0693 -0.4115
  637TMC3     H 9435   4.518   3.159  15.731 -0.1331 -0.0380  0.4304
  637TMC3    H1 9436   0.154   2.995  15.600 -2.3350 -0.2385 -2.0753
  637TMC3    H2 9437   0.078   3.050  16.028 -1.0743  0.9561  0.1377
  637TMC3    C7 9438   0.253   3.063  15.845  0.0784  0.4563 -0.0146
  637TMC3    C8 9439   4.625   3.232  15.960 -0.8566 -0.5182 -0.3202
  637TMC3    O1 9440   0.274   3.126  15.952 -0.0745 -0.0089 -0.2796
  637TMC3    O2 9441   4.573   3.319  15.894 -0.0020  0.0344 -0.3637
  638MPD2     C 9442   4.474   2.698  14.586  0.3866 -0.6822  0.1865
  638MPD2    C1 9443   4.443   2.592  14.516  0.4143 -0.0445 -0.3047
  638MPD2    C2 9444   4.450   2.475  14.581 -0.1119  0.7014  0.5181
  638MPD2    C3 9445   4.484   2.460  14.720 -0.4377  0.6416  0.3000
  638MPD2    C4 9446   4.517   2.570  14.781 -0.4190  0.3280  0.3544
  638MPD2    C5 9447   4.521   2.690  14.717  0.0421  0.1049  0.0846
  638MPD2     H 9448   4.446   2.384  14.523  0.6796  0.2326  1.1923
  638MPD2    H1 9449   4.544   2.565  14.886 -1.3375  0.2499  0.5888
  638MPD2    H2 9450   4.480   2.795  14.538 -0.2386  0.3472  2.2066
  638MPD2    H3 9451   4.535   2.782  14.773  0.2917  0.6067 -0.7963
  638MPD2     N 9452   4.474   2.329  14.778  0.5175  0.2615 -0.3065
  638MPD2    H5 9453   4.442   2.252  14.721 -0.1087  1.4703 -1.5737
  638MPD2    N1 9454   4.434   2.602  14.375 -0.5968  0.3706  0.7661
  638MPD2    H7 9455   4.453   2.690  14.329 -3.4726 -0.2508 -1.5902
  639TMC3    C1 9456   4.483   2.152  14.932  0.1649  0.4040  0.1716
  639TMC3    C2 9457   4.391   2.087  14.845 -0.5626  0.3862 -0.4241
  639TMC3    C3 9458   4.391   1.950  14.857  0.1902  0.7120  0.0777
  639TMC3    C4 9459   4.558   2.088  15.022  1.0236 -0.2592  0.2796
  639TMC3    C5 9460   4.547   1.954  15.031 -0.1027 -0.1382 -0.1184
  639TMC3    C6 9461   4.467   1.882  14.945 -0.5006 -0.3817  0.7238
  639TMC3     C 9462   4.507   2.295  14.911 -0.4680  0.6189  0.0513
  639TMC3     O 9463   4.580   2.354  14.990 -0.1222  0.6848  0.4088
  639TMC3     H 9464   4.354   2.132  14.754 -1.0999 -1.9596 -1.3726
  639TMC3    H1 9465   4.626   2.146  15.083  1.2252  0.9013 -1.0424
  639TMC3    H2 9466   4.456   1.774  14.949 -0.3484 -0.4230  0.0729
  639TMC3    C7 9467   4.667   1.890  15.084  0.0926  0.3189  0.0789
  639TMC3    C8 9468   4.306   1.870  14.771 -0.5756 -0.2444 -0.0100
  639TMC3    O1 9469   0.023   1.957  15.148  0.6714  0.4935 -0.2544
  639TMC3    O2 9470   4.322   1.873  14.647  0.6600  0.4760  0.7896
  640MPD2     C 9471   0.979   1.308   9.856 -0.2758 -0.2501 -0.4479
  640MPD2    C1 9472   0.981   1.200   9.768  0.4939  0.2829  0.5482
  640MPD2    C2 9473   0.863   1.173   9.704 -0.2927  0.1397  0.1996
  640MPD2    C3 9474   0.745   1.244   9.736 -0.3060  0.0935  0.1981
  640MPD2    C4 9475   0.742   1.341   9.830  0.6760 -0.5046  0.1463
  640MPD2    C5 9476   0.863   1.380   9.891 -0.6050 -0.4080  0.0017
  640MPD2     H 9477   0.864   1.093   9.631 -0.8902  1.2973 -1.0675
  640MPD2    H1 9478   0.647   1.385   9.858 -0.0545 -3.5334  2.4662
  640MPD2    H2 9479   1.066   1.332   9.915  0.1291 -1.3067 -0.6130
  640MPD2    H3 9480   0.858   1.457   9.967 -0.9242 -2.0093  1.5873
  640MPD2     N 9481   0.622   1.212   9.675 -0.8730 -1.0794 -0.5284
  640MPD2    H5 9482   0.543   1.256   9.721  2.1773  1.2722  2.4348
  640MPD2    N1 9483   1.102   1.121   9.759  0.0193  0.2488  0.0140
  640MPD2    H7 9484   1.186   1.147   9.809  0.0238  1.0499 -0.4055
  641TMC3    C1 9485   1.232   0.920   9.724  0.2191 -0.4046  0.0068
  641TMC3    C2 9486   1.230   0.790   9.684  0.0373 -0.1937 -0.5390
  641TMC3    C3 9487   1.338   0.715   9.721 -0.2745 -0.7394 -0.4562
  641TMC3    C4 9488   1.339   0.971   9.805  0.0183 -0.5592 -0.1660
  641TMC3    C5 9489   1.445   0.891   9.830  0.1525 -0.0070  0.1074
  641TMC3    C6 9490   1.449   0.761   9.793  0.1458 -0.4733 -0.5033
  641TMC3     C 9491   1.105   0.995   9.706 -0.4843  0.3178 -0.5887
  641TMC3     O 9492   1.020   0.921   9.655  0.4821  0.1178  0.2161
  641TMC3     H 9493   1.166   0.748   9.607  0.8326 -0.1493 -1.2325
  641TMC3    H1 9494   1.336   1.065   9.859 -1.2316  0.3467 -1.8519
  641TMC3    H2 9495   1.537   0.701   9.816  1.7037  2.5870  1.5843
  641TMC3    C7 9496   1.578   0.952   9.854 -0.2776  0.4322 -0.3265
  641TMC3    C8 9497   1.334   0.575   9.678 -0.2032  0.4669 -0.0394
  641TMC3    O1 9498   1.674   0.876   9.857  0.6143  0.1842  0.2127
  641TMC3    O2 9499   1.245   0.539   9.605  0.1432  0.8183  0.1568
  642TMC3    C1 9500   1.124   2.100  12.554  0.4603 -0.4857 -0.0939
  642TMC3    C2 9501   1.245   2.087  12.609 -0.3825  0.9001  0.1151
  642TMC3    C3 9502   1.282   1.962  12.643  0.4286 -0.5748  1.0878
  642TMC3    C4 9503   1.033   1.998  12.526 -0.0859  0.3011  0.4519
  642TMC3    C5 9504   1.080   1.870  12.542 -0.3630 -0.0287 -0.3902
  642TMC3    C6 9505   1.206   1.849  12.610  0.3931 -0.1068 -0.1038
  642TMC3     C 9506   1.081   2.233  12.514 -0.4652  0.3653  0.6067
  642TMC3     O 9507   0.960   2.258  12.512 -0.0708 -0.3278  0.4200
  642TMC3     H 9508   1.313   2.170  12.623  0.1987  0.2643  1.0317
  642TMC3    H1 9509   0.934   2.024  12.490  0.7486  0.2613 -1.8496
  642TMC3    H2 9510   1.254   1.751  12.610  0.9664  0.1799  1.0299
  642TMC3    C7 9511   1.017   1.765  12.470  0.9233  0.6191  0.4839
  642TMC3    C8 9512   1.413   1.933  12.697  0.7365  0.2187  0.1772
  642TMC3    O1 9513   0.947   1.782  12.372 -0.5941 -0.1043 -0.3974
  642TMC3    O2 9514   1.410   1.849  12.784  0.0897 -0.8462  0.5700
  643TMC3    C1 9515   0.404   1.402   0.185 -0.1913  0.0350  0.5909
  643TMC3    C2 9516   0.274   1.429   0.150 -0.2486 -0.5838 -0.4110
  643TMC3    C3 9517   0.242   1.428   0.016  0.0513 -0.3844 -0.1977
  643TMC3    C4 9518   0.505   1.356   0.099 -0.2434 -0.1602  0.1250
  643TMC3    C5 9519   0.461   1.354  17.666  0.7358 -0.7737  0.0601
  643TMC3    C6 9520   0.337   1.381  17.625 -1.3036 -0.1889 -0.1207
  643TMC3     C 9521   0.454   1.495   0.282  0.2241  0.1505 -0.0717
  643TMC3     O 9522   0.409   1.610   0.279  0.1407 -0.0851 -0.4568
  643TMC3     H 9523   0.217   1.490   0.219  2.3890  0.3176  1.0136
  643TMC3    H1 9524   0.610   1.344   0.119 -0.2449 -1.3512 -0.6355
  643TMC3    H2 9525   0.318   1.391  17.518  1.7249  1.0257 -0.5540
  643TMC3    C7 9526   0.558   1.416  17.581  1.0083 -0.1500 -0.1679
  643TMC3    C8 9527   0.168   1.528  17.660 -0.8240  0.9707  0.0199
  643TMC3    O1 9528   0.514   1.518  17.524  1.0179  0.3094  0.1853
  643TMC3    O2 9529   0.050   1.537  17.692  0.1031 -0.1005 -0.0024
  644MPD2     C 9530   1.478   2.427   9.556 -0.4021 -0.6274 -0.1474
  644MPD2    C1 9531   1.406   2.310   9.557 -0.3146  0.3056  0.1070
  644MPD2    C2 9532   1.264   2.320   9.556 -0.0990  0.0716  0.1775
  644MPD2    C3 9533   1.197   2.444   9.535 -0.8665 -0.9369 -0.3334
  644MPD2    C4 9534   1.280   2.553   9.528 -0.1439  0.2030 -0.0263
  644MPD2    C5 9535   1.416   2.551   9.539 -0.3645  0.6575 -0.0467
  644MPD2     H 9536   1.199   2.234   9.564 -0.5593  0.3788 -0.2583
  644MPD2    H1 9537   1.245   2.651   9.496 -1.1406 -0.5168 -1.1685
  644MPD2    H2 9538   1.585   2.431   9.569 -0.8008 -0.2362  2.9409
  644MPD2    H3 9539   1.461   2.645   9.506 -0.4261  0.0814 -1.8029
  644MPD2     N 9540   1.055   2.442   9.523 -0.4810  0.5609 -0.3269
  644MPD2    H5 9541   1.003   2.360   9.554  1.6868 -0.9160 -0.5779
  644MPD2    N1 9542   1.471   2.184   9.577 -0.1158 -0.1151  0.0069
  644MPD2    H7 9543   1.568   2.184   9.606  0.1219 -2.4908 -0.7790
  645TMC3    C1 9544   0.835   2.531   9.483 -0.3186 -0.2338  0.0800
  645TMC3    C2 9545   0.765   2.585   9.387  0.3930  0.1934 -0.0177
  645TMC3    C3 9546   0.631   2.592   9.401 -0.2888 -0.2869  1.0470
  645TMC3    C4 9547   0.780   2.465   9.592 -0.1345  0.4168 -0.2745
  645TMC3    C5 9548   0.641   2.465   9.600  0.3565  0.6398  0.0898
  645TMC3    C6 9549   0.567   2.536   9.509 -0.1247  0.1761  0.1670
  645TMC3     C 9550   0.980   2.550   9.472 -0.5419  0.0349 -0.0686
  645TMC3     O 9551   1.022   2.652   9.419  0.6372 -0.3593  0.2583
  645TMC3     H 9552   0.812   2.630   9.301 -1.3700  3.4086  0.6766
  645TMC3    H1 9553   0.839   2.419   9.670  0.2457 -0.7220 -1.2285
  645TMC3    H2 9554   0.459   2.536   9.513 -0.0907 -0.6117  1.1322
  645TMC3    C7 9555   0.578   2.451   9.735 -0.1266  0.1065 -0.1711
  645TMC3    C8 9556   0.543   2.651   9.302  0.5661  0.4679  0.3241
  645TMC3    O1 9557   0.512   2.546   9.776  0.7851  0.2109  0.0511
  645TMC3    O2 9558   0.424   2.622   9.303 -0.2554 -0.2146 -0.1703
  646MPD2     C 9559   4.610   1.191  14.141 -0.0607 -0.3005  0.2124
  646MPD2    C1 9560   4.542   1.185  14.257 -0.6620  0.5818 -0.4716
  646MPD2    C2 9561   4.420   1.255  14.269  0.1538 -0.0348 -0.0560
  646MPD2    C3 9562   4.359   1.304  14.157  0.1527  0.1943 -0.2316
  646MPD2    C4 9563   4.425   1.305  14.037  0.7071 -0.5725  0.0708
  646MPD2    C5 9564   4.548   1.250  14.036 -0.8458  0.4172 -0.6030
  646MPD2     H 9565   4.378   1.244  14.368  2.1163  0.4752  0.8306
  646MPD2    H1 9566   4.383   1.336  13.943  0.7200 -1.8150 -0.3439
  646MPD2    H2 9567   4.708   1.145  14.143 -0.1082 -0.4109 -0.0552
  646MPD2    H3 9568   4.596   1.253  13.939 -2.4527 -2.0876 -1.4705
  646MPD2     N 9569   4.226   1.347  14.177  0.3093 -0.2186  0.8452
  646MPD2    H5 9570   4.193   1.365  14.271  0.6827 -1.8734  1.3052
  646MPD2    N1 9571   4.612   1.129  14.360 -0.0959 -0.4294 -0.8912
  646MPD2    H7 9572   4.703   1.088  14.342 -0.1448 -0.1821 -1.7008
  647TMC3    C1 9573   4.662   0.999  14.543 -0.0327 -0.0644 -0.1935
  647TMC3    C2 9574   4.606   0.928  14.648 -0.9273  0.2742 -0.2870
  647TMC3    C3 9575   4.668   0.810  14.687  0.2174  0.2323  0.2080
  647TMC3    C4 9576   0.052   0.953  14.476  0.5873 -0.2419 -0.0283
  647TMC3    C5 9577   0.124   0.846  14.530  0.1318  0.6213 -0.8620
  647TMC3    C6 9578   0.075   0.778  14.634  0.5054  0.3745 -0.1363
  647TMC3     C 9579   4.571   1.104  14.486 -0.4132  0.3971  1.1795
  647TMC3     O 9580   4.462   1.120  14.547 -0.6932  0.1520  0.3278
  647TMC3     H 9581   4.525   0.965  14.709 -1.8155 -0.8485 -0.7886
  647TMC3    H1 9582   0.096   1.006  14.392  0.6446  2.0482  1.4249
  647TMC3    H2 9583   0.139   0.697  14.666  0.1633  0.3418  0.4605
  647TMC3    C7 9584   0.265   0.810  14.509 -0.1056 -0.1505  0.1700
  647TMC3    C8 9585   4.654   0.754  14.823 -0.0734  0.2149  0.5393
  647TMC3    O1 9586   0.302   0.695  14.511  0.4150 -0.1279 -0.1086
  647TMC3    O2 9587   0.013   0.669  14.856  0.0672  0.3442  0.9580
  648TMC3    C1 9588   4.138   3.747  15.629 -0.7999 -0.6538  0.0958
  648TMC3    C2 9589   4.222   3.647  15.602  0.0671  0.2427 -0.5553
  648TMC3    C3 9590   4.187   3.555  15.506  1.0289 -0.0083  0.4685
  648TMC3    C4 9591   4.024   3.758  15.553 -0.0553  0.3631  0.0194
  648TMC3    C5 9592   3.991   3.672  15.454  0.3894  0.4629  0.1433
  648TMC3    C6 9593   4.069   3.563  15.443  0.3756 -0.4150  0.6607
  648TMC3     C 9594   4.116   3.769  15.771  0.1593  0.3294 -0.5741
  648TMC3     O 9595   4.084   3.887  15.804  0.0295 -0.1377 -0.5732
  648TMC3     H 9596   4.306   3.630  15.669 -1.5287 -0.0210  1.3786
  648TMC3    H1 9597   3.955   3.834  15.591  1.2233  0.5383  1.9948
  648TMC3    H2 9598   4.034   3.475  15.391  1.7406  0.0524 -1.0409
  648TMC3    C7 9599   3.846   3.655  15.422  0.2104  0.4116  0.0169
  648TMC3    C8 9600   4.189   3.424  15.567 -0.2410 -0.1776  0.0634
  648TMC3    O1 9601   3.812   3.557  15.358  0.2473  0.5367 -0.0888
  648TMC3    O2 9602   4.125   3.412  15.670 -0.2711  0.0943  0.0111
  649TMC3    C1 9603   2.950   4.495  12.556  0.3981 -0.4704 -0.9832
  649TMC3    C2 9604   3.047   4.588  12.578 -0.4806 -0.0801  0.9138
  649TMC3    C3 9605   3.064   4.640  12.706 -0.3984  0.4635  0.3721
  649TMC3    C4 9606   2.868   4.457  12.658  0.0433 -0.1575 -0.2350
  649TMC3    C5 9607   2.894   4.500  12.782  0.2567 -0.5741 -0.4596
  649TMC3    C6 9608   2.998   4.587  12.811 -0.2377 -0.3604  0.2308
  649TMC3     C 9609   2.905   4.489  12.419  0.0797  0.1775 -0.1894
  649TMC3     O 9610   2.911   4.591  12.349  0.2416  0.1053  0.6485
  649TMC3     H 9611   3.111   4.614  12.495  0.3448  1.1007  1.9246
  649TMC3    H1 9612   2.788   4.387  12.636  2.5647 -2.8860 -0.7382
  649TMC3    H2 9613   3.017   4.612  12.915 -1.1977 -0.0304  0.3286
  649TMC3    C7 9614   2.837   4.437  12.897 -0.4556 -0.2923  0.1842
  649TMC3    C8 9615   3.113   0.048  12.727  0.1694  0.1091  0.5000
  649TMC3    O1 9616   2.845   4.498  13.002  0.0998 -0.0729 -0.5541
  649TMC3    O2 9617   3.091   0.088  12.838 -0.1248  0.1168 -0.0010
  650TMC3    C1 9618   0.665   1.650  12.499 -0.0420  0.2521 -0.4043
  650TMC3    C2 9619   0.611   1.774  12.501 -0.2107  0.1408  0.1354
  650TMC3    C3 9620   0.569   1.828  12.379 -0.5035  0.1968 -0.4446
  650TMC3    C4 9621   0.684   1.579  12.382 -0.4227  0.1957  0.1813
  650TMC3    C5 9622   0.646   1.637  12.263 -0.5144  0.5890 -0.2765
  650TMC3    C6 9623   0.595   1.764  12.260  0.8630 -0.6148  0.1849
  650TMC3     C 9624   0.735   1.611  12.619 -0.0258  0.7463  0.7363
  650TMC3     O 9625   0.777   1.707  12.687  0.3154  0.0889  0.3324
  650TMC3     H 9626   0.589   1.833  12.589 -0.6146 -1.0455  0.8398
  650TMC3    H1 9627   0.744   1.488  12.378  0.3931  0.5601  3.9991
  650TMC3    H2 9628   0.592   1.819  12.167 -1.1649  1.7775  1.6480
  650TMC3    C7 9629   0.734   1.618  12.150  0.3507  0.2614  0.5913
  650TMC3    C8 9630   0.540   1.970  12.374 -0.1852 -0.1735 -0.4943
  650TMC3    O1 9631   0.718   1.519  12.075  0.7884  0.5491 -0.1537
  650TMC3    O2 9632   0.618   2.051  12.420  0.7157  0.8386 -0.0869
  651MPD2     C 9633   4.493   2.965  10.283  1.3124  0.6396  0.4177
  651MPD2    C1 9634   4.504   3.086  10.350 -0.1929  0.2752 -0.0672
  651MPD2    C2 9635   4.612   3.166  10.319  0.7202 -0.9126 -0.8533
  651MPD2    C3 9636   4.713   3.128  10.232 -0.1051 -0.1950 -0.1888
  651MPD2    C4 9637   4.699   3.012  10.155  0.1958 -0.3156  0.6149
  651MPD2    C5 9638   4.589   2.930  10.193  0.1395  0.3178 -0.3220
  651MPD2     H 9639   4.631   3.260  10.370 -2.3801 -0.7163 -0.0911
  651MPD2    H1 9640   0.032   2.973  10.072 -1.5133  1.3235 -1.3386
  651MPD2    H2 9641   4.406   2.900  10.294  0.6962  1.1716 -1.3415
  651MPD2    H3 9642   4.574   2.834  10.145  0.5839 -0.9012  1.9751
  651MPD2     N 9643   0.097   3.212  10.216 -0.1091 -0.1573  0.2462
  651MPD2    H5 9644   0.103   3.300  10.266 -0.0773 -0.8078  1.4000
  651MPD2    N1 9645   4.420   3.133  10.450  0.3849  0.7294 -0.0861
  651MPD2    H7 9646   4.436   3.226  10.487  0.7153  0.5450  0.2300
  652TMC3    C1 9647   0.443   3.451  10.147  0.2704 -0.1501  0.0502
  652TMC3    C2 9648   0.387   3.324  10.119  0.2968 -0.5919 -0.4722
  652TMC3    C3 9649   0.254   3.322  10.083  0.7767 -0.3264  0.0645
  652TMC3    C4 9650   0.362   3.564  10.155  0.2097 -0.6094  0.3061
  652TMC3    C5 9651   0.225   3.555  10.139 -0.5948  0.3259 -0.1977
  652TMC3    C6 9652   0.168   3.430  10.108 -0.1159 -0.0665 -0.1067
  652TMC3     C 9653   0.584   3.452  10.195 -0.1164 -0.5886  0.5285
  652TMC3     O 9654   0.633   3.347  10.227  0.3684  0.4389 -0.3141
  652TMC3     H 9655   0.447   3.234  10.113 -1.2290 -1.5214 -1.8409
  652TMC3    H1 9656   0.409   3.656  10.188  0.6043 -0.8159  0.3255
  652TMC3    H2 9657   0.061   3.421  10.096 -0.3137  1.2374  0.6689
  652TMC3    C7 9658   0.143   3.649  10.219 -0.5038 -0.2759  0.2594
  652TMC3    C8 9659   0.196   3.199  10.121 -0.2647  0.0640 -0.5057
  652TMC3    O1 9660   0.022   3.648  10.192  1.2162  0.2027  0.2509
  652TMC3    O2 9661   0.230   3.099  10.057 -0.2284  0.3429  0.0256
  653MPD2     C 9662   2.973   3.415  17.410 -0.5843 -0.5255  0.0251
  653MPD2    C1 9663   2.986   3.483  17.297  0.1019  0.1635 -0.0466
  653MPD2    C2 9664   2.957   3.421  17.177 -0.4990  0.0321 -0.3005
  653MPD2    C3 9665   2.922   3.287  17.168 -0.7086 -0.3526 -0.8726
  653MPD2    C4 9666   2.914   3.217  17.288  0.6553  0.6003  0.2906
  653MPD2    C5 9667   2.938   3.280  17.402 -0.0007  0.2548  0.1235
  653MPD2     H 9668   2.963   3.481  17.087 -1.9802 -0.7375 -0.9024
  653MPD2    H1 9669   2.874   3.117  17.297  4.0928 -0.8913 -1.0362
  653MPD2    H2 9670   2.997   3.458  17.506 -0.5496  1.4053 -0.8555
  653MPD2    H3 9671   2.933   3.226  17.495  0.4854 -0.2068 -0.1197
  653MPD2     N 9672   2.892   3.222  17.041 -0.1673 -0.1564 -0.6028
  653MPD2    H5 9673   2.899   3.274  16.954 -1.1190  0.7074 -0.1669
  653MPD2    N1 9674   3.018   3.619  17.290 -0.5873 -0.3490  0.3236
  653MPD2    H7 9675   3.001   3.675  17.207  2.9181  1.8169  1.0685
  654TMC3    C1 9676   2.780   3.056  16.913 -0.4840  0.7533  0.3979
  654TMC3    C2 9677   2.682   3.146  16.872  1.1263 -0.0157  0.1555
  654TMC3    C3 9678   2.592   3.096  16.777 -0.9910  0.1809 -0.0225
  654TMC3    C4 9679   2.795   2.933  16.869  0.2578 -0.6498  0.3922
  654TMC3    C5 9680   2.699   2.885  16.782  0.1519  0.4904 -0.6769
  654TMC3    C6 9681   2.597   2.965  16.730  0.1824  0.1752 -0.5746
  654TMC3     C 9682   2.849   3.090  17.035  0.9969  0.4360 -0.1258
  654TMC3     O 9683   2.867   2.994  17.109 -0.2589 -0.6930 -0.0610
  654TMC3     H 9684   2.667   3.245  16.913  0.2721 -0.5338  1.0986
  654TMC3    H1 9685   2.874   2.867  16.904 -0.0624 -1.6684 -0.8082
  654TMC3    H2 9686   2.517   2.910  16.682 -0.0744  1.4043 -1.5545
  654TMC3    C7 9687   2.723   2.763  16.705  0.1444 -0.5654  0.8594
  654TMC3    C8 9688   2.461   3.166  16.777 -0.0513 -0.3030 -0.1069
  654TMC3    O1 9689   2.671   2.763  16.596 -0.3747 -0.0064  0.6568
  654TMC3    O2 9690   2.445   3.254  16.861 -0.3632  0.0761  0.5012
  655MPD2     C 9691   4.226   3.816  15.278 -0.1223  0.3843  0.3486
  655MPD2    C1 9692   4.119   3.883  15.224  0.2151  0.0721  0.0560
  655MPD2    C2 9693   4.052   3.836  15.112  0.6805  0.1006  0.1704
  655MPD2    C3 9694   4.099   3.726  15.045  0.4809  0.0247 -0.3599
  655MPD2    C4 9695   4.212   3.661  15.096 -0.2172  0.5027  0.1939
  655MPD2    C5 9696   4.269   3.705  15.212  0.0575  0.2449  0.8391
  655MPD2     H 9697   3.964   3.889  15.076  0.5574 -1.1354 -1.3536
  655MPD2    H1 9698   4.253   3.572  15.050 -0.4851  0.1884  0.5586
  655MPD2    H2 9699   4.282   3.852  15.363 -0.6491  0.7541  0.5428
  655MPD2    H3 9700   4.364   3.660  15.237 -0.2842  0.3699  2.3639
  655MPD2     N 9701   4.046   3.668  14.922  0.1054 -0.2559 -0.5654
  655MPD2    H5 9702   4.101   3.598  14.873  1.4931  0.5663 -0.2044
  655MPD2    N1 9703   4.056   3.989  15.288  0.2400 -0.3261 -0.4963
  655MPD2    H7 9704   3.960   4.012  15.262 -0.5534  0.7075  3.3364
  656TMC3    C1 9705   4.020   4.151  15.466 -0.1906 -0.0745  0.2268
  656TMC3    C2 9706   4.019   4.150  15.604  0.0820  0.1152 -0.5466
  656TMC3    C3 9707   3.910   4.201  15.668  0.5084  0.3644 -0.2096
  656TMC3    C4 9708   3.929   4.223  15.392 -0.2285  0.0636  0.6524
  656TMC3    C5 9709   3.831   4.285  15.465 -0.4297  0.1561 -0.7535
  656TMC3    C6 9710   3.811   4.273  15.602 -0.5781 -0.2300 -0.3354
  656TMC3     C 9711   4.109   4.062  15.393 -0.9098 -0.4933 -0.7429
  656TMC3     O 9712   4.225   4.062  15.426  0.4567 -0.3578 -0.4271
  656TMC3     H 9713   4.071   4.064  15.645 -1.3834 -0.3052  0.4122
  656TMC3    H1 9714   3.943   4.217  15.285  0.8800 -1.6293  0.8881
  656TMC3    H2 9715   3.736   4.316  15.668  1.1081 -0.3199  1.6516
  656TMC3    C7 9716   3.729   4.335  15.386  0.3545 -0.6103 -0.4464
  656TMC3    C8 9717   3.832   4.091  15.740  0.3479 -0.0694 -0.1231
  656TMC3    O1 9718   3.755   4.356  15.265  0.8826 -0.5993 -0.5079
  656TMC3    O2 9719   3.834   3.984  15.679  0.1788  0.3559 -0.3554
  657TMC3    C1 9720   3.186   2.981  14.559 -0.5446 -0.1171  0.0571
  657TMC3    C2 9721   3.204   3.041  14.683  0.0275  0.4176  0.0086
  657TMC3    C3 9722   3.128   3.149  14.714 -0.2679  0.0705  1.1021
  657TMC3    C4 9723   3.098   3.028  14.460 -0.1278  0.2423 -0.3126
  657TMC3    C5 9724   3.029   3.145  14.494 -0.2695 -0.3733  0.2876
  657TMC3    C6 9725   3.044   3.203  14.619  0.4428 -0.7014  0.1856
  657TMC3     C 9726   3.283   2.887  14.527 -0.0239 -0.2144  0.4354
  657TMC3     O 9727   3.356   2.845  14.612 -0.2592 -0.6053  0.0025
  657TMC3     H 9728   3.273   3.002  14.758  3.0543  2.4174 -1.7258
  657TMC3    H1 9729   3.083   2.982  14.363 -0.3656  1.8503 -1.0414
  657TMC3    H2 9730   2.992   3.292  14.654 -2.0213 -0.9823 -2.7573
  657TMC3    C7 9731   2.919   3.187  14.412 -0.3761 -0.3392  0.3900
  657TMC3    C8 9732   3.125   3.206  14.847 -0.5047  0.0673  0.5743
  657TMC3    O1 9733   2.921   3.138  14.301  0.1735 -0.3495 -0.2791
  657TMC3    O2 9734   3.071   3.316  14.859 -0.4214 -0.5058  0.0108
  658MPD2     C 9735   4.513   3.548  14.615 -0.2493  0.3564 -0.2495
  658MPD2    C1 9736   4.420   3.557  14.516 -0.1444  0.0453  0.2403
  658MPD2    C2 9737   4.457   3.543  14.382 -0.1956  0.1139 -0.3586
  658MPD2    C3 9738   4.590   3.511  14.358  0.2985 -0.0722 -0.0259
  658MPD2    C4 9739   4.680   3.503  14.460 -0.0173  0.3016  0.2909
  658MPD2    C5 9740   4.644   3.526  14.587 -0.1335  0.0746  0.4259
  658MPD2     H 9741   4.387   3.544  14.299 -0.5808  0.3716 -0.0297
  658MPD2    H1 9742   0.058   3.473  14.442  0.1635  0.3702  1.2113
  658MPD2    H2 9743   4.496   3.556  14.722  1.2278 -1.6054  0.1404
  658MPD2    H3 9744   4.711   3.512  14.671  1.7136  1.9514 -0.7391
  658MPD2     N 9745   4.617   3.445  14.236  0.5288 -0.3516 -0.8241
  658MPD2    H5 9746   4.535   3.440  14.177  0.6786 -0.9123 -0.9836
  658MPD2    N1 9747   4.287   3.574  14.555  0.0274  0.2424 -0.1692
  658MPD2    H7 9748   4.270   3.553  14.653 -0.2488 -2.0667 -0.7185
  659TMC3    C1 9749   4.062   3.619  14.532 -0.6994  0.6900  0.4789
  659TMC3    C2 9750   4.062   3.666  14.664  0.1133 -0.4118 -0.7401
  659TMC3    C3 9751   3.942   3.697  14.718  0.0819  0.0847  0.4714
  659TMC3    C4 9752   3.946   3.611  14.461  0.6229  0.4744  0.2763
  659TMC3    C5 9753   3.831   3.643  14.532 -0.5706  0.5712 -0.7649
  659TMC3    C6 9754   3.822   3.687  14.658 -0.2124  0.2704 -0.3330
  659TMC3     C 9755   4.182   3.594  14.463 -0.0013  0.0399 -0.0069
  659TMC3     O 9756   4.181   3.610  14.341  0.1502 -0.0795  0.1852
  659TMC3     H 9757   4.149   3.709  14.713 -1.5224  0.5294  1.3416
  659TMC3    H1 9758   3.943   3.565  14.363  2.5392 -0.2005  0.5464
  659TMC3    H2 9759   3.731   3.707  14.713 -1.3295 -0.2158 -1.9946
  659TMC3    C7 9760   3.704   3.606  14.475 -0.5041 -0.2615 -0.2375
  659TMC3    C8 9761   3.939   3.720  14.859  0.1856  0.0475 -0.0979
  659TMC3    O1 9762   3.618   3.578  14.555 -0.3237 -0.7530  0.3679
  659TMC3    O2 9763   3.857   3.798  14.902 -0.3661 -0.1848  0.4169
  660MPD2     C 9764   2.566   2.014  12.800  0.8898 -0.0625  0.3060
  660MPD2    C1 9765   2.435   2.056  12.804  0.5930 -0.6188  0.1998
  660MPD2    C2 9766   2.342   1.998  12.885  0.0204 -0.8590  0.6223
  660MPD2    C3 9767   2.388   1.893  12.964  0.1078 -0.1708 -0.6172
  660MPD2    C4 9768   2.518   1.856  12.961  0.2746 -0.3205 -0.2316
  660MPD2    C5 9769   2.615   1.919  12.886  0.2266 -0.5698 -0.0949
  660MPD2     H 9770   2.240   2.033  12.891  0.7393  1.5724 -1.6401
  660MPD2    H1 9771   2.560   1.786  13.032  2.5652  2.1268  0.8403
  660MPD2    H2 9772   2.637   2.068  12.739 -0.4759 -0.9615 -2.0981
  660MPD2    H3 9773   2.721   1.899  12.879  1.1176  3.7627  0.7402
  660MPD2     N 9774   2.307   1.819  13.056  0.2932  0.0769 -0.1028
  660MPD2    H5 9775   2.350   1.737  13.096 -2.7583 -0.1675  2.6034
  660MPD2    N1 9776   2.397   2.164  12.717 -0.1760 -0.9471 -0.4427
  660MPD2    H7 9777   2.472   2.195  12.657 -0.1706  0.5853  0.3536
  661TMC3    C1 9778   2.267   2.333  12.604  0.2489  0.2970  0.3163
  661TMC3    C2 9779   2.373   2.367  12.529  0.1434 -0.3638  0.7919
  661TMC3    C3 9780   2.350   2.458  12.431  0.4364 -0.2427 -0.7699
  661TMC3    C4 9781   2.142   2.378  12.569  0.0310  0.2433  0.6620
  661TMC3    C5 9782   2.121   2.456  12.457 -0.5683  0.1731 -0.1385
  661TMC3    C6 9783   2.225   2.498  12.383 -0.1716  0.2115 -0.0544
  661TMC3     C 9784   2.271   2.228  12.713 -0.1418  0.6211 -0.6882
  661TMC3     O 9785   2.164   2.205  12.772 -0.2694 -0.0185  0.5367
  661TMC3     H 9786   2.468   2.317  12.545 -0.4262 -1.1122  1.8430
  661TMC3    H1 9787   2.058   2.358  12.636 -1.3656  0.1725 -1.1278
  661TMC3    H2 9788   2.205   2.555  12.292 -0.5734 -0.9337 -0.6759
  661TMC3    C7 9789   1.988   2.472  12.395 -0.1350 -0.4924  0.3363
  661TMC3    C8 9790   2.457   2.491  12.337 -0.2903 -0.1002 -0.6376
  661TMC3    O1 9791   1.894   2.470  12.469 -0.7149  0.0576 -0.5144
  661TMC3    O2 9792   2.432   2.560  12.238  0.1579  0.0206 -0.1702
  662MPD2     C 9793   2.245   1.831  17.338 -0.1614  0.4317  0.1116
  662MPD2    C1 9794   2.252   1.964  17.309 -0.7089 -0.0800  0.0582
  662MPD2    C2 9795   2.280   2.055  17.416 -0.1047 -0.3520  0.3107
  662MPD2    C3 9796   2.271   2.007  17.549  0.1381 -0.1572 -0.1802
  662MPD2    C4 9797   2.243   1.875  17.574 -0.4101  0.5173 -0.4126
  662MPD2    C5 9798   2.244   1.785  17.469  0.1341 -0.4270 -0.6995
  662MPD2     H 9799   2.277   2.161  17.391  1.4323  0.0074  1.6120
  662MPD2    H1 9800   2.246   1.835  17.675 -0.1245  1.1604 -0.1650
  662MPD2    H2 9801   2.237   1.761  17.255 -0.4234 -0.6891  1.0768
  662MPD2    H3 9802   2.250   1.682  17.503 -1.8512 -0.6015 -0.8397
  662MPD2     N 9803   2.285   2.101  17.661 -0.6641  0.7447  0.6149
  662MPD2    H5 9804   2.247   2.064   0.048  1.2435  0.8341  1.4991
  662MPD2    N1 9805   2.234   2.029  17.182  0.6243  0.1304 -0.0704
  662MPD2    H7 9806   2.243   2.130  17.173 -1.7230  0.5215  2.0995
  663TMC3    C1 9807   2.178   2.036  16.950  1.1503 -0.1912  0.2596
  663TMC3    C2 9808   2.066   2.119  16.968  0.3003  0.2456 -0.0223
  663TMC3    C3 9809   1.962   2.103  16.871 -0.0186 -0.5483 -0.3045
  663TMC3    C4 9810   2.200   1.975  16.830 -0.3976 -0.4972  0.5566
  663TMC3    C5 9811   2.114   1.993  16.728 -0.4212 -0.0026  0.5709
  663TMC3    C6 9812   2.002   2.066  16.748 -0.2704 -0.1181  0.5714
  663TMC3     C 9813   2.210   1.959  17.068 -0.2612 -0.0045  0.2337
  663TMC3     O 9814   2.224   1.840  17.047  0.2926 -0.4992 -0.7068
  663TMC3     H 9815   2.039   2.149  17.068 -1.1676 -1.5831  0.1263
  663TMC3    H1 9816   2.291   1.918  16.816 -0.1610  0.0502 -0.1459
  663TMC3    H2 9817   1.917   2.057  16.681 -0.0366  1.2472  0.0847
  663TMC3    C7 9818   2.119   1.910  16.617  0.1642 -0.0450  0.2001
  663TMC3    C8 9819   1.863   2.009  16.917  0.6478  0.1087  0.1538
  663TMC3    O1 9820   2.110   1.957  16.505  0.7145  0.5715 -0.0181
  663TMC3    O2 9821   1.811   1.936  16.832 -0.1704  0.0852 -0.6315
  664MPD2     C 9822   0.348   0.565  17.259  0.1837  0.3709  0.3099
  664MPD2    C1 9823   0.457   0.597  17.337 -0.0592 -0.2704 -0.0505
  664MPD2    C2 9824   0.479   0.552  17.467 -0.1379  0.5702  0.6252
  664MPD2    C3 9825   0.388   0.468  17.524 -0.6668  0.0160  0.4742
  664MPD2    C4 9826   0.279   0.437  17.448 -0.0250 -0.1126 -0.2082
  664MPD2    C5 9827   0.259   0.486  17.317  0.2695 -0.2630 -0.3452
  664MPD2     H 9828   0.568   0.583  17.520 -1.0924 -1.0430  3.1992
  664MPD2    H1 9829   0.204   0.363  17.474 -0.4082 -0.2486 -1.6658
  664MPD2    H2 9830   0.333   0.595  17.156  1.5279 -0.4635 -0.1235
  664MPD2    H3 9831   0.172   0.445  17.267  0.9474 -0.3826 -1.4200
  664MPD2     N 9832   0.411   0.416  17.654  0.1932  0.3643  0.0973
  664MPD2    H5 9833   0.494   0.449   0.002 -0.1475 -1.3727  1.8767
  664MPD2    N1 9834   0.556   0.676  17.284 -0.1445  0.1817 -0.3996
  664MPD2    H7 9835   0.646   0.680  17.330  0.3051  0.7124 -1.3207
  665TMC3    C1 9836   0.346   0.320   0.165 -0.2363 -0.1720 -0.6894
  665TMC3    C2 9837   0.272   0.234   0.243  0.0779 -0.0514 -0.2727
  665TMC3    C3 9838   0.272   0.239   0.380  0.2877 -0.3896 -0.0275
  665TMC3    C4 9839   0.420   0.418   0.227 -0.0886 -0.3650 -0.2591
  665TMC3    C5 9840   0.407   0.427   0.366 -0.5473  0.0241  0.0236
  665TMC3    C6 9841   0.341   0.337   0.447  0.7192  0.1592  0.1977
  665TMC3     C 9842   0.320   0.331   0.026  0.7497 -0.1145  0.3435
  665TMC3     O 9843   0.226   0.273  17.677  0.3415  0.4416 -0.0371
  665TMC3     H 9844   0.205   0.163   0.196  0.6723  0.6268 -2.1470
  665TMC3    H1 9845   0.451   0.505   0.170 -0.5193  1.0298  1.6633
  665TMC3    H2 9846   0.338   0.361   0.553 -0.8501  1.7131 -0.2048
  665TMC3    C7 9847   0.484   0.536   0.434 -0.2200  0.1505  0.4431
  665TMC3    C8 9848   0.178   0.152   0.446  0.4016  0.1030 -0.5648
  665TMC3    O1 9849   0.527   0.621   0.359  1.1815 -0.1944  0.2073
  665TMC3    O2 9850   0.092   0.089   0.385  0.1480 -0.5343  0.3232
  666TMC3    C1 9851   0.680   0.033   9.999 -0.2692 -0.0559  0.4153
  666TMC3    C2 9852   0.673   4.655  10.093 -0.3720 -0.4555 -0.0793
  666TMC3    C3 9853   0.682   4.682  10.230 -0.4074 -0.0511 -0.0025
  666TMC3    C4 9854   0.684   0.166  10.038 -0.0635 -0.0480  0.0215
  666TMC3    C5 9855   0.676   0.191  10.177  0.1968  0.5868  0.9765
  666TMC3    C6 9856   0.677   0.091  10.273  0.2972 -0.1304 -0.1002
  666TMC3     C 9857   0.684   4.723   9.860 -0.6923 -0.6457 -0.0569
  666TMC3     O 9858   0.776   0.038   9.785 -0.5797 -0.3017  0.6729
  666TMC3     H 9859   0.685   4.552  10.063  0.6315 -0.4168  0.1699
  666TMC3    H1 9860   0.690   0.242   9.961  1.8353  0.0835  0.2941
  666TMC3    H2 9861   0.666   0.121  10.377  3.7541  2.4081 -0.4584
  666TMC3    C7 9862   0.582   0.298  10.207  0.3395  0.0717  0.7558
  666TMC3    C8 9863   0.709   4.574  10.322 -0.0331  0.3018  0.4433
  666TMC3    O1 9864   0.491   0.273  10.289  0.7282  0.0563 -0.0900
  666TMC3    O2 9865   0.652   4.465  10.305  0.0919  0.7247 -0.0042
  667MPD2     C 9866   1.202   4.383  14.373 -0.0233 -0.0860 -0.1409
  667MPD2    C1 9867   1.177   4.512  14.340 -0.2200  0.9722  0.0887
  667MPD2    C2 9868   1.099   4.540  14.228 -0.2750 -0.1338  0.9152
  667MPD2    C3 9869   1.061   4.435  14.147 -0.3007 -0.2748 -0.6788
  667MPD2    C4 9870   1.076   4.305  14.186  0.3785 -0.0611 -0.0007
  667MPD2    C5 9871   1.155   4.283  14.293 -0.3208  0.4151 -0.5624
  667MPD2     H 9872   1.074   4.644  14.211 -0.0408  0.1160  2.0782
  667MPD2    H1 9873   1.043   4.224  14.122 -0.6656 -1.0271  1.7444
  667MPD2    H2 9874   1.250   4.349  14.464 -0.7121 -1.1290 -0.1645
  667MPD2    H3 9875   1.176   4.179  14.311 -0.8255  0.3059 -0.6113
  667MPD2     N 9876   0.992   4.450  14.018  0.1836 -0.5333 -0.5579
  667MPD2    H5 9877   0.975   4.363  13.970 -0.9733 -0.2270 -0.7052
  667MPD2    N1 9878   1.222   4.626  14.413  0.4132 -0.1550  0.3386
  667MPD2    H7 9879   1.196   4.719  14.383  1.7779  0.8419  2.2198
  668TMC3    C1 9880   1.375   0.016  14.548  0.0883  0.2645 -0.8102
  668TMC3    C2 9881   1.505   0.027  14.600  0.3070 -0.2169 -0.4977
  668TMC3    C3 9882   1.559   0.156  14.612 -0.2771 -0.1703  0.3478
  668TMC3    C4 9883   1.305   0.125  14.509 -0.9564  0.8690 -0.2948
  668TMC3    C5 9884   1.368   0.246  14.531 -0.4617  0.1609  0.3690
  668TMC3    C6 9885   1.492   0.270  14.583  0.4179 -0.6823 -0.6217
  668TMC3     C 9886   1.324   4.619  14.501 -0.4794 -0.0689  0.1516
  668TMC3     O 9887   1.377   4.520  14.544 -0.5164  0.4590  0.3179
  668TMC3     H 9888   1.569   4.665  14.616 -0.3261 -1.1407 -3.0734
  668TMC3    H1 9889   1.197   0.124  14.500 -0.9651  1.0193 -0.2024
  668TMC3    H2 9890   1.531   0.369  14.603  0.1338 -0.2386 -2.2738
  668TMC3    C7 9891   1.300   0.367  14.501 -0.1303  0.8001 -0.0817
  668TMC3    C8 9892   1.689   0.169  14.673 -0.5973 -0.1917  0.2560
  668TMC3    O1 9893   1.343   0.470  14.552  0.1710  0.2479 -0.3084
  668TMC3    O2 9894   1.704   0.089  14.766  0.4850 -0.0733  0.3865
  669TMC3    C1 9895   4.306   0.440  14.296  0.2268 -0.2699 -0.4343
  669TMC3    C2 9896   4.216   0.481  14.204 -0.8313 -0.1550 -0.1204
  669TMC3    C3 9897   4.259   0.481  14.070  0.0991  0.6341  0.0498
  669TMC3    C4 9898   4.434   0.400  14.263  0.0771  0.0349  0.4536
  669TMC3    C5 9899   4.469   0.408  14.128 -0.6742  0.1581  0.3701
  669TMC3    C6 9900   4.388   0.453  14.036  0.2474  0.9363 -0.5702
  669TMC3     C 9901   4.262   0.420  14.428  0.2045  1.0132  0.6226
  669TMC3     O 9902   4.143   0.401  14.443 -0.5442  0.4435 -0.3620
  669TMC3     H 9903   4.122   0.524  14.237 -0.5559  2.2390 -2.4720
  669TMC3    H1 9904   4.502   0.372  14.343 -1.4077  2.3736  2.5380
  669TMC3    H2 9905   4.411   0.449  13.930  0.5299  0.7647 -0.5014
  669TMC3    C7 9906   4.610   0.400  14.095 -0.4723 -0.0521 -0.5478
  669TMC3    C8 9907   4.167   0.537  13.975  0.9391 -0.2374 -0.0451
  669TMC3    O1 9908   4.648   0.458  13.995 -0.0698 -0.4822  0.3376
  669TMC3    O2 9909   4.048   0.534  14.014 -0.4939 -0.3110  0.2733
  670MPD2     C 9910   2.633   2.718  13.504 -0.3762 -0.2313 -0.7404
  670MPD2    C1 9911   2.575   2.834  13.556 -0.1083 -0.3006  0.0322
  670MPD2    C2 9912   2.520   2.825  13.677 -0.0985 -0.7655  0.1786
  670MPD2    C3 9913   2.529   2.708  13.753  1.2304  0.3396 -0.3824
  670MPD2    C4 9914   2.597   2.596  13.706  0.7724  0.0396 -0.1903
  670MPD2    C5 9915   2.654   2.604  13.576 -0.3516  0.0690 -0.3719
  670MPD2     H 9916   2.480   2.913  13.727  0.7619 -0.7989  0.9422
  670MPD2    H1 9917   2.606   2.504  13.762 -1.6969  2.0480  3.4640
  670MPD2    H2 9918   2.674   2.712  13.404 -0.6846 -1.2159 -0.8038
  670MPD2    H3 9919   2.701   2.516  13.533  1.8247  1.5853 -1.0590
  670MPD2     N 9920   2.473   2.716  13.888  0.4462  0.0219  0.1388
  670MPD2    H5 9921   2.417   2.799  13.907 -0.0204 -0.4088  0.6429
  670MPD2    N1 9922   2.587   2.962  13.498 -0.1656  0.3302  0.3126
  670MPD2    H7 9923   2.534   3.035  13.544 -0.5226  0.5749 -0.4873
  671TMC3    C1 9924   2.425   2.649  14.115  0.5819  0.0237 -0.0604
  671TMC3    C2 9925   2.485   2.603  14.224  0.2855 -0.1741  0.1372
  671TMC3    C3 9926   2.407   2.510  14.295 -0.1940  0.1039  0.0209
  671TMC3    C4 9927   2.296   2.627  14.082 -0.1297  0.0195 -0.3490
  671TMC3    C5 9928   2.220   2.537  14.157  0.1792  0.5058  0.1883
  671TMC3    C6 9929   2.275   2.475  14.267  0.2625  0.7481  0.3178
  671TMC3     C 9930   2.502   2.631  13.992  0.6933 -0.3201  0.0850
  671TMC3     O 9931   2.592   2.548  13.997  0.2248 -0.5633 -0.3922
  671TMC3     H 9932   2.592   2.592  14.214  0.4368  1.9769 -0.4678
  671TMC3    H1 9933   2.248   2.672  13.996 -2.0584 -1.1506  0.1165
  671TMC3    H2 9934   2.238   2.392  14.326  0.4354  0.9419  0.6978
  671TMC3    C7 9935   2.124   2.461  14.080  0.5595 -0.3091 -0.1406
  671TMC3    C8 9936   2.483   2.396  14.343  0.4013  0.9320  0.3480
  671TMC3    O1 9937   2.139   2.473  13.959 -0.3378  0.5888 -0.1123
  671TMC3    O2 9938   2.443   2.292  14.300 -0.5438 -0.1712  0.1178
  672MPD2     C 9939   3.686   3.005  17.548  0.2529 -0.4733 -0.3857
  672MPD2    C1 9940   3.619   3.023  17.671 -0.5267 -0.9790 -0.1466
  672MPD2    C2 9941   3.680   3.102   0.059  0.0021 -0.2704 -0.1230
  672MPD2    C3 9942   3.786   3.184   0.023 -0.1525  0.7218  0.5929
  672MPD2    C4 9943   3.839   3.181  17.594  0.2358 -0.1694  0.8049
  672MPD2    C5 9944   3.788   3.088  17.513  0.5758  0.3691  0.2770
  672MPD2     H 9945   3.637   3.122   0.157  0.0669 -2.6233  0.3718
  672MPD2    H1 9946   3.925   3.234  17.556 -0.5067  1.2837  1.1447
  672MPD2    H2 9947   3.645   2.926  17.486  2.1720 -0.4357 -1.6978
  672MPD2    H3 9948   3.823   3.075  17.411  1.4243 -0.4268  0.6691
  672MPD2     N 9949   3.855   3.265   0.112  0.1458  0.7936  0.6266
  672MPD2    H5 9950   3.942   3.306   0.080  0.8003 -1.6789 -0.8090
  672MPD2    N1 9951   3.510   2.940   0.012  0.1247  0.1843 -0.1985
  672MPD2    H7 9952   3.489   2.948   0.111 -0.6754 -1.7558 -0.2226
  673TMC3    C1 9953   3.314   2.817   0.012  0.4583  0.3165 -0.1571
  673TMC3    C2 9954   3.347   2.744   0.120 -0.2664 -0.2020  0.5716
  673TMC3    C3 9955   3.242   2.695   0.189 -0.0338 -0.0963 -0.5140
  673TMC3    C4 9956   3.186   2.820  17.668 -0.4219  0.6266  0.0723
  673TMC3    C5 9957   3.081   2.770   0.039 -0.5464 -0.5996  0.7992
  673TMC3    C6 9958   3.109   2.706   0.156  0.0510 -0.0272  0.1873
  673TMC3     C 9959   3.433   2.869  17.631 -0.1372 -0.0927  0.3778
  673TMC3     O 9960   3.419   2.880  17.512 -0.0329 -0.0658  0.5275
  673TMC3     H 9961   3.452   2.728   0.143 -0.4932 -2.0972  0.3390
  673TMC3    H1 9962   3.171   2.889  17.586  1.7988  0.5861 -0.3894
  673TMC3    H2 9963   3.033   2.660   0.219  0.7084 -1.6609 -0.2178
  673TMC3    C7 9964   2.968   2.866   0.044  0.0769  0.7208 -0.0648
  673TMC3    C8 9965   3.263   2.632   0.317 -0.6783  0.2239 -0.8121
  673TMC3    O1 9966   2.974   2.956  17.664  0.3212  0.4632  0.2283
  673TMC3    O2 9967   3.170   2.591   0.385  0.5103 -0.3927 -0.0040
  674MPD2     C 9968   3.655   2.469   0.085 -0.2120 -0.2560  0.6165
  674MPD2    C1 9969   3.525   2.446   0.043  0.9765  0.0868  0.4386
  674MPD2    C2 9970   3.443   2.358   0.115  0.2892 -0.3105  0.0549
  674MPD2    C3 9971   3.488   2.304   0.226  0.3811  0.3682 -0.1721
  674MPD2    C4 9972   3.618   2.324   0.271  0.2029  0.0035  0.3673
  674MPD2    C5 9973   3.699   2.406   0.200 -0.7945 -0.2467  0.7811
  674MPD2     H 9974   3.347   2.327   0.074  0.5792  0.0593 -0.8924
  674MPD2    H1 9975   3.666   2.299   0.365  0.4756  1.1424  0.5235
  674MPD2    H2 9976   3.719   2.547   0.044  0.4803 -0.8780  0.5227
  674MPD2    H3 9977   3.800   2.422   0.235 -0.4293 -0.4774 -0.1631
  674MPD2     N 9978   3.385   2.250   0.315 -0.2371  0.0575  0.2437
  674MPD2    H5 9979   3.293   2.241   0.273  0.3951 -0.2142 -1.0815
  674MPD2    N1 9980   3.473   2.481  17.613  0.0883 -0.5355  0.9155
  674MPD2    H7 9981   3.387   2.432  17.591 -0.0040  0.1825 -0.3261
  675TMC3    C1 9982   3.459   2.591  17.393  0.7784  0.1141 -0.4625
  675TMC3    C2 9983   3.340   2.525  17.367 -0.0508  0.1182 -0.1365
  675TMC3    C3 9984   3.277   2.550  17.247  0.0286 -0.5863 -1.1484
  675TMC3    C4 9985   3.521   2.673  17.300  0.2442 -0.5650 -0.2059
  675TMC3    C5 9986   3.468   2.686  17.177  0.0994 -0.4392 -0.3890
  675TMC3    C6 9987   3.345   2.620  17.155  0.6307  0.3778 -0.2596
  675TMC3     C 9988   3.537   2.566  17.520 -0.1124  0.2249  0.4563
  675TMC3     O 9989   3.640   2.630  17.539  0.2435  0.4678 -1.4193
  675TMC3     H 9990   3.309   2.443  17.430  2.3440 -0.4381  0.3401
  675TMC3    H1 9991   3.601   2.736  17.337 -0.9845  1.0904 -0.3688
  675TMC3    H2 9992   3.297   2.625  17.058  0.8984  0.6096 -0.3789
  675TMC3    C7 9993   3.474   2.824  17.123  0.2060  0.2914  0.0029
  675TMC3    C8 9994   3.167   2.465  17.205  0.4349 -0.4961  0.4492
  675TMC3    O1 9995   3.492   2.832  17.002 -0.3584 -0.4800 -0.5570
  675TMC3    O2 9996   3.135   2.453  17.087 -0.2450  0.4440 -0.8180
  676MPD2     C 9997   0.404   1.173  10.857 -0.2728  0.8140  0.6336
  676MPD2    C1 9998   0.423   1.117  10.983 -0.0605  0.2932 -0.3039
  676MPD2    C2 9999   0.442   0.979  10.996 -0.1866 -0.5511 -0.0707
  676MPD2    C310000   0.452   0.897  10.888  0.6208  0.0589 -0.6927
  676MPD2    C410001   0.427   0.956  10.769 -0.2957  1.0430  0.3659
  676MPD2    C510002   0.396   1.089  10.749  0.0063  0.8505  0.7926
  676MPD2     H10003   0.451   0.933  11.094 -0.1044  0.8285  0.5653
  676MPD2    H110004   0.438   0.905  10.674  0.3215  1.1339  0.3886
  676MPD2    H210005   0.389   1.280  10.850 -1.3745  0.6573  0.6498
  676MPD2    H310006   0.370   1.122  10.649  0.3194  1.2425  0.8409
  676MPD2     N10007   0.494   0.762  10.893  0.0093  0.4560 -0.1859
  676MPD2    H510008   0.517   0.719  10.804  0.6521 -1.0833  0.7373
  676MPD2    N110009   0.423   1.185  11.108  0.0826  0.3195  0.4354
  676MPD2    H710010   0.428   1.133  11.195  0.2904 -0.6339 -0.1503
  677TMC3    C110011   0.383   1.352  11.267  0.4351  0.1520 -0.7861
  677TMC3    C210012   0.294   1.272  11.329  0.5607  0.4091  0.2659
  677TMC3    C310013   0.265   1.304  11.465 -0.3380  0.5476 -0.5100
  677TMC3    C410014   0.436   1.470  11.316  0.1677 -0.7075  0.3369
  677TMC3    C510015   0.391   1.504  11.441  0.6346  0.0139  0.6983
  677TMC3    C610016   0.298   1.429  11.509 -0.1729 -0.3099 -0.2335
  677TMC3     C10017   0.416   1.319  11.130 -0.1572  0.1993 -0.5168
  677TMC3     O10018   0.449   1.410  11.057 -0.5347 -0.8997  0.0716
  677TMC3     H10019   0.242   1.186  11.289 -0.6151  2.0870 -1.8289
  677TMC3    H110020   0.488   1.542  11.253 -1.4420  2.0409  2.1214
  677TMC3    H210021   0.265   1.469  11.604  2.3325 -0.6536  0.7959
  677TMC3    C710022   0.469   1.598  11.508 -0.1587 -0.1630  0.9592
  677TMC3    C810023   0.153   1.226  11.523  1.0916  0.5038 -0.4775
  677TMC3    O110024   0.423   1.652  11.609  0.1627  0.8242 -0.2916
  677TMC3    O210025   0.068   1.204  11.443 -0.2862 -0.5136 -0.5545
  678MPD2     C10026   1.757   0.317   0.367 -0.0720 -0.0933  0.3694
  678MPD2    C110027   1.730   0.444   0.416  0.1672  0.2283 -0.3852
  678MPD2    C210028   1.597   0.483   0.445 -0.3098 -0.2560  0.1430
  678MPD2    C310029   1.498   0.391   0.421 -0.2117 -0.9495  0.0780
  678MPD2    C410030   1.523   0.262   0.375 -0.3633 -0.2856  0.4384
  678MPD2    C510031   1.653   0.226   0.351  0.9371 -0.1718  0.1338
  678MPD2     H10032   1.567   0.572   0.499  1.5121  0.6775 -0.3575
  678MPD2    H110033   1.447   0.190   0.351 -0.0153  0.0971 -1.7449
  678MPD2    H210034   1.858   0.288   0.341 -0.8634 -1.3918 -1.2911
  678MPD2    H310035   1.669   0.127   0.308  1.6259  0.4324 -1.0211
  678MPD2     N10036   1.364   0.429   0.449 -0.6332 -0.5529  0.4937
  678MPD2    H510037   1.343   0.528   0.463 -3.6113 -0.6845 -3.0099
  678MPD2    N110038   1.829   0.539   0.434  0.3467  0.4701 -0.2022
  678MPD2    H710039   1.802   0.635   0.455 -1.8685  0.0994 -1.2910
  679TMC3    C110040   2.279   0.676   0.446 -0.1727  0.4567 -0.7884
  679TMC3    C210041   2.174   0.594   0.473  0.0183  0.1791  0.0354
  679TMC3    C310042   2.043   0.629   0.453 -0.6989  0.7004 -0.6817
  679TMC3    C410043   2.256   0.789   0.375 -0.0329  0.4397 -0.3229
  679TMC3    C510044   2.119   0.822   0.347 -0.3464 -0.0684 -0.5147
  679TMC3    C610045   2.016   0.748   0.390  0.0896  0.3625  0.1024
  679TMC3     C10046   2.412   0.607   0.479  0.2959 -0.2913 -0.0042
  679TMC3     O10047   2.414   0.500   0.540  0.6140 -0.3198 -0.0319
  679TMC3     H10048   2.193   0.503   0.530 -0.9577  0.0018  0.0701
  679TMC3    H110049   2.332   0.861   0.349  1.5225  0.0792  3.1786
  679TMC3    H210050   1.914   0.772   0.360 -0.3240 -2.2064 -0.5821
  679TMC3    C710051   2.096   0.935   0.265  0.1416 -0.8981 -0.0190
  679TMC3    C810052   1.963   0.513   0.441  0.2408  0.0440 -0.0106
  679TMC3    O110053   1.983   0.988   0.266 -0.7322  0.0615  0.1788
  679TMC3    O210054   2.024   0.408   0.434  0.0760 -0.1380  0.1785
  680MPD2     C10055   2.648   0.090  13.763  0.1693  0.4901 -0.0547
  680MPD2    C110056   2.730   4.720  13.819 -0.3924  0.2310 -0.4502
  680MPD2    C210057   2.838   0.023  13.904  0.2868  0.1587 -0.4460
  680MPD2    C310058   2.859   0.160  13.926  0.4615  0.1329  0.1769
  680MPD2    C410059   2.778   0.252  13.865 -0.1495 -0.6516 -0.0312
  680MPD2    C510060   2.667   0.221  13.794  0.1097 -0.3093  0.1430
  680MPD2     H10061   2.908   4.671  13.935  1.4995  0.8217 -1.5350
  680MPD2    H110062   2.785   0.359  13.875  1.2477 -0.7988  0.6185
  680MPD2    H210063   2.559   0.059  13.707 -1.3662  2.2293  1.4356
  680MPD2    H310064   2.609   0.296  13.740  2.9805  2.0167  0.3088
  680MPD2     N10065   2.979   0.202  13.982 -0.1280 -0.3617  0.8101
  680MPD2    H510066   2.996   0.302  13.975  1.8707 -0.7240  0.6884
  680MPD2    N110067   2.716   4.582  13.786  0.2943  0.0266 -0.3171
  680MPD2    H710068   2.773   4.523  13.846  1.6979  1.4507 -0.2601
  681TMC3    C110069   2.632   4.392  13.676 -0.2200  0.0652 -0.2618
  681TMC3    C210070   2.604   4.316  13.787 -0.3420 -0.3970 -0.3429
  681TMC3    C310071   2.583   4.178  13.767 -0.7441 -0.6380 -0.9604
  681TMC3    C410072   2.638   4.332  13.551 -0.3568 -0.3940  0.7543
  681TMC3    C510073   2.626   4.197  13.539 -0.1912 -0.4069 -0.7919
  681TMC3    C610074   2.600   4.118  13.645  0.5070 -0.4015 -0.0751
  681TMC3     C10075   2.636   4.535  13.686 -0.1614 -0.5328  0.5560
  681TMC3     O10076   2.598   4.585  13.578  0.0210 -0.0487 -0.2994
  681TMC3     H10077   2.601   4.361  13.885 -2.2655  0.1508 -0.6524
  681TMC3    H110078   2.636   4.386  13.457 -2.4621 -1.7947 -0.0233
  681TMC3    H210079   2.579   4.013  13.632 -1.2333 -0.4767  3.4509
  681TMC3    C710080   2.609   4.138  13.411  0.5483  0.0782  0.4183
  681TMC3    C810081   2.549   4.085  13.879 -0.0290 -0.2498  0.4688
  681TMC3    O110082   2.536   4.041  13.411  0.0962  0.1134 -0.7502
  681TMC3    O210083   2.549   3.964  13.856  0.3197 -0.1245 -0.2974
  682MPD2     C10084   4.371   1.190  10.694  0.0731  0.0139  0.2967
  682MPD2    C110085   4.417   1.075  10.758 -0.6125  0.3680 -0.1500
  682MPD2    C210086   4.422   1.074  10.894 -0.3891  0.6568 -0.0585
  682MPD2    C310087   4.394   1.185  10.970 -0.9139 -0.2797 -0.2192
  682MPD2    C410088   4.362   1.305  10.907  0.0945 -0.2805  0.1279
  682MPD2    C510089   4.344   1.303  10.770 -0.5334  0.0054 -0.1839
  682MPD2     H10090   4.452   0.984  10.947 -0.1361 -0.8335 -2.7561
  682MPD2    H110091   4.338   1.393  10.965 -3.5773 -0.4809 -1.1424
  682MPD2    H210092   4.354   1.205  10.588  0.9389 -0.2733  0.1204
  682MPD2    H310093   4.324   1.397  10.719 -2.3537  0.3064  1.1061
  682MPD2     N10094   4.403   1.167  11.113 -0.0220 -0.2040  0.7488
  682MPD2    H510095   4.404   1.071  11.145 -0.0783  0.4050  2.5665
  682MPD2    N110096   4.456   0.959  10.687  0.4192 -0.1179  0.9935
  682MPD2    H710097   4.473   0.871  10.734 -0.8359 -0.5299  0.6870
  683TMC3    C110098   4.392   1.353  11.559  0.1406  0.6873 -0.0599
  683TMC3    C210099   4.444   1.243  11.620 -0.3452  0.5893 -0.6860
  683TMC3    C310100   4.466   1.131  11.535 -0.3993  0.0717 -0.6138
  683TMC3    C410101   4.364   1.358  11.426 -0.3702  0.5600  0.0159
  683TMC3    C510102   4.392   1.255  11.346  0.0853 -1.0318 -0.0408
  683TMC3    C610103   4.446   1.134  11.401 -0.0246 -0.5971  0.0129
  683TMC3     C10104   4.440   1.477  11.621 -0.2761  1.0038 -1.0159
  683TMC3     O10105   4.378   1.578  11.587 -0.1031  0.5600  0.1920
  683TMC3     H10106   4.473   1.233  11.724 -1.4535  1.3085 -0.3041
  683TMC3    H110107   4.328   1.452  11.387 -0.7326  0.3690 -0.1171
  683TMC3    H210108   4.476   1.061  11.327  1.7041  0.5145 -0.3884
  683TMC3    C710109   4.403   1.278  11.202 -0.8364 -0.5435  0.2654
  683TMC3    C810110   4.566   1.044  11.582 -0.0683  0.2515  0.0948
  683TMC3    O110111   4.405   1.398  11.172  0.0411  0.6113 -0.8868
  683TMC3    O210112   4.629   1.077  11.681 -0.2924 -0.1387  0.0499
  684MPD2     C10113   2.218   0.627  16.021  0.4363  0.7979  0.1983
  684MPD2    C110114   2.278   0.641  15.896 -0.2734  0.2469  0.4322
  684MPD2    C210115   2.323   0.765  15.843 -0.2877  0.6487 -0.2511
  684MPD2    C310116   2.311   0.880  15.923  0.2129 -0.3288 -0.2117
  684MPD2    C410117   2.262   0.859  16.055  0.4471  1.0093  0.3945
  684MPD2    C510118   2.219   0.736  16.099 -0.0601 -1.0908 -0.6390
  684MPD2     H10119   2.352   0.780  15.740 -1.0691  2.6644 -0.1883
  684MPD2    H110120   2.279   0.942  16.123  1.4422 -0.2486  1.6649
  684MPD2    H210121   2.189   0.528  16.054 -0.0428 -0.2724 -3.4623
  684MPD2    H310122   2.191   0.730  16.203 -2.0173  2.7266 -0.9208
  684MPD2     N10123   2.337   1.017  15.891  0.0920 -0.2300  0.4277
  684MPD2    H510124   2.312   1.082  15.964  0.8899 -2.3425  2.6015
  684MPD2    N110125   2.310   0.531  15.810  0.4688  0.7077  0.0387
  684MPD2    H710126   2.347   0.554  15.718 -2.4494 -1.6541 -1.7204
  685TMC3    C110127   2.337   0.303  15.750  0.5249  0.6233  0.0291
  685TMC3    C210128   2.313   0.333  15.619  0.9514  0.6209 -0.1186
  685TMC3    C310129   2.362   0.249  15.527  0.4005 -0.2248  0.0743
  685TMC3    C410130   2.416   0.194  15.795  0.2823  0.0932 -1.0850
  685TMC3    C510131   2.477   0.117  15.694  0.3630  0.1571  0.1724
  685TMC3    C610132   2.450   0.146  15.562  0.5768 -0.4345 -0.5191
  685TMC3     C10133   2.298   0.393  15.852  0.2448  0.7353 -0.1673
  685TMC3     O10134   2.303   0.355  15.969  0.8429  0.0716  0.2842
  685TMC3     H10135   2.261   0.428  15.604  1.9853  1.0351 -1.1170
  685TMC3    H110136   2.439   0.176  15.899 -0.8490  0.7121 -0.7237
  685TMC3    H210137   2.484   0.076  15.487  0.4178 -0.3367 -0.6865
  685TMC3    C710138   2.608   0.076  15.732 -0.1397 -0.6499  0.0307
  685TMC3    C810139   2.270   0.205  15.421 -0.5564  0.3867 -0.1376
  685TMC3    O110140   2.615   0.045  15.850 -0.1982  0.1375 -0.4218
  685TMC3    O210141   2.273   0.091  15.373 -0.1700 -0.1620 -0.1312
  686MPD2     C10142   3.691   0.729  15.335  0.4564 -0.4622 -0.0795
  686MPD2    C110143   3.775   0.683  15.427  1.0087  1.2367 -0.4588
  686MPD2    C210144   3.886   0.605  15.397  0.0638  0.4020 -0.0531
  686MPD2    C310145   3.905   0.553  15.270  0.7608 -0.2636 -0.3107
  686MPD2    C410146   3.832   0.611  15.171  0.7955  0.3786  0.4791
  686MPD2    C510147   3.727   0.694  15.207  0.6132  0.0715 -0.1774
  686MPD2     H10148   3.955   0.579  15.476 -1.2371 -1.4308  0.4563
  686MPD2    H110149   3.840   0.592  15.065  1.7229 -1.4799  0.8859
  686MPD2    H210150   3.597   0.778  15.353  0.9839  0.2643  0.7153
  686MPD2    H310151   3.666   0.748  15.136 -1.8044 -0.8486  1.1850
  686MPD2     N10152   4.005   0.449  15.249  0.6766 -0.1701  0.1078
  686MPD2    H510153   4.050   0.449  15.158 -0.2743 -0.3878 -0.3621
  686MPD2    N110154   3.739   0.713  15.558 -0.2600  0.1832 -0.1506
  686MPD2    H710155   3.642   0.742  15.560  0.0774  1.2526  1.2764
  687TMC3    C110156   4.000   0.340  15.476  0.4321 -1.2994 -0.2542
  687TMC3    C210157   3.865   0.310  15.487  0.1182  0.5154 -0.3538
  687TMC3    C310158   3.807   0.288  15.609 -0.0607  0.3465  1.2046
  687TMC3    C410159   4.077   0.329  15.591 -0.0988  0.3340 -0.5776
  687TMC3    C510160   4.024   0.298  15.708  0.6846  0.4350  0.6411
  687TMC3    C610161   3.884   0.284  15.719 -0.4315  0.0849 -0.4997
  687TMC3     C10162   4.062   0.363  15.343  0.3190  0.1741  0.0837
  687TMC3     O10163   4.172   0.307  15.322 -0.6528  0.3658  0.1333
  687TMC3     H10164   3.812   0.284  15.396  2.5097  0.9260 -1.8648
  687TMC3    H110165   4.182   0.353  15.580  0.3339 -0.1330  2.5142
  687TMC3    H210166   3.843   0.261  15.817  1.0412  2.1127  0.6048
  687TMC3    C710167   4.113   0.278  15.826 -0.5496  0.5728  0.5665
  687TMC3    C810168   3.659   0.281  15.616  0.7506  0.5261  0.0711
  687TMC3    O110169   4.058   0.284  15.934  0.0983  0.3605  0.0931
  687TMC3    O210170   3.615   0.224  15.712  0.1884 -0.8115  0.3382
  688MPD2     C10171   3.239   4.365  16.926  0.4704  0.1181 -0.2912
  688MPD2    C110172   3.275   4.233  16.947  0.4686  0.4070 -0.2633
  688MPD2    C210173   3.378   4.178  16.868  0.1074 -0.3965  0.4764
  688MPD2    C310174   3.435   4.258  16.766  0.1378 -0.4291 -0.1694
  688MPD2    C410175   3.387   4.383  16.745 -0.3852 -0.0084 -0.4174
  688MPD2    C510176   3.299   4.440  16.828 -0.1799 -0.4913  0.0773
  688MPD2     H10177   3.429   4.085  16.888 -0.1267 -0.9783 -1.6469
  688MPD2    H110178   3.424   4.438  16.659  2.7239  0.1834  1.0544
  688MPD2    H210179   3.163   4.411  16.988 -0.0994 -0.8732 -0.2604
  688MPD2    H310180   3.265   4.538  16.797  0.8385  0.4337  1.9346
  688MPD2     N10181   3.548   4.220  16.688 -0.5140 -0.5251 -0.3377
  688MPD2    H510182   3.576   4.288  16.617 -2.5913  2.1044  1.3577
  688MPD2    N110183   3.200   4.163  17.046 -0.0940  0.2412  0.8527
  688MPD2    H710184   3.137   4.222  17.099 -0.0407  1.0828 -0.0244
  689TMC3    C110185   3.141   3.996  17.196  0.1035 -0.4782  0.4693
  689TMC3    C210186   3.123   4.091  17.290  0.2191  0.5776 -0.1098
  689TMC3    C310187   3.074   4.064  17.409  0.5806  0.4405 -1.0779
  689TMC3    C410188   3.122   3.869  17.223 -0.2752  0.2189  0.3132
  689TMC3    C510189   3.079   3.838  17.348  0.1651  0.0656  0.0557
  689TMC3    C610190   3.041   3.937  17.443  0.4833 -0.4759 -0.1723
  689TMC3     C10191   3.228   4.031  17.077  0.9372 -0.0083 -0.3830
  689TMC3     O10192   3.308   3.952  17.032  0.0145  0.3895 -0.1014
  689TMC3     H10193   3.156   4.194  17.285 -0.2561  0.6910 -0.9246
  689TMC3    H110194   3.147   3.791  17.152  0.9040 -0.7728  1.8248
  689TMC3    H210195   3.006   3.919  17.544  1.3664  0.4067  0.2786
  689TMC3    C710196   3.066   3.697  17.391 -0.4936 -0.2038  0.8750
  689TMC3    C810197   3.085   4.154  17.522  0.5928  0.0522 -0.1952
  689TMC3    O110198   3.085   3.678  17.511 -0.0112 -0.0063  0.1175
  689TMC3    O210199   3.028   4.125  17.626  0.6158  0.0397  0.2187
  690MPD2     C10200   0.911   1.330  15.222 -0.4936  0.5599  0.7164
  690MPD2    C110201   0.927   1.312  15.088 -0.5766  0.2165 -0.1682
  690MPD2    C210202   1.041   1.360  15.028 -0.5909  0.2543 -0.4689
  690MPD2    C310203   1.137   1.432  15.089 -0.2343  0.2442 -0.1686
  690MPD2    C410204   1.124   1.451  15.228  1.0147  0.1202  0.7367
  690MPD2    C510205   1.008   1.403  15.290  0.3707  0.0839  0.1536
  690MPD2     H10206   1.043   1.351  14.920 -2.4923  0.7834 -0.5487
  690MPD2    H110207   1.189   1.524  15.276 -0.1437  0.7245  1.3914
  690MPD2    H210208   0.821   1.300  15.275 -0.6862  0.5735  0.4003
  690MPD2    H310209   0.991   1.425  15.395 -0.7048  1.7655 -0.3663
  690MPD2     N10210   1.234   1.499  15.006  0.2109 -0.4800 -0.6484
  690MPD2    H510211   1.251   1.473  14.910 -1.7290  0.7641 -1.3339
  690MPD2    N110212   0.842   1.234  15.002  0.0260  0.8316  0.4780
  690MPD2    H710213   0.875   1.211  14.909  1.7401  1.8283  0.8222
  691TMC3    C110214   0.651   1.145  14.916  0.0698  0.5450 -0.1256
  691TMC3    C210215   0.513   1.157  14.923 -0.4325  0.2180  0.3731
  691TMC3    C310216   0.438   1.053  14.875 -0.7714 -0.4435 -0.0335
  691TMC3    C410217   0.703   1.021  14.899 -0.4365 -0.0608  0.1461
  691TMC3    C510218   0.621   0.918  14.861 -0.0916 -0.9677  0.0657
  691TMC3    C610219   0.490   0.933  14.845 -0.7609 -0.7912 -0.8021
  691TMC3     C10220   0.713   1.217  15.022  0.2053 -0.1576  0.8364
  691TMC3     O10221   0.654   1.251  15.125  0.1215 -0.0033 -0.1496
  691TMC3     H10222   0.476   1.258  14.938  1.4833  0.7858  1.3156
  691TMC3    H110223   0.806   0.996  14.925  0.8724  4.0050 -1.2191
  691TMC3    H210224   0.427   0.852  14.809 -0.6083 -1.8156  1.2157
  691TMC3    C710225   0.672   0.792  14.911  0.5213  0.0059 -0.1697
  691TMC3    C810226   0.290   1.066  14.866 -0.3063 -0.6592 -0.2052
  691TMC3    O110227   0.790   0.775  14.908 -0.1608  0.0413  0.7421
  691TMC3    O210228   0.225   0.995  14.794  0.7269  0.3617  0.4780
  692TMC3    C110229   2.576   2.352  15.613 -0.2968  0.1823 -0.0583
  692TMC3    C210230   2.608   2.460  15.687  0.1145  0.0144  0.3698
  692TMC3    C310231   2.733   2.469  15.747  1.1581 -0.4551 -1.1924
  692TMC3    C410232   2.667   2.251  15.588  0.2385 -0.4767 -0.2133
  692TMC3    C510233   2.791   2.259  15.642  0.0274  0.0356  0.0353
  692TMC3    C610234   2.822   2.372  15.720 -0.3742  0.5112 -0.7386
  692TMC3     C10235   2.456   2.354  15.523 -0.4332  0.0759  0.6422
  692TMC3     O10236   2.455   2.271  15.434 -0.3154 -0.4940  0.3681
  692TMC3     H10237   2.532   2.531  15.718 -1.5379 -1.7636  0.3818
  692TMC3    H110238   2.643   2.162  15.532 -0.6902 -0.0620 -0.4805
  692TMC3    H210239   2.911   2.359  15.780 -0.8721 -1.3757 -0.4057
  692TMC3    C710240   2.868   2.144  15.651  0.7726 -0.4329 -0.7512
  692TMC3    C810241   2.719   2.476  15.895 -0.1239 -0.5523  0.2618
  692TMC3    O110242   2.981   2.148  15.703  0.2721  0.7921  0.1271
  692TMC3    O210243   2.768   2.389  15.965 -0.4427 -0.0305  0.5848
  693MPD2     C10244   1.824   0.553  11.044  1.0456 -0.6156  0.7105
  693MPD2    C110245   1.802   0.477  10.933  0.0983  0.1921 -0.1628
  693MPD2    C210246   1.911   0.473  10.846  0.0003 -0.0794 -0.0932
  693MPD2    C310247   2.023   0.559  10.862 -0.6828 -0.7521  0.2019
  693MPD2    C410248   2.023   0.654  10.964 -0.2252  0.6182 -0.4328
  693MPD2    C510249   1.926   0.644  11.059  0.3516 -0.0091  0.4366
  693MPD2     H10250   1.904   0.413  10.756  0.7990  0.9094 -0.8104
  693MPD2    H110251   2.101   0.727  10.981 -0.9768  0.8564  2.0426
  693MPD2    H210252   1.738   0.564  11.108 -0.8209  1.6887 -2.1804
  693MPD2    H310253   1.930   0.714  11.142  0.2523  0.0687  0.3751
  693MPD2     N10254   2.133   0.535  10.767  0.4268  0.2054  0.1005
  693MPD2    H510255   2.112   0.461  10.700  0.2510  0.4203 -0.0816
  693MPD2    N110256   1.688   0.397  10.920 -0.2215 -0.1136  0.2696
  693MPD2    H710257   1.621   0.418  10.994 -1.2160 -0.1843 -0.6089
  694TMC3    C110258   1.528   0.255  10.824  0.4433 -0.4557  0.4081
  694TMC3    C210259   1.516   0.125  10.767  0.0278  0.1505 -0.4918
  694TMC3    C310260   1.428   0.035  10.820  0.1247 -1.0580  0.4267
  694TMC3    C410261   1.449   0.289  10.932 -0.0137  0.3104 -0.2851
  694TMC3    C510262   1.368   0.192  10.992  0.3659 -0.1259  0.0184
  694TMC3    C610263   1.366   0.063  10.941  0.5190  0.1290  0.1641
  694TMC3     C10264   1.653   0.313  10.810 -0.0640  0.5132 -0.3232
  694TMC3     O10265   1.723   0.279  10.717  0.2644 -0.0022 -0.0903
  694TMC3     H10266   1.584   0.102  10.686  1.9674 -0.7531  1.3881
  694TMC3    H110267   1.462   0.386  10.978  0.7692  0.3221 -0.5188
  694TMC3    H210268   1.295   4.712  10.973  2.2993 -1.3565  0.5844
  694TMC3    C710269   1.317   0.234  11.122  0.1708 -0.0226 -0.0580
  694TMC3    C810270   1.392   4.641  10.746  0.1264  0.1036  0.4720
  694TMC3    O110271   1.302   0.351  11.141  0.4801 -0.0732  0.8106
  694TMC3    O210272   1.354   4.544  10.813  0.3021 -0.3937 -0.5719
  695MPD2     C10273   2.581   1.942  13.481 -0.1594 -0.0360 -0.1575
  695MPD2    C110274   2.524   1.910  13.602 -0.0258 -0.2275 -0.5497
  695MPD2    C210275   2.391   1.927  13.617  0.3853 -0.6235  0.0056
  695MPD2    C310276   2.302   1.964  13.514  0.4873 -0.1520 -0.2568
  695MPD2    C410277   2.357   1.996  13.388 -0.0016  0.2495 -0.0905
  695MPD2    C510278   2.499   1.985  13.374 -0.0560  0.3817  0.6124
  695MPD2     H10279   2.354   1.911  13.718  1.9538 -0.6014  0.5797
  695MPD2    H110280   2.300   2.014  13.298  1.0447  0.0161 -0.7933
  695MPD2    H210281   2.687   1.961  13.469  0.0252 -0.3440  0.9622
  695MPD2    H310282   2.548   1.992  13.277 -1.6065 -0.8341 -0.2644
  695MPD2     N10283   2.167   1.980  13.540  0.1778 -0.5579  0.5823
  695MPD2    H510284   2.149   1.951  13.635  1.3115 -0.2519  0.8873
  695MPD2    N110285   2.608   1.891  13.713 -0.0584 -0.0965  0.0305
  695MPD2    H710286   2.564   1.868  13.802  0.5986  0.1616  0.4206
  696TMC3    C110287   1.930   2.047  13.496 -0.1697  0.1405  0.1308
  696TMC3    C210288   1.885   1.980  13.609 -0.5750 -0.5478 -0.1624
  696TMC3    C310289   1.758   2.016  13.648 -0.6488  0.1260 -0.0849
  696TMC3    C410290   1.854   2.131  13.420 -0.0560  0.2903 -0.4674
  696TMC3    C510291   1.726   2.159  13.463 -0.0031 -0.9102 -0.8476
  696TMC3    C610292   1.680   2.104  13.583 -0.8307 -0.0071 -0.2154
  696TMC3     C10293   2.070   2.029  13.451  0.8523  0.0165  0.2510
  696TMC3     O10294   2.088   2.073  13.338  0.0238  0.0593  0.2511
  696TMC3     H10295   1.938   1.896  13.654  0.2190 -1.3106 -2.5092
  696TMC3    H110296   1.897   2.178  13.332  0.3169 -0.0464 -0.4665
  696TMC3    H210297   1.583   2.136  13.619 -0.9520 -0.0366 -0.5135
  696TMC3    C710298   1.716   2.308  13.462  0.0403 -0.4292 -0.3232
  696TMC3    C810299   1.747   2.024  13.784  0.3760  0.1756  0.5942
  696TMC3    O110300   1.719   2.363  13.352 -0.2307 -0.1683  0.8415
  696TMC3    O210301   1.637   2.015  13.841  0.3059 -0.2848 -0.3322
  697MPD2     C10302   2.205   3.868  15.651  0.6416 -0.0624  0.3640
  697MPD2    C110303   2.118   3.879  15.544  0.3850 -0.4430 -0.1174
  697MPD2    C210304   2.119   3.986  15.458  0.6000 -0.2969  0.3326
  697MPD2    C310305   2.225   4.071  15.456 -0.3944 -0.6334  0.3260
  697MPD2    C410306   2.312   4.068  15.562  0.0998  0.4083 -0.4389
  697MPD2    C510307   2.298   3.970  15.654  0.0075 -0.0345 -0.1467
  697MPD2     H10308   2.035   4.001  15.391  0.2402 -1.7432  0.4618
  697MPD2    H110309   2.398   4.127  15.590 -0.5078  1.7405 -1.3564
  697MPD2    H210310   2.207   3.789  15.726  1.5490 -0.4500 -0.0682
  697MPD2    H310311   2.376   3.963  15.730  0.4749  2.2273 -0.4022
  697MPD2     N10312   2.235   4.155  15.345  0.0183 -1.0553 -0.0464
  697MPD2    H510313   2.159   4.147  15.277  0.2669 -1.0301 -0.3262
  697MPD2    N110314   2.015   3.784  15.523  0.1586  0.2470 -0.4970
  697MPD2    H710315   1.932   3.811  15.471 -0.0682  0.3875 -0.0568
  698TMC3    C110316   2.331   4.267  15.169  0.4406 -0.6523  0.5851
  698TMC3    C210317   2.415   4.363  15.111 -0.1638 -1.3328  0.2007
  698TMC3    C310318   2.376   4.405  14.982 -0.3282 -0.1905  0.3230
  698TMC3    C410319   2.242   4.194  15.091 -0.2177  0.9046 -0.0510
  698TMC3    C510320   2.205   4.243  14.971 -0.2270  0.0722  0.5625
  698TMC3    C610321   2.262   4.358  14.925  0.9795 -0.5079  0.5303
  698TMC3     C10322   2.342   4.231  15.309  0.2779  0.2870 -0.6515
  698TMC3     O10323   2.442   4.248  15.375  0.4336 -0.1165  0.0457
  698TMC3     H10324   2.508   4.388  15.160 -0.2492 -1.5231  0.4603
  698TMC3    H110325   2.188   4.103  15.115  1.2411  0.1445  0.3319
  698TMC3    H210326   2.245   4.375  14.819  2.0084  2.6998  0.8781
  698TMC3    C710327   2.171   4.148  14.870 -0.0608 -0.5089  0.0793
  698TMC3    C810328   2.462   4.477  14.891 -0.7492 -0.0379 -0.2909
  698TMC3    O110329   2.077   4.182  14.792 -0.3497 -0.2609  0.0698
  698TMC3    O210330   2.430   4.491  14.771 -0.2262 -0.4960 -0.1688
  699TMC3    C110331   2.119   1.764  13.189  0.8096  0.6615  0.2479
  699TMC3    C210332   2.206   1.707  13.278  0.5879  0.2824  0.8053
  699TMC3    C310333   2.154   1.629  13.378  0.2826 -0.5109 -0.4474
  699TMC3    C410334   1.987   1.776  13.221 -0.6564  0.6682  0.1120
  699TMC3    C510335   1.945   1.721  13.339  0.5095 -1.0816 -0.8546
  699TMC3    C610336   2.023   1.637  13.413 -0.2586  0.8716 -0.0471
  699TMC3     C10337   2.178   1.855  13.097  0.5655  0.6182  0.0564
  699TMC3     O10338   2.099   1.934  13.049 -0.5479  0.0757  0.6107
  699TMC3     H10339   2.313   1.711  13.265  0.6790  1.7475  1.9862
  699TMC3    H110340   1.916   1.835  13.164 -2.5776 -1.1875  0.5708
  699TMC3    H210341   1.977   1.556  13.469  0.4332 -0.1206 -0.9140
  699TMC3    C710342   1.802   1.731  13.370  0.4367  0.7140  0.0269
  699TMC3    C810343   2.240   1.554  13.478 -0.3915 -0.3388  0.0216
  699TMC3    O110344   1.726   1.797  13.298  0.2110  0.1947  0.2374
  699TMC3    O210345   2.191   1.502  13.577 -0.4335 -0.2630 -0.0311
  700TMC3    C110346   0.911   4.441  16.952 -0.3447 -0.2130  0.2826
  700TMC3    C210347   0.963   4.322  16.970 -0.4224  0.3388 -0.4355
  700TMC3    C310348   1.069   4.306  17.060  0.7433  0.1257  0.3579
  700TMC3    C410349   0.942   4.545  17.037 -0.2961 -0.3774 -0.0071
  700TMC3    C510350   1.049   4.533  17.121 -0.8143  0.2737  0.3814
  700TMC3    C610351   1.117   4.417  17.131  0.7683 -0.1572  1.4569
  700TMC3     C10352   0.879   4.485  16.821 -0.2149  0.0534 -0.0995
  700TMC3     O10353   0.796   4.424  16.752 -0.3797  0.4535 -0.2272
  700TMC3     H10354   0.932   4.242  16.904  0.6146  0.7846 -1.4535
  700TMC3    H110355   0.893   4.637  17.008 -0.6570 -0.6050 -0.1221
  700TMC3    H210356   1.196   4.397  17.203  0.7088 -2.3530  0.9305
  700TMC3    C710357   1.089   4.642  17.204  0.4158  0.5916  0.2568
  700TMC3    C810358   1.152   4.176  17.058 -0.9393 -0.3052  1.0146
  700TMC3    O110359   1.208   4.647  17.238 -0.7489  0.1032 -0.3475
  700TMC3    O210360   1.271   4.190  17.085 -0.3864 -0.4094 -0.8757
  701TMC3    C110361   1.053   3.405  15.452 -0.1711 -0.1536  0.5043
  701TMC3    C210362   1.023   3.332  15.334  0.2212  0.3093  0.9963
  701TMC3    C310363   1.097   3.373  15.217 -0.1958 -0.3453  0.2144
  701TMC3    C410364   1.143   3.505  15.455 -0.1101 -0.2632 -1.0948
  701TMC3    C510365   1.210   3.540  15.342  0.1730  0.5670  0.4264
  701TMC3    C610366   1.182   3.477  15.221  0.1064  0.3521  0.1020
  701TMC3     C10367   0.971   3.381  15.566  0.4715  0.0173  0.4199
  701TMC3     O10368   0.916   3.274  15.578 -0.4133 -0.5237  0.3126
  701TMC3     H10369   0.941   3.261  15.330 -0.4193  1.1365 -0.6903
  701TMC3    H110370   1.153   3.567  15.543 -0.8210  0.5174 -1.5589
  701TMC3    H210371   1.231   3.510  15.130 -0.7327 -1.1310 -0.8776
  701TMC3    C710372   1.283   3.668  15.355  0.1606  0.1910 -0.1822
  701TMC3    C810373   1.040   3.365  15.088  0.7196  0.9028 -0.2532
  701TMC3    O110374   1.238   3.749  15.427 -0.1707 -0.6386 -0.5306
  701TMC3    O210375   1.073   3.452  15.011 -0.2188 -0.7243 -0.5003
  702MPD2     C10376   0.888   0.405  10.431  0.1439  0.6120 -0.0007
  702MPD2    C110377   0.832   0.511  10.503  1.0355 -0.2133  0.4832
  702MPD2    C210378   0.844   0.640  10.454  0.1130 -0.3805  0.0289
  702MPD2    C310379   0.909   0.669  10.339 -0.1650 -0.1326  0.5809
  702MPD2    C410380   0.950   0.557  10.262  0.2276 -0.0031 -0.0018
  702MPD2    C510381   0.940   0.433  10.305 -0.3761 -0.1922 -0.1878
  702MPD2     H10382   0.807   0.719  10.518  1.3893 -0.0367  0.3465
  702MPD2    H110383   0.989   0.575  10.162 -0.4295  1.3387 -0.0301
  702MPD2    H210384   0.879   0.302  10.464  2.2873  0.2772 -0.5034
  702MPD2    H310385   0.978   0.359  10.235  0.5881  0.7379 -0.6474
  702MPD2     N10386   0.925   0.805  10.287 -0.2137  0.3824 -0.5782
  702MPD2    H510387   0.981   0.825  10.205  0.8746 -2.6064 -0.5635
  702MPD2    N110388   0.754   0.494  10.623 -0.6052  0.0434  0.1381
  702MPD2    H710389   0.700   0.572  10.658  0.9598  1.2852 -0.2461
  703TMC3    C110390   0.903   1.046  10.283 -0.0780  0.2249  0.8279
  703TMC3    C210391   0.812   1.153  10.311  0.8163  0.6326 -0.1536
  703TMC3    C310392   0.855   1.283  10.283 -0.1816 -0.1117  0.0966
  703TMC3    C410393   1.031   1.075  10.238 -0.3112  0.3740 -0.1002
  703TMC3    C510394   1.062   1.203  10.202  0.0118  0.2614  0.4669
  703TMC3    C610395   0.979   1.312  10.225 -0.2093 -0.5168 -0.3242
  703TMC3     C10396   0.870   0.918  10.343 -0.0010 -0.0092 -0.1330
  703TMC3     O10397   0.803   0.922  10.448  0.0703 -0.9033 -0.1492
  703TMC3     H10398   0.725   1.144  10.374  1.3053  2.5758  0.8195
  703TMC3    H110399   1.107   1.001  10.218 -2.2602 -2.0006  1.2203
  703TMC3    H210400   1.012   1.413  10.205 -2.0849 -0.1443 -1.6044
  703TMC3    C710401   1.199   1.239  10.174  0.5452 -0.1544 -0.3748
  703TMC3    C810402   0.803   1.386  10.377 -0.0565  0.8594  0.2844
  703TMC3    O110403   1.210   1.344  10.108  0.0306 -0.3897  0.7812
  703TMC3    O210404   0.880   1.469  10.413  0.3278  0.0834 -0.4689
  704TMC3    C110405   3.391   3.643  12.414 -0.5826 -0.2106 -0.5339
  704TMC3    C210406   3.508   3.705  12.370  1.3150  0.0126  0.0844
  704TMC3    C310407   3.624   3.638  12.397 -0.3383 -0.1280 -0.3935
  704TMC3    C410408   3.388   3.522  12.473  0.5445 -0.2057  0.3814
  704TMC3    C510409   3.504   3.451  12.471 -0.5702 -0.3049 -0.3641
  704TMC3    C610410   3.623   3.507  12.438  0.2020  0.2058 -0.3864
  704TMC3     C10411   3.283   3.655  12.314 -0.3419  0.2805 -0.2993
  704TMC3     O10412   3.168   3.639  12.348 -0.1681 -0.6476 -0.1865
  704TMC3     H10413   3.504   3.796  12.311 -0.9714 -0.7791 -1.0042
  704TMC3    H110414   3.290   3.479  12.494  0.7830 -1.1651 -0.4908
  704TMC3    H210415   3.711   3.444  12.443  0.7039  1.0970  1.9044
  704TMC3    C710416   3.495   3.314  12.451  0.1549 -0.6225 -0.3156
  704TMC3    C810417   3.719   3.662  12.295  0.0345  0.2213 -0.1427
  704TMC3    O110418   3.592   3.265  12.396  0.1115 -0.0529  0.6557
  704TMC3    O210419   3.679   3.704  12.188  0.3827  0.4476 -0.5161
  705MPD2     C10420   2.833   2.066  16.370  0.5255  0.0049  0.8499
  705MPD2    C110421   2.764   2.149  16.281 -0.6310  0.0484 -0.4046
  705MPD2    C210422   2.635   2.182  16.323  0.1118 -0.7003  0.1199
  705MPD2    C310423   2.592   2.151  16.450 -0.4072  0.3438  0.1862
  705MPD2    C410424   2.673   2.087  16.535  0.0979 -0.8771  0.0196
  705MPD2    C510425   2.794   2.029  16.493 -0.1679  0.2591  0.1617
  705MPD2     H10426   2.565   2.244  16.267  1.7875  0.4044 -0.7566
  705MPD2    H110427   2.632   2.067  16.633 -0.7694  2.2238  0.2784
  705MPD2    H210428   2.934   2.032  16.350  0.5291  0.4646  0.0979
  705MPD2    H310429   2.853   1.964  16.556 -1.5712 -1.4236 -0.2701
  705MPD2     N10430   2.468   2.189  16.495  0.3061 -0.7439  0.6075
  705MPD2    H510431   2.446   2.188  16.594 -3.3444  0.3963 -0.1689
  705MPD2    N110432   2.839   2.227  16.188 -0.0750  0.0255 -0.5146
  705MPD2    H710433   2.788   2.291  16.127  0.6273  0.0798 -1.0406
  706TMC3    C110434   3.167   2.385  15.899  0.3539  0.0888 -0.8783
  706TMC3    C210435   3.140   2.516  15.927 -0.4764  0.3662  0.5026
  706TMC3    C310436   3.052   2.535  16.030  0.0715  0.2312  0.3348
  706TMC3    C410437   3.112   2.277  15.960 -0.7637  0.4479  0.5365
  706TMC3    C510438   3.024   2.299  16.058  0.0531  0.4422 -0.0594
  706TMC3    C610439   2.995   2.427  16.088 -0.1903  0.2821  1.0106
  706TMC3     C10440   3.290   2.365  15.833  0.1741 -0.6517  0.9994
  706TMC3     O10441   3.368   2.458  15.847 -0.7536 -0.0377 -0.3825
  706TMC3     H10442   3.174   2.595  15.862 -0.7198  0.7679  0.8603
  706TMC3    H110443   3.162   2.181  15.954  0.2061  0.8657  2.0452
  706TMC3    H210444   2.928   2.448  16.170  1.2384 -0.7598  2.4441
  706TMC3    C710445   2.968   2.198  16.147 -1.0284  0.0241  0.2558
  706TMC3    C810446   2.968   2.653  16.022 -0.1806  0.5060 -1.1573
  706TMC3    O110447   3.045   2.103  16.171 -0.6358 -0.0526 -0.3149
  706TMC3    O210448   2.953   2.709  15.913  0.4770  0.4077 -0.9678
  707TMC3    C110449   4.191   1.157   0.972  0.7282 -0.1305 -0.0906
  707TMC3    C210450   4.103   1.056   0.989  0.1767  0.5853 -0.2427
  707TMC3    C310451   3.965   1.081   0.966  0.2868  0.1547 -0.3315
  707TMC3    C410452   4.150   1.285   0.944  0.2900  0.2627  0.2086
  707TMC3    C510453   4.016   1.304   0.925  0.2351 -0.7967 -1.3687
  707TMC3    C610454   3.918   1.207   0.932 -0.4939  0.3750  0.4838
  707TMC3     C10455   4.333   1.130   0.993  0.6242 -0.1524 -0.4221
  707TMC3     O10456   4.359   1.018   1.030  0.4138  0.3386  0.2119
  707TMC3     H10457   4.142   0.956   1.003  0.8764  0.9074  0.0667
  707TMC3    H110458   4.217   1.368   0.923  0.5992 -0.2146 -0.6974
  707TMC3    H210459   3.814   1.222   0.902 -0.2644 -1.1681 -1.0587
  707TMC3    C710460   3.959   1.420   0.864 -0.0962  0.0923 -0.1747
  707TMC3    C810461   3.876   0.963   0.935  0.3077 -0.2486  0.6479
  707TMC3    O110462   3.840   1.429   0.836 -0.2470  0.1930  0.5753
  707TMC3    O210463   3.758   0.991   0.929  0.1759 -0.1925 -0.1905
  708MPD2     C10464   1.886   0.027  13.885  0.9065 -0.3736  0.1535
  708MPD2    C110465   1.793   4.664  13.847 -0.6925 -0.6214  0.1260
  708MPD2    C210466   1.797   4.542  13.909  0.1917  0.2726 -0.3104
  708MPD2    C310467   1.892   4.512  14.007  0.5718  0.0785 -0.1874
  708MPD2    C410468   1.988   4.603  14.047  0.3439  0.0221 -0.6679
  708MPD2    C510469   1.974   4.723  13.992 -0.2877  0.6394 -0.1696
  708MPD2     H10470   1.727   4.467  13.874 -0.8068  0.6697  0.8294
  708MPD2    H110471   2.072   4.572  14.108 -1.2874  0.1696  1.6416
  708MPD2    H210472   1.876   0.130  13.853 -0.5661 -0.6676 -0.3581
  708MPD2    H310473   2.053   0.068  14.018 -0.3624 -0.1690  2.2193
  708MPD2     N10474   1.892   4.382  14.067 -0.4533 -0.3673  0.3655
  708MPD2    H510475   1.977   4.349  14.111  0.9527 -0.4581 -2.4021
  708MPD2    N110476   1.701   4.704  13.744  0.2819 -0.2535  0.0752
  708MPD2    H710477   1.699   0.080  13.729  1.1607 -0.4095 -1.0781
  709TMC3    C110478   1.488   4.703  13.646 -0.1307  0.6558  0.7314
  709TMC3    C210479   1.491   0.113  13.668  0.3565 -0.0913  0.2243
  709TMC3    C310480   1.381   0.190  13.641  0.0349 -0.1903 -0.3639
  709TMC3    C410481   1.378   4.640  13.589 -0.6544  0.0610  0.1788
  709TMC3    C510482   1.270   4.724  13.570  0.2378 -0.3778 -0.5129
  709TMC3    C610483   1.269   0.135  13.589 -0.6911  0.3355  0.1724
  709TMC3     C10484   1.602   4.624  13.686  0.4624  0.7554 -0.3028
  709TMC3     O10485   1.587   4.507  13.697  0.2989 -0.1358  0.1141
  709TMC3     H10486   1.569   0.157  13.730  1.9965 -1.2563 -1.0006
  709TMC3    H110487   1.372   4.533  13.579  0.4388  0.0343 -0.1428
  709TMC3    H210488   1.182   0.198  13.575 -0.4570  0.5912 -0.1101
  709TMC3    C710489   1.134   4.671  13.546 -0.0666 -0.1986 -0.1402
  709TMC3    C810490   1.410   0.333  13.608  0.7668  0.1412  0.7644
  709TMC3    O110491   1.081   0.033  13.476  0.2088  0.1310 -0.0475
  709TMC3    O210492   1.467   0.405  13.686 -0.4999 -0.1516 -0.5399
  710TMC3    C110493   2.029   1.799   0.173  0.1620  0.2196  0.7773
  710TMC3    C210494   1.979   1.852   0.060  0.1827  0.9537  0.0683
  710TMC3    C310495   1.936   1.766  17.667 -0.7915  0.5008 -0.0434
  710TMC3    C410496   2.041   1.669   0.198  0.2615  0.3520  0.3632
  710TMC3    C510497   2.013   1.586   0.095 -0.5475  0.2611  0.7354
  710TMC3    C610498   1.960   1.629  17.680 -0.4089 -0.2205 -0.5520
  710TMC3     C10499   2.112   1.886   0.252  0.1300  0.4216 -0.4370
  710TMC3     O10500   2.166   1.976   0.190 -0.3453  0.5838  0.2966
  710TMC3     H10501   1.968   1.958   0.040 -1.3665  0.9957  1.0910
  710TMC3    H110502   2.090   1.625   0.284  0.9952 -0.8298 -0.6526
  710TMC3    H210503   1.934   1.569  17.593  3.0044 -1.1746 -0.9013
  710TMC3    C710504   2.052   1.444   0.101  0.0169  0.7741  0.2334
  710TMC3    C810505   1.892   1.821  17.540 -0.0076  0.4523  0.3061
  710TMC3    O110506   2.059   1.396   0.216 -0.2895 -0.3125 -0.5709
  710TMC3    O210507   1.893   1.940  17.521  0.4527  0.8093  0.5599
  711TMC3    C110508   1.870   2.749  14.799  0.1194 -0.3797 -0.6324
  711TMC3    C210509   1.846   2.846  14.884  0.0421  0.1061 -0.9473
  711TMC3    C310510   1.891   2.836  15.014  0.0752 -0.1648  0.6842
  711TMC3    C410511   1.949   2.645  14.833 -0.2764  0.4442  1.4957
  711TMC3    C510512   2.003   2.648  14.960  0.0252 -0.0748 -0.4373
  711TMC3    C610513   1.968   2.740  15.048 -0.4876 -0.0706 -0.1707
  711TMC3     C10514   1.796   2.734  14.682 -0.2038  0.2318 -0.2229
  711TMC3     O10515   1.806   2.624  14.625  0.4868 -0.0683  0.2474
  711TMC3     H10516   1.773   2.925  14.867  0.1488 -0.2124 -2.8343
  711TMC3    H110517   1.972   2.563  14.766  0.9793  1.3804  0.8009
  711TMC3    H210518   2.000   2.722  15.150  1.6816 -1.8667 -1.1627
  711TMC3    C710519   2.112   2.560  14.984  0.7321  0.1726  0.1384
  711TMC3    C810520   1.857   2.946  15.098 -0.8380  0.0192  0.2409
  711TMC3    O110521   2.210   2.609  15.036 -0.6152 -0.3541 -0.1636
  711TMC3    O210522   1.751   3.002  15.074 -0.2981  0.1402 -0.6165
  712MPD2     C10523   3.226   3.550  13.795  0.0705 -0.1491 -0.9173
  712MPD2    C110524   3.119   3.634  13.823  0.6625 -0.0709  0.1423
  712MPD2    C210525   3.112   3.762  13.762 -0.0095 -0.2294  0.4346
  712MPD2    C310526   3.198   3.800  13.670  0.5593  0.6035 -0.4013
  712MPD2    C410527   3.313   3.729  13.653 -0.7522  0.8579 -0.4292
  712MPD2    C510528   3.326   3.606  13.714  0.2533  0.3570 -0.1100
  712MPD2     H10529   3.034   3.830  13.794  1.3231  0.3537  2.4305
  712MPD2    H110530   3.383   3.749  13.573 -0.2166  0.0296 -0.1765
  712MPD2    H210531   3.231   3.445  13.823 -0.5740  0.2276  0.6028
  712MPD2    H310532   3.409   3.541  13.688 -0.3157 -1.2352  2.0874
  712MPD2     N10533   3.185   3.910  13.595 -0.0115  0.0941  0.0996
  712MPD2    H510534   3.276   3.946  13.569  0.2659 -0.0976  0.7901
  712MPD2    N110535   3.012   3.597  13.906  0.2379  0.7310 -0.6295
  712MPD2    H710536   2.930   3.657  13.912 -0.8452 -0.4705 -3.5581
  713TMC3    C110537   3.108   4.127  13.570 -0.1734  0.0949  0.2116
  713TMC3    C210538   3.226   4.167  13.627 -0.0328  0.3315 -0.2457
  713TMC3    C310539   3.261   4.297  13.616  0.7598  0.0234  0.0321
  713TMC3    C410540   3.024   4.210  13.501 -0.0445  0.7132  0.1780
  713TMC3    C510541   3.063   4.345  13.484  0.2927  0.5869 -0.0122
  713TMC3    C610542   3.180   4.387  13.546  0.4745 -0.3590 -0.6101
  713TMC3     C10543   3.075   3.990  13.595 -0.1721  0.6743 -0.6140
  713TMC3     O10544   2.962   3.964  13.630 -0.9816 -0.1668  0.3647
  713TMC3     H10545   3.294   4.105  13.682 -2.4125 -1.3294  0.8014
  713TMC3    H110546   2.929   4.172  13.466 -0.1944  1.1399  0.1236
  713TMC3    H210547   3.216   4.489  13.538  1.0156 -0.4346  0.9344
  713TMC3    C710548   2.972   4.437  13.423  0.3929  0.0849 -1.0989
  713TMC3    C810549   3.397   4.322  13.630 -0.1306  0.3482  0.0485
  713TMC3    O110550   2.882   4.400  13.359  0.1261 -0.6467 -0.4189
  713TMC3    O210551   3.477   4.226  13.616 -0.1601 -0.4046  0.4816
  714MPD2     C10552   0.961   2.621   1.426  0.0860 -0.6116 -0.3242
  714MPD2    C110553   0.996   2.552   1.312  0.2206 -0.3937 -1.3869
  714MPD2    C210554   0.948   2.605   1.197 -0.4673 -0.0862  0.1244
  714MPD2    C310555   0.867   2.715   1.187 -0.3783 -0.1121  0.0006
  714MPD2    C410556   0.839   2.790   1.301  0.0646 -0.6463 -0.0441
  714MPD2    C510557   0.883   2.735   1.417 -0.0133 -0.5818 -0.4903
  714MPD2     H10558   0.976   2.549   1.108 -0.9077  0.1202 -0.1448
  714MPD2    H110559   0.782   2.881   1.310  0.7822 -0.2227  0.2500
  714MPD2    H210560   1.014   2.594   1.517 -0.3374  1.2536  0.4758
  714MPD2    H310561   0.865   2.783   1.512  0.7732  0.1820 -0.7288
  714MPD2     N10562   0.816   2.758   1.061  0.2144  0.1414 -0.6898
  714MPD2    H510563   0.844   2.705   0.980 -0.2859 -2.2800  0.7248
  714MPD2    N110564   1.088   2.443   1.319 -0.0658  0.9904  0.4927
  714MPD2    H710565   1.122   2.425   1.412  1.3652 -0.0073 -0.2246
  715TMC3    C110566   1.224   2.269   1.248 -0.9905  0.1646  0.3967
  715TMC3    C210567   1.205   2.142   1.196  0.0821  0.2744  0.1153
  715TMC3    C310568   1.298   2.040   1.232 -0.2078 -0.1520 -0.6810
  715TMC3    C410569   1.310   2.299   1.348  0.0080  0.1341  0.4619
  715TMC3    C510570   1.392   2.194   1.393  0.2328 -0.5584 -0.3623
  715TMC3    C610571   1.382   2.071   1.336 -0.3588 -0.2994  0.6329
  715TMC3     C10572   1.125   2.367   1.208 -0.2880  0.4439  0.2766
  715TMC3     O10573   1.087   2.359   1.093  0.1783  0.7433  0.0486
  715TMC3     H10574   1.126   2.124   1.124 -1.7236  2.1840  1.6043
  715TMC3    H110575   1.320   2.399   1.387  4.4026 -0.0071 -0.3070
  715TMC3    H210576   1.444   1.993   1.377  1.2367  0.4856 -0.2961
  715TMC3    C710577   1.474   2.217   1.508  0.3025 -0.0039 -0.4029
  715TMC3    C810578   1.276   1.903   1.186 -0.4045 -0.7373  0.7673
  715TMC3    O110579   1.550   2.128   1.537 -0.9584  0.6759 -0.0168
  715TMC3    O210580   1.161   1.859   1.189 -0.1294 -0.0140 -0.6004
  716MPD2     C10581   1.489   0.308   9.874  0.0400 -0.6997 -0.1077
  716MPD2    C110582   1.431   0.367   9.764 -0.2951  0.4000 -0.5575
  716MPD2    C210583   1.393   0.293   9.654 -0.4205  0.0484  0.1854
  716MPD2    C310584   1.406   0.152   9.659 -0.2040  0.2060 -0.5467
  716MPD2    C410585   1.473   0.094   9.770 -0.3017 -1.0979 -0.4612
  716MPD2    C510586   1.516   0.176   9.872 -0.1528 -0.0795 -0.1522
  716MPD2     H10587   1.338   0.341   9.573 -2.3204 -0.6428  1.0551
  716MPD2    H110588   1.497   4.715   9.792  1.7914 -0.0549  2.1753
  716MPD2    H210589   1.505   0.362   9.967 -1.4663 -2.4009  1.1316
  716MPD2    H310590   1.561   0.132   9.960 -1.4430  0.8772  0.9963
  716MPD2     N10591   1.351   0.080   9.549 -0.9285 -0.8327  0.0232
  716MPD2    H510592   1.296   0.136   9.485 -2.3294  1.8053  3.5441
  716MPD2    N110593   1.407   0.502   9.768  0.3930  0.5723  0.1279
  716MPD2    H710594   1.438   0.552   9.850  1.1022 -0.1406  0.2957
  717TMC3    C110595   1.302   4.634   9.403  0.3674 -0.2159 -0.2761
  717TMC3    C210596   1.189   4.699   9.356  0.1148 -0.1307  0.6603
  717TMC3    C310597   1.117   4.650   9.247 -0.3161  0.6534  0.7946
  717TMC3    C410598   1.348   4.522   9.341  0.3969  0.1655 -0.1568
  717TMC3    C510599   1.280   4.484   9.229 -0.2044  0.5670 -0.6044
  717TMC3    C610600   1.168   4.543   9.183  0.4432  0.2429 -0.7137
  717TMC3     C10601   1.368   4.670   9.528  0.0325 -0.4526 -0.4571
  717TMC3     O10602   1.450   4.598   9.584  0.0720 -0.3583  0.2799
  717TMC3     H10603   1.152   0.068   9.395  1.9488  1.3446 -1.0965
  717TMC3    H110604   1.440   4.477   9.376  0.3488  0.6337  0.5785
  717TMC3    H210605   1.127   4.511   9.088 -0.8733 -0.8130  0.2037
  717TMC3    C710606   1.318   4.362   9.161  0.8592  0.4390  0.3653
  717TMC3    C810607   0.980   4.688   9.230  0.3936 -0.3896 -0.8048
  717TMC3    O110608   1.224   4.307   9.109 -0.5114 -0.2284  0.3206
  717TMC3    O210609   0.920   0.015   9.326  0.7832  0.1260 -0.1571
  718MPD2     C10610   4.605   4.105  12.827  0.1103 -0.0806  0.8062
  718MPD2    C110611   4.571   4.013  12.732 -0.1176 -1.2282  0.0427
  718MPD2    C210612   4.514   3.890  12.766 -0.0448  0.1450  0.2562
  718MPD2    C310613   4.486   3.863  12.898  0.1418  0.6309  0.4857
  718MPD2    C410614   4.529   3.956  12.994 -1.0461 -0.3658 -0.3338
  718MPD2    C510615   4.587   4.072  12.961  0.2310  0.1264  0.0011
  718MPD2     H10616   4.490   3.816  12.691  1.1927  0.6558 -0.6431
  718MPD2    H110617   4.525   3.937  13.100  0.5197  0.5485 -0.1188
  718MPD2    H210618   4.633   4.204  12.794 -1.9448 -1.0217 -3.7722
  718MPD2    H310619   4.613   4.154  13.028  2.8328  0.1675 -1.0981
  718MPD2     N10620   4.422   3.736  12.928  0.4841 -0.3800  0.2243
  718MPD2    H510621   4.381   3.688  12.849 -0.0197 -1.3851  1.1050
  718MPD2    N110622   4.612   4.033  12.597 -0.2082  0.6011 -0.0639
  718MPD2    H710623   4.568   3.980  12.523  0.2639  0.1430 -0.0161
  719TMC3    C110624   0.066   4.012  12.455  0.3602 -0.0180  0.1443
  719TMC3    C210625   0.034   3.881  12.447  0.0719 -0.3479  0.3059
  719TMC3    C310626   0.141   3.791  12.446 -0.2274 -0.0825  0.1108
  719TMC3    C410627   0.194   4.053  12.430  0.5863 -0.5349 -0.3341
  719TMC3    C510628   0.289   3.960  12.429 -0.0023  0.1454 -0.4648
  719TMC3    C610629   0.272   3.826  12.438  0.0338  0.3396  0.4550
  719TMC3     C10630   0.006   4.089  12.561  0.1639  0.3521  0.6272
  719TMC3     O10631   0.079   4.156  12.632 -0.0766 -0.3364  0.2350
  719TMC3     H10632   4.654   3.855  12.459 -0.3998  1.6547  0.5372
  719TMC3    H110633   0.209   4.159  12.444  1.0989 -0.6679  0.1007
  719TMC3    H210634   0.356   3.759  12.451  0.1594  0.4116  0.0090
  719TMC3    C710635   0.419   4.018  12.416 -0.6029  0.5290  0.5055
  719TMC3    C810636   0.109   3.658  12.494  0.6203 -0.7014  0.0968
  719TMC3    O110637   0.415   4.107  12.331 -0.1555  0.2001 -0.6518
  719TMC3    O210638   0.163   3.608  12.590 -0.8866  0.2228  0.7864
  720MPD2     C10639   3.413   1.070  13.661  0.4956  0.0282 -0.0502
  720MPD2    C110640   3.545   1.054  13.613 -0.3975 -0.6107 -0.7009
  720MPD2    C210641   3.639   1.013  13.710 -0.1757 -0.3678  0.1320
  720MPD2    C310642   3.612   0.985  13.841 -0.1081 -0.0112  0.5068
  720MPD2    C410643   3.485   0.999  13.880  0.7281 -0.4117 -0.0329
  720MPD2    C510644   3.391   1.044  13.792 -0.1176  0.4542 -0.4782
  720MPD2     H10645   3.741   1.008  13.673  0.0061 -1.4868  0.7766
  720MPD2    H110646   3.449   0.977  13.980  2.1020 -0.9398  0.3426
  720MPD2    H210647   3.339   1.099  13.588 -1.2609  1.4678  2.3378
  720MPD2    H310648   3.287   1.052  13.823  0.5256  2.8810  1.0553
  720MPD2     N10649   3.726   0.949  13.934 -0.4342 -0.1338  0.7149
  720MPD2    H510650   3.818   0.946  13.892 -0.7801 -0.8213  0.0201
  720MPD2    N110651   3.585   1.076  13.479  0.4111 -0.1955  0.0899
  720MPD2    H710652   3.679   1.050  13.451 -0.4688 -0.5535 -2.5308
  721TMC3    C110653   3.834   0.972  14.138  0.0668 -0.3403  0.9669
  721TMC3    C210654   3.827   1.056  14.250  0.4638 -0.1797  0.2050
  721TMC3    C310655   3.943   1.099  14.299 -1.3280 -0.2707 -0.0623
  721TMC3    C410656   3.953   0.936  14.080 -0.1937  0.3252 -0.0339
  721TMC3    C510657   4.072   0.993  14.134 -0.4309 -0.0609 -0.4104
  721TMC3    C610658   4.065   1.078  14.241 -0.0630  0.1026 -0.1284
  721TMC3     C10659   3.716   0.941  14.075  0.2624 -0.1959 -0.7490
  721TMC3     O10660   3.613   0.950  14.142 -0.1850  0.1745  1.0438
  721TMC3     H10661   3.732   1.101  14.275  0.0374 -1.0761  0.1926
  721TMC3    H110662   3.964   0.866  13.999 -0.7732 -1.5018  1.4635
  721TMC3    H210663   4.152   1.128  14.283 -0.5831  0.5061  0.4567
  721TMC3    C710664   4.202   0.954  14.079  1.1716 -0.1510 -0.5346
  721TMC3    C810665   3.937   1.176  14.424  0.4713  0.0831  0.3890
  721TMC3    O110666   4.200   0.931  13.959  0.3644  0.1275  0.0869
  721TMC3    O210667   4.046   1.230  14.450  0.0300 -0.1235 -0.0264
  722MPD2     C10668   2.081   4.454  12.872  0.2080 -0.1692 -0.3229
  722MPD2    C110669   2.051   4.583  12.839 -0.1858 -0.4601 -0.2082
  722MPD2    C210670   1.929   4.616  12.784 -0.6481 -0.5915  0.2215
  722MPD2    C310671   1.843   4.512  12.748  0.2405  0.0919  0.5348
  722MPD2    C410672   1.875   4.382  12.785  0.0528  0.2067  0.3680
  722MPD2    C510673   1.990   4.356  12.854  0.4728  0.0307  0.8870
  722MPD2     H10674   1.908   4.719  12.759 -0.9711 -0.6770  0.1504
  722MPD2    H110675   1.803   4.302  12.783  1.4769 -1.1296  2.2452
  722MPD2    H210676   2.176   4.427  12.917 -1.1975 -1.0058  2.1117
  722MPD2    H310677   2.003   4.252  12.880  1.9236 -0.0837 -0.2684
  722MPD2     N10678   1.714   4.542  12.696 -0.0437  0.0500  0.1883
  722MPD2    H510679   1.691   4.641  12.698  1.1683  0.3302 -0.3809
  722MPD2    N110680   2.139   4.689  12.877  0.5364  0.2940 -0.5990
  722MPD2    H710681   2.117   0.061  12.854 -0.0088 -0.1155 -1.7580
  723TMC3    C110682   1.494   4.473  12.628 -0.1676 -0.1173  0.5601
  723TMC3    C210683   1.406   4.383  12.683 -0.0432 -0.3552 -0.2392
  723TMC3    C310684   1.274   4.408  12.693  1.2348 -0.3703 -0.5156
  723TMC3    C410685   1.449   4.602  12.608 -0.4834 -0.0056  0.2142
  723TMC3    C510686   1.314   4.627  12.619  0.1953  0.2187  1.1719
  723TMC3    C610687   1.218   4.532  12.652 -0.3163 -0.2527 -0.0631
  723TMC3     C10688   1.631   4.441  12.648 -0.0705 -0.1958 -0.0244
  723TMC3     O10689   1.650   4.326  12.612  0.5790 -0.0964 -0.1435
  723TMC3     H10690   1.456   4.299  12.730 -1.1694 -1.9193 -1.8155
  723TMC3    H110691   1.514   4.667  12.551  0.6539 -0.0944  1.4184
  723TMC3    H210692   1.112   4.548  12.669 -0.2077  1.1690 -0.7530
  723TMC3    C710693   1.254   0.031  12.567 -0.1511  0.0076  0.9761
  723TMC3    C810694   1.188   4.314  12.764  0.4206 -0.4323  0.7992
  723TMC3    O110695   1.143   0.035  12.519  0.4273 -0.6066  0.5646
  723TMC3    O210696   1.079   4.361  12.803  0.4000 -0.3853 -0.8252
  724TMC3    C110697   2.110   2.859   9.723 -0.1582 -0.0052 -0.1517
  724TMC3    C210698   2.134   2.813   9.846 -0.6423 -0.1678 -0.3648
  724TMC3    C310699   2.198   2.888   9.936  0.1773 -0.2412 -0.5500
  724TMC3    C410700   2.130   2.993   9.698 -0.3686 -0.0483 -0.0910
  724TMC3    C510701   2.185   3.071   9.792 -0.5371 -0.2844 -0.6613
  724TMC3    C610702   2.215   3.023   9.915 -0.8118  0.0258  0.3892
  724TMC3     C10703   2.003   2.790   9.655 -0.0542  0.0466 -0.6167
  724TMC3     O10704   1.960   2.688   9.703  0.2835  0.2963 -0.0852
  724TMC3     H10705   2.146   2.706   9.856 -0.9950 -0.0999  0.7648
  724TMC3    H110706   2.103   3.035   9.602 -0.9004  0.8685  0.4556
  724TMC3    H210707   2.245   3.088   9.996  0.1055 -0.1720  0.2080
  724TMC3    C710708   2.273   3.187   9.753 -0.8331 -0.3589  0.1277
  724TMC3    C810709   2.247   2.821  10.056 -0.4492  0.7235  0.0980
  724TMC3    O110710   2.356   3.228   9.830  0.1999  0.2446  0.4183
  724TMC3    O210711   2.209   2.706  10.069  0.0793  0.0872  0.2600
  725TMC3    C110712   3.837   1.650  12.377 -0.6548  0.0185 -0.7480
  725TMC3    C210713   3.745   1.682  12.284 -0.3714  0.1264 -0.0036
  725TMC3    C310714   3.676   1.571  12.225  0.2121  0.4751 -0.9138
  725TMC3    C410715   3.868   1.523  12.418 -0.3260 -0.2321 -0.2099
  725TMC3    C510716   3.800   1.422  12.354 -0.1204 -0.6960  0.1966
  725TMC3    C610717   3.720   1.447  12.251 -0.0925 -0.6079  0.1135
  725TMC3     C10718   3.906   1.754  12.445  0.5540  0.0060  0.1343
  725TMC3     O10719   3.928   1.851  12.374 -0.1840 -0.5156 -0.2279
  725TMC3     H10720   3.721   1.786  12.265 -0.9204 -0.3678 -2.0493
  725TMC3    H110721   3.958   1.508  12.476  0.6032 -1.3022 -1.9223
  725TMC3    H210722   3.665   1.365  12.206 -0.4261 -0.7118  0.7181
  725TMC3    C710723   3.855   1.281  12.361 -0.3951 -0.0894  0.1216
  725TMC3    C810724   3.572   1.593  12.124  0.1312  0.1482 -0.1123
  725TMC3    O110725   3.831   1.197  12.275  0.6268  0.2349 -0.1256
  725TMC3    O210726   3.494   1.498  12.127 -0.5465  0.1473  0.2616
  726MPD2     C10727   1.626   2.876  10.363  0.1041 -0.7796 -0.5210
  726MPD2    C110728   1.543   2.900  10.260  0.1907  0.1615  0.1574
  726MPD2    C210729   1.475   2.796  10.208 -0.3257 -0.2058  0.3433
  726MPD2    C310730   1.482   2.668  10.262  0.2310 -0.4115  0.4128
  726MPD2    C410731   1.561   2.647  10.369 -0.0817  0.0214 -0.0355
  726MPD2    C510732   1.648   2.748  10.409 -0.0064  0.1422 -0.3627
  726MPD2     H10733   1.415   2.807  10.119  0.1214 -1.0862 -0.0663
  726MPD2    H110734   1.559   2.556  10.428  0.1861  1.1334  1.7087
  726MPD2    H210735   1.685   2.953  10.410  1.5904 -1.4532 -1.2814
  726MPD2    H310736   1.707   2.716  10.494 -0.3216 -0.2837 -0.3071
  726MPD2     N10737   1.410   2.551  10.214  0.1678 -0.0059  0.0026
  726MPD2    H510738   1.415   2.477  10.283  0.1468 -1.5876 -1.7040
  726MPD2    N110739   1.527   3.026  10.196 -0.0769 -0.4292 -0.0769
  726MPD2    H710740   1.472   3.027  10.110  1.0115  2.1838 -0.7351
  727TMC3    C110741   1.575   3.258  10.154  0.4265 -0.1179  0.1830
  727TMC3    C210742   1.663   3.362  10.168  0.2669  0.1199  0.1424
  727TMC3    C310743   1.655   3.469  10.086  0.2482  0.0557  0.0303
  727TMC3    C410744   1.471   3.256  10.061  0.6751 -0.2832 -0.2548
  727TMC3    C510745   1.485   3.358   9.970  0.1786 -0.2319  0.1477
  727TMC3    C610746   1.569   3.468   9.983 -0.2901 -0.0718 -0.0607
  727TMC3     C10747   1.594   3.139  10.238  0.1037  0.4162 -0.5116
  727TMC3     O10748   1.667   3.164  10.331  0.3018 -0.5404 -0.1368
  727TMC3     H10749   1.747   3.352  10.236  0.6589 -1.4577 -0.5854
  727TMC3    H110750   1.397   3.177  10.053  2.4129 -1.5715 -3.7195
  727TMC3    H210751   1.581   3.545   9.908  1.1344 -0.6891 -0.4687
  727TMC3    C710752   1.395   3.377   9.854 -0.4142 -0.6295  0.7664
  727TMC3    C810753   1.769   3.555  10.086  0.4465 -0.6744  0.1648
  727TMC3    O110754   1.437   3.448   9.762 -0.1403  0.0174 -0.2836
  727TMC3    O210755   1.877   3.500  10.078  0.3751  0.1969  0.6244
  728TMC3    C110756   1.427   1.615  14.941 -0.2221 -0.1295  0.1488
  728TMC3    C210757   1.556   1.654  14.976 -0.2526 -0.4587  0.0788
  728TMC3    C310758   1.638   1.719  14.886  0.1760  0.0539 -0.3016
  728TMC3    C410759   1.376   1.647  14.815  0.1356  0.6985 -0.0392
  728TMC3    C510760   1.457   1.712  14.727  0.2289  0.2301 -0.3045
  728TMC3    C610761   1.581   1.754  14.759 -0.2267  0.0655  0.5509
  728TMC3     C10762   1.337   1.569  15.050  0.3324  0.9304 -0.0053
  728TMC3     O10763   1.379   1.586  15.163  0.6774 -0.1410 -0.0230
  728TMC3     H10764   1.603   1.626  15.070 -0.8999  2.1019  1.1607
  728TMC3    H110765   1.276   1.623  14.781  0.3066 -1.5091  1.0507
  728TMC3    H210766   1.650   1.785  14.681 -0.8492 -0.1240 -0.0766
  728TMC3    C710767   1.415   1.699  14.589 -0.1735  0.0004  0.6468
  728TMC3    C810768   1.774   1.733  14.899  0.3957  0.7649 -0.2325
  728TMC3    O110769   1.351   1.604  14.561 -0.2989 -0.9107  0.7739
  728TMC3    O210770   1.822   1.832  14.844  0.0102  0.3866  0.0134
  729MPD2     C10771   3.670   2.290  16.117 -0.5258 -0.0251 -0.6296
  729MPD2    C110772   3.726   2.316  16.239 -0.6396 -0.0192  0.0902
  729MPD2    C210773   3.674   2.269  16.355 -0.1772 -0.2527 -0.1438
  729MPD2    C310774   3.560   2.188  16.343 -0.0578 -0.5844  0.4352
  729MPD2    C410775   3.501   2.154  16.223 -0.5906 -0.1943  0.2104
  729MPD2    C510776   3.557   2.216  16.112 -0.4958  0.2533  0.0862
  729MPD2     H10777   3.725   2.294  16.448 -0.5959 -2.3778  0.6592
  729MPD2    H110778   3.409   2.097  16.219 -1.0562  0.6678 -1.2571
  729MPD2    H210779   3.702   2.340  16.026  0.4647  0.2880 -0.1055
  729MPD2    H310780   3.510   2.191  16.018  0.9961 -0.5843 -0.4362
  729MPD2     N10781   3.483   2.147  16.454  0.0912 -0.2884 -0.9285
  729MPD2    H510782   3.388   2.124  16.423 -0.2611  0.0604 -0.0921
  729MPD2    N110783   3.844   2.394  16.240 -0.4650  0.0702 -0.0312
  729MPD2    H710784   3.879   2.409  16.146  0.4032  1.4289  0.4959
  730TMC3    C110785   3.410   2.171  16.671  0.2259 -0.6705 -0.8613
  730TMC3    C210786   3.461   2.147  16.795  0.6917 -0.4624 -0.2407
  730TMC3    C310787   3.443   2.241  16.886 -0.0007 -0.1197 -0.4205
  730TMC3    C410788   3.337   2.279  16.645 -0.6113 -0.4479 -0.2431
  730TMC3    C510789   3.308   2.370  16.740 -0.3925  0.2396 -0.0513
  730TMC3    C610790   3.357   2.352  16.868  0.3500 -0.0273  0.6060
  730TMC3     C10791   3.524   2.171  16.584  0.1055  0.0405 -0.2447
  730TMC3     O10792   3.632   2.193  16.639 -0.8801  0.0870  0.3329
  730TMC3     H10793   3.531   2.066  16.810  0.1337 -0.4688  2.3634
  730TMC3    H110794   3.314   2.297  16.541 -0.9352  2.1181  0.2596
  730TMC3    H210795   3.322   2.408  16.954 -1.5678 -0.2377 -0.0383
  730TMC3    C710796   3.256   2.494  16.704 -0.3393 -0.5782 -0.1973
  730TMC3    C810797   3.533   2.221  17.003  0.3336  1.2718  0.6211
  730TMC3    O110798   3.293   2.537  16.597  0.4027 -0.4332  0.0549
  730TMC3    O210799   3.564   2.105  17.036 -0.2569  0.3621  0.3274
  731MPD2     C10800   3.671   0.874  12.219  0.3826  0.4293 -0.1109
  731MPD2    C110801   3.612   0.785  12.139 -0.0095 -0.0127 -0.0018
  731MPD2    C210802   3.576   0.660  12.182  0.3447 -0.3091  0.1060
  731MPD2    C310803   3.595   0.627  12.319 -0.1130  0.5748  0.7684
  731MPD2    C410804   3.654   0.719  12.405  0.4368  0.3217 -0.0402
  731MPD2    C510805   3.686   0.846  12.357  0.0886 -0.6909 -0.3028
  731MPD2     H10806   3.533   0.586  12.116 -0.4048  0.0842  0.1548
  731MPD2    H110807   3.681   0.696  12.507  0.9102  0.3599 -0.1547
  731MPD2    H210808   3.719   0.962  12.177  0.2955  0.1726 -0.7451
  731MPD2    H310809   3.731   0.916  12.426  0.6157 -0.2274 -1.1147
  731MPD2     N10810   3.561   0.491  12.357  0.5178 -0.5293  0.0568
  731MPD2    H510811   3.542   0.418  12.289 -1.8771 -1.3020  1.5483
  731MPD2    N110812   3.615   0.809  12.000 -0.5029 -0.5312 -0.0289
  731MPD2    H710813   3.684   0.880  11.976 -0.8593  0.2396  1.2771
  732TMC3    C110814   3.570   0.760  11.767  0.2813  0.2794 -0.5677
  732TMC3    C210815   3.462   0.747  11.682  0.0695 -0.2253  0.2000
  732TMC3    C310816   3.491   0.710  11.549 -0.3885  0.2478 -0.3399
  732TMC3    C410817   3.695   0.724  11.720  0.3254  0.1618  0.4913
  732TMC3    C510818   3.721   0.694  11.592 -0.3686  0.2650  0.2997
  732TMC3    C610819   3.622   0.678  11.504  0.1256  0.0461  0.9200
  732TMC3     C10820   3.534   0.742  11.909  1.2920 -0.3841 -0.3400
  732TMC3     O10821   3.425   0.688  11.927 -0.0720 -0.0822  0.4094
  732TMC3     H10822   3.363   0.762  11.722 -0.6315 -1.2224 -1.1544
  732TMC3    H110823   3.768   0.735  11.799  1.5291  2.0557 -0.8814
  732TMC3    H210824   3.647   0.650  11.403  0.1608  0.3841  0.8356
  732TMC3    C710825   3.853   0.649  11.549  0.0221  0.1916 -1.1455
  732TMC3    C810826   3.399   0.620  11.486  0.7249  0.1113 -0.1915
  732TMC3    O110827   3.867   0.602  11.437  0.1336  0.3168 -0.1515
  732TMC3    O210828   3.426   0.569  11.378  0.2662 -0.5471 -0.0709
  733TMC3    C110829   4.163   3.411  13.090  1.3119 -0.5279 -0.5257
  733TMC3    C210830   4.218   3.537  13.106 -0.3277 -0.3484  1.1534
  733TMC3    C310831   4.339   3.557  13.053  0.0774  0.3160  0.8262
  733TMC3    C410832   4.224   3.325  13.007  0.3428 -0.3455  0.3597
  733TMC3    C510833   4.348   3.353  12.944  0.7820 -0.1487 -0.4140
  733TMC3    C610834   4.408   3.470  12.974  0.5223 -0.6672 -0.4106
  733TMC3     C10835   4.019   3.406  13.100  0.0494  0.4867 -0.6396
  733TMC3     O10836   3.959   3.511  13.084  0.1270 -0.1673 -0.3320
  733TMC3     H10837   4.163   3.611  13.163 -1.3771 -0.8489  0.7961
  733TMC3    H110838   4.162   3.254  12.954  2.3811 -1.4112 -0.5671
  733TMC3    H210839   4.510   3.499  12.952  0.3196  0.4712  0.1320
  733TMC3    C710840   4.359   3.313  12.807 -0.5611 -0.2982 -0.1226
  733TMC3    C810841   4.388   3.693  13.059 -0.7476 -0.1117 -0.6881
  733TMC3    O110842   4.297   3.213  12.767 -0.1707 -0.3318  0.1692
  733TMC3    O210843   4.408   3.740  13.169  0.3579 -0.0103 -0.1277
  734MPD2     C10844   2.002   1.476  12.256 -0.2099  0.3410 -0.1823
  734MPD2    C110845   1.865   1.451  12.236 -0.4625  0.0698  0.3258
  734MPD2    C210846   1.798   1.544  12.165 -0.7747  0.3208  0.3927
  734MPD2    C310847   1.865   1.649  12.101 -0.3707  0.6616 -0.5510
  734MPD2    C410848   1.998   1.669  12.125 -0.4202 -0.0249  0.0907
  734MPD2    C510849   2.066   1.584  12.206  0.4687  0.1858  0.1722
  734MPD2     H10850   1.691   1.542  12.147 -0.6455  1.5797 -0.5276
  734MPD2    H110851   2.046   1.757  12.086 -0.0300  0.1886  1.0441
  734MPD2    H210852   2.059   1.409  12.319  2.1136  2.0114 -0.5133
  734MPD2    H310853   2.174   1.586  12.219  0.5926 -0.4497 -0.7608
  734MPD2     N10854   1.790   1.720  12.002  0.5895  0.2191  0.0917
  734MPD2    H510855   1.694   1.693  11.980  1.5971  0.9454 -5.2169
  734MPD2    N110856   1.804   1.345  12.301 -0.0249 -0.2245 -1.0414
  734MPD2    H710857   1.860   1.283  12.359 -1.0670 -0.0918  0.1056
  735TMC3    C110858   1.639   1.174  12.326  0.5367  0.8052 -0.0104
  735TMC3    C210859   1.517   1.142  12.280 -0.2947  0.5650 -0.8034
  735TMC3    C310860   1.499   1.019  12.223 -0.4856  0.0360  0.0627
  735TMC3    C410861   1.744   1.089  12.331  0.0622  0.2836 -1.2004
  735TMC3    C510862   1.726   0.962  12.271 -0.2439 -0.1887 -0.0812
  735TMC3    C610863   1.604   0.927  12.226 -0.1714 -0.2218 -0.3404
  735TMC3     C10864   1.669   1.314  12.288 -0.7620 -0.5215 -0.0698
  735TMC3     O10865   1.586   1.358  12.209  0.0738 -0.1184  0.0764
  735TMC3     H10866   1.443   1.219  12.296 -0.2775  1.1630 -3.6078
  735TMC3    H110867   1.843   1.115  12.368 -1.7367  1.6002  2.7350
  735TMC3    H210868   1.602   0.848  12.151  1.4335 -0.4467 -0.1293
  735TMC3    C710869   1.841   0.880  12.266  0.5512 -0.8459 -0.0051
  735TMC3    C810870   1.439   1.031  12.093  0.6703  0.2561 -0.0591
  735TMC3    O110871   1.949   0.939  12.274  0.3021 -0.3647  0.5095
  735TMC3    O210872   1.416   0.934  12.023 -0.2081  0.2592  0.1470
  736MPD2     C10873   1.857   0.531  12.126  0.1318 -0.1684 -0.6473
  736MPD2    C110874   1.905   0.662  12.157  0.3754 -0.2778 -0.8380
  736MPD2    C210875   2.029   0.701  12.107  0.1125  0.3435  0.3498
  736MPD2    C310876   2.100   0.616  12.021 -0.1077  0.0696  0.0022
  736MPD2    C410877   2.056   0.483  12.010  0.2679  0.1101  0.3277
  736MPD2    C510878   1.936   0.438  12.061 -0.6745  0.6100  0.1653
  736MPD2     H10879   2.049   0.807  12.120  1.2136  0.0608  0.9554
  736MPD2    H110880   2.116   0.419  11.947  1.0121  1.2719 -0.1447
  736MPD2    H210881   1.759   0.495  12.154  0.0830  1.4024  1.1936
  736MPD2    H310882   1.900   0.336  12.052  0.9258  0.1395 -0.9382
  736MPD2     N10883   2.210   0.647  11.947  0.1094  0.1546 -0.0215
  736MPD2    H510884   2.249   0.567  11.899  2.0603  0.3364  1.2718
  736MPD2    N110885   1.816   0.754  12.223 -0.6391  0.0915 -0.2486
  736MPD2    H710886   1.729   0.710  12.250 -1.1600  1.0243 -0.4268
  737TMC3    C110887   2.372   0.781  11.836  0.0098  0.0176  0.4102
  737TMC3    C210888   2.373   0.905  11.774 -0.0913 -0.5414 -0.1475
  737TMC3    C310889   2.444   0.912  11.652  0.2713  1.2327  0.1066
  737TMC3    C410890   2.421   0.664  11.782 -0.4350  0.0603  0.9866
  737TMC3    C510891   2.491   0.679  11.661 -0.4404 -0.0093  0.1778
  737TMC3    C610892   2.498   0.801  11.593 -0.2537 -0.7081 -0.0016
  737TMC3     C10893   2.268   0.776  11.943  0.2277  0.1405  0.3354
  737TMC3     O10894   2.221   0.881  11.987 -0.0663  0.6607  0.2025
  737TMC3     H10895   2.342   0.996  11.823 -1.1138 -0.9733  0.0186
  737TMC3    H110896   2.423   0.574  11.842 -0.0518  0.2922  1.3200
  737TMC3    H210897   2.549   0.800  11.497  0.2353  0.9012  0.2542
  737TMC3    C710898   2.524   0.554  11.588 -0.1495  0.2510  0.5074
  737TMC3    C810899   2.492   1.042  11.622  0.0968  0.3767  0.3887
  737TMC3    O110900   2.468   0.451  11.624 -0.0419  0.5289  0.0124
  737TMC3    O210901   2.480   1.130  11.707  0.3534  0.4818  0.2945
  738MPD2     C10902   2.666   4.661  14.747  0.0590 -0.3729 -0.2224
  738MPD2    C110903   2.658   4.641  14.887  0.3277 -0.4404  0.2940
  738MPD2    C210904   2.748   4.717  14.963  0.4350  0.4622 -0.5880
  738MPD2    C310905   2.821   0.095  14.912 -1.0177 -0.1886 -0.4852
  738MPD2    C410906   2.793   0.130  14.779 -1.1927 -0.1574  0.7631
  738MPD2    C510907   2.714   0.051  14.704  0.4080 -0.7452  0.3248
  738MPD2     H10908   2.757   4.680  15.064  0.2051  2.4414  0.1495
  738MPD2    H110909   2.834   0.215  14.724  0.4118 -1.1008  0.5063
  738MPD2    H210910   2.610   4.592  14.685 -0.1951  0.2083 -0.6273
  738MPD2    H310911   2.687   0.078  14.603  1.8279 -0.1814  0.0951
  738MPD2     N10912   2.918   0.169  14.981 -0.3543 -0.2808 -0.3279
  738MPD2    H510913   2.961   0.245  14.929 -0.4491  0.9951  1.4694
  738MPD2    N110914   2.571   4.544  14.952  0.0906  0.2541 -0.4663
  738MPD2    H710915   2.576   4.531  15.052  1.1012  0.0672 -0.5471
  739TMC3    C110916   3.073   0.248  15.146  0.1758 -0.1367 -0.0754
  739TMC3    C210917   3.100   0.355  15.060  0.3769 -0.0058 -0.3655
  739TMC3    C310918   3.231   0.389  15.033  0.1223 -0.2992 -0.2931
  739TMC3    C410919   3.170   0.194  15.224  0.7857 -0.3049 -0.0519
  739TMC3    C510920   3.294   0.236  15.193  0.3413 -0.3978 -0.7897
  739TMC3    C610921   3.331   0.328  15.098 -0.0438  0.2301 -0.7778
  739TMC3     C10922   2.972   0.148  15.105  0.4503  0.3583 -0.1616
  739TMC3     O10923   2.964   0.051  15.182 -0.6768 -0.0983 -0.3422
  739TMC3     H10924   3.028   0.399  14.992  0.5906  1.2579  0.2159
  739TMC3    H110925   3.151   0.112  15.292 -0.9239 -0.8689 -1.2345
  739TMC3    H210926   3.432   0.366  15.092 -0.1746  0.3776 -1.9688
  739TMC3    C710927   3.404   0.162  15.249 -0.3757 -0.4087 -0.2733
  739TMC3    C810928   3.260   0.403  14.891  0.2174 -0.8577 -0.2549
  739TMC3    O110929   3.380   0.101  15.351  0.0091 -0.3917 -0.5348
  739TMC3    O210930   3.187   0.337  14.820  0.0985  0.0466 -0.5174
  740TMC3    C110931   3.321   1.389  13.845 -0.5343  0.1617 -0.2435
  740TMC3    C210932   3.366   1.336  13.966  0.0027 -0.0199 -0.1315
  740TMC3    C310933   3.500   1.304  13.986 -0.0700 -0.0774  0.0165
  740TMC3    C410934   3.402   1.412  13.741  0.0965 -0.1312  0.2708
  740TMC3    C510935   3.537   1.383  13.759  0.8390  0.1379 -0.1494
  740TMC3    C610936   3.590   1.333  13.883 -0.1317  0.0651  0.2670
  740TMC3     C10937   3.173   1.423  13.834  1.0499  0.4839  0.7694
  740TMC3     O10938   3.144   1.467  13.728  0.4753 -0.3630 -0.1865
  740TMC3     H10939   3.297   1.294  14.037 -0.7233  1.8172  0.2663
  740TMC3    H110940   3.361   1.468  13.658 -1.2652 -1.1101  0.2676
  740TMC3    H210941   3.696   1.317  13.897 -0.2725 -1.1738 -0.0371
  740TMC3    C710942   3.637   1.397  13.657 -0.6405  0.1439  0.2844
  740TMC3    C810943   3.550   1.292  14.117  0.0685  0.2505 -0.4487
  740TMC3    O110944   3.753   1.370  13.685  0.5595  0.3427  0.7941
  740TMC3    O210945   3.640   1.360  14.155 -0.3323  0.1257  0.3052
  741TMC3    C110946   3.096   0.812  14.233 -0.1225  0.0549 -0.2142
  741TMC3    C210947   3.030   0.693  14.198  0.3078 -0.1201  0.7456
  741TMC3    C310948   2.973   0.616  14.294 -0.0827  0.3679  0.3410
  741TMC3    C410949   3.119   0.841  14.365  0.0721  0.2017  0.0797
  741TMC3    C510950   3.054   0.759  14.458  0.0583  0.5063  0.5396
  741TMC3    C610951   2.985   0.647  14.428 -0.1553  0.1915  0.2850
  741TMC3     C10952   3.116   0.915  14.134 -0.8907 -0.1563  0.0045
  741TMC3     O10953   3.148   1.030  14.162 -0.0706  0.1375 -0.4736
  741TMC3     H10954   3.012   0.661  14.096  2.1643  1.9541 -0.2280
  741TMC3    H110955   3.182   0.925  14.390 -1.4890  1.8032 -1.4137
  741TMC3    H210956   2.933   0.588  14.503  1.0307 -0.9463  0.2094
  741TMC3    C710957   3.041   0.798  14.601  0.2927 -0.3877  0.6526
  741TMC3    C810958   2.911   0.491  14.251 -0.4205  0.6841 -0.1218
  741TMC3    O110959   3.001   0.707  14.676  0.2862 -0.1673 -0.5555
  741TMC3    O210960   2.882   0.484  14.129  0.0313 -0.3905 -0.0711
  742TMC3    C110961   2.560   3.678  15.546 -0.1647  0.4567  0.3113
  742TMC3    C210962   2.462   3.701  15.452  0.7632 -0.3236  0.0769
  742TMC3    C310963   2.509   3.709  15.319 -0.3608  0.9293 -0.5149
  742TMC3    C410964   2.695   3.695  15.521  0.5184 -0.6103  0.2869
  742TMC3    C510965   2.734   3.715  15.392 -0.3307 -0.1653 -0.6906
  742TMC3    C610966   2.642   3.725  15.291 -0.4416  0.0563 -0.3295
  742TMC3     C10967   2.525   3.641  15.684 -0.4232 -0.2293  0.4369
  742TMC3     O10968   2.625   3.641  15.757 -0.5262  0.3436  0.3023
  742TMC3     H10969   2.363   3.661  15.470  1.2015 -2.3795 -2.0649
  742TMC3    H110970   2.768   3.666  15.596  1.0325  0.1137  0.0631
  742TMC3    H210971   2.672   3.734  15.187  3.9090 -0.8364  0.8471
  742TMC3    C710972   2.871   3.744  15.367  0.1939  1.0729  0.0990
  742TMC3    C810973   2.412   3.711  15.205 -0.4331  0.3169 -0.1171
  742TMC3    O110974   2.926   3.791  15.466 -0.2127  0.1838 -0.1256
  742TMC3    O210975   2.466   3.718  15.097 -0.6118 -0.1196 -0.6492
  743MPD2     C10976   3.922   4.600   1.323  0.1921  0.3038  0.2400
  743MPD2    C110977   4.035   4.573   1.257  0.0546  0.5439  0.0692
  743MPD2    C210978   4.126   4.492   1.317  0.0987  0.0301  0.0466
  743MPD2    C310979   4.105   4.428   1.431  0.0552  0.1394 -0.1497
  743MPD2    C410980   3.992   4.472   1.502 -0.4764  0.4608 -0.3099
  743MPD2    C510981   3.903   4.548   1.448 -0.3799  0.7338  0.2494
  743MPD2     H10982   4.223   4.469   1.277 -0.7708  0.4248 -2.2637
  743MPD2    H110983   3.976   4.431   1.601  0.2987  1.3474  0.1743
  743MPD2    H210984   3.854   4.671   1.277  1.1443 -0.5523 -2.4742
  743MPD2    H310985   3.820   4.586   1.506  0.6410 -0.5767  2.5531
  743MPD2     N10986   4.210   4.355   1.488 -0.0797  0.8362 -0.1468
  743MPD2    H510987   4.289   4.351   1.425 -1.2827  0.2198 -1.6197
  743MPD2    N110988   4.062   4.642   1.139 -0.3190 -0.4516  0.2346
  743MPD2    H710989   3.989   4.699   1.097 -0.9915 -1.9498 -0.6250
  744TMC3    C110990   4.185   4.714   0.950  0.0600  0.3981  0.1385
  744TMC3    C210991   4.116   0.114   0.954 -0.1111  0.4096  0.0890
  744TMC3    C310992   4.147   0.204   0.849 -0.0934 -0.3919 -0.1728
  744TMC3    C410993   4.273   4.686   0.850  0.5682  0.1735 -0.0293
  744TMC3    C510994   4.290   0.050   0.746  1.1795 -0.0231 -0.1534
  744TMC3    C610995   4.228   0.169   0.741 -0.0374 -0.2835 -0.9810
  744TMC3     C10996   4.181   4.630   1.073  0.0524  0.7314 -0.1487
  744TMC3     O10997   4.276   4.554   1.085 -0.0567  0.1791  0.0287
  744TMC3     H10998   4.057   0.148   1.039  0.6167 -0.8534  1.0967
  744TMC3    H110999   4.321   4.589   0.856  1.5358  0.4894 -2.6614
  744TMC3    H211000   4.236   0.239   0.658 -1.3343  0.7162 -0.2542
  744TMC3    C711001   4.418   0.049   0.688  0.0424 -0.2917  0.3316
  744TMC3    C811002   4.102   0.349   0.859  0.5059  0.0748 -0.7934
  744TMC3    O111003   4.434   0.102   0.577 -0.2703 -0.1181  0.0991
  744TMC3    O211004   4.154   0.427   0.779  0.1782 -0.3957  0.1802
  745TMC3    C111005   2.867   3.473  14.038 -0.3797  0.4512  0.0517
  745TMC3    C211006   2.838   3.556  14.137  0.0998 -0.4579 -0.4616
  745TMC3    C311007   2.727   3.624  14.139  0.1271  1.1061  0.0528
  745TMC3    C411008   2.773   3.449  13.939 -0.5505 -0.0244 -0.1955
  745TMC3    C511009   2.664   3.533  13.937  0.8557 -0.0178 -0.0176
  745TMC3    C611010   2.637   3.619  14.037 -0.1997 -0.1041 -0.6016
  745TMC3     C11011   2.997   3.484  13.986  0.5333 -0.2795  0.3801
  745TMC3     O11012   3.079   3.396  14.015 -0.2390 -0.1838  0.3973
  745TMC3     H11013   2.916   3.578  14.209  0.2869 -1.5971 -0.3177
  745TMC3    H111014   2.804   3.381  13.860  1.0533  1.3514 -0.7554
  745TMC3    H211015   2.556   3.692  14.035  1.2854  1.5688  0.5795
  745TMC3    C711016   2.628   3.579  13.801  0.0824  0.2116 -0.5495
  745TMC3    C811017   2.746   3.749  14.217 -0.0047 -0.1551 -0.2797
  745TMC3    O111018   2.531   3.650  13.788  0.0048  0.3768  0.3390
  745TMC3    O211019   2.678   3.767  14.317 -0.6077 -0.4088  0.3326
  746TMC3    C111020   0.577   0.555  10.976 -0.1583  0.0602 -0.5711
  746TMC3    C211021   0.659   0.543  10.863  0.4179 -0.7147  0.0372
  746TMC3    C311022   0.689   0.415  10.825 -0.1482  0.4934 -0.0825
  746TMC3    C411023   0.532   0.460  11.059  0.3716  0.0179 -0.6974
  746TMC3    C511024   0.557   0.332  11.009  0.3244 -0.6517 -0.1203
  746TMC3    C611025   0.636   0.309  10.895  0.2432  0.0034 -0.7245
  746TMC3     C11026   0.542   0.696  11.009  0.0369 -0.8140 -0.0538
  746TMC3     O11027   0.523   0.717  11.129  0.3500 -0.3771 -0.1828
  746TMC3     H11028   0.700   0.631  10.814 -1.7114 -1.7118 -3.4429
  746TMC3    H111029   0.455   0.481  11.133  0.1410  0.2508 -1.0058
  746TMC3    H211030   0.637   0.208  10.855 -3.1845  0.1602 -1.2348
  746TMC3    C711031   0.434   0.255  11.000 -0.3497  0.1700 -0.8573
  746TMC3    C811032   0.751   0.383  10.703  0.1789  0.0142  0.4594
  746TMC3    O111033   0.430   0.167  10.916  0.0071 -0.0742  0.5867
  746TMC3    O211034   0.800   0.272  10.688  0.4936 -0.2654 -0.2589
  747TMC3    C111035   3.313   0.417  10.851  0.3289  0.1328  0.6318
  747TMC3    C211036   3.186   0.382  10.891  0.5305  0.3706 -0.5315
  747TMC3    C311037   3.144   0.432  11.017  0.5267 -1.0376 -0.5476
  747TMC3    C411038   3.384   0.513  10.916 -0.8450 -0.2392 -0.6781
  747TMC3    C511039   3.331   0.566  11.027  0.6190  0.2783 -0.7718
  747TMC3    C611040   3.217   0.526  11.081 -0.1922  0.0574 -0.5522
  747TMC3     C11041   3.385   0.350  10.753 -0.1487  0.8256  0.3094
  747TMC3     O11042   3.508   0.320  10.768  0.5131  0.1370 -0.4094
  747TMC3     H11043   3.139   0.296  10.845 -1.3504  0.4215  1.2801
  747TMC3    H111044   3.480   0.538  10.873  0.7120  1.0612  3.5341
  747TMC3    H211045   3.195   0.544  11.186  0.6690 -0.0374 -0.3554
  747TMC3    C711046   3.406   0.672  11.104  0.4138  0.9148 -0.0688
  747TMC3    C811047   3.012   0.390  11.056  0.0872  0.2691 -0.4620
  747TMC3    O111048   3.337   0.753  11.164  0.2875  0.4418  0.4516
  747TMC3    O211049   2.953   0.306  10.991 -0.5653  0.1286  0.4278
  748MPD2     C11050   4.137   1.295   1.468 -0.2840 -0.7332  0.6717
  748MPD2    C111051   4.189   1.258   1.589  0.2756 -0.1318 -0.0468
  748MPD2    C211052   4.324   1.217   1.594  0.1901 -0.1681 -0.1366
  748MPD2    C311053   4.394   1.214   1.477 -0.2236 -0.7279  0.2575
  748MPD2    C411054   4.340   1.251   1.363 -0.1403  0.9590 -0.2794
  748MPD2    C511055   4.206   1.274   1.356 -0.8200  0.1033 -0.4020
  748MPD2     H11056   4.365   1.178   1.687 -0.5424 -0.9859 -0.1615
  748MPD2    H111057   4.398   1.256   1.271  0.4703  0.6491  0.0892
  748MPD2    H211058   4.035   1.331   1.463  0.3408  0.8276 -0.8812
  748MPD2    H311059   4.156   1.297   1.263 -1.8610 -1.2445 -0.1778
  748MPD2     N11060   4.526   1.170   1.483 -0.1241  0.0890 -0.4713
  748MPD2    H511061   4.562   1.126   1.567 -0.5767  0.5801 -0.0197
  748MPD2    N111062   4.103   1.254   1.700  0.0435 -0.7130 -0.0435
  748MPD2    H711063   4.004   1.263   1.684  0.1795 -0.4140 -0.6865
  749TMC3    C111064   0.015   1.158   1.401 -0.0790  0.0895  0.1181
  749TMC3    C211065   0.025   1.038   1.459 -0.1567 -0.3290 -0.6826
  749TMC3    C311066   0.149   0.990   1.484  0.1883 -0.8706 -0.1982
  749TMC3    C411067   0.125   1.235   1.379  0.6767  0.0378  0.0899
  749TMC3    C511068   0.250   1.190   1.404 -0.1929  0.1499  0.5202
  749TMC3    C611069   0.262   1.061   1.459  0.9118 -0.0358 -0.4612
  749TMC3     C11070   4.612   1.221   1.397 -1.0135 -0.5087  0.3561
  749TMC3     O11071   4.607   1.328   1.333  0.1874 -0.2475  0.1068
  749TMC3     H11072   4.664   0.972   1.474  0.2471 -0.2209  2.0834
  749TMC3    H111073   0.111   1.336   1.342 -0.8100 -0.2657 -0.1990
  749TMC3    H211074   0.362   1.026   1.480  1.6361  2.1535 -0.3671
  749TMC3    C711075   0.363   1.266   1.350 -0.0197 -0.5680 -0.5878
  749TMC3    C811076   0.154   0.846   1.521  0.3631 -0.8199 -0.0844
  749TMC3    O111077   0.337   1.377   1.309 -0.7246  0.4777  0.0630
  749TMC3    O211078   0.046   0.789   1.535  0.4608 -0.1191  0.5489
  750MPD2     C11079   1.093   2.471  11.132  0.3247  1.1964  0.0205
  750MPD2    C111080   0.968   2.484  11.191 -0.6844 -0.4539 -0.3640
  750MPD2    C211081   0.888   2.367  11.171  0.3822 -0.4485  0.4373
  750MPD2    C311082   0.934   2.251  11.102  0.3085 -0.3625 -0.6865
  750MPD2    C411083   1.062   2.250  11.048  0.3221 -0.2304 -0.1063
  750MPD2    C511084   1.131   2.370  11.048 -0.1358  0.1291 -0.1958
  750MPD2     H11085   0.792   2.369  11.222 -1.6695  0.1095 -3.4656
  750MPD2    H111086   1.103   2.161  11.002  3.0299  2.2419 -2.3880
  750MPD2    H211087   1.153   2.561  11.142  0.6817  0.9281  0.3178
  750MPD2    H311088   1.226   2.383  10.997 -0.3299 -0.8376 -0.8201
  750MPD2     N11089   0.856   2.136  11.083 -0.3507  0.1442  0.3133
  750MPD2    H511090   0.902   2.059  11.036  0.5108  0.1839  1.0944
  750MPD2    N111091   0.941   2.595  11.277 -0.3441 -0.0811 -0.4018
  750MPD2    H711092   1.016   2.664  11.275  1.1116 -1.5985  1.9694
  751TMC3    C111093   0.677   1.984  11.088 -0.2814  0.4448  0.6546
  751TMC3    C211094   0.541   1.964  11.081 -0.2502  0.0719 -0.3019
  751TMC3    C311095   0.498   1.840  11.046 -0.2121  0.5053 -0.7383
  751TMC3    C411096   0.762   1.878  11.078  0.5876 -0.1513 -0.2860
  751TMC3    C511097   0.714   1.745  11.065 -0.2651  0.0782 -0.0816
  751TMC3    C611098   0.580   1.733  11.031  0.0526  0.4159 -0.3138
  751TMC3     C11099   0.725   2.124  11.111 -0.2745  0.2188  0.5650
  751TMC3     O11100   0.648   2.214  11.136 -0.4985 -0.0768 -0.0376
  751TMC3     H11101   0.473   2.047  11.094  0.4150  0.6200 -0.3226
  751TMC3    H111102   0.868   1.892  11.097  0.1765  2.0517  0.3603
  751TMC3    H211103   0.533   1.637  11.011 -0.5367  0.1292  2.4843
  751TMC3    C711104   0.798   1.657  10.997  0.4851  0.0905  0.1402
  751TMC3    C811105   0.367   1.810  11.021 -0.3708 -0.6224 -0.2341
  751TMC3    O111106   0.892   1.707  10.941 -0.1690 -0.2617  0.4711
  751TMC3    O211107   0.335   1.778  10.902 -0.2478 -0.3088  0.1411
  752TMC3    C111108   4.425   2.897  17.268 -0.4712  0.1318 -0.2090
  752TMC3    C211109   4.363   2.779  17.305 -0.2457  0.5604  0.4006
  752TMC3    C311110   4.368   2.746  17.430 -0.0231 -0.2294  0.4242
  752TMC3    C411111   4.482   2.979  17.359  0.0955 -0.1489  0.5555
  752TMC3    C511112   4.486   2.944  17.490  0.5434 -0.0930 -0.4355
  752TMC3    C611113   4.429   2.826  17.526  0.0731 -0.1569  0.0899
  752TMC3     C11114   4.480   2.895  17.125 -0.1842 -0.0495  0.0302
  752TMC3     O11115   4.587   2.954  17.121  0.1157  0.6663  0.0070
  752TMC3     H11116   4.314   2.707  17.240 -0.1464  0.1153  0.8168
  752TMC3    H111117   4.530   3.072  17.330 -0.8729  0.2533  0.2203
  752TMC3    H211118   4.436   2.795  17.630 -0.4558  0.8450  0.4131
  752TMC3    C711119   4.570   2.998  17.592  0.0498 -0.4542 -0.6382
  752TMC3    C811120   4.273   2.649  17.470 -0.4898 -0.3330 -1.2544
  752TMC3    O111121   4.592   2.930  17.692  0.3677 -0.1829 -0.1363
  752TMC3    O211122   4.173   2.616  17.398 -0.4640  0.2633  0.2375
  753TMC3    C111123   1.431   3.736  13.198  0.3442  0.4905  0.0025
  753TMC3    C211124   1.461   3.684  13.318 -0.0194 -0.5455  0.5861
  753TMC3    C311125   1.430   3.554  13.335 -0.5456  0.5106 -0.3245
  753TMC3    C411126   1.356   3.668  13.103 -0.1695  0.5470  0.2618
  753TMC3    C511127   1.307   3.544  13.136  0.1991 -0.5396  0.0232
  753TMC3    C611128   1.344   3.486  13.252 -0.1737  1.1096 -0.1708
  753TMC3     C11129   1.478   3.870  13.168  0.0669  0.1369  0.6656
  753TMC3     O11130   1.416   3.945  13.093 -0.3231 -0.3883 -0.1990
  753TMC3     H11131   1.505   3.750  13.391 -0.5305 -0.2132  0.5911
  753TMC3    H111132   1.324   3.711  13.008  2.0736  0.2591 -0.6329
  753TMC3    H211133   1.312   3.386  13.276  1.9189  0.8015  1.3533
  753TMC3    C711134   1.182   3.484  13.075 -0.0469 -0.0991 -0.8179
  753TMC3    C811135   1.429   3.497  13.472 -0.7747  0.0863 -0.1321
  753TMC3    O111136   1.111   3.552  13.007 -0.7889 -0.4953 -0.0118
  753TMC3    O211137   1.347   3.410  13.499  0.0954 -0.5198 -0.1803
  754MPD2     C11138   0.557   1.921  12.877 -0.5913  0.3258  0.0183
  754MPD2    C111139   0.459   1.832  12.850 -0.2460 -0.3646 -0.0296
  754MPD2    C211140   0.338   1.886  12.804 -0.0424  0.1373  0.6128
  754MPD2    C311141   0.320   2.021  12.778  0.5041  0.5322 -0.0558
  754MPD2    C411142   0.414   2.112  12.829  0.1762  0.4937  0.1900
  754MPD2    C511143   0.533   2.055  12.876  0.3932  0.3685 -0.1175
  754MPD2     H11144   0.261   1.814  12.778 -0.1205  0.1813  0.7193
  754MPD2    H111145   0.410   2.221  12.830  0.3067  0.5168 -1.0788
  754MPD2    H211146   0.654   1.898  12.920 -1.6585 -2.5681  0.8654
  754MPD2    H311147   0.618   2.111  12.915  1.0443 -0.9192  0.3377
  754MPD2     N11148   0.207   2.079  12.721 -0.2918  0.1886  0.6011
  754MPD2    H511149   0.206   2.180  12.717  0.6033  0.3140  3.4412
  754MPD2    N111150   0.469   1.686  12.863 -0.0852 -0.0315  0.1158
  754MPD2    H711151   0.390   1.629  12.833  0.8314 -1.2930  0.1275
  755MPD2     C11152   4.176   2.753  12.817 -0.4863 -0.2958  0.4102
  755MPD2    C111153   4.231   2.665  12.906 -0.6514 -0.3671  0.3575
  755MPD2    C211154   4.332   2.583  12.871 -0.2678 -0.3701 -0.3109
  755MPD2    C311155   4.376   2.581  12.743  0.5983  0.7152  0.2974
  755MPD2    C411156   4.324   2.663  12.650 -0.0173  0.3828 -0.0202
  755MPD2    C511157   4.226   2.746  12.691 -0.6556 -0.4313  0.1800
  755MPD2     H11158   4.367   2.507  12.940  0.0951  0.5913  0.5514
  755MPD2    H111159   4.358   2.666  12.547  1.0452  0.9673  0.3529
  755MPD2    H211160   4.110   2.834  12.847 -0.5240 -1.9528  4.8293
  755MPD2    H311161   4.190   2.820  12.620  1.9543  0.5477 -0.1283
  755MPD2     N11162   4.469   2.488  12.685  0.2286 -0.1466 -0.1613
  755MPD2    H511163   4.485   2.487  12.585  1.3600 -0.5613  0.0314
  755MPD2    N111164   4.180   2.652  13.039 -0.3457 -0.1255  0.2787
  755MPD2    H711165   4.233   2.594  13.103 -0.5985 -0.1224  0.4914
  756MPD2     C11166   0.819   2.928   9.559  0.1132  0.1641  0.7438
  756MPD2    C111167   0.709   2.862   9.600  0.1940 -0.0794  0.5733
  756MPD2    C211168   0.588   2.885   9.539 -0.8581  0.5351  0.0155
  756MPD2    C311169   0.575   2.978   9.436  0.0233  0.7857  0.8021
  756MPD2    C411170   0.689   3.048   9.390  0.6505  0.1402 -0.4965
  756MPD2    C511171   0.810   3.029   9.460  0.1538 -0.2846  0.8854
  756MPD2     H11172   0.498   2.841   9.579 -2.1201  3.4087  0.3545
  756MPD2    H111173   0.685   3.131   9.321  0.4244  0.1314 -0.4922
  756MPD2    H211174   0.911   2.940   9.614 -0.1691  2.1216  0.7835
  756MPD2    H311175   0.901   3.087   9.447 -1.7823  2.2235 -1.6959
  756MPD2     N11176   0.453   2.996   9.378 -0.2022 -0.0535 -0.1842
  756MPD2    H511177   0.378   2.940   9.419 -1.3391  1.7415  0.1892
  756MPD2    N111178   0.713   2.792   9.716 -0.1361  0.2790  0.1538
  756MPD2    H711179   0.620   2.768   9.749  0.0512 -0.6092  0.0378
  757MPD2     C11180   4.643   2.309   9.335  0.6972  0.0740 -0.0345
  757MPD2    C111181   0.052   2.322   9.366 -0.6304  0.2712 -0.0898
  757MPD2    C211182   0.121   2.440   9.327 -0.3818 -0.0487  0.1041
  757MPD2    C311183   0.051   2.538   9.264  0.4763  0.1266 -0.2195
  757MPD2    C411184   4.647   2.505   9.215 -0.4240 -0.1987  0.3511
  757MPD2    C511185   4.584   2.389   9.247 -0.2732  0.0444  0.2388
  757MPD2     H11186   0.226   2.453   9.349 -0.2715  0.2801 -0.6466
  757MPD2    H111187   4.589   2.574   9.154 -1.2595 -0.6655  0.6250
  757MPD2    H211188   4.591   2.217   9.359  2.2824 -0.9077 -0.3643
  757MPD2    H311189   4.485   2.366   9.209 -0.3717 -1.4918  1.4273
  757MPD2     N11190   0.113   2.664   9.237  1.1377  0.1143  0.4981
  757MPD2    H511191   0.211   2.671   9.263  0.7879 -1.3892  2.2141
  757MPD2    N111192   0.116   2.221   9.451  0.1772  0.3617  0.6585
  757MPD2    H711193   0.054   2.152   9.494  0.7684 -2.1032 -2.3800
  758MPD2     C11194   0.338   1.625  15.550  0.0184  0.2440  0.5628
  758MPD2    C111195   0.452   1.695  15.587  0.8346  0.0391  0.3158
  758MPD2    C211196   0.474   1.721  15.721 -0.3053  0.4295  0.0364
  758MPD2    C311197   0.380   1.675  15.812  0.3147 -0.1876 -0.2391
  758MPD2    C411198   0.260   1.620  15.766 -0.3172  0.0039  0.4959
  758MPD2    C511199   0.237   1.588  15.639  0.5023 -0.6553 -0.4096
  758MPD2     H11200   0.559   1.780  15.754  1.2181 -1.1886 -0.9863
  758MPD2    H111201   0.190   1.578  15.837  0.7894 -1.8842  0.4484
  758MPD2    H211202   0.317   1.611  15.444 -0.6623 -1.1813  0.8922
  758MPD2    H311203   0.150   1.526  15.620 -2.0034  2.8226 -0.2884
  758MPD2     N11204   0.398   1.685  15.954  0.2777 -0.5661  0.0408
  758MPD2    H511205   0.330   1.634  16.010 -1.7437  1.4693 -0.5663
  758MPD2    N111206   0.531   1.753  15.487 -0.1681  0.3459  0.3769
  758MPD2    H711207   0.539   1.709  15.396  1.9818  1.4099  0.0661
  759MPD2     C11208   4.327   0.593  10.241 -0.2323 -0.6533  0.0499
  759MPD2    C111209   4.424   0.499  10.201  0.4307  0.5048  0.0987
  759MPD2    C211210   4.534   0.553  10.127 -0.8165 -0.4940 -0.0487
  759MPD2    C311211   4.537   0.687  10.091 -0.0237 -0.7542  0.0546
  759MPD2    C411212   4.435   0.774  10.126  0.9074  0.0159 -0.2990
  759MPD2    C511213   4.337   0.722  10.205  0.1897 -0.1381  0.5484
  759MPD2     H11214   4.604   0.482  10.084 -0.2944  0.2514 -0.4241
  759MPD2    H111215   4.420   0.878  10.102  0.5558 -0.1921 -0.9626
  759MPD2    H211216   4.247   0.563  10.308  0.0130  3.6823  2.2856
  759MPD2    H311217   4.265   0.796  10.239 -0.8392 -0.7819 -0.2400
  759MPD2     N11218   4.651   0.731  10.018 -0.3629 -0.2962  0.5055
  759MPD2    H511219   0.003   0.669   9.993 -0.0091  0.6675 -0.7995
  759MPD2    N111220   4.400   0.364  10.232 -0.6302  0.4938  0.8327
  759MPD2    H711221   4.314   0.340  10.281 -0.1899 -0.0375  1.3465
  760MPD2     C11222   3.814   2.815  11.381 -0.3667 -0.1838  0.3379
  760MPD2    C111223   3.905   2.737  11.309  0.1202  0.4904  0.4016
  760MPD2    C211224   3.882   2.596  11.300  0.4552  0.5045  0.2162
  760MPD2    C311225   3.780   2.532  11.361  0.5793 -0.1351  0.7789
  760MPD2    C411226   3.692   2.611  11.432 -0.0537 -0.2259 -0.6579
  760MPD2    C511227   3.703   2.751  11.432 -0.2887 -0.1672 -0.2743
  760MPD2     H11228   3.951   2.533  11.244  0.7251  1.6343 -0.7476
  760MPD2    H111229   3.604   2.561  11.471  0.2161 -0.0887  0.1459
  760MPD2    H211230   3.817   2.923  11.376 -0.5140 -0.2048 -0.2098
  760MPD2    H311231   3.629   2.808  11.488  1.0386 -0.8199  2.1548
  760MPD2     N11232   3.750   2.395  11.361  0.1523 -0.0797 -0.3159
  760MPD2    H511233   3.673   2.365  11.421 -0.6877  0.2175 -1.2348
  760MPD2    N111234   4.022   2.796  11.255  0.3417  0.7228  0.0428
  760MPD2    H711235   4.084   2.743  11.194  0.4883  0.7720  0.1488
  761MPD2     C11236   4.696   1.560  11.237 -0.3975  0.1483 -0.1361
  761MPD2    C111237   0.034   1.546  11.118 -0.3510  0.1496  0.1673
  761MPD2    C211238   0.141   1.630  11.092  0.1128  0.2645  0.0472
  761MPD2    C311239   0.183   1.731  11.171  0.5732  0.2639  0.4734
  761MPD2    C411240   0.119   1.743  11.295  0.8679  0.2535 -0.3278
  761MPD2    C511241   0.022   1.649  11.331  0.1049  0.9866  0.2565
  761MPD2     H11242   0.207   1.604  11.010 -1.7476 -1.1139 -1.0119
  761MPD2    H111243   0.158   1.822  11.359  1.1666  2.5432 -3.3004
  761MPD2    H211244   4.615   1.496  11.270  1.1549 -1.7962 -0.1396
  761MPD2    H311245   4.682   1.667  11.416  1.1865 -0.2390  1.3380
  761MPD2     N11246   0.298   1.807  11.142  0.4393  1.3603  0.4863
  761MPD2    H511247   0.348   1.857  11.214  3.2668 -1.2022  0.3047
  761MPD2    N111248   4.723   1.443  11.035  0.0925 -0.0391 -0.0392
  761MPD2    H711249   4.651   1.379  11.066  0.0122 -1.0383 -2.2755
  762MPD2     C11250   0.415   1.515  10.691  0.4911  0.1572  0.2592
  762MPD2    C111251   0.366   1.429  10.601 -0.5531  0.6520 -0.5729
  762MPD2    C211252   0.454   1.385  10.507  0.0685  1.1766  0.3742
  762MPD2    C311253   0.584   1.424  10.501 -0.2266 -0.0264 -0.5955
  762MPD2    C411254   0.633   1.508  10.595  0.5395 -0.1072  0.1335
  762MPD2    C511255   0.546   1.558  10.696 -0.2672 -0.0558 -0.1675
  762MPD2     H11256   0.418   1.310  10.438 -0.3393  1.3617  0.3893
  762MPD2    H111257   0.734   1.545  10.585  0.6327 -0.1235  0.9699
  762MPD2    H211258   0.359   1.540  10.780  1.0131 -3.7535  1.7154
  762MPD2    H311259   0.587   1.626  10.769 -1.0037  1.8709 -1.5467
  762MPD2     N11260   0.668   1.356  10.408  0.8447  0.2242  0.0595
  762MPD2    H511261   0.620   1.285  10.353  0.0467  0.9909 -0.2334
  762MPD2    N111262   0.236   1.374  10.619 -0.1611  0.0728 -0.7854
  762MPD2    H711263   0.190   1.415  10.700  0.6486  0.1699 -0.3739
  763MPD2     C11264   2.396   2.173  15.855 -0.8445 -0.4696  0.1930
  763MPD2    C111265   2.283   2.196  15.770  0.1648  0.6801 -0.4988
  763MPD2    C211266   2.192   2.286  15.805 -0.4071  0.6620 -0.4268
  763MPD2    C311267   2.201   2.354  15.922  0.1016 -0.3390  0.1234
  763MPD2    C411268   2.311   2.332  16.007  0.0924  0.1215 -0.1075
  763MPD2    C511269   2.421   2.251  15.966 -0.4111  1.2214  0.6934
  763MPD2     H11270   2.108   2.309  15.740 -1.0103  1.0597  0.4834
  763MPD2    H111271   2.310   2.376  16.106 -0.8562  1.6638 -0.8148
  763MPD2    H211272   2.475   2.102  15.834  0.7108  1.3637 -0.2016
  763MPD2    H311273   2.507   2.229  16.027 -0.8086 -1.6367  0.2048
  763MPD2     N11274   2.104   2.451  15.952  0.6684  0.2627  0.4139
  763MPD2    H511275   2.038   2.478  15.880  1.7654  3.7066  0.7467
  763MPD2    N111276   2.264   2.125  15.652  0.4495  0.1679 -0.5382
  763MPD2    H711277   2.170   2.139  15.615 -0.0797 -1.0849  0.3106
  764MPD2     C11278   0.021   3.735  17.203 -0.2330 -0.0492  0.0704
  764MPD2    C111279   4.678   3.621  17.220 -0.8036  0.5461 -0.3024
  764MPD2    C211280   4.656   3.573  17.350 -0.1520  0.5613 -0.6135
  764MPD2    C311281   4.708   3.649  17.458 -0.2884  0.4647  0.5431
  764MPD2    C411282   0.048   3.776  17.434  0.3023 -0.2624 -1.3059
  764MPD2    C511283   0.071   3.810  17.304 -0.3133 -0.0300 -0.2542
  764MPD2     H11284   4.599   3.482  17.368  0.5757  0.1861 -0.1740
  764MPD2    H111285   0.077   3.849  17.509  0.3946 -1.5655 -0.0494
  764MPD2    H211286   0.036   3.769  17.101  0.3309 -2.0764 -0.5230
  764MPD2    H311287   0.143   3.890  17.291  0.4065 -0.8396 -1.2760
  764MPD2     N11288   4.694   3.597  17.591 -0.0113  0.0176 -0.0420
  764MPD2    H511289   4.643   3.510  17.608  1.8176 -1.3257 -1.4137
  764MPD2    N111290   4.612   3.546  17.119  0.0649  0.2201 -0.1320
  764MPD2    H711291   4.547   3.473  17.148 -0.7752  1.0907  0.1368
  765MPD2     C11292   4.582   1.268  15.047  0.0989 -0.1099 -0.3129
  765MPD2    C111293   4.686   1.323  15.112 -0.5680  0.1116  0.1998
  765MPD2    C211294   0.089   1.291  15.083  0.2501  0.1840 -0.9175
  765MPD2    C311295   0.116   1.200  14.979 -0.5375 -0.3734  0.0776
  765MPD2    C411296   0.009   1.150  14.903 -0.4881  0.4602 -0.2910
  765MPD2    C511297   4.605   1.186  14.938 -0.4188  0.4107  0.8306
  765MPD2     H11298   0.171   1.333  15.141 -1.0733 -0.3449  1.3526
  765MPD2    H111299   0.012   1.087  14.815  0.1365  0.1119 -0.0171
  765MPD2    H211300   4.477   1.289  15.061  0.3837  1.2845 -0.2539
  765MPD2    H311301   4.521   1.145  14.884  1.5687  0.3503 -2.2217
  765MPD2     N11302   0.249   1.162  14.957 -0.0064 -0.0123  0.2628
  765MPD2    H511303   0.324   1.191  15.018  0.4796 -0.8950  0.0939
  765MPD2    N111304   4.644   1.397  15.227  0.3661  0.4129  0.2599
  765MPD2    H711305   4.545   1.412  15.244 -0.1999 -0.9997 -1.7753
  766MPD2     C11306   4.131   1.407  15.162  0.0572 -0.1711  0.7455
  766MPD2    C111307   4.241   1.483  15.161  0.1002 -0.1406 -0.3000
  766MPD2    C211308   4.303   1.514  15.038 -0.6213 -0.3940  0.3951
  766MPD2    C311309   4.261   1.442  14.927 -0.1244  0.1634 -0.1204
  766MPD2    C411310   4.159   1.354  14.931  0.1483  0.2637 -0.2686
  766MPD2    C511311   4.095   1.343  15.049 -0.3118 -0.0459 -0.7512
  766MPD2     H11312   4.386   1.583  15.033 -0.3979 -0.8038 -1.5895
  766MPD2    H111313   4.135   1.294  14.844 -0.8941  0.2463  0.0346
  766MPD2    H211314   4.086   1.383  15.257  0.8975  0.9676  1.4344
  766MPD2    H311315   4.012   1.274  15.042 -0.3145 -0.0203 -0.9752
  766MPD2     N11316   4.329   1.453  14.799 -0.0208 -0.0211  0.4150
  766MPD2    H511317   4.293   1.388  14.730  0.2684  0.2813 -0.0259
  766MPD2    N111318   4.274   1.539  15.286 -0.4749 -0.1797 -0.3497
  766MPD2    H711319   4.247   1.480  15.364 -1.6455 -1.0193 -1.3900
  767MPD2     C11320   3.969   1.768  14.870  0.4517 -0.5788 -0.1280
  767MPD2    C111321   4.082   1.765  14.795  0.0171 -0.0270 -0.0848
  767MPD2    C211322   4.071   1.706  14.668  0.2945 -0.2285  0.5653
  767MPD2    C311323   3.954   1.664  14.617 -0.5715 -0.0260 -0.0259
  767MPD2    C411324   3.840   1.671  14.693 -0.8070 -0.3393  0.7517
  767MPD2    C511325   3.847   1.739  14.811 -0.5499  0.0999 -0.7923
  767MPD2     H11326   4.158   1.713  14.603 -0.0668  0.0438  0.1100
  767MPD2    H111327   3.744   1.646  14.648  0.6830  0.1217 -2.7014
  767MPD2    H211328   3.959   1.806  14.971  0.2027 -0.0777 -0.3389
  767MPD2    H311329   3.759   1.761  14.869 -1.0110 -0.8782 -1.1132
  767MPD2     N11330   3.953   1.632  14.479 -0.1359  0.1988 -0.7843
  767MPD2    H511331   4.038   1.628  14.423  0.7423 -1.6242  0.6809
  767MPD2    N111332   4.197   1.829  14.845 -0.0745  0.7166  0.0391
  767MPD2    H711333   4.199   1.857  14.943  1.1254  1.5065 -0.2196
  768MPD2     C11334   0.364   4.653  10.561 -0.9197 -0.0248  0.3924
  768MPD2    C111335   0.348   4.564  10.671 -0.5980  0.1297 -0.3318
  768MPD2    C211336   0.456   4.542  10.754 -0.0389  0.4923 -0.3255
  768MPD2    C311337   0.573   4.613  10.743 -0.0740 -0.7994 -0.3055
  768MPD2    C411338   0.592   4.701  10.637  0.7292  0.3017  0.0268
  768MPD2    C511339   0.484   4.717  10.551 -0.1267 -0.2147 -0.2668
  768MPD2     H11340   0.437   4.487  10.846  0.2805  2.1398  0.7365
  768MPD2    H111341   0.682   0.036  10.631  0.4310  0.9159  1.7543
  768MPD2    H211342   0.284   4.670  10.490  0.5590 -0.8772 -1.4516
  768MPD2    H311343   0.493   0.061  10.467 -0.0876 -0.1036 -0.1720
  768MPD2     N11344   0.681   4.608  10.836 -0.5528  0.1193 -0.1084
  768MPD2    H511345   0.762   4.669  10.822 -1.4495  1.1840 -0.6902
  768MPD2    N111346   0.225   4.508  10.706 -0.0870  0.3599 -0.5869
  768MPD2    H711347   0.213   4.456  10.792 -0.3837 -2.2443 -2.1856
  769MPD2     C11348   0.742   3.169  14.719  0.2429  0.2478 -0.4521
  769MPD2    C111349   0.800   3.069  14.795 -0.8929 -0.3427  0.0085
  769MPD2    C211350   0.866   3.096  14.914  0.3924  0.8080  0.4974
  769MPD2    C311351   0.895   3.227  14.944 -0.1502 -0.3145 -0.4958
  769MPD2    C411352   0.863   3.325  14.853  0.3143 -0.4838  0.2142
  769MPD2    C511353   0.775   3.291  14.754 -1.1205  0.2746 -0.1047
  769MPD2     H11354   0.902   3.014  14.976 -0.4483  0.1559  0.1402
  769MPD2    H111355   0.874   3.430  14.882 -1.8706 -0.2829  0.2885
  769MPD2    H211356   0.673   3.155  14.637  0.7596 -0.5182 -0.7598
  769MPD2    H311357   0.734   3.373  14.697  0.7464  0.6532 -0.9158
  769MPD2     N11358   0.961   3.252  15.064 -0.8609  0.2382 -0.5944
  769MPD2    H511359   0.960   3.170  15.124 -0.7999  0.8251  0.2103
  769MPD2    N111360   0.782   2.931  14.745  0.0741  0.3011 -0.3898
  769MPD2    H711361   0.733   2.930  14.656 -0.5321 -0.4129 -0.0416
  770MPD2     C11362   0.284   1.972  14.803  0.1478  0.1243  0.2175
  770MPD2    C111363   0.367   1.961  14.698 -0.0769 -0.2548 -0.4492
  770MPD2    C211364   0.460   2.063  14.692 -0.4147 -0.0387  0.6567
  770MPD2    C311365   0.470   2.175  14.778  0.0143 -0.3558 -0.4911
  770MPD2    C411366   0.379   2.186  14.881 -0.7625  0.0151  0.0014
  770MPD2    C511367   0.292   2.077  14.890  0.3697  0.2976  0.4135
  770MPD2     H11368   0.533   2.041  14.615  0.5518  2.9983  0.7039
  770MPD2    H111369   0.380   2.271  14.949 -1.1152 -0.5125  0.6687
  770MPD2    H211370   0.207   1.899  14.825 -1.3445  1.5078 -0.4353
  770MPD2    H311371   0.223   2.078  14.974  0.4111 -0.0318  0.4536
  770MPD2     N11372   0.569   2.274  14.755 -0.7693 -0.5320 -0.6531
  770MPD2    H511373   0.615   2.256  14.666 -0.4188  1.7408 -0.9188
  770MPD2    N111374   0.369   1.841  14.619  0.0110  0.0603 -0.3518
  770MPD2    H711375   0.296   1.770  14.625  1.0141 -0.9655 -0.2214
  771MPD2     C11376   2.092   0.497  13.542 -0.4408 -0.2641 -0.2768
  771MPD2    C111377   2.047   0.630  13.557  0.4256 -0.2008 -0.6331
  771MPD2    C211378   1.930   0.666  13.488 -0.4822 -0.5336  0.7466
  771MPD2    C311379   1.858   0.570  13.415  0.3360  0.6046  0.3690
  771MPD2    C411380   1.902   0.439  13.404 -0.5292 -0.0919 -0.2692
  771MPD2    C511381   2.017   0.406  13.466 -0.8486  0.4214 -0.0615
  771MPD2     H11382   1.885   0.764  13.497  0.0601 -0.2459  0.2756
  771MPD2    H111383   1.850   0.356  13.357  1.8600 -0.0581 -3.0649
  771MPD2    H211384   2.182   0.464  13.593 -0.6866  3.2001  2.4131
  771MPD2    H311385   2.038   0.300  13.475 -0.6326  0.5007  0.3830
  771MPD2     N11386   1.739   0.623  13.348 -0.2867 -0.0732  0.3544
  771MPD2    H511387   1.728   0.722  13.366  3.5563  0.3556  0.4368
  771MPD2    N111388   2.116   0.716  13.640  0.4283  0.6396 -0.4712
  771MPD2    H711389   2.065   0.802  13.659  0.1515 -0.5802  4.3429
  772MPD2     C11390   1.959   1.272  14.039 -0.7255 -0.8022  0.1663
  772MPD2    C111391   1.928   1.160  13.963 -0.2535  0.6215  0.2571
  772MPD2    C211392   1.800   1.151  13.908 -0.0746  1.1187  0.3844
  772MPD2    C311393   1.707   1.255  13.922  0.1985  0.4637 -0.5589
  772MPD2    C411394   1.747   1.365  13.997  0.1623 -0.1394  0.0592
  772MPD2    C511395   1.870   1.378  14.053 -0.9866  0.1497 -0.3913
  772MPD2     H11396   1.763   1.058  13.867  1.5728  0.5074  0.2640
  772MPD2    H111397   1.676   1.445  14.018  0.7813  0.0031  1.5500
  772MPD2    H211398   2.055   1.282  14.088 -0.5383 -0.3168 -0.2927
  772MPD2    H311399   1.886   1.461  14.120 -1.5100  0.5897 -0.8086
  772MPD2     N11400   1.569   1.250  13.890 -0.1900 -0.3462  0.3459
  772MPD2    H511401   1.510   1.332  13.903  1.8930  1.0417  1.1824
  772MPD2    N111402   2.018   1.052  13.941  0.3365  0.0573  0.1227
  772MPD2    H711403   1.997   0.989  13.865 -0.0003  1.0166 -0.5808
  773MPD2     C11404   0.829   2.231   0.219 -0.2159 -0.1989 -0.1208
  773MPD2    C111405   0.819   2.127   0.135  0.6487 -0.7179 -0.1491
  773MPD2    C211406   0.866   2.002   0.176 -0.2685  0.0622 -0.1882
  773MPD2    C311407   0.923   1.984   0.307  0.4386  0.0694 -0.1844
  773MPD2    C411408   0.935   2.094   0.386 -0.5639 -0.0938  0.1452
  773MPD2    C511409   0.881   2.218   0.343  0.1188 -0.4472 -0.5789
  773MPD2     H11410   0.845   1.913   0.118  0.2206  1.1681 -2.0358
  773MPD2    H111411   0.951   2.078   0.492 -1.9991 -0.5706  0.3001
  773MPD2    H211412   0.790   2.330   0.201 -0.0568 -0.5967 -2.7253
  773MPD2    H311413   0.870   2.295   0.419  0.1148 -2.0108  1.0132
  773MPD2     N11414   0.959   1.850   0.347 -0.1373 -0.1443 -0.9577
  773MPD2    H511415   0.929   1.774   0.286  0.8148 -1.3011  0.0109
  773MPD2    N111416   0.775   2.147  17.699  0.2490  0.0865 -0.6777
  773MPD2    H711417   0.759   2.062  17.645  1.5348  0.0872 -1.0637
  774MPD2     C11418   0.234   0.710  13.099  0.2520 -0.7719 -0.3098
  774MPD2    C111419   0.191   0.800  13.193  0.4704  0.7474  0.5946
  774MPD2    C211420   0.202   0.937  13.166 -0.0401 -0.1027  0.1887
  774MPD2    C311421   0.259   0.989  13.057 -0.7185  0.4362 -0.8073
  774MPD2    C411422   0.313   0.900  12.969 -0.2382 -0.2938  0.5830
  774MPD2    C511423   0.291   0.762  12.982  0.6012  0.0466 -0.4491
  774MPD2     H11424   0.166   1.010  13.237 -1.3691  0.4921 -1.1075
  774MPD2    H111425   0.357   0.933  12.875  0.5597 -0.7489  0.7949
  774MPD2    H211426   0.223   0.603  13.115  2.2823 -1.5398 -4.0862
  774MPD2    H311427   0.309   0.702  12.894 -0.6622 -0.3493 -0.4287
  774MPD2     N11428   0.285   1.128  13.041  0.6419 -0.6408  0.7732
  774MPD2    H511429   0.248   1.196  13.106 -1.2534  0.0595 -1.0466
  774MPD2    N111430   0.139   0.751  13.319  0.1933  0.1437 -0.9031
  774MPD2    H711431   0.128   0.651  13.330 -3.2420  0.4615 -1.2184
  775MPD2     C11432   1.284   3.092  15.292 -0.1463 -0.5142 -0.0244
  775MPD2    C111433   1.317   3.166  15.404 -0.6178 -0.2106  0.2253
  775MPD2    C211434   1.403   3.274  15.398 -0.0328 -0.5547  0.2909
  775MPD2    C311435   1.462   3.296  15.278 -0.2646 -0.1306  0.2254
  775MPD2    C411436   1.421   3.233  15.161 -0.8483 -0.2506  0.0487
  775MPD2    C511437   1.333   3.132  15.175 -1.3478  0.7794  0.9019
  775MPD2     H11438   1.422   3.335  15.485  1.3918 -2.2588  1.1819
  775MPD2    H111439   1.450   3.268  15.063 -0.8257 -0.3142  0.0324
  775MPD2    H211440   1.208   3.014  15.290 -0.9817  0.3606 -2.2436
  775MPD2    H311441   1.285   3.089  15.088  1.2062  1.8343 -1.0416
  775MPD2     N11442   1.568   3.396  15.271 -0.0065  0.1343  0.3577
  775MPD2    H511443   1.616   3.406  15.182  1.0775  0.8176  1.0136
  775MPD2    N111444   1.262   3.119  15.528  0.3912  0.5785 -0.6234
  775MPD2    H711445   1.190   3.048  15.520  0.1695  0.6697  0.5256
  776MPD2     C11446   1.312   3.048  11.267 -0.1978 -0.5300 -0.5847
  776MPD2    C111447   1.184   3.107  11.280 -0.1756  0.1514  0.1991
  776MPD2    C211448   1.173   3.242  11.254  0.0677  0.1042  1.0606
  776MPD2    C311449   1.286   3.314  11.237  0.3418  0.1622  0.0530
  776MPD2    C411450   1.411   3.252  11.233  0.3291  0.7066  0.2626
  776MPD2    C511451   1.426   3.122  11.254  0.2250 -0.2790 -0.9081
  776MPD2     H11452   1.075   3.288  11.247 -1.2169 -2.6498  0.9563
  776MPD2    H111453   1.503   3.308  11.223  0.4503  0.7837  1.8180
  776MPD2    H211454   1.330   2.944  11.290 -0.7787 -0.2096  1.2660
  776MPD2    H311455   1.523   3.075  11.263  0.3491  0.1302 -0.1384
  776MPD2     N11456   1.285   3.458  11.229 -0.2976  0.1931 -0.3418
  776MPD2    H511457   1.370   3.510  11.209 -0.7925  1.8891  1.8668
  776MPD2    N111458   1.081   3.021  11.316  0.3226 -0.2698 -0.5997
  776MPD2    H711459   1.100   2.921  11.314 -0.3051 -0.4282  1.7501
  777MPD2     C11460   0.820   0.728   0.773  0.2045  0.2391  0.4840
  777MPD2    C111461   0.773   0.614   0.821  0.2040 -0.1009 -0.3187
  777MPD2    C211462   0.667   0.549   0.755  0.0423  0.8691  0.0677
  777MPD2    C311463   0.620   0.589   0.632 -0.5527  0.0422  0.2434
  777MPD2    C411464   0.670   0.714   0.594 -0.1569  0.3901  0.1666
  777MPD2    C511465   0.771   0.779   0.656  0.2029  0.6594  0.2574
  777MPD2     H11466   0.627   0.461   0.804 -1.9236  0.7954 -1.6653
  777MPD2    H111467   0.641   0.772   0.507  0.9231  1.2743  0.3954
  777MPD2    H211468   0.891   0.791   0.825 -0.4496  1.3209  0.0724
  777MPD2    H311469   0.801   0.871   0.607 -0.2211  0.2782 -0.7215
  777MPD2     N11470   0.528   0.511   0.565  0.7425  0.3651 -0.1493
  777MPD2    H511471   0.516   0.417   0.601  2.4660 -0.1915 -0.9948
  777MPD2    N111472   0.826   0.580   0.941 -0.1447  0.0059 -0.1882
  777MPD2    H711473   0.881   0.654   0.985  0.4027  0.8406 -2.2865
  778MPD2     C11474   1.941   0.268  14.805 -0.1249  0.3247 -0.6869
  778MPD2    C111475   1.875   0.337  14.702  0.1644  0.5318 -0.3092
  778MPD2    C211476   1.939   0.445  14.650  0.5926  0.2750 -0.6748
  778MPD2    C311477   2.059   0.496  14.699 -0.0180 -0.1776 -0.3217
  778MPD2    C411478   2.122   0.426  14.800 -0.1154  0.1102 -0.1936
  778MPD2    C511479   2.063   0.312  14.854 -1.0601  0.2805  0.2959
  778MPD2     H11480   1.898   0.490  14.560 -2.6101  1.5676  1.4584
  778MPD2    H111481   2.218   0.462  14.836  1.1533 -2.3507 -1.1887
  778MPD2    H211482   1.893   0.182  14.851 -2.3653  2.0766  0.2144
  778MPD2    H311483   2.113   0.274  14.943  2.1500 -0.4158 -1.7963
  778MPD2     N11484   2.126   0.591  14.625  0.2622 -0.0128 -0.2259
  778MPD2    H511485   2.095   0.629  14.537  0.8266 -0.9406 -0.8265
  778MPD2    N111486   1.756   0.289  14.644  0.6280  0.4721 -0.1683
  778MPD2    H711487   1.716   0.338  14.565 -0.4816  0.2520  0.2554
  779MPD2     C11488   2.252   4.235  13.688  0.0264 -0.2740  0.0122
  779MPD2    C111489   2.214   4.258  13.820  0.8021 -0.1521  0.1707
  779MPD2    C211490   2.234   4.385  13.872 -1.5985  0.7483  0.4055
  779MPD2    C311491   2.269   4.491  13.788  0.5782 -0.1711 -1.2117
  779MPD2    C411492   2.302   4.465  13.657  0.3733  0.2962  0.0193
  779MPD2    C511493   2.301   4.333  13.609  0.1964 -0.3105 -0.2320
  779MPD2     H11494   2.200   4.409  13.972  1.1111 -0.5543  1.6272
  779MPD2    H111495   2.334   4.542  13.588 -0.0079 -0.3544 -0.8718
  779MPD2    H211496   2.257   4.133  13.652 -0.3876 -1.3898  3.0965
  779MPD2    H311497   2.328   4.304  13.508  0.3030 -1.4490  0.1205
  779MPD2     N11498   2.272   4.623  13.836  0.2171  0.1356  0.2276
  779MPD2    H511499   2.277   4.633  13.937 -0.8896  0.9327  0.2114
  779MPD2    N111500   2.169   4.144  13.892  0.2445 -0.1193 -0.5939
  779MPD2    H711501   2.164   4.055  13.843 -0.7262  0.6377 -1.8718
  780MPD2     C11502   0.731   4.257   0.629  0.6686  0.4824  0.0210
  780MPD2    C111503   0.741   4.198   0.503 -0.3162  0.3285 -0.0123
  780MPD2    C211504   0.780   4.270   0.392  0.1877  0.4047  1.2370
  780MPD2    C311505   0.814   4.402   0.406 -0.4064  0.0634  0.0025
  780MPD2    C411506   0.808   4.459   0.529 -0.1962 -0.2438 -0.3276
  780MPD2    C511507   0.764   4.387   0.633  0.0098  0.5311  0.0021
  780MPD2     H11508   0.794   4.228   0.293  0.7578  0.7986  1.1524
  780MPD2    H111509   0.823   4.564   0.549  1.8757 -0.6892  0.4397
  780MPD2    H211510   0.709   4.193   0.714  0.2074  1.0131  0.2941
  780MPD2    H311511   0.764   4.432   0.732 -2.5785  0.5858 -0.0372
  780MPD2     N11512   0.847   4.478   0.293  0.0329 -0.3430  0.0913
  780MPD2    H511513   0.811   4.444   0.205  0.1751 -1.4007  0.4360
  780MPD2    N111514   0.737   4.057   0.507  0.1346 -0.0627 -0.1045
  780MPD2    H711515   0.714   4.009   0.594  1.2947  0.5170  0.5247
  781MPD2     C11516   2.901   1.132  11.662 -0.0923 -1.1978  0.0111
  781MPD2    C111517   2.958   1.231  11.734  0.0735 -0.3377  0.0658
  781MPD2    C211518   3.077   1.291  11.681  0.0173  0.2270 -0.5702
  781MPD2    C311519   3.131   1.246  11.559  0.0786  0.2372 -0.0205
  781MPD2    C411520   3.068   1.149  11.492  0.2802  0.6946 -0.0529
  781MPD2    C511521   2.957   1.085  11.552 -0.6265  0.9007 -0.1757
  781MPD2     H11522   3.120   1.377  11.731 -0.0869  0.1848 -0.4087
  781MPD2    H111523   3.111   1.113  11.399  0.1367 -0.1857  0.2249
  781MPD2    H211524   2.820   1.076  11.707 -0.0567 -2.4990 -1.5412
  781MPD2    H311525   2.902   1.010  11.496 -1.1567 -0.8317  2.6572
  781MPD2     N11526   3.253   1.296  11.502  0.1344 -0.8492 -0.0034
  781MPD2    H511527   3.281   1.258  11.413  0.8708 -0.1436 -0.0704
  781MPD2    N111528   2.900   1.271  11.854 -0.1675 -0.4857 -0.0532
  781MPD2    H711529   2.828   1.212  11.894 -0.9042 -0.4705 -1.3755
  782MPD2     C11530   1.106   1.651   9.990  0.3094 -0.4729  0.0116
  782MPD2    C111531   1.182   1.698  10.098  0.5697 -0.1766 -0.2878
  782MPD2    C211532   1.193   1.837  10.101 -0.9706  0.2667  0.3279
  782MPD2    C311533   1.130   1.919  10.008 -0.8102  0.7859  0.4338
  782MPD2    C411534   1.044   1.865   9.913 -1.1005 -0.7816  0.2566
  782MPD2    C511535   1.042   1.731   9.897  0.5095 -0.0596  0.4786
  782MPD2     H11536   1.243   1.885  10.185 -1.2300 -0.7239  1.0458
  782MPD2    H111537   0.985   1.923   9.843 -0.2926 -1.0346 -0.6232
  782MPD2    H211538   1.096   1.543   9.986  1.5398 -0.5847 -0.1626
  782MPD2    H311539   0.973   1.689   9.825  1.0034 -1.4526  0.8327
  782MPD2     N11540   1.150   2.053  10.021 -0.2536  0.1748 -0.0291
  782MPD2    H511541   1.210   2.082  10.098  0.3758  0.2337 -0.5443
  782MPD2    N111542   1.239   1.607  10.189  0.3229 -0.0531  0.2397
  782MPD2    H711543   1.215   1.509  10.186 -1.2059  0.3534 -0.7753
  783MPD2     C11544   0.722   1.321  10.869  0.3357  0.5808  0.2855
  783MPD2    C111545   0.801   1.426  10.904 -0.4948  0.0113 -0.2506
  783MPD2    C211546   0.932   1.434  10.846 -0.1804  1.1566  0.1225
  783MPD2    C311547   0.979   1.342  10.764  0.5693 -0.2728 -0.1564
  783MPD2    C411548   0.894   1.240  10.730  1.1242  0.1103 -0.8949
  783MPD2    C511549   0.780   1.221  10.792  0.4757 -0.3773  0.1411
  783MPD2     H11550   0.994   1.523  10.844 -1.4126  1.9842 -1.3125
  783MPD2    H111551   0.924   1.160  10.664  0.0997  0.0383 -1.2687
  783MPD2    H211552   0.625   1.296  10.912  1.6464 -0.3630  2.7479
  783MPD2    H311553   0.720   1.135  10.764 -0.0185 -0.0904  0.3109
  783MPD2     N11554   1.101   1.371  10.698 -0.1342  0.0515  0.2920
  783MPD2    H511555   1.141   1.459  10.730  0.8766 -0.1163 -0.4983
  783MPD2    N111556   0.739   1.530  10.980 -0.4480  0.7815 -0.5115
  783MPD2    H711557   0.648   1.512  11.021 -0.8297  0.3195 -1.5537
  784MPD2     C11558   3.556   2.444   0.691 -0.6367  0.1646  0.0447
  784MPD2    C111559   3.637   2.498   0.596 -0.1162  0.9419  0.1461
  784MPD2    C211560   3.581   2.559   0.484 -0.5269 -0.2066 -0.5106
  784MPD2    C311561   3.443   2.568   0.476 -0.0604  0.6460  0.7908
  784MPD2    C411562   3.364   2.519   0.578  0.1563  0.0472 -0.1161
  784MPD2    C511563   3.422   2.458   0.683  0.8053  0.1725  0.6461
  784MPD2     H11564   3.641   2.593   0.400  0.5817 -0.2537  0.2727
  784MPD2    H111565   3.256   2.528   0.578  0.1962  0.5625  1.0104
  784MPD2    H211566   3.595   2.398   0.781  0.1862  0.5369 -0.1217
  784MPD2    H311567   3.364   2.419   0.765 -0.4742 -0.6678 -0.6596
  784MPD2     N11568   3.393   2.621   0.354  0.4418 -0.4182  0.5947
  784MPD2    H511569   3.466   2.666   0.299 -0.7557 -0.2187 -0.8330
  784MPD2    N111570   3.780   2.499   0.600  0.3033  0.2862  0.2534
  784MPD2    H711571   3.829   2.521   0.514 -0.6982 -0.2114 -0.4549
  785MPD2     C11572   3.486   0.583  10.285  0.0478 -0.0807 -0.0825
  785MPD2    C111573   3.413   0.686  10.337  0.4837  0.0677 -0.0193
  785MPD2    C211574   3.339   0.764  10.254  0.0700  0.4996  0.1521
  785MPD2    C311575   3.333   0.743  10.118  0.1329  0.6556 -0.4270
  785MPD2    C411576   3.412   0.643  10.062 -0.0414 -0.4203 -0.2488
  785MPD2    C511577   3.490   0.563  10.149 -0.5335  0.7339  0.0389
  785MPD2     H11578   3.285   0.842  10.306 -0.2016  0.2428  0.2595
  785MPD2    H111579   3.402   0.615   9.958  1.1322  0.1604 -0.5201
  785MPD2    H211580   3.554   0.528  10.349  0.7598  0.9723  0.0709
  785MPD2    H311581   3.551   0.484  10.108  0.0244  0.5108  1.2943
  785MPD2     N11582   3.264   0.835  10.046  0.1313 -0.2367  0.2976
  785MPD2    H511583   3.219   0.907  10.102  2.6453  1.8381 -0.3155
  785MPD2    N111584   3.405   0.710  10.474 -0.1064 -0.2471  0.4092
  785MPD2    H711585   3.339   0.783  10.499  0.1953 -0.1648  0.9705
  786MPD2     C11586   1.962   3.643  14.958 -0.2721 -0.5004 -0.0392
  786MPD2    C111587   2.087   3.602  14.930 -0.3275 -0.6982 -0.9634
  786MPD2    C211588   2.185   3.628  15.016 -0.2711 -0.0280 -0.5719
  786MPD2    C311589   2.166   3.691  15.138 -0.2685 -0.3285 -0.0365
  786MPD2    C411590   2.034   3.728  15.174  0.4178  0.7685  0.0374
  786MPD2    C511591   1.935   3.707  15.083  0.2032  0.2490 -0.1464
  786MPD2     H11592   2.282   3.588  14.987  0.2131  0.2898  0.6194
  786MPD2    H111593   2.002   3.787  15.259 -1.6731 -1.2258  0.6370
  786MPD2    H211594   1.881   3.637  14.886 -1.0772  2.1553  0.6710
  786MPD2    H311595   1.837   3.753  15.090  1.2408  2.8098 -2.2244
  786MPD2     N11596   2.275   3.710  15.232 -0.0945  0.0807 -0.1159
  786MPD2    H511597   2.248   3.729  15.328 -1.5648  2.6084 -1.0288
  786MPD2    N111598   2.125   3.545  14.802  0.2401 -0.6836  0.0064
  786MPD2    H711599   2.224   3.523  14.795  0.3880  0.6792 -2.0681
  787MPD2     C11600   2.631   3.215  14.818 -0.2438  0.4441 -0.1425
  787MPD2    C111601   2.563   3.155  14.721 -0.0476 -0.2225  1.0823
  787MPD2    C211602   2.625   3.044  14.669 -0.5352  0.5025 -0.1353
  787MPD2    C311603   2.744   2.990  14.719  0.4388 -0.3899 -0.3005
  787MPD2    C411604   2.810   3.056  14.821  0.5192  0.1521  0.2451
  787MPD2    C511605   2.751   3.174  14.866  0.0468  0.3939 -0.1278
  787MPD2     H11606   2.574   2.982  14.596 -1.6981  1.0619  0.2033
  787MPD2    H111607   2.900   3.020  14.868 -0.5069 -3.7175 -0.7699
  787MPD2    H211608   2.603   3.313  14.855 -0.2198  1.5421 -3.0138
  787MPD2    H311609   2.790   3.227  14.952 -0.0158  1.8258 -0.9895
  787MPD2     N11610   2.798   2.866  14.670  0.4294  0.0209 -0.2508
  787MPD2    H511611   2.746   2.825  14.593 -0.6166  1.7950 -0.4890
  787MPD2    N111612   2.451   3.215  14.674  0.1208 -0.6805 -0.6220
  787MPD2    H711613   2.419   3.300  14.721 -0.2867 -0.8628 -0.5706
  788MPD2     C11614   4.559   1.934   0.554 -0.4366  0.1551 -0.2007
  788MPD2    C111615   4.455   1.838   0.513 -0.6713 -0.4180  0.1875
  788MPD2    C211616   4.349   1.887   0.436 -0.3024  0.4252 -0.0156
  788MPD2    C311617   4.339   2.019   0.402  0.4948 -0.0647 -0.1839
  788MPD2    C411618   4.437   2.106   0.452 -1.0662  0.0565 -0.9512
  788MPD2    C511619   4.537   2.066   0.536  0.1268  0.4379  0.1196
  788MPD2     H11620   4.284   1.818   0.383 -0.1013  2.1371 -2.4697
  788MPD2    H111621   4.432   2.209   0.419 -1.7224  0.1687 -0.5068
  788MPD2    H211622   4.636   1.908   0.625 -1.0928 -1.3216 -0.0351
  788MPD2    H311623   4.603   2.144   0.574  0.6977  0.4249 -0.8508
  788MPD2     N11624   4.237   2.068   0.316 -0.2568 -0.6422 -0.1090
  788MPD2    H511625   4.240   2.167   0.292 -1.1428 -1.2026 -2.4882
  788MPD2    N111626   4.458   1.704   0.549  0.6159 -0.3346  0.7632
  788MPD2    H711627   4.376   1.656   0.513 -0.6251  2.1986  0.2297
  789MPD2     C11628   4.582   1.661  16.462  0.1573 -0.2095  0.1461
  789MPD2    C111629   4.467   1.588  16.457  0.0529 -1.3830  0.5550
  789MPD2    C211630   4.347   1.654  16.487  0.2342  0.2000  0.1172
  789MPD2    C311631   4.333   1.789  16.507 -0.2086  0.0957  0.2879
  789MPD2    C411632   4.447   1.863  16.520  0.0595  0.4725 -0.3405
  789MPD2    C511633   4.567   1.796  16.500 -0.2346  0.3185 -0.0359
  789MPD2     H11634   4.262   1.589  16.471 -0.3720  1.9499 -3.9076
  789MPD2    H111635   4.460   1.968  16.545  1.3374  0.0862  0.5864
  789MPD2    H211636   4.679   1.625  16.429 -0.5171  0.1142 -2.2136
  789MPD2    H311637   4.657   1.856  16.500  1.2961 -1.9624  1.3650
  789MPD2     N11638   4.215   1.860  16.491 -0.1512 -0.0625 -0.3904
  789MPD2    H511639   4.218   1.961  16.482  2.0001 -0.2629 -1.8738
  789MPD2    N111640   4.463   1.456  16.420 -0.7316 -0.1782  0.1386
  789MPD2    H711641   4.380   1.414  16.461 -1.2407  1.5344  0.8423
  790MPD2     C11642   0.435   3.505  13.388 -0.6251  0.4272 -0.1755
  790MPD2    C111643   0.500   3.383  13.393  0.0314 -0.4074  0.2013
  790MPD2    C211644   0.496   3.300  13.285  0.1604  0.1609  0.0496
  790MPD2    C311645   0.433   3.328  13.166 -0.0421  0.6173 -0.2954
  790MPD2    C411646   0.369   3.454  13.158  0.0316  0.2190  0.0507
  790MPD2    C511647   0.365   3.532  13.270 -0.2610 -0.0340  0.4667
  790MPD2     H11648   0.532   3.198  13.294 -1.8487 -0.7417 -2.3266
  790MPD2    H111649   0.313   3.485  13.071  1.1049  0.6906 -0.4828
  790MPD2    H211650   0.433   3.572  13.474  0.6571  1.6770 -1.1263
  790MPD2    H311651   0.300   3.617  13.283  0.1975  0.7786 -2.5874
  790MPD2     N11652   0.419   3.222  13.071 -0.3001 -0.0486  0.4624
  790MPD2    H511653   0.456   3.128  13.081 -0.2634 -0.4483 -3.3242
  790MPD2    N111654   0.566   3.343  13.518 -0.3407 -0.0824  0.4423
  790MPD2    H711655   0.556   3.399  13.602  1.5702 -0.7571  1.1085
  791MPD2     C11656   0.229   3.331  12.353 -0.0755  0.3795  0.4945
  791MPD2    C111657   0.199   3.196  12.382  0.2026  0.7089  0.4163
  791MPD2    C211658   0.132   3.126  12.280 -0.3413  0.3648  0.2799
  791MPD2    C311659   0.102   3.183  12.158 -0.5950  0.2362 -0.0928
  791MPD2    C411660   0.144   3.310  12.132 -0.0484 -0.1768 -0.0812
  791MPD2    C511661   0.202   3.388  12.231  0.2569  0.4073  0.4372
  791MPD2     H11662   0.100   3.024  12.299  0.1503  0.6079  2.4010
  791MPD2    H111663   0.152   3.349  12.031 -2.9580  1.3767  0.2982
  791MPD2    H211664   0.255   3.394  12.437 -1.9690 -0.0478  1.3965
  791MPD2    H311665   0.225   3.491  12.207  1.4637 -0.4471 -2.0619
  791MPD2     N11666   0.052   3.097  12.058 -0.0952  0.7318 -0.4406
  791MPD2    H511667   0.013   3.008  12.089  0.4335  0.8187  0.4828
  791MPD2    N111668   0.231   3.147  12.513 -0.5705  0.5307 -0.3699
  791MPD2    H711669   0.264   3.209  12.586 -0.8193 -0.4480  0.5706
  792MPD2     C11670   1.146   2.888  10.873 -0.1507 -0.0392  0.0246
  792MPD2    C111671   1.053   2.979  10.907 -0.8471  0.1235 -0.3090
  792MPD2    C211672   0.924   2.939  10.957 -0.3977  0.5021 -1.0630
  792MPD2    C311673   0.889   2.803  10.949  0.1130 -0.4124  0.8159
  792MPD2    C411674   0.988   2.715  10.908  0.8985 -0.0252 -0.3843
  792MPD2    C511675   1.112   2.760  10.882  0.0503 -0.2735  1.0709
  792MPD2     H11676   0.861   3.013  11.005  0.9048  1.1867 -0.4030
  792MPD2    H111677   0.966   2.609  10.897  0.4693 -0.0560  0.8586
  792MPD2    H211678   1.249   2.914  10.851 -1.1885  2.8554 -1.4736
  792MPD2    H311679   1.185   2.693  10.838  0.0784  1.6128 -1.7020
  792MPD2     N11680   0.776   2.749  11.009  0.3486 -0.3642  0.2271
  792MPD2    H511681   0.761   2.649  11.000 -0.9157 -0.2054  0.6960
  792MPD2    N111682   1.088   3.114  10.906  0.5223  0.6011  0.2312
  792MPD2    H711683   1.189   3.128  10.909  0.8207 -1.2978 -0.7411
  793MPD2     C11684   0.278   2.851  10.341  0.2082 -0.5684 -0.2726
  793MPD2    C111685   0.371   2.757  10.367 -0.8725 -0.8178 -0.3773
  793MPD2    C211686   0.376   2.708  10.499  0.0829  0.3861  0.3123
  793MPD2    C311687   0.289   2.744  10.597 -0.2794 -0.3512 -0.1332
  793MPD2    C411688   0.190   2.843  10.565  0.4826 -0.4345  0.4392
  793MPD2    C511689   0.195   2.900  10.441  0.0211 -1.0225 -0.2258
  793MPD2     H11690   0.456   2.638  10.517  1.4039  1.5325 -1.0381
  793MPD2    H111691   0.127   2.890  10.640 -2.1404 -2.2033 -0.6689
  793MPD2    H211692   0.283   2.901  10.245  0.5375  0.4552  0.2749
  793MPD2    H311693   0.128   2.981  10.417 -1.6214 -2.1182  0.6770
  793MPD2     N11694   0.318   2.678  10.722  0.5556 -0.1783 -0.4888
  793MPD2    H511695   0.378   2.596  10.722  2.5929  1.3295  1.4474
  793MPD2    N111696   0.473   2.715  10.283 -0.1591  0.0113 -0.3254
  793MPD2    H711697   0.532   2.649  10.333  1.3325  1.5862 -0.0221
  794MPD2     C11698   0.796   2.655  16.979 -0.1252 -0.0173 -0.6339
  794MPD2    C111699   0.705   2.550  16.969  0.6587 -0.2442 -0.0403
  794MPD2    C211700   0.609   2.548  16.869  0.0472 -0.1340  0.2823
  794MPD2    C311701   0.616   2.652  16.773  0.6744  0.1495 -0.3611
  794MPD2    C411702   0.699   2.757  16.791 -0.1641 -0.0947  0.1963
  794MPD2    C511703   0.791   2.760  16.892 -0.0241  0.0466  0.0461
  794MPD2     H11704   0.527   2.478  16.874 -0.0043 -0.1706 -1.2332
  794MPD2    H111705   0.701   2.838  16.720 -3.0197  0.0645  0.2711
  794MPD2    H211706   0.880   2.660  17.048  0.4430  3.1354 -1.5810
  794MPD2    H311707   0.866   2.838  16.898  1.7339 -1.4340 -2.6825
  794MPD2     N11708   0.527   2.657  16.666 -0.1415 -0.5107 -0.5586
  794MPD2    H511709   0.524   2.742  16.610 -1.0336 -0.6204 -0.6801
  794MPD2    N111710   0.689   2.453  17.064  1.0535  0.6571  0.4076
  794MPD2    H711711   0.595   2.415  17.062  1.8810 -1.4251  1.9053
  795MPD2     C11712   2.781   0.190  13.397  0.5232 -0.4486  0.1725
  795MPD2    C111713   2.751   0.082  13.321  0.2143  0.5103 -0.6673
  795MPD2    C211714   2.815   4.686  13.346  0.1283 -0.1817  0.4125
  795MPD2    C311715   2.902   4.678  13.455  0.5231 -0.9429 -0.7832
  795MPD2    C411716   2.936   0.067  13.533 -0.0373  0.0439 -1.3016
  795MPD2    C511717   2.868   0.179  13.507 -0.7858  0.2863 -0.2346
  795MPD2     H11718   2.785   4.596  13.294 -0.2029  0.4405 -0.4924
  795MPD2    H111719   3.018   0.064  13.603 -0.7316 -3.3070 -0.6235
  795MPD2    H211720   2.729   0.285  13.392 -1.7100 -1.6772 -0.0524
  795MPD2    H311721   2.875   0.272  13.562 -1.6356 -0.2320  0.7607
  795MPD2     N11722   2.987   4.564  13.480 -0.2026  0.3033 -0.2533
  795MPD2    H511723   3.058   4.578  13.552 -1.2289 -0.3336  0.8768
  795MPD2    N111724   2.655   0.084  13.224 -0.4142  0.1575 -0.2283
  795MPD2    H711725   2.631   4.720  13.181 -0.6782 -0.4641  1.1950
  796MPD2     C11726   2.901   1.630  15.669 -0.6103  0.2799 -0.3740
  796MPD2    C111727   2.767   1.668  15.691  0.4034 -0.4985 -0.3187
  796MPD2    C211728   2.733   1.804  15.672  0.3332 -0.3796  0.6026
  796MPD2    C311729   2.826   1.898  15.657 -0.3857  0.0740  0.0802
  796MPD2    C411730   2.960   1.863  15.642 -0.0747 -0.1692  0.8444
  796MPD2    C511731   2.992   1.728  15.641  0.5269  0.4638  0.0541
  796MPD2     H11732   2.628   1.826  15.662 -0.2216 -1.4534  4.1903
  796MPD2    H111733   3.041   1.935  15.635 -0.7735  0.4545 -0.7282
  796MPD2    H211734   2.934   1.528  15.689 -1.9969 -0.0068  0.4766
  796MPD2    H311735   3.096   1.699  15.637  0.1746 -0.4271 -2.3122
  796MPD2     N11736   2.790   2.033  15.646 -0.1747 -0.3253 -0.5424
  796MPD2    H511737   2.692   2.056  15.637 -0.9165 -3.0912  0.4959
  796MPD2    N111738   2.661   1.572  15.704 -0.4925 -0.2840  0.1854
  796MPD2    H711739   2.576   1.622  15.731 -1.0356  1.0249 -3.9039
  797MPD2     C11740   3.114   1.158  16.739  0.3193  1.4174 -1.0324
  797MPD2    C111741   3.063   1.197  16.860  0.1423 -1.1499 -0.0579
  797MPD2    C211742   2.931   1.239  16.866  0.4250 -0.1029  0.2218
  797MPD2    C311743   2.855   1.256  16.752  0.3555  0.3894 -0.0348
  797MPD2    C411744   2.916   1.225  16.634 -0.1406 -0.2914 -0.0075
  797MPD2    C511745   3.038   1.160  16.626  0.6496 -0.5923 -0.0611
  797MPD2     H11746   2.887   1.274  16.959 -0.9506 -1.1373 -0.0426
  797MPD2    H111747   2.872   1.252  16.539 -1.0993 -1.4309  0.1133
  797MPD2    H211748   3.221   1.140  16.729  0.2930  0.4469  0.3417
  797MPD2    H311749   3.077   1.126  16.531 -0.1426  0.9951 -0.9654
  797MPD2     N11750   2.721   1.301  16.751 -0.3984  0.0359  0.4212
  797MPD2    H511751   2.683   1.338  16.665 -0.0456 -0.9715 -0.1686
  797MPD2    N111752   3.127   1.211  16.985  0.3113 -0.3468  0.2932
  797MPD2    H711753   3.069   1.241  17.063  0.5321 -0.2222  0.4074
  798MPD2     C11754   2.811   1.927  17.187  0.1231 -0.8312 -0.1615
  798MPD2    C111755   2.784   1.800  17.130  0.4614 -0.9994 -0.0376
  798MPD2    C211756   2.887   1.707  17.132  0.3058  0.5445  0.2143
  798MPD2    C311757   3.014   1.732  17.184  0.4887  0.3782 -0.6042
  798MPD2    C411758   3.029   1.852  17.255 -0.1035 -0.1532 -0.1492
  798MPD2    C511759   2.926   1.944  17.257 -0.4836  0.5410 -0.7876
  798MPD2     H11760   2.868   1.613  17.082  0.0409  1.4117 -1.3445
  798MPD2    H111761   3.125   1.871  17.302  0.6349  1.1654 -2.2330
  798MPD2    H211762   2.728   1.996  17.200 -0.0871 -0.9530 -0.8205
  798MPD2    H311763   2.943   2.032  17.318 -1.3121  1.5653 -2.0424
  798MPD2     N11764   3.096   1.620  17.187  0.2021 -0.4933  0.2408
  798MPD2    H511765   3.054   1.535  17.152 -2.2972  0.6517  0.4743
  798MPD2    N111766   2.655   1.773  17.082  1.1024 -0.1313 -0.2655
  798MPD2    H711767   2.604   1.855  17.052  0.6840  0.1632  1.2481
  799MPD2     C11768   2.430   2.626  14.764 -0.0323 -0.3824 -0.6678
  799MPD2    C111769   2.364   2.533  14.687 -0.1352  0.0679 -0.4825
  799MPD2    C211770   2.258   2.585  14.616  0.5932  0.0685  0.1409
  799MPD2    C311771   2.240   2.721  14.599 -0.2826  0.2193  0.4388
  799MPD2    C411772   2.306   2.809  14.674  0.1854 -0.4759 -0.2543
  799MPD2    C511773   2.401   2.759  14.757  0.1805  0.0936  0.3947
  799MPD2     H11774   2.181   2.528  14.564 -0.0860  1.9983 -1.0099
  799MPD2    H111775   2.296   2.917  14.682  1.1593 -0.2574 -1.9319
  799MPD2    H211776   2.512   2.590  14.826 -0.9355 -2.4404 -0.6711
  799MPD2    H311777   2.454   2.827  14.823  1.6461 -0.9476  0.2963
  799MPD2     N11778   2.152   2.779  14.503  0.1389  0.5053  0.0244
  799MPD2    H511779   2.144   2.881  14.503  1.2340  0.5927 -0.0459
  799MPD2    N111780   2.388   2.391  14.680 -0.8077  0.1724  0.4137
  799MPD2    H711781   2.329   2.344  14.612 -0.2936 -0.9498  0.7605
  800MPD2     C11782   2.999   4.170  14.323  0.0791 -0.0330 -0.1527
  800MPD2    C111783   3.052   4.118  14.207 -0.1771  0.0758 -0.2390
  800MPD2    C211784   2.971   4.023  14.140  0.5617 -0.6243 -0.4717
  800MPD2    C311785   2.861   3.967  14.196 -0.0746  0.2413  0.0016
  800MPD2    C411786   2.813   4.013  14.313 -0.1516  0.0902  0.1006
  800MPD2    C511787   2.883   4.115  14.377  0.3753  0.3339 -0.0839
  800MPD2     H11788   3.002   3.983  14.044  2.2697  2.6965 -1.3036
  800MPD2    H111789   2.727   3.972  14.364 -0.2613  0.6138  0.3346
  800MPD2    H211790   3.045   4.261  14.359 -1.2764  0.5799  0.0125
  800MPD2    H311791   2.833   4.155  14.465 -0.2764 -0.8206  0.0773
  800MPD2     N11792   2.824   3.837  14.149 -0.8447  0.3789 -0.0764
  800MPD2    H511793   2.858   3.805  14.059 -2.2923  0.4335 -0.6344
  800MPD2    N111794   3.172   4.177  14.160  0.3960  0.0086  0.2696
  800MPD2    H711795   3.221   4.243  14.220  1.2303  0.0799 -0.4827
  801MPD2     C11796   3.350   0.003  14.464 -0.8022  0.0148 -0.9684
  801MPD2    C111797   3.301   4.606  14.430  0.6003  0.3529  0.6246
  801MPD2    C211798   3.186   4.559  14.490  0.6085 -0.4907  0.1253
  801MPD2    C311799   3.114   4.621  14.587 -0.1839 -0.0413  0.0088
  801MPD2    C411800   3.160   0.025  14.624 -0.1885 -0.6896  0.7077
  801MPD2    C511801   3.273   0.074  14.556 -0.0470  0.2098 -0.6124
  801MPD2     H11802   3.149   4.466  14.448 -0.2929 -0.0292 -0.1146
  801MPD2    H111803   3.123   0.089  14.703 -0.2231  0.6022 -0.3546
  801MPD2    H211804   3.441   0.048  14.427 -0.8497 -0.6580 -1.8810
  801MPD2    H311805   3.305   0.174  14.582  1.7018 -0.3883 -0.4548
  801MPD2     N11806   2.999   4.564  14.645  0.3212  0.3834 -0.6042
  801MPD2    H511807   2.961   4.597  14.733  0.4556  0.1597 -0.4635
  801MPD2    N111808   3.348   4.521  14.332  0.0824  0.2823  0.1077
  801MPD2    H711809   3.305   4.430  14.324 -0.4382  0.5410 -0.0669
  802MPD2     C11810   2.367   0.556   0.098  0.4866  0.2399  0.1465
  802MPD2    C111811   2.307   0.603  17.689  0.9518  0.4466 -0.7506
  802MPD2    C211812   2.379   0.636  17.576 -0.3723  0.1966  0.1394
  802MPD2    C311813   2.520   0.615  17.567  0.2223 -0.5361 -0.3443
  802MPD2    C411814   2.576   0.573  17.687  0.0448  0.0628  0.0522
  802MPD2    C511815   2.500   0.547   0.101  0.4985  0.3360 -0.3894
  802MPD2     H11816   2.332   0.691  17.495 -0.0791  1.5025  0.8589
  802MPD2    H111817   2.681   0.558   0.007 -0.4247 -1.0901  1.6701
  802MPD2    H211818   2.319   0.557   0.195  1.7926  1.4030  0.7841
  802MPD2    H311819   2.567   0.536   0.186  0.4362 -2.3505 -0.6812
  802MPD2     N11820   2.589   0.654  17.452 -0.0654 -0.1292  0.0635
  802MPD2    H511821   2.538   0.685  17.370  0.3450 -1.3389 -0.6626
  802MPD2    N111822   2.169   0.640  17.676  0.1371  1.0382  0.8094
  802MPD2    H711823   2.140   0.680  17.587 -1.3022 -0.4652  0.6109
  803MPD2     C11824   3.548   3.385  11.534 -0.4684 -0.0372  0.2068
  803MPD2    C111825   3.667   3.334  11.581  0.8419  0.5845  0.0801
  803MPD2    C211826   3.662   3.216  11.648  0.6564 -0.0572  0.1138
  803MPD2    C311827   3.546   3.148  11.678  0.4351 -0.0866 -0.0968
  803MPD2    C411828   3.430   3.202  11.635 -0.1376 -0.3058 -0.3616
  803MPD2    C511829   3.430   3.328  11.567  0.4160  0.0817 -0.6764
  803MPD2     H11830   3.760   3.179  11.675 -0.2315 -0.0616  3.2660
  803MPD2    H111831   3.326   3.175  11.654 -0.3142  0.3603 -0.3826
  803MPD2    H211832   3.545   3.477  11.477  0.5328  0.2078  0.5554
  803MPD2    H311833   3.342   3.377  11.527 -0.0470  0.3353  0.6475
  803MPD2     N11834   3.544   3.036  11.753  0.3186 -0.0270 -0.3511
  803MPD2    H511835   3.453   3.026  11.797  0.0751  0.6911 -0.7029
  803MPD2    N111836   3.792   3.404  11.584 -0.1364 -0.0288  0.1076
  803MPD2    H711837   3.863   3.372  11.649 -0.2255 -0.9687 -0.2592
  804MPD2     C11838   2.982   4.383  16.494  0.6922 -0.2208 -0.1105
  804MPD2    C111839   2.984   4.337  16.625  0.3889 -0.0532  0.2423
  804MPD2    C211840   2.984   4.431  16.728  0.5334 -0.0920  0.2187
  804MPD2    C311841   2.997   4.561  16.703  0.4861 -0.2337  0.4833
  804MPD2    C411842   2.999   4.606  16.576 -0.3886 -0.2473  0.0101
  804MPD2    C511843   2.990   4.515  16.469  0.0997  0.7271  0.0531
  804MPD2     H11844   2.979   4.394  16.829 -1.0529 -1.6374 -0.4229
  804MPD2    H111845   3.016   4.713  16.569 -1.8212 -0.1149 -1.4871
  804MPD2    H211846   2.986   4.327  16.401 -0.3347  0.8239 -0.7805
  804MPD2    H311847   2.990   4.554  16.368  2.0214 -1.8742 -0.9265
  804MPD2     N11848   3.005   4.668  16.805 -0.1447  0.1234 -0.9245
  804MPD2    H511849   3.019   0.040  16.780 -1.6510  0.9939  1.6661
  804MPD2    N111850   2.975   4.201  16.662 -0.2295 -0.0901  0.5617
  804MPD2    H711851   2.949   4.177  16.757 -0.5469  0.7467  0.6881
  805MPD2     C11852   1.785   3.076  15.352 -0.3283  1.0283 -0.0945
  805MPD2    C111853   1.911   3.024  15.323 -0.2781  0.3918 -0.0059
  805MPD2    C211854   2.010   3.043  15.423 -0.3636  0.1077 -0.6740
  805MPD2    C311855   1.983   3.120  15.539 -0.4101  0.1325 -0.4172
  805MPD2    C411856   1.855   3.166  15.561  0.1006 -0.8142 -0.1896
  805MPD2    C511857   1.759   3.146  15.470  0.0239  0.6482 -0.1827
  805MPD2     H11858   2.111   3.010  15.401 -0.0434 -1.8643  3.7077
  805MPD2    H111859   1.838   3.229  15.648  0.8604 -2.3748  1.0801
  805MPD2    H211860   1.696   3.066  15.292 -0.7735  3.2086  0.1733
  805MPD2    H311861   1.660   3.183  15.496  0.2723  0.3706  1.1185
  805MPD2     N11862   2.095   3.146  15.624  0.0267  0.1412 -0.1028
  805MPD2    H511863   2.185   3.119  15.587  0.7236  1.2323  0.7956
  805MPD2    N111864   1.942   2.959  15.204  0.3529 -0.8903 -0.2087
  805MPD2    H711865   2.036   2.925  15.188  0.5885 -0.3797  0.0917
  806MPD2     C11866   2.712   2.251  17.318  0.3261  0.6499  0.2680
  806MPD2    C111867   2.791   2.244  17.432 -0.4780  0.7429  0.1106
  806MPD2    C211868   2.916   2.307  17.423 -0.2990  0.3888  0.2566
  806MPD2    C311869   2.966   2.349  17.302  0.0403 -0.5830 -0.5665
  806MPD2    C411870   2.887   2.347  17.189  0.1792  0.4208  0.3224
  806MPD2    C511871   2.764   2.294  17.201 -0.7260 -0.3582  0.3878
  806MPD2     H11872   2.973   2.317  17.514 -2.0750 -0.6088  1.5002
  806MPD2    H111873   2.927   2.376  17.093  1.1885 -0.3683  0.4979
  806MPD2    H211874   2.606   2.225  17.322  0.4450  0.4414  2.0134
  806MPD2    H311875   2.702   2.291  17.112  1.0878  2.3041 -0.9740
  806MPD2     N11876   3.097   2.406  17.312  0.1097  0.6541 -0.9639
  806MPD2    H511877   3.137   2.424  17.403 -3.0514  2.3975  0.0875
  806MPD2    N111878   2.732   2.199  17.550  0.4111  0.0968 -0.4870
  806MPD2    H711879   2.639   2.159  17.556  0.5387 -0.2850 -1.2034
  807MPD2     C11880   2.477   1.539   0.081  0.9310  0.4154  0.5662
  807MPD2    C111881   2.438   1.616   0.195  1.0095 -0.2935 -0.5125
  807MPD2    C211882   2.378   1.547   0.309 -0.6533 -0.3937  0.2362
  807MPD2    C311883   2.373   1.409   0.314  0.2057  0.3878 -0.1619
  807MPD2    C411884   2.411   1.339   0.202  0.7268  0.2047 -0.1936
  807MPD2    C511885   2.470   1.404   0.095  0.0475 -0.0673  0.0327
  807MPD2     H11886   2.356   1.607   0.397  2.9079  1.0089  0.1634
  807MPD2    H111887   2.395   1.234   0.180  0.6594 -0.1514  1.5637
  807MPD2    H211888   2.516   1.578  17.688  2.4722  0.0071  1.0525
  807MPD2    H311889   2.492   1.347   0.005 -1.8901 -0.5058 -0.1473
  807MPD2     N11890   2.302   1.335   0.413 -0.4800 -0.1030 -0.2076
  807MPD2    H511891   2.259   1.389   0.488 -3.8213 -0.6048 -1.7408
  807MPD2    N111892   2.461   1.752   0.212 -0.2821  0.5836  0.2010
  807MPD2    H711893   2.454   1.790   0.306  0.0962  1.2822 -0.0513
  808MPD2     C11894   2.991   3.837  10.446  0.2964 -0.3317 -0.1687
  808MPD2    C111895   3.069   3.734  10.496 -0.6963  0.3924  0.1808
  808MPD2    C211896   3.200   3.755  10.524  0.9512 -0.4972 -0.3550
  808MPD2    C311897   3.262   3.871  10.510 -0.3065  0.1660  0.5033
  808MPD2    C411898   3.185   3.977  10.463 -0.3857  0.5926 -0.3214
  808MPD2    C511899   3.052   3.959  10.435 -0.5619  0.0372  0.2054
  808MPD2     H11900   3.252   3.668  10.562  2.6112  0.3072 -0.7883
  808MPD2    H111901   3.229   4.072  10.432 -0.0276  1.3155  2.3948
  808MPD2    H211902   2.885   3.839  10.422 -0.4414 -0.2974  3.0103
  808MPD2    H311903   2.999   4.049  10.408 -0.8344 -0.3021 -0.3914
  808MPD2     N11904   3.404   3.892  10.530 -0.3955 -0.7690  0.2333
  808MPD2    H511905   3.442   3.986  10.526  1.0987 -1.4128 -0.5316
  808MPD2    N111906   3.010   3.605  10.533  1.1557 -0.4179  0.0165
  808MPD2    H711907   3.061   3.541  10.593  1.8906  0.6191  0.5255
  809MPD2     C11908   3.834   3.230   9.962  0.9584  0.4787  0.2893
  809MPD2    C111909   3.854   3.350   9.912 -0.3292  0.2691 -0.6559
  809MPD2    C211910   3.842   3.464   9.992 -0.2359  0.3913 -0.2351
  809MPD2    C311911   3.818   3.447  10.128 -0.1441  0.2557 -0.2314
  809MPD2    C411912   3.808   3.324  10.180  0.7010  0.4197 -0.4857
  809MPD2    C511913   3.820   3.217  10.094 -0.4292 -0.3829 -0.0026
  809MPD2     H11914   3.861   3.562   9.948  0.7279 -0.8703 -2.6120
  809MPD2    H111915   3.797   3.306  10.286  1.2953 -0.5757 -0.5900
  809MPD2    H211916   3.841   3.140   9.903  0.8347  0.6552  0.0069
  809MPD2    H311917   3.807   3.118  10.135  0.7006 -0.6921 -0.3973
  809MPD2     N11918   3.786   3.558  10.216  0.0086 -0.0986  0.1350
  809MPD2    H511919   3.771   3.532  10.313 -0.3542  0.5727  0.2623
  809MPD2    N111920   3.876   3.383   9.774  1.0953  0.2810  0.4304
  809MPD2    H711921   3.888   3.481   9.752  0.1028 -0.0219 -1.4748
  810MPD2     C11922   2.454   3.186  10.839  0.4659 -0.4277 -0.2052
  810MPD2    C111923   2.383   3.183  10.716  0.5819 -0.0251  0.1274
  810MPD2    C211924   2.404   3.297  10.637  0.0311  0.5760 -0.0944
  810MPD2    C311925   2.469   3.405  10.687  0.5220 -0.1415  0.3599
  810MPD2    C411926   2.521   3.411  10.812 -0.3884  0.0114  0.8983
  810MPD2    C511927   2.517   3.299  10.886  0.1977 -0.4200  0.1309
  810MPD2     H11928   2.373   3.289  10.534 -0.8726 -1.4525  0.3296
  810MPD2    H111929   2.558   3.502  10.858 -1.7478  0.6261  0.7919
  810MPD2    H211930   2.461   3.100  10.905  0.9784 -0.3691 -0.1781
  810MPD2    H311931   2.573   3.286  10.978  0.4788 -0.0244  0.0178
  810MPD2     N11932   2.482   3.522  10.617  0.0440  1.0266  0.1638
  810MPD2    H511933   2.548   3.586  10.659  0.4503  0.4444  0.4043
  810MPD2    N111934   2.314   3.065  10.669 -0.0288  0.2162 -0.5824
  810MPD2    H711935   2.318   2.980  10.725  1.2893  0.6770 -0.0086
  811MPD2     C11936   1.828   2.941   9.923 -0.0699  0.2450 -0.0595
  811MPD2    C111937   1.874   3.025  10.019 -0.3242  0.0906 -0.4690
  811MPD2    C211938   1.873   3.161   9.997  0.3043 -0.7309 -0.7749
  811MPD2    C311939   1.849   3.202   9.864 -0.5430 -0.0009 -0.2506
  811MPD2    C411940   1.792   3.115   9.769 -0.7654  0.0631 -0.1932
  811MPD2    C511941   1.768   2.992   9.806  0.1880 -0.1604  0.0635
  811MPD2     H11942   1.894   3.234  10.075  0.4950 -1.7554  0.1233
  811MPD2    H111943   1.760   3.140   9.668 -1.9198  0.6534  0.3038
  811MPD2    H211944   1.826   2.836   9.950  3.3701 -0.5853 -3.0912
  811MPD2    H311945   1.735   2.920   9.732 -0.3270 -0.0987  0.2265
  811MPD2     N11946   1.870   3.339   9.841 -0.0291 -0.2554 -0.0790
  811MPD2    H511947   1.909   3.384   9.923  2.2628  1.6899 -2.2408
  811MPD2    N111948   1.917   2.970  10.143 -0.2009  0.0123  0.5937
  811MPD2    H711949   1.896   2.872  10.157  1.5437 -0.3625  0.5765
  812MPD2     C11950   1.646   3.057  12.240  0.0408  0.0815 -0.1909
  812MPD2    C111951   1.558   3.123  12.325  0.1996  0.1874  0.5773
  812MPD2    C211952   1.510   3.063  12.445  0.0439 -0.2932  0.7422
  812MPD2    C311953   1.536   2.926  12.467 -0.5981 -0.2908 -0.3056
  812MPD2    C411954   1.620   2.863  12.373 -0.2336  0.5141 -0.4615
  812MPD2    C511955   1.676   2.929  12.269 -0.3224  0.0383  0.2935
  812MPD2     H11956   1.439   3.102  12.518 -1.0392 -0.3027 -0.2975
  812MPD2    H111957   1.634   2.756  12.373 -0.0247  0.5425  0.0769
  812MPD2    H211958   1.678   3.110  12.150  0.4051  0.5506  0.2131
  812MPD2    H311959   1.742   2.879  12.198  0.0270  0.8274  0.0620
  812MPD2     N11960   1.483   2.869  12.578 -0.2701  0.3994 -0.6229
  812MPD2    H511961   1.422   2.921  12.641  0.6301 -2.5034  2.6696
  812MPD2    N111962   1.519   3.255  12.280  0.1488 -0.8243 -0.0889
  812MPD2    H711963   1.566   3.295  12.200  1.1292 -0.9232  0.4282
  813MPD2     C11964   0.959   0.177  12.783  0.3179  0.1558 -0.5526
  813MPD2    C111965   0.863   0.272  12.803 -0.0605 -0.2477  0.7238
  813MPD2    C211966   0.729   0.236  12.821 -0.1678  0.5014  0.3740
  813MPD2    C311967   0.690   0.104  12.816 -0.0290 -0.1967  0.0819
  813MPD2    C411968   0.782   0.008  12.787  0.1781  0.0670  0.0630
  813MPD2    C511969   0.918   0.043  12.781 -0.2391 -0.3925 -0.6060
  813MPD2     H11970   0.655   0.307  12.855  0.5682  2.2783 -1.7381
  813MPD2    H111971   0.753   4.630  12.775  1.0845 -0.2269  0.3234
  813MPD2    H211972   1.064   0.203  12.774  0.6172 -0.6730  0.5956
  813MPD2    H311973   1.007   4.707  12.774 -0.7692 -1.1617 -0.6480
  813MPD2     N11974   0.555   0.068  12.846 -0.5121  0.4437 -0.2482
  813MPD2    H511975   0.492   0.146  12.865 -0.1579  1.0211 -1.4627
  813MPD2    N111976   0.910   0.399  12.816  0.1460  0.2403  0.1150
  813MPD2    H711977   1.008   0.405  12.840  0.0120 -0.8789  0.9871
  814MPD2     C11978   1.119   1.285  12.325  0.3149  0.8892 -0.2235
  814MPD2    C111979   1.062   1.385  12.251 -0.5249  0.1851  0.7287
  814MPD2    C211980   1.037   1.507  12.313 -0.3493  0.2589 -0.1291
  814MPD2    C311981   1.075   1.529  12.446 -0.0792 -0.0140  0.2405
  814MPD2    C411982   1.127   1.423  12.517  0.0338 -0.1282 -0.0315
  814MPD2    C511983   1.145   1.300  12.458  0.1212 -0.3695 -0.0974
  814MPD2     H11984   0.981   1.578  12.252 -0.5598  0.4304  0.2644
  814MPD2    H111985   1.168   1.428  12.617  0.3035 -0.6935 -0.1113
  814MPD2    H211986   1.148   1.197  12.268 -2.0285  0.0888 -0.1687
  814MPD2    H311987   1.180   1.221  12.523 -0.9902 -1.5398 -0.9225
  814MPD2     N11988   1.076   1.650  12.517  0.2032 -0.0625 -0.5667
  814MPD2    H511989   1.137   1.657  12.598 -2.4719  0.6029  1.3872
  814MPD2    N111990   1.023   1.388  12.111  0.3094 -0.5230  0.3501
  814MPD2    H711991   0.962   1.461  12.077  0.8898 -2.3761 -4.6211
  815MPD2     C11992   1.767   4.438  11.855  0.6157 -0.7366 -0.0472
  815MPD2    C111993   1.668   4.479  11.762 -0.4689  0.2311  0.2661
  815MPD2    C211994   1.551   4.536  11.811  0.2919 -0.2468 -0.4866
  815MPD2    C311995   1.528   4.534  11.948 -0.0213 -0.2784 -0.6371
  815MPD2    C411996   1.628   4.485  12.034 -0.5670  0.0089  0.3987
  815MPD2    C511997   1.745   4.435  11.989  0.5929 -0.1242  0.4370
  815MPD2     H11998   1.465   4.572  11.756 -1.0420  0.8371  2.3313
  815MPD2    H111999   1.623   4.471  12.142 -1.0421 -0.7492  0.2760
  815MPD2    H212000   1.858   4.391  11.819  2.5096  3.3364 -0.5542
  815MPD2    H312001   1.811   4.379  12.053  0.2852 -0.6786  0.2676
  815MPD2     N12002   1.395   4.554  11.995 -0.3156 -0.3642 -0.6529
  815MPD2    H512003   1.326   4.582  11.926 -0.2755  1.3644  0.0207
  815MPD2    N112004   1.684   4.449  11.629  0.1230  0.4054 -0.5119
  815MPD2    H712005   1.750   4.376  11.603 -0.5551 -0.6981  0.8366
  816MPD2     C12006   1.006   3.830  17.071 -0.7564  0.0079 -0.9706
  816MPD2    C112007   1.099   3.930  17.059 -0.5939  0.2759 -0.1251
  816MPD2    C212008   1.231   3.890  17.049 -0.4273 -0.0409  0.4404
  816MPD2    C312009   1.276   3.760  17.040 -0.3619 -0.5513  0.3615
  816MPD2    C412010   1.180   3.669  17.044  0.2837  0.1828  0.0967
  816MPD2    C512011   1.047   3.697  17.060 -0.0824  0.0527  0.5456
  816MPD2     H12012   1.309   3.965  17.047 -1.8925  1.4488 -1.2004
  816MPD2    H112013   1.192   3.562  17.029  0.5339  0.2907 -0.4745
  816MPD2    H212014   0.900   3.853  17.072 -1.2071 -2.2345  3.1038
  816MPD2    H312015   0.976   3.616  17.057 -0.4240  0.4432 -1.7699
  816MPD2     N12016   1.408   3.726  17.028 -0.1889 -0.3557 -0.2422
  816MPD2    H512017   1.464   3.811  17.028  0.6847 -0.9372  0.3863
  816MPD2    N112018   1.065   4.065  17.055  0.1118 -0.0518  0.3427
  816MPD2    H712019   0.969   4.089  17.033  0.7420  1.5450 -0.6525
  817MPD2     C12020   1.412   1.086   9.478  0.7349 -0.2366 -0.1027
  817MPD2    C112021   1.544   1.122   9.508  0.1294 -0.3345 -0.3018
  817MPD2    C212022   1.580   1.250   9.516 -0.8817  0.4047  0.8157
  817MPD2    C312023   1.489   1.357   9.501 -0.1043 -0.1253  0.3173
  817MPD2    C412024   1.356   1.324   9.473 -0.1448 -0.9971  0.0565
  817MPD2    C512025   1.325   1.190   9.461  0.0777 -0.2207  0.5873
  817MPD2     H12026   1.684   1.272   9.534 -0.6673 -0.2153  0.3448
  817MPD2    H112027   1.280   1.402   9.466  0.2472 -0.6067  0.1834
  817MPD2    H212028   1.377   0.984   9.473 -2.1237  0.8042 -1.3386
  817MPD2    H312029   1.222   1.161   9.440  0.8309  0.0472 -3.5161
  817MPD2     N12030   1.525   1.491   9.521  0.4225 -0.2164  0.0037
  817MPD2    H512031   1.624   1.509   9.535  0.8233 -2.7052  0.3551
  817MPD2    N112032   1.652   1.028   9.535  0.1970  0.2698  0.4155
  817MPD2    H712033   1.744   1.059   9.562  0.1295  0.6122  0.2586
  818MPD2     C12034   0.399   0.771  10.157  0.2949  0.2839  0.3194
  818MPD2    C112035   0.337   0.661  10.213 -0.2856 -0.2319  0.1037
  818MPD2    C212036   0.409   0.538  10.200  0.0088  0.2834 -0.0752
  818MPD2    C312037   0.536   0.532  10.143 -0.6656 -0.2386 -0.7138
  818MPD2    C412038   0.597   0.645  10.107 -0.4358  0.5803 -0.4987
  818MPD2    C512039   0.526   0.762  10.112 -0.0195 -0.5107  0.3504
  818MPD2     H12040   0.369   0.448  10.247  0.6713 -0.7033 -1.3882
  818MPD2    H112041   0.701   0.650  10.077 -0.4623  0.3370 -0.6315
  818MPD2    H212042   0.360   0.872  10.152 -1.2401 -0.2737  1.1722
  818MPD2    H312043   0.569   0.854  10.073 -2.6801  0.4780 -0.2294
  818MPD2     N12044   0.612   0.408  10.130  0.0288 -0.6763  0.3775
  818MPD2    H512045   0.705   0.407  10.091  0.3149 -0.6270  1.0457
  818MPD2    N112046   0.203   0.661  10.265 -0.0716 -0.8924 -0.6885
  818MPD2    H712047   0.176   0.569  10.297  0.4072 -0.3991  1.1602
  819MPD2     C12048   2.988   2.568  15.534  0.0339 -1.0976  0.6503
  819MPD2    C112049   3.053   2.478  15.451 -0.7621 -0.6047 -0.3249
  819MPD2    C212050   3.192   2.479  15.439  0.1312 -0.0177  0.5701
  819MPD2    C312051   3.266   2.571  15.514 -0.4925 -0.0967 -0.6570
  819MPD2    C412052   3.199   2.664  15.598  0.3925  0.0072  0.1804
  819MPD2    C512053   3.064   2.648  15.610  0.3497  0.8890  0.7060
  819MPD2     H12054   3.242   2.407  15.375 -1.5380 -1.0169  0.3925
  819MPD2    H112055   3.250   2.737  15.660 -1.8181  3.0116 -1.5100
  819MPD2    H212056   2.880   2.579  15.543 -0.0967 -1.3787 -0.5782
  819MPD2    H312057   3.010   2.712  15.679  1.1900  0.9077  1.3480
  819MPD2     N12058   3.406   2.570  15.499 -0.4469  0.2231  0.1083
  819MPD2    H512059   3.443   2.493  15.443 -1.1281 -0.6661  0.8730
  819MPD2    N112060   2.961   2.405  15.376 -0.4091  0.4679  0.5061
  819MPD2    H712061   2.864   2.421  15.402 -1.1014 -0.4480 -1.4867
  820MPD2     C12062   2.084   2.209  14.911  0.7065  0.2207  0.2173
  820MPD2    C112063   2.151   2.322  14.953  0.3696  0.3425  0.4899
  820MPD2    C212064   2.269   2.317  15.019  0.2911  0.2818  0.3682
  820MPD2    C312065   2.332   2.195  15.045 -0.3874 -0.1920 -0.5760
  820MPD2    C412066   2.268   2.085  15.013  0.2188  0.2266 -0.4065
  820MPD2    C512067   2.147   2.087  14.944  0.4575  0.2031 -0.7654
  820MPD2     H12068   2.319   2.409  15.048  2.2186 -0.6749  0.1048
  820MPD2    H112069   2.319   1.991  15.033  0.9241  0.1564 -2.5150
  820MPD2    H212070   1.996   2.221  14.850  2.1296  0.7793 -1.7247
  820MPD2    H312071   2.096   1.993  14.927  1.2644 -0.1667 -1.1584
  820MPD2     N12072   2.465   2.180  15.098 -0.0843  0.2618 -0.4985
  820MPD2    H512073   2.509   2.089  15.100 -0.7061 -0.0727 -2.0521
  820MPD2    N112074   2.079   2.437  14.937  0.2600 -0.1881  0.6367
  820MPD2    H712075   1.986   2.429  14.897 -0.9432  0.6671  3.2587
  821MPD2     C12076   2.624   3.637  13.519 -0.0108 -0.7024  0.2864
  821MPD2    C112077   2.735   3.598  13.584  0.1157 -1.0400  0.0696
  821MPD2    C212078   2.851   3.633  13.525 -0.4344 -0.0482 -0.3349
  821MPD2    C312079   2.858   3.700  13.403 -0.3675 -0.3446 -0.6684
  821MPD2    C412080   2.750   3.741  13.338 -0.1617  0.2920 -0.0906
  821MPD2    C512081   2.629   3.714  13.400  0.3253 -0.0474 -0.0176
  821MPD2     H12082   2.948   3.619  13.572  0.1099 -0.2216 -1.5170
  821MPD2    H112083   2.755   3.796  13.244  1.6425 -1.6299 -1.1140
  821MPD2    H212084   2.527   3.604  13.552 -0.6773  0.5698 -0.3807
  821MPD2    H312085   2.538   3.748  13.352  0.8666  0.6125 -0.5726
  821MPD2     N12086   2.981   3.719  13.337  0.4507  0.2670 -0.6325
  821MPD2    H512087   2.991   3.775  13.253 -1.8734  1.3384 -0.1851
  821MPD2    N112088   2.731   3.549  13.710 -0.0093  0.2712  0.0706
  821MPD2    H712089   2.821   3.512  13.739 -0.9257 -1.8539  0.2565
  822MPD2     C12090   3.546   3.649  15.454 -0.6112  0.7193  0.8801
  822MPD2    C112091   3.625   3.756  15.492 -0.2847 -0.0783 -0.2690
  822MPD2    C212092   3.569   3.867  15.555  0.1948  0.1571 -0.1117
  822MPD2    C312093   3.436   3.876  15.585 -1.4413  0.1124  0.2290
  822MPD2    C412094   3.360   3.763  15.542  0.4637 -0.1320 -0.2843
  822MPD2    C512095   3.409   3.658  15.476  0.7107 -0.6427  0.2379
  822MPD2     H12096   3.625   3.955  15.584 -2.0683  1.1804  1.1476
  822MPD2    H112097   3.257   3.757  15.575  0.3803 -1.4117 -0.7834
  822MPD2    H212098   3.585   3.572  15.389 -0.5238  1.1275  0.4517
  822MPD2    H312099   3.350   3.574  15.440  0.9541 -0.1186 -1.3621
  822MPD2     N12100   3.381   3.978  15.662  0.1699 -0.3589  0.2050
  822MPD2    H512101   3.289   3.957  15.702  1.4393 -0.8915  2.8795
  822MPD2    N112102   3.766   3.756  15.469  0.2172 -0.1290  0.3104
  822MPD2    H712103   3.808   3.837  15.513  0.6922 -0.7271  0.9606
  823MPD2     C12104   3.317   3.987  16.485 -0.2849 -0.4973 -0.0351
  823MPD2    C112105   3.292   3.944  16.358  0.6288  0.2118 -0.1004
  823MPD2    C212106   3.293   3.812  16.331  0.5134  0.1346 -0.1895
  823MPD2    C312107   3.303   3.720  16.433  0.1886 -0.3230  0.6009
  823MPD2    C412108   3.315   3.766  16.565 -0.2994  0.1314 -0.6309
  823MPD2    C512109   3.316   3.896  16.588  0.1695 -0.2709 -0.2443
  823MPD2     H12110   3.280   3.777  16.229 -0.7295 -0.1530  0.0602
  823MPD2    H112111   3.323   3.703  16.652 -1.0896  1.2807  0.2628
  823MPD2    H212112   3.312   4.093  16.508  0.2505 -0.2447 -1.0838
  823MPD2    H312113   3.338   3.926  16.690  0.3639 -0.8558 -0.1092
  823MPD2     N12114   3.327   3.579  16.415  0.1839  0.0132  0.2826
  823MPD2    H512115   3.330   3.525  16.502  0.2180 -2.0009 -0.9651
  823MPD2    N112116   3.282   4.042  16.261  0.2553  0.0212 -0.6178
  823MPD2    H712117   3.293   4.139  16.286  0.6938 -0.5171  1.2425
  824MPD2     C12118   4.260   3.145  15.658  0.1449 -0.9207 -0.4421
  824MPD2    C112119   4.310   3.195  15.541 -0.0688 -0.6721  0.3854
  824MPD2    C212120   4.393   3.128  15.449  0.3878  0.7403  0.1733
  824MPD2    C312121   4.425   2.998  15.482 -0.2121  0.4652  0.0828
  824MPD2    C412122   4.355   2.937  15.579  0.1380  0.5295  0.6692
  824MPD2    C512123   4.282   3.004  15.675  0.8288 -0.1293  0.6499
  824MPD2     H12124   4.446   3.176  15.368 -0.5190  1.8891  0.2674
  824MPD2    H112125   4.362   2.831  15.600 -0.3583  0.7549  1.9857
  824MPD2    H212126   4.194   3.195  15.728  1.5342 -0.0512  0.2417
  824MPD2    H312127   4.236   2.944  15.753  0.1213 -1.8262 -1.0944
  824MPD2     N12128   4.528   2.930  15.410 -0.7562  0.3099  0.2072
  824MPD2    H512129   4.571   2.992  15.343 -0.0530  0.4390  0.7778
  824MPD2    N112130   4.272   3.334  15.502  0.1162  0.5673 -0.1567
  824MPD2    H712131   4.312   3.369  15.416  1.1067 -2.0458 -0.7454
  825MPD2     C12132   0.381   2.824  14.833  0.0071 -0.5454  0.2321
  825MPD2    C112133   0.333   2.908  14.930 -0.2097  0.8053  0.5392
  825MPD2    C212134   0.312   3.042  14.892 -0.1084 -0.0771 -0.2489
  825MPD2    C312135   0.345   3.093  14.764 -0.1963  0.0209  0.3334
  825MPD2    C412136   0.412   3.006  14.676 -0.2058 -0.8764  0.2160
  825MPD2    C512137   0.424   2.874  14.714 -0.0140 -0.2231  0.2478
  825MPD2     H12138   0.270   3.120  14.955  1.3721  1.1414 -0.7990
  825MPD2    H112139   0.441   3.030  14.575 -0.3921 -1.3581  0.0484
  825MPD2    H212140   0.388   2.717  14.851 -0.8797 -1.0500 -2.4947
  825MPD2    H312141   0.464   2.805  14.640 -1.0136 -1.8438  1.2004
  825MPD2     N12142   0.320   3.225  14.724 -0.4523  0.3891  0.0570
  825MPD2    H512143   0.341   3.245  14.626  1.0948 -0.2210  0.2618
  825MPD2    N112144   0.287   2.849  15.047 -0.5399 -1.0059 -0.1751
  825MPD2    H712145   0.314   2.752  15.052 -0.4327 -0.8380  2.5053
  826MPD2     C12146   4.702   2.952  13.485  0.6338 -0.4257 -1.0564
  826MPD2    C112147   4.622   2.872  13.402 -0.3343  0.0692 -0.1145
  826MPD2    C212148   4.484   2.882  13.409 -0.4129 -0.1560  0.3697
  826MPD2    C312149   4.418   2.983  13.482  0.2896  0.2771 -1.0606
  826MPD2    C412150   4.500   3.076  13.550 -0.5333  0.1130  0.2512
  826MPD2    C512151   4.637   3.058  13.551  0.4626  0.6808 -0.0513
  826MPD2     H12152   4.427   2.812  13.349  2.4176 -0.7393 -1.6729
  826MPD2    H112153   4.464   3.166  13.599 -0.2668 -0.6527  1.8591
  826MPD2    H212154   0.083   2.930  13.498  0.5643 -0.4734 -0.5693
  826MPD2    H312155   4.690   3.128  13.615  2.1687  0.0447 -0.7711
  826MPD2     N12156   4.280   2.991  13.496  0.0191  0.0482  0.1823
  826MPD2    H512157   4.237   3.068  13.546 -1.1963  0.5915 -1.6840
  826MPD2    N112158   4.690   2.769  13.328 -0.7591 -0.0721  0.9605
  826MPD2    H712159   0.064   2.767  13.352 -1.3844  1.1294  3.6740
  827MPD2     C12160   0.807   4.314  10.061 -0.1237  0.8624 -0.6824
  827MPD2    C112161   0.775   4.191  10.118  0.4037 -0.6913  0.2839
  827MPD2    C212162   0.727   4.088  10.028 -0.0209  0.3064  0.0261
  827MPD2    C312163   0.704   4.125   9.892  0.4950  0.0945 -0.0105
  827MPD2    C412164   0.723   4.255   9.845  0.1573 -0.5488 -1.2619
  827MPD2    C512165   0.771   4.350   9.932  0.3623 -0.3626 -0.6287
  827MPD2     H12166   0.710   3.990  10.071  0.4454 -0.0504 -0.5998
  827MPD2    H112167   0.684   4.283   9.748  0.9606 -0.8244 -1.6660
  827MPD2    H212168   0.854   4.390  10.123  1.3792  0.9564 -1.9586
  827MPD2    H312169   0.785   4.454   9.902  0.5046 -0.3109 -0.3847
  827MPD2     N12170   0.639   4.029   9.805 -0.7145 -0.2802  0.5166
  827MPD2    H512171   0.593   3.954   9.855 -0.1853 -0.2468  1.0622
  827MPD2    N112172   0.810   4.172  10.250 -0.0720  0.0519  0.0880
  827MPD2    H712173   0.864   4.245  10.294  1.7269 -2.7440  2.5184
  828MPD2     C12174   3.358   3.973  12.606  0.1972 -0.2828 -0.0809
  828MPD2    C112175   3.386   3.990  12.471 -0.7956 -0.2273  0.5383
  828MPD2    C212176   3.508   4.026  12.428  0.0338 -0.1779  0.2472
  828MPD2    C312177   3.620   4.027  12.507  0.6584 -0.0281 -0.1646
  828MPD2    C412178   3.592   4.011  12.642 -0.7583 -0.0540 -0.1669
  828MPD2    C512179   3.466   3.990  12.691  0.2585  0.3484  0.3778
  828MPD2     H12180   3.510   4.061  12.325  1.0522 -0.4958  0.1657
  828MPD2    H112181   3.671   4.026  12.715  0.9475 -2.6155 -1.5009
  828MPD2    H212182   3.257   3.959  12.644 -0.2501 -2.1342 -1.9151
  828MPD2    H312183   3.451   3.973  12.797  1.1557 -0.0614  0.4342
  828MPD2     N12184   3.760   4.024  12.468  0.4740 -0.1997  0.1537
  828MPD2    H512185   3.829   4.043  12.539  0.4251 -0.6704  0.3275
  828MPD2    N112186   3.278   3.996  12.368  0.2600  0.3400 -0.4420
  828MPD2    H712187   3.307   3.999  12.270 -1.0590  0.2273 -0.8387
  829MPD2     C12188   2.892   4.570  11.812 -0.5322 -0.0432  0.1841
  829MPD2    C112189   2.846   4.452  11.768 -0.4383  0.2165  0.4411
  829MPD2    C212190   2.894   4.337  11.824  0.7832  0.5731 -0.2420
  829MPD2    C312191   2.983   4.332  11.933 -0.1989  0.3544  0.3350
  829MPD2    C412192   3.012   4.457  11.987 -0.5132  0.5455  0.3572
  829MPD2    C512193   2.973   4.576  11.921  0.3295  0.3686  0.2869
  829MPD2     H12194   2.850   4.243  11.791 -0.7566  1.2468 -0.1005
  829MPD2    H112195   3.090   4.464  12.063 -1.6510  0.0477  1.5631
  829MPD2    H212196   2.860   4.660  11.761 -0.7457 -0.0831  0.2454
  829MPD2    H312197   3.009   4.673  11.953 -1.1985  0.6932  1.0299
  829MPD2     N12198   3.021   4.216  11.997 -0.7161 -0.3047  0.0565
  829MPD2    H512199   3.069   4.224  12.086 -0.3937  0.2189 -0.1640
  829MPD2    N112200   2.752   4.443  11.663 -0.0763 -0.1379  0.7017
  829MPD2    H712201   2.734   4.529  11.611 -0.0478 -0.0094  0.9056
  830MPD2     C12202   4.227   2.747  15.256  0.2834 -0.1014 -0.1886
  830MPD2    C112203   4.110   2.695  15.216  0.9166  0.1169  0.0860
  830MPD2    C212204   4.090   2.653  15.081  0.8289 -0.1749 -0.4867
  830MPD2    C312205   4.188   2.666  14.983 -0.1882 -0.8673 -0.2123
  830MPD2    C412206   4.306   2.720  15.032 -0.8888  0.0283 -0.7583
  830MPD2    C512207   4.324   2.758  15.162  0.1840 -0.7139  0.0905
  830MPD2     H12208   3.998   2.605  15.049  1.1019 -0.4366 -0.8710
  830MPD2    H112209   4.384   2.759  14.967  0.7726 -2.5127 -0.3034
  830MPD2    H212210   4.234   2.783  15.358  2.2643 -0.8376 -0.0675
  830MPD2    H312211   4.415   2.812  15.185 -1.9057  2.5247  0.8008
  830MPD2     N12212   4.174   2.646  14.844  0.3305  0.7616 -0.0260
  830MPD2    H512213   4.253   2.669  14.785  0.4459 -2.0476 -0.9783
  830MPD2    N112214   4.016   2.667  15.320 -1.0254  0.3292 -0.1988
  830MPD2    H712215   4.042   2.712  15.408  1.1005 -0.1346 -0.5800
  831MPD2     C12216   3.660   4.085  16.067  0.2165  0.1072  0.5969
  831MPD2    C112217   3.706   4.037  15.952  0.5379 -0.4330 -0.0434
  831MPD2    C212218   3.678   3.902  15.923 -0.2647  0.3261  0.9315
  831MPD2    C312219   3.609   3.818  16.013  0.5818  0.2848  0.0824
  831MPD2    C412220   3.571   3.877  16.127  0.1679  0.3068 -0.7561
  831MPD2    C512221   3.601   4.006  16.162 -0.1849 -0.1002  0.6327
  831MPD2     H12222   3.712   3.862  15.828 -1.5151  0.3234  0.4939
  831MPD2    H112223   3.517   3.808  16.191 -1.1465  0.8865 -1.2398
  831MPD2    H212224   3.681   4.188  16.095 -0.9131  0.1643  1.2314
  831MPD2    H312225   3.570   4.050  16.256 -2.9613  2.3672 -1.4390
  831MPD2     N12226   3.571   3.683  15.982  0.0182 -0.6153 -0.0937
  831MPD2    H512227   3.506   3.640  16.047  1.0970  0.7932  1.8886
  831MPD2    N112228   3.775   4.125  15.866 -0.1097  0.3750  0.4601
  831MPD2    H712229   3.776   4.221  15.899  0.2644  1.4077 -2.6007
  832MPD2     C12230   1.899   0.617  17.064 -0.1315  0.1339  0.0471
  832MPD2    C112231   1.872   0.711  16.967 -0.0659 -0.3001  0.4984
  832MPD2    C212232   1.754   0.715  16.888 -0.1338  0.2302  0.2178
  832MPD2    C312233   1.666   0.611  16.905 -0.0247 -0.3777 -0.7332
  832MPD2    C412234   1.692   0.513  17.002  0.0681 -0.3888 -0.7215
  832MPD2    C512235   1.804   0.517  17.074  0.4974 -0.9825 -0.6894
  832MPD2     H12236   1.747   0.770  16.795  0.0771  0.3911  0.2990
  832MPD2    H112237   1.645   0.415  17.006  0.6357 -0.6659 -0.9170
  832MPD2    H212238   1.984   0.608  17.131 -2.0000 -0.5730  2.3598
  832MPD2    H312239   1.834   0.433  17.136  1.7540  0.0387  0.0837
  832MPD2     N12240   1.557   0.584  16.823  0.2047  0.2319 -0.3707
  832MPD2    H512241   1.503   0.499  16.840  0.7655 -0.4509 -2.0771
  832MPD2    N112242   1.976   0.792  16.944 -0.1422 -0.4346 -0.2877
  832MPD2    H712243   2.061   0.768  16.994 -2.4222 -2.6888  2.4684
  833MPD2     C12244   4.117   2.302  12.413  0.0085 -0.5236  0.2509
  833MPD2    C112245   4.098   2.242  12.287 -0.7296 -0.2337  0.1956
  833MPD2    C212246   4.195   2.252  12.191 -0.3325  0.3317  0.2877
  833MPD2    C312247   4.316   2.311  12.220 -0.0884  0.5529 -0.6758
  833MPD2    C412248   4.335   2.364  12.344  0.9981 -0.9422 -0.5622
  833MPD2    C512249   4.233   2.367  12.434 -0.8045  0.0494  0.2180
  833MPD2     H12250   4.183   2.213  12.090  2.2722 -1.1315  0.5336
  833MPD2    H112251   4.416   2.432  12.370  1.4475 -1.5908 -0.2483
  833MPD2    H212252   4.037   2.306  12.486  1.0547  1.3868  1.2863
  833MPD2    H312253   4.243   2.419  12.529 -1.3874 -0.6784  0.6807
  833MPD2     N12254   4.410   2.318  12.113  0.0174  0.1661 -0.0413
  833MPD2    H512255   4.390   2.281  12.021  1.0376 -1.6325  0.4474
  833MPD2    N112256   3.973   2.181  12.269 -0.4534  0.6309 -0.4625
  833MPD2    H712257   3.912   2.171  12.349  0.2373  1.4433  0.1617
  834MPD2     C12258   0.038   1.544  11.770 -0.2548  0.2290 -0.0124
  834MPD2    C112259   4.635   1.572  11.724 -0.8037 -0.0487 -0.8988
  834MPD2    C212260   4.586   1.705  11.751  0.4900  0.2785 -0.1917
  834MPD2    C312261   4.671   1.798  11.804 -1.4793 -0.2894  0.0240
  834MPD2    C412262   0.084   1.766  11.826 -0.2565 -0.2979 -0.6185
  834MPD2    C512263   0.130   1.636  11.809  0.5831  0.5499 -1.2523
  834MPD2     H12264   4.485   1.733  11.725  0.2949 -0.6295 -0.4037
  834MPD2    H112265   0.151   1.846  11.856 -0.5542 -0.6117  0.8569
  834MPD2    H212266   0.077   1.443  11.758 -1.3814 -0.2768  0.5786
  834MPD2    H312267   0.235   1.615  11.825 -0.6141 -0.6828  4.9733
  834MPD2     N12268   4.623   1.927  11.806 -0.2438 -0.1769  0.5406
  834MPD2    H512269   4.527   1.939  11.775 -0.8314  0.4517  2.5862
  834MPD2    N112270   4.558   1.465  11.681  0.3727 -0.2842 -0.2132
  834MPD2    H712271   4.594   1.370  11.688  0.9627  0.3232  5.3300
  835MPD2     C12272   4.715   4.452  11.374 -0.0113  0.7895 -0.3543
  835MPD2    C112273   4.607   4.389  11.423  0.2290  0.4114  0.4403
  835MPD2    C212274   4.570   4.398  11.557 -0.0429  0.2771 -0.2697
  835MPD2    C312275   4.645   4.473  11.641 -0.3843  0.3395  0.9211
  835MPD2    C412276   0.038   4.535  11.593 -0.0482  0.5548  0.0079
  835MPD2    C512277   0.066   4.524  11.456  0.3451  0.4179  0.0471
  835MPD2     H12278   4.491   4.337  11.600 -0.5840  1.4826  0.4637
  835MPD2    H112279   0.112   4.588  11.651  0.1585 -0.4504  0.6712
  835MPD2    H212280   0.026   4.457  11.271  0.2891 -0.6719 -0.3214
  835MPD2    H312281   0.148   4.581  11.412  1.2378 -1.6886 -1.0029
  835MPD2     N12282   4.635   4.474  11.778  0.0346  0.0065 -0.2554
  835MPD2    H512283   4.708   4.518  11.833  0.3725 -1.2265  0.2932
  835MPD2    N112284   4.532   4.304  11.342  0.4723 -0.5271 -0.3979
  835MPD2    H712285   4.441   4.266  11.367  0.8737 -1.0874  0.2032
  836MPD2     C12286   4.077   4.346  11.925  0.0704  0.4370  0.8425
  836MPD2    C112287   4.111   4.356  12.059  0.0008  0.0228  0.4008
  836MPD2    C212288   4.007   4.352  12.155  0.3206  0.9141  0.0665
  836MPD2    C312289   3.874   4.339  12.122 -0.0237  0.3601 -0.6152
  836MPD2    C412290   3.839   4.330  11.989 -0.2943 -0.4722 -0.5316
  836MPD2    C512291   3.942   4.328  11.897 -0.4919  0.1120 -0.0359
  836MPD2     H12292   4.036   4.371  12.257 -2.0057 -2.5099  1.3517
  836MPD2    H112293   3.735   4.315  11.962 -0.4880 -0.2414  0.0840
  836MPD2    H212294   4.160   4.340  11.855 -1.4619  1.0499 -1.0453
  836MPD2    H312295   3.927   4.288  11.797 -1.4240 -1.3998  0.7117
  836MPD2     N12296   3.769   4.336  12.214 -0.2492 -0.1628  0.2454
  836MPD2    H512297   3.674   4.333  12.178  0.4037 -0.1172 -1.5017
  836MPD2    N112298   4.234   4.409  12.093  0.4890 -0.6726 -0.1558
  836MPD2    H712299   4.299   4.432  12.019 -0.8359  3.3529 -0.0641
  837MPD2     C12300   2.450   3.863   9.964  0.1270 -0.3720  0.0376
  837MPD2    C112301   2.384   3.890   9.842  0.4655 -0.5934 -0.0414
  837MPD2    C212302   2.422   4.003   9.775 -0.2924 -0.0693 -0.4758
  837MPD2    C312303   2.521   4.088   9.822 -0.0382 -0.4819 -0.0204
  837MPD2    C412304   2.588   4.054   9.934  0.3165  0.3736 -0.1374
  837MPD2    C512305   2.542   3.951  10.012 -0.2651 -0.2852 -0.5076
  837MPD2     H12306   2.362   4.039   9.692  0.0245 -0.8346 -1.0465
  837MPD2    H112307   2.667   4.114   9.979 -1.3553  2.0905  0.5025
  837MPD2    H212308   2.424   3.777  10.024  0.9409 -1.2222 -0.8390
  837MPD2    H312309   2.590   3.929  10.107 -0.0268 -1.7239 -0.9620
  837MPD2     N12310   2.542   4.211   9.751 -0.4602  0.2697 -0.3561
  837MPD2    H512311   2.496   4.210   9.660 -0.1636 -1.8719 -0.4788
  837MPD2    N112312   2.265   3.817   9.799  0.2907  0.4792  0.0224
  837MPD2    H712313   2.233   3.856   9.711  1.1687  1.7680  0.2694
  838MPD2     C12314   1.474   2.350  11.280 -0.0365  0.5407 -0.7533
  838MPD2    C112315   1.374   2.266  11.320 -0.2633  0.3216  0.3947
  838MPD2    C212316   1.324   2.281  11.450 -0.5218 -0.6224 -0.5203
  838MPD2    C312317   1.371   2.378  11.539 -0.4707  0.6052 -0.1663
  838MPD2    C412318   1.460   2.474  11.488  0.1963  0.3595 -1.1321
  838MPD2    C512319   1.514   2.452  11.363  0.0811  0.6481  0.2153
  838MPD2     H12320   1.243   2.218  11.486  0.6210 -1.1291  1.1883
  838MPD2    H112321   1.488   2.564  11.541  1.2647 -1.2082  0.9604
  838MPD2    H212322   1.521   2.332  11.184 -0.3602 -0.9247 -0.6449
  838MPD2    H312323   1.575   2.529  11.318  0.3348 -0.3203 -1.0860
  838MPD2     N12324   1.318   2.382  11.667 -0.4682 -0.0688  0.0605
  838MPD2    H512325   1.243   2.318  11.693  0.7083 -0.2934  2.9267
  838MPD2    N112326   1.327   2.154  11.247 -0.5752  0.4208 -0.4465
  838MPD2    H712327   1.239   2.123  11.286 -0.4028  0.4878 -0.0052
  839MPD2     C12328   0.674   1.806  11.580  0.0686  0.1659 -0.4043
  839MPD2    C112329   0.689   1.711  11.484  0.2586 -0.4598  0.2579
  839MPD2    C212330   0.812   1.716  11.422  0.8112  0.3444  0.0732
  839MPD2    C312331   0.909   1.811  11.444 -0.4420  0.6966  0.7640
  839MPD2    C412332   0.888   1.898  11.545  1.0066  0.2883 -0.1302
  839MPD2    C512333   0.770   1.890  11.614 -0.1371 -0.6569  0.9495
  839MPD2     H12334   0.821   1.632  11.354 -0.9282  1.2040 -1.2247
  839MPD2    H112335   0.961   1.970  11.581  0.4889  1.0105 -0.5352
  839MPD2    H212336   0.586   1.811  11.642  1.2526 -1.7570  1.3930
  839MPD2    H312337   0.777   1.948  11.705  2.2534 -2.2230  1.7754
  839MPD2     N12338   1.034   1.820  11.369 -0.0481  0.5560  0.0653
  839MPD2    H512339   1.101   1.886  11.407 -0.2470  0.9109 -0.2018
  839MPD2    N112340   0.592   1.615  11.449 -0.0272  0.0424  0.0261
  839MPD2    H712341   0.613   1.545  11.378 -0.0109 -0.9472  1.0061
  840MPD2     C12342   1.342   4.383  10.298  0.2047  0.2191 -0.5252
  840MPD2    C112343   1.302   4.351  10.427  0.5456  0.2889 -0.4540
  840MPD2    C212344   1.325   4.438  10.530  0.1178 -0.0079 -0.5151
  840MPD2    C312345   1.384   4.561  10.505  0.2728 -0.4407  0.5919
  840MPD2    C412346   1.431   4.591  10.379  0.5926 -0.4520  0.1982
  840MPD2    C512347   1.404   4.503  10.280 -0.5445  0.0799  0.2682
  840MPD2     H12348   1.310   4.408  10.633  1.8861 -0.0805 -0.2803
  840MPD2    H112349   1.478   4.686  10.353  0.9928 -1.2516 -2.0465
  840MPD2    H212350   1.330   4.316  10.213  0.8066 -0.8895  0.2766
  840MPD2    H312351   1.442   4.521  10.180  1.7971 -1.2139  0.9178
  840MPD2     N12352   1.410   4.656  10.610  0.2872 -0.3480 -0.3177
  840MPD2    H512353   1.444   0.025  10.588 -1.9782  1.0227  1.9784
  840MPD2    N112354   1.242   4.220  10.442 -0.3302 -0.4099 -0.3185
  840MPD2    H712355   1.249   4.162  10.359 -3.9874 -0.1831 -0.7839
  841MPD2     C12356   0.338   4.455  14.395 -0.1513  0.0897 -0.1932
  841MPD2    C112357   0.360   4.354  14.308 -0.7907  0.1904  0.1924
  841MPD2    C212358   0.410   4.379  14.179 -0.2526  0.2652 -0.1138
  841MPD2    C312359   0.425   4.504  14.131 -0.1702  0.3604 -0.3291
  841MPD2    C412360   0.401   4.602  14.216 -0.3502 -0.4111  0.6934
  841MPD2    C512361   0.360   4.581  14.345 -0.1570  0.9018 -0.1047
  841MPD2     H12362   0.428   4.293  14.115 -1.3852  1.7978 -2.4821
  841MPD2    H112363   0.404   4.709  14.196  1.3510 -0.4230  0.8875
  841MPD2    H212364   0.308   4.446  14.498 -2.5358 -1.4887 -1.0243
  841MPD2    H312365   0.344   4.669  14.408  2.3895 -0.4687  2.4662
  841MPD2     N12366   0.474   4.519  13.997  0.1707  0.0362  0.1332
  841MPD2    H512367   0.499   4.432  13.951  0.2295 -0.1840  0.5826
  841MPD2    N112368   0.355   4.214  14.343 -0.3319  0.1945 -0.4079
  841MPD2    H712369   0.386   4.144  14.277  0.7221  1.3992 -1.1893
  842MPD2     C12370   1.271   0.868  16.806  0.4017 -0.4338  0.0864
  842MPD2    C112371   1.147   0.806  16.821  0.3966  0.1796 -0.1877
  842MPD2    C212372   1.119   0.755  16.944 -1.0491  0.2034 -0.4829
  842MPD2    C312373   1.185   0.801  17.055  0.8223  0.3255  0.0021
  842MPD2    C412374   1.310   0.843  17.041 -0.4961 -0.1616  0.3391
  842MPD2    C512375   1.355   0.878  16.913 -0.4429 -0.4263 -0.1577
  842MPD2     H12376   1.023   0.710  16.968  0.0344 -2.9791 -2.0925
  842MPD2    H112377   1.374   0.855  17.127 -0.1072  0.4398 -0.0329
  842MPD2    H212378   1.304   0.907  16.711 -0.2202 -0.4025 -0.1181
  842MPD2    H312379   1.456   0.917  16.899 -0.1850 -0.6459  1.1083
  842MPD2     N12380   1.141   0.766  17.183 -0.5225  0.0883  0.0840
  842MPD2    H512381   1.220   0.757  17.246 -0.6328 -1.7538 -0.0327
  842MPD2    N112382   1.056   0.808  16.711  0.1584  0.1100  0.1257
  842MPD2    H712383   1.083   0.831  16.616  3.0040 -1.0559  0.6436
  843MPD2     C12384   3.359   0.472   0.140  1.3862 -0.8428 -0.0594
  843MPD2    C112385   3.491   0.456   0.124  0.6656 -0.0369 -0.5961
  843MPD2    C212386   3.573   0.558   0.153  0.9169  0.4595  0.0445
  843MPD2    C312387   3.520   0.685   0.169 -0.1846  0.7731 -0.3360
  843MPD2    C412388   3.381   0.706   0.163  0.5982 -0.3666 -0.2897
  843MPD2    C512389   3.310   0.595   0.156 -0.1179 -0.0364  0.1979
  843MPD2     H12390   3.681   0.544   0.151  0.8555 -0.6872  4.4857
  843MPD2    H112391   3.332   0.798   0.189  1.1853 -0.0514 -0.2875
  843MPD2    H212392   3.290   0.390   0.121  1.1082 -0.4869 -0.5795
  843MPD2    H312393   3.202   0.592   0.148 -0.2876  1.6011  1.9057
  843MPD2     N12394   3.595   0.799   0.200 -0.5847  0.0906 -0.1614
  843MPD2    H512395   3.548   0.883   0.233 -0.1563  0.9172 -1.6696
  843MPD2    N112396   3.531   0.320   0.120 -0.1680  0.2241 -0.0362
  843MPD2    H712397   3.467   0.244   0.142  0.6586 -0.2891  0.6146
  844MPD2     C12398   1.528   4.677  16.472 -0.5213  0.3598  0.3696
  844MPD2    C112399   1.611   4.710  16.361  0.2571  0.1521  0.0180
  844MPD2    C212400   1.677   0.110  16.368 -0.0377  0.5255 -0.3061
  844MPD2    C312401   1.659   0.200  16.471  0.4895 -0.5887  0.0362
  844MPD2    C412402   1.568   0.165  16.573  0.0113  0.1533 -0.6976
  844MPD2    C512403   1.503   0.045  16.571  0.2342 -0.2252 -0.3372
  844MPD2     H12404   1.737   0.142  16.284 -0.9506  1.0189 -0.7771
  844MPD2    H112405   1.550   0.229  16.658  2.4399 -0.3536  0.2116
  844MPD2    H212406   1.474   4.583  16.475 -0.2201  0.1442 -0.9906
  844MPD2    H312407   1.444   0.017  16.657  0.6235 -1.5577 -0.5014
  844MPD2     N12408   1.734   0.317  16.470 -0.2269 -0.3994  0.2665
  844MPD2    H512409   1.775   0.347  16.383  1.3081 -0.6972  0.8838
  844MPD2    N112410   1.635   4.615  16.260  0.8638 -0.5942  0.1833
  844MPD2    H712411   1.689   4.642  16.179  2.3263 -3.0760  0.3230
  845MPD2     C12412   1.731   1.339  16.421 -0.4009 -0.4031  0.1455
  845MPD2    C112413   1.778   1.304  16.545  0.4170  0.7504  0.6416
  845MPD2    C212414   1.810   1.174  16.575 -0.1533  0.2698 -0.4498
  845MPD2    C312415   1.792   1.072  16.479 -0.3960  0.5721 -0.2070
  845MPD2    C412416   1.752   1.113  16.358  0.0877  0.1874 -0.3476
  845MPD2    C512417   1.712   1.242  16.329  0.3240 -0.7124  0.0749
  845MPD2     H12418   1.857   1.145  16.668  0.5388 -1.7501 -1.4159
  845MPD2    H112419   1.736   1.039  16.280 -1.1695 -0.3724  0.4514
  845MPD2    H212420   1.712   1.439  16.385 -2.0885 -1.9472 -3.2374
  845MPD2    H312421   1.680   1.268  16.228  0.5788  2.8290  0.8966
  845MPD2     N12422   1.835   0.941  16.507  0.1776 -0.4298 -0.3420
  845MPD2    H512423   1.869   0.933  16.602  1.0150  3.5279 -0.3228
  845MPD2    N112424   1.795   1.404  16.645  0.0581 -0.0325  0.4897
  845MPD2    H712425   1.781   1.501  16.620 -0.1707  0.4676  2.5166
  846MPD2     C12426   3.750   1.532  13.164 -0.0089 -0.1647 -0.6193
  846MPD2    C112427   3.631   1.592  13.200 -0.1281 -0.1265  0.4782
  846MPD2    C212428   3.583   1.577  13.334  0.1291 -0.0234  0.0797
  846MPD2    C312429   3.643   1.491  13.422  0.0552  0.2359  0.3096
  846MPD2    C412430   3.767   1.435  13.390 -0.2073  0.1005  0.0283
  846MPD2    C512431   3.814   1.458  13.261  0.4679 -0.4329  0.3981
  846MPD2     H12432   3.494   1.628  13.368  0.5521 -0.1911  1.4168
  846MPD2    H112433   3.816   1.369  13.460 -1.3312 -0.2495  0.4745
  846MPD2    H212434   3.790   1.553  13.065 -0.3232 -0.4802 -0.8117
  846MPD2    H312435   3.909   1.418  13.228  0.9887  0.5095  0.7321
  846MPD2     N12436   3.580   1.462  13.550  0.0527 -0.2539 -0.0539
  846MPD2    H512437   3.495   1.513  13.573  0.0652 -1.1025  1.9213
  846MPD2    N112438   3.559   1.667  13.103 -0.0389 -0.1864 -0.8969
  846MPD2    H712439   3.477   1.721  13.130  0.7391  1.1413 -1.1848
  847MPD2     C12440   3.413   1.993  14.144 -0.6699 -0.4907  0.1861
  847MPD2    C112441   3.528   2.019  14.075 -0.2438 -0.2890  0.2024
  847MPD2    C212442   3.646   1.991  14.140 -0.5708  0.8306 -0.3370
  847MPD2    C312443   3.646   1.966  14.276  0.0876  0.1099 -0.1188
  847MPD2    C412444   3.532   1.950  14.350  0.1417  0.0906 -0.4320
  847MPD2    C512445   3.414   1.955  14.277  0.3632 -0.0343  0.5080
  847MPD2     H12446   3.739   2.020  14.092  0.5578  0.0176  1.3561
  847MPD2    H112447   3.523   1.928  14.456 -0.5086 -0.8490 -0.6788
  847MPD2    H212448   3.315   2.010  14.100 -1.2623 -0.3853  1.5438
  847MPD2    H312449   3.317   1.938  14.322 -0.0376  2.3952  0.5460
  847MPD2     N12450   3.775   1.969  14.340 -0.1899  0.3103  0.0090
  847MPD2    H512451   3.858   1.990  14.286 -0.2477  1.4768  0.3757
  847MPD2    N112452   3.534   2.070  13.943  0.0502 -0.0661  0.5485
  847MPD2    H712453   3.625   2.064  13.899 -0.1436 -1.7304  0.3504
  848MPD2     C12454   1.552   0.691  16.055  0.5989  0.4610 -0.1448
  848MPD2    C112455   1.451   0.762  16.120 -0.4621  0.3968 -0.0275
  848MPD2    C212456   1.431   0.895  16.091  0.0980  0.4148 -0.2698
  848MPD2    C312457   1.514   0.961  16.003  0.2634 -0.0430  0.3260
  848MPD2    C412458   1.609   0.884  15.941 -1.4737  0.5809  0.2119
  848MPD2    C512459   1.631   0.751  15.961 -0.3635  0.5629 -0.4666
  848MPD2     H12460   1.352   0.944  16.147 -1.6910 -0.1832 -2.2478
  848MPD2    H112461   1.678   0.929  15.870 -1.0639  2.1994  1.6302
  848MPD2    H212462   1.583   0.596  16.096  1.1365  0.8700  0.3893
  848MPD2    H312463   1.704   0.687  15.913 -1.0658 -0.2978 -0.3911
  848MPD2     N12464   1.498   1.102  15.988  0.2235 -0.1049 -0.7041
  848MPD2    H512465   1.410   1.138  16.021  0.0835 -0.0670 -1.1225
  848MPD2    N112466   1.385   0.703  16.228  0.4139 -0.3957 -0.1416
  848MPD2    H712467   1.352   0.766  16.300 -0.7092 -1.5035  0.3188
  849MPD2     C12468   1.109   4.306  13.583 -0.5801 -0.8019  0.1148
  849MPD2    C112469   1.144   4.435  13.630 -0.0437 -0.1045  0.0276
  849MPD2    C212470   1.207   4.445  13.751 -0.7415  0.6636 -0.2634
  849MPD2    C312471   1.239   4.326  13.809 -0.3916 -0.0017  0.7316
  849MPD2    C412472   1.206   4.198  13.767  0.6825  0.3057  0.3629
  849MPD2    C512473   1.129   4.191  13.650 -0.6489  0.1642  0.3954
  849MPD2     H12474   1.216   4.548  13.785  0.6529  0.4930 -0.1418
  849MPD2    H112475   1.240   4.110  13.819 -1.1820 -1.0350 -0.6998
  849MPD2    H212476   1.051   4.306  13.491 -1.1667 -1.4524  0.4817
  849MPD2    H312477   1.099   4.093  13.614 -0.6384  0.7913 -1.3077
  849MPD2     N12478   1.307   4.338  13.932  0.8018 -0.9643 -0.0246
  849MPD2    H512479   1.340   4.252  13.974 -1.0508 -1.1028  1.1446
  849MPD2    N112480   1.093   4.543  13.556 -0.2264 -0.0776 -0.1208
  849MPD2    H712481   1.017   4.517  13.495 -0.5194 -1.9529  1.0517
  850MPD2     C12482   3.398   3.445  14.096 -0.1882  0.1273  0.0146
  850MPD2    C112483   3.364   3.493  14.225 -0.2067 -0.2072  1.1214
  850MPD2    C212484   3.471   3.539  14.307  0.2824  0.4002 -0.1474
  850MPD2    C312485   3.600   3.546  14.258 -0.6322  0.0290  0.0222
  850MPD2    C412486   3.625   3.512  14.130 -0.6277 -0.7991 -0.5239
  850MPD2    C512487   3.526   3.456  14.053  0.3994 -0.1002  0.1037
  850MPD2     H12488   3.444   3.566  14.408  2.6980  0.9158  0.3589
  850MPD2    H112489   3.728   3.521  14.099  0.4926 -0.3919  3.3213
  850MPD2    H212490   3.321   3.400  14.034  1.8674 -2.9465 -0.2808
  850MPD2    H312491   3.551   3.416  13.956 -0.4134  0.1723 -0.2139
  850MPD2     N12492   3.709   3.597  14.333 -0.6462  0.0684 -0.0313
  850MPD2    H512493   3.800   3.614  14.291  0.1699 -3.6893  0.2750
  850MPD2    N112494   3.228   3.482  14.251 -1.1076  0.1036 -0.0272
  850MPD2    H712495   3.180   3.474  14.163  0.5446  1.3072 -1.0313
  851MPD2     C12496   3.875   3.334  14.656  0.0649  0.1578 -0.4870
  851MPD2    C112497   3.778   3.249  14.612 -0.0777  0.6726  0.1495
  851MPD2    C212498   3.797   3.118  14.568  0.5560 -0.6876  0.2337
  851MPD2    C312499   3.932   3.082  14.557  0.2644 -0.4467  0.6057
  851MPD2    C412500   4.032   3.163  14.610  0.6593 -0.2220 -0.0279
  851MPD2    C512501   4.000   3.286  14.657  0.3561  0.0734 -0.1973
  851MPD2     H12502   3.719   3.057  14.523  0.5136 -0.6691  0.2824
  851MPD2    H112503   4.133   3.124  14.621  0.6154 -0.2455  0.3047
  851MPD2    H212504   3.856   3.427  14.707  0.3679  0.2039 -0.4601
  851MPD2    H312505   4.083   3.346  14.693 -0.4666  1.1272 -0.0595
  851MPD2     N12506   3.962   2.958  14.500 -0.5561 -0.1624  0.3811
  851MPD2    H512507   3.890   2.888  14.487 -0.8162  0.3383 -0.9101
  851MPD2    N112508   3.645   3.308  14.618 -0.1140 -0.1499  1.4001
  851MPD2    H712509   3.630   3.400  14.659 -0.2852  1.4071 -2.1620
  852MPD2     C12510   3.634   1.352   9.642  0.2432  0.0470 -1.0412
  852MPD2    C112511   3.616   1.289   9.765 -0.1711  0.2922 -0.3155
  852MPD2    C212512   3.723   1.285   9.850 -0.1286  0.6897  0.1592
  852MPD2    C312513   3.838   1.360   9.828 -0.0094  0.0602  0.3578
  852MPD2    C412514   3.856   1.415   9.703 -0.1911 -0.5432  0.5108
  852MPD2    C512515   3.752   1.414   9.612  0.4128 -0.1604 -0.2717
  852MPD2     H12516   3.716   1.237   9.948  1.8384 -1.9815 -0.9804
  852MPD2    H112517   3.946   1.469   9.676 -0.6864 -1.4909 -3.1101
  852MPD2    H212518   3.558   1.355   9.565 -0.9699 -1.0284  0.1332
  852MPD2    H312519   3.758   1.465   9.517  0.5603 -0.3289 -0.3523
  852MPD2     N12520   3.929   1.377   9.933  0.4113 -0.2900  0.4221
  852MPD2    H512521   3.906   1.319  10.013 -0.1019  0.0530  0.5213
  852MPD2    N112522   3.490   1.243   9.806 -0.3128 -0.1768 -0.2661
  852MPD2    H712523   3.490   1.208   9.902  0.9639  0.1199 -0.1544
  853MPD2     C12524   0.643   1.002  12.296  0.5163  0.5236 -0.2481
  853MPD2    C112525   0.523   0.948  12.264 -0.2291  0.0133  0.1247
  853MPD2    C212526   0.506   0.877  12.146  0.0877 -0.2502  0.2896
  853MPD2    C312527   0.614   0.879  12.057 -0.4868  0.3594  0.4112
  853MPD2    C412528   0.736   0.926  12.089  0.8728  0.6391  0.2355
  853MPD2    C512529   0.751   0.988  12.204 -0.4736 -0.3738 -0.0951
  853MPD2     H12530   0.408   0.848  12.109  0.5911  1.2406 -2.2258
  853MPD2    H112531   0.818   0.933  12.018  0.7597 -1.5498 -0.1286
  853MPD2    H212532   0.647   1.072  12.379 -1.0048  0.4118 -0.0881
  853MPD2    H312533   0.834   1.054  12.226  1.4696 -2.7188 -0.4704
  853MPD2     N12534   0.601   0.850  11.922 -0.2152 -0.0503  0.4636
  853MPD2    H512535   0.679   0.875  11.862 -0.7243 -1.3697 -0.7435
  853MPD2    N112536   0.411   0.979  12.352 -0.1747 -0.5181  0.3785
  853MPD2    H712537   0.424   1.046  12.427  1.1354 -0.6127  0.2319
  854MPD2     C12538   2.865   1.220  12.795 -0.0935  0.1983 -0.5890
  854MPD2    C112539   2.747   1.145  12.799 -0.2531  0.0649  0.0807
  854MPD2    C212540   2.753   1.016  12.843  0.3536  0.0367 -0.8849
  854MPD2    C312541   2.871   0.964  12.903 -0.3882  0.0341  0.1114
  854MPD2    C412542   2.990   1.041  12.893 -0.3864 -0.2983  0.4857
  854MPD2    C512543   2.978   1.169  12.849 -0.4759  0.6955  0.1316
  854MPD2     H12544   2.667   0.951  12.854 -0.3046  1.4347  2.0512
  854MPD2    H112545   3.076   0.997  12.942  0.9017  0.1891 -1.3311
  854MPD2    H212546   2.863   1.324  12.764 -0.2573  1.1123  2.5034
  854MPD2    H312547   3.067   1.230  12.837 -0.0168  0.3046  1.6325
  854MPD2     N12548   2.885   0.832  12.954 -0.4538 -0.8801 -0.8481
  854MPD2    H512549   2.970   0.803  13.001 -0.1833 -0.1444 -0.8725
  854MPD2    N112550   2.625   1.209  12.750 -0.2613  0.9635 -0.4564
  854MPD2    H712551   2.639   1.297  12.701 -2.7684  0.8173 -1.4377
  855MPD2     C12552   3.384   0.675  13.645  0.1069  1.2419 -0.1148
  855MPD2    C112553   3.289   0.577  13.649 -0.1196  0.6709  0.0188
  855MPD2    C212554   3.208   0.548  13.540  0.1650 -0.0566 -0.5791
  855MPD2    C312555   3.219   0.617  13.425 -0.2262  0.1759 -0.3702
  855MPD2    C412556   3.310   0.717  13.420  0.0779  0.1932 -0.1359
  855MPD2    C512557   3.412   0.735  13.519  0.1058 -0.5355 -0.1195
  855MPD2     H12558   3.117   0.490  13.552  0.4660 -0.3054  0.4931
  855MPD2    H112559   3.328   0.764  13.324  0.4075  0.4434  0.0483
  855MPD2    H212560   3.456   0.688  13.725  0.6571  0.4006 -0.4682
  855MPD2    H312561   3.491   0.806  13.495 -0.5940  1.7220  4.2575
  855MPD2     N12562   3.142   0.605  13.309  0.0613 -0.4323  0.0459
  855MPD2    H512563   3.140   0.685  13.247  1.2502 -1.6428 -1.5330
  855MPD2    N112564   3.264   0.500  13.764  0.3127 -0.1218 -0.1763
  855MPD2    H712565   3.197   0.425  13.752  0.9495 -0.8238  0.6801
  856MPD2     C12566   4.483   1.469  13.733  0.2038  0.1668 -0.5858
  856MPD2    C112567   4.593   1.553  13.760 -0.6145  0.2363 -0.0159
  856MPD2    C212568   4.579   1.687  13.731  0.1241 -0.1411  0.6052
  856MPD2    C312569   4.461   1.736  13.687 -0.4744 -0.1494 -0.0132
  856MPD2    C412570   4.350   1.655  13.676 -0.1316  0.1110  0.2925
  856MPD2    C512571   4.368   1.522  13.695  0.3169 -0.3079 -0.0824
  856MPD2     H12572   4.662   1.757  13.731 -0.6137  0.7299  0.1420
  856MPD2    H112573   4.252   1.698  13.657  0.8085  2.3481  0.5556
  856MPD2    H212574   4.500   1.362  13.736 -3.5363 -0.4256 -0.2032
  856MPD2    H312575   4.281   1.463  13.668  1.1355 -1.2933 -0.5295
  856MPD2     N12576   4.460   1.873  13.656 -0.1860  0.0680  0.2992
  856MPD2    H512577   4.543   1.928  13.674  0.0715 -0.4541  0.6984
  856MPD2    N112578   0.003   1.511  13.785 -0.1132  0.0950  0.3354
  856MPD2    H712579   0.060   1.595  13.791  0.9228 -0.6645  1.3575
  857MPD2     C12580   1.042   3.843  12.897  0.7844  0.2356  0.2110
  857MPD2    C112581   1.146   3.833  12.808  0.1222  0.3166 -0.4710
  857MPD2    C212582   1.208   3.949  12.764  0.7422  0.0561  0.2742
  857MPD2    C312583   1.155   4.071  12.798  0.4532 -0.6240  0.3912
  857MPD2    C412584   1.040   4.082  12.870  0.3984 -0.0864  0.3089
  857MPD2    C512585   0.987   3.968  12.920 -0.2491  0.2846 -1.2267
  857MPD2     H12586   1.291   3.951  12.695  1.7543 -0.0700  1.4876
  857MPD2    H112587   0.992   4.177  12.891 -0.7482 -0.8090  0.9617
  857MPD2    H212588   0.993   3.751  12.928 -1.4553  1.1174 -0.6902
  857MPD2    H312589   0.894   3.985  12.972 -0.2781 -0.0514 -1.1723
  857MPD2     N12590   1.233   4.182  12.757  0.4206  0.3634 -0.1877
  857MPD2    H512591   1.321   4.164  12.710 -0.7150  0.9770 -2.5485
  857MPD2    N112592   1.196   3.702  12.775  0.3727 -0.0226  0.4223
  857MPD2    H712593   1.158   3.623  12.827 -0.8978  1.6508  2.0483
  858MPD2     C12594   1.641   2.711  16.592  0.0078  0.1766  0.1022
  858MPD2    C112595   1.776   2.727  16.576  0.0436  0.2337  0.3892
  858MPD2    C212596   1.849   2.772  16.686  0.3621  0.9939 -0.3257
  858MPD2    C312597   1.783   2.812  16.799 -0.0072  0.7541  0.0362
  858MPD2    C412598   1.641   2.806  16.806  0.5289  0.0484  0.1680
  858MPD2    C512599   1.577   2.742  16.709  0.4395 -0.1921 -0.4231
  858MPD2     H12600   1.955   2.788  16.671  0.5308 -1.5018 -1.8024
  858MPD2    H112601   1.585   2.822  16.898  0.1706  3.4247 -0.6306
  858MPD2    H212602   1.580   2.684  16.506  3.7402  0.5506 -2.6517
  858MPD2    H312603   1.472   2.721  16.730  0.3134 -1.0070 -1.8907
  858MPD2     N12604   1.847   2.863  16.913  0.3966 -0.2977  0.7981
  858MPD2    H512605   1.790   2.885  16.995  0.0396 -2.0290  1.0154
  858MPD2    N112606   1.826   2.713  16.453  0.1210 -0.5438  0.6161
  858MPD2    H712607   1.764   2.711  16.373 -0.3449 -0.3702  0.9730
  859MPD2     C12608   0.786   0.203  14.326 -0.3535  0.1882 -0.9804
  859MPD2    C112609   0.838   0.190  14.449 -0.3523 -0.0358 -0.2677
  859MPD2    C212610   0.860   0.064  14.498  0.5816  0.2021 -0.7352
  859MPD2    C312611   0.827   4.680  14.428 -0.3318  0.1145  0.0113
  859MPD2    C412612   0.766   4.692  14.305 -0.3404 -0.0061 -0.5779
  859MPD2    C512613   0.750   0.092  14.249 -0.0053  0.3003  0.3361
  859MPD2     H12614   0.884   0.050  14.603  1.8063  1.1719 -0.8909
  859MPD2    H112615   0.738   4.601  14.253 -1.8051  0.5063 -0.6835
  859MPD2    H212616   0.757   0.295  14.276 -1.6530  0.0083 -0.5607
  859MPD2    H312617   0.700   0.102  14.153  0.1151 -0.4935  0.1934
  859MPD2     N12618   0.855   4.546  14.466 -0.0924  0.2174  0.0437
  859MPD2    H512619   0.828   4.480  14.393  1.2031 -1.0099  0.6630
  859MPD2    N112620   0.873   0.310  14.522 -0.5205  0.0802  0.3880
  859MPD2    H712621   0.841   0.396  14.478 -0.9305 -1.2770 -1.9884
  860MPD2     C12622   3.205   0.396  11.453  0.2078 -0.4469 -0.0784
  860MPD2    C112623   3.204   0.487  11.552  0.8926  0.0153  0.1293
  860MPD2    C212624   3.100   0.483  11.646 -0.2391  0.2761  0.7204
  860MPD2    C312625   2.998   0.394  11.633 -0.5841 -0.2830  0.2937
  860MPD2    C412626   2.997   0.308  11.526 -0.0044 -0.4233  0.8640
  860MPD2    C512627   3.099   0.308  11.439 -0.3270 -0.0159 -0.0150
  860MPD2     H12628   3.100   0.553  11.728 -1.7322  1.1351 -0.0252
  860MPD2    H112629   2.918   0.234  11.520  0.8845 -1.2325 -0.8410
  860MPD2    H212630   3.278   0.396  11.373  1.2622 -1.8827  0.8849
  860MPD2    H312631   3.094   0.238  11.356  2.0712  0.1467 -0.2972
  860MPD2     N12632   2.895   0.400  11.730  0.1565 -0.2402  0.6776
  860MPD2    H512633   2.906   0.473  11.799  0.0540  0.3061  0.1230
  860MPD2    N112634   3.299   0.597  11.572 -0.3450 -0.2415 -0.0437
  860MPD2    H712635   3.291   0.650  11.658  0.5516  2.3263 -1.5317
  861MPD2     C12636   2.338   3.911  10.771 -0.1583 -0.6136 -0.9392
  861MPD2    C112637   2.265   3.795  10.750  0.0543 -0.1649 -0.4753
  861MPD2    C212638   2.167   3.809  10.654  0.5016  0.0543 -0.1119
  861MPD2    C312639   2.143   3.923  10.574  0.3539 -0.0474  0.0800
  861MPD2    C412640   2.222   4.033  10.599 -0.1142 -0.6130  0.2861
  861MPD2    C512641   2.321   4.022  10.686  0.6201 -0.1150 -0.4714
  861MPD2     H12642   2.089   3.734  10.660 -0.4712  1.1912  1.4537
  861MPD2    H112643   2.212   4.127  10.545  0.2376 -0.7027  0.0629
  861MPD2    H212644   2.412   3.923  10.849 -1.1782 -0.4771  0.0121
  861MPD2    H312645   2.381   4.111  10.705 -1.1466  0.9710  0.0854
  861MPD2     N12646   2.028   3.943  10.492 -0.7353 -0.2988  1.0247
  861MPD2    H512647   2.007   4.040  10.473  1.5511  0.1810  0.9636
  861MPD2    N112648   2.275   3.688  10.836  0.6689 -0.0468 -0.1473
  861MPD2    H712649   2.215   3.607  10.825 -1.0958  1.1673  0.7379
  862MPD2     C12650   1.299   3.527  10.322 -0.3249 -0.6248  0.5763
  862MPD2    C112651   1.406   3.538  10.405  0.1691 -0.4792  0.4873
  862MPD2    C212652   1.445   3.432  10.480  0.3295 -0.5092  0.3304
  862MPD2    C312653   1.372   3.309  10.469  0.9902  0.0051  0.4496
  862MPD2    C412654   1.267   3.301  10.385 -0.5547 -0.0397  0.3982
  862MPD2    C512655   1.225   3.412  10.323 -0.3638  0.4512  0.0677
  862MPD2     H12656   1.524   3.433  10.555 -0.4752  1.7066  1.1423
  862MPD2    H112657   1.203   3.213  10.383 -0.2966 -0.2248  0.2740
  862MPD2    H212658   1.254   3.608  10.265 -0.4316  1.4374  3.5711
  862MPD2    H312659   1.129   3.414  10.273 -0.0489  2.9585 -0.4203
  862MPD2     N12660   1.409   3.186  10.530 -0.2546  0.4399  0.3647
  862MPD2    H512661   1.360   3.102  10.502  0.8825 -0.0343 -0.2017
  862MPD2    N112662   1.490   3.651  10.411  0.4993 -0.3641 -0.3367
  862MPD2    H712663   1.573   3.624  10.463  0.4862  0.8422  0.3092
  863MPD2     C12664   0.961   2.130  16.372  0.5184  0.3020 -0.1791
  863MPD2    C112665   0.871   2.045  16.433 -0.1386  0.3585  0.3483
  863MPD2    C212666   0.901   2.008  16.558 -0.0247 -0.3123  0.6694
  863MPD2    C312667   1.014   2.046  16.623  0.6433 -0.0073  1.0320
  863MPD2    C412668   1.101   2.126  16.569  0.0460  0.0484 -0.0886
  863MPD2    C512669   1.071   2.169  16.442  0.4871 -1.0935 -0.0346
  863MPD2     H12670   0.833   1.939  16.606  1.2643 -2.3613 -0.4632
  863MPD2    H112671   1.195   2.152  16.615  1.0476 -0.9577 -1.5684
  863MPD2    H212672   0.937   2.170  16.274 -4.0903 -0.3251  0.7203
  863MPD2    H312673   1.135   2.249  16.409 -0.1154  0.6511  3.0342
  863MPD2     N12674   1.039   2.002  16.753 -0.0259 -0.5629  0.8520
  863MPD2    H512675   1.079   2.074  16.812  0.7691  0.5137 -1.0016
  863MPD2    N112676   0.758   2.010  16.362  0.5833 -0.1432 -0.7612
  863MPD2    H712677   0.753   2.027  16.262 -0.6418  0.9203 -0.5086
  864MPD2     C12678   1.186   2.641  17.088 -1.1266  0.1399  0.5727
  864MPD2    C112679   1.179   2.644  16.948 -0.3106  0.3913 -0.8141
  864MPD2    C212680   1.246   2.749  16.881 -0.1782 -0.5820  0.6472
  864MPD2    C312681   1.299   2.853  16.956 -0.6328 -0.5149 -0.5791
  864MPD2    C412682   1.298   2.848  17.095  0.2054 -0.3306 -0.5688
  864MPD2    C512683   1.247   2.741  17.161  0.3180 -0.3637  0.6324
  864MPD2     H12684   1.236   2.758  16.773  0.2201 -0.1994  0.6379
  864MPD2    H112685   1.340   2.928  17.155 -1.7288  0.4840 -0.3165
  864MPD2    H212686   1.130   2.573  17.151 -1.9374 -0.3291 -0.6603
  864MPD2    H312687   1.238   2.742  17.269  0.1939  0.6026  0.6120
  864MPD2     N12688   1.352   2.975  16.899  0.6997  0.5804  0.3517
  864MPD2    H512689   1.404   3.032  16.965 -0.8246  2.5849 -0.1863
  864MPD2    N112690   1.102   2.546  16.880  0.1801  0.2710 -0.3673
  864MPD2    H712691   1.054   2.479  16.940 -0.3159 -2.0268 -3.2797
  865MPD2     C12692   1.077   3.603  16.146 -0.2016  0.0260 -0.1170
  865MPD2    C112693   1.110   3.469  16.175 -0.4477 -0.4359  0.5639
  865MPD2    C212694   1.151   3.427  16.303 -0.6566  0.2936 -0.0657
  865MPD2    C312695   1.175   3.524  16.400  0.0712 -0.1147 -0.8119
  865MPD2    C412696   1.149   3.656  16.372 -0.2344 -0.0129 -0.5944
  865MPD2    C512697   1.114   3.694  16.240  0.1788 -0.3723 -0.0219
  865MPD2     H12698   1.176   3.324  16.326  1.1874  0.2934 -1.9650
  865MPD2    H112699   1.157   3.726  16.454  3.2314 -1.1992  0.0717
  865MPD2    H212700   1.049   3.628  16.044 -1.2481 -0.6455  0.0065
  865MPD2    H312701   1.112   3.798  16.208 -0.4780 -0.9343 -1.7998
  865MPD2     N12702   1.223   3.501  16.531 -0.1454 -0.5230  0.2663
  865MPD2    H512703   1.253   3.582  16.585  0.3398  0.5891 -1.6798
  865MPD2    N112704   1.096   3.374  16.065  0.4504 -0.1286  0.3770
  865MPD2    H712705   1.058   3.407  15.977  0.1287 -1.4919  0.0173
  866MPD2     C12706   2.649   3.950  11.330 -0.3065  1.3684 -0.7973
  866MPD2    C112707   2.672   4.069  11.259  0.6558 -0.9260  0.4242
  866MPD2    C212708   2.559   4.127  11.205  0.1683 -0.2362 -0.1569
  866MPD2    C312709   2.436   4.067  11.205 -0.1730  0.1196 -0.1851
  866MPD2    C412710   2.424   3.942  11.257 -0.3360 -0.0973 -0.4153
  866MPD2    C512711   2.532   3.881  11.314 -0.0950  0.0642 -1.2296
  866MPD2     H12712   2.563   4.223  11.155  1.7046 -0.9512 -1.4090
  866MPD2    H112713   2.327   3.895  11.260  0.3828 -1.5117  1.1639
  866MPD2    H212714   2.735   3.887  11.353 -0.3873  1.9088  0.9890
  866MPD2    H312715   2.518   3.786  11.363 -2.6782  0.3948 -1.3154
  866MPD2     N12716   2.322   4.112  11.139 -0.0402  0.3755 -0.8542
  866MPD2    H512717   2.241   4.052  11.155  0.6356 -0.1539  0.4978
  866MPD2    N112718   2.804   4.117  11.242 -0.6819  0.7771  0.1600
  866MPD2    H712719   2.880   4.051  11.258  0.1883  1.2078 -2.2017
  867MPD2     C12720   4.554   2.922  16.232 -0.2827 -1.1439  1.0745
  867MPD2    C112721   4.647   2.941  16.330 -0.2725  0.3123 -0.1990
  867MPD2    C212722   4.632   3.036  16.428  0.2457  0.3131  0.5991
  867MPD2    C312723   4.529   3.130  16.411 -0.3442 -0.7628 -0.0748
  867MPD2    C412724   4.439   3.121  16.309 -1.0722  0.5036 -0.1678
  867MPD2    C512725   4.444   3.012  16.222 -0.4647 -0.0151  0.5510
  867MPD2     H12726   4.693   3.047  16.517  2.1633  1.5891 -0.8672
  867MPD2    H112727   4.350   3.183  16.299 -0.4783  0.8433 -3.2759
  867MPD2    H212728   4.559   2.847  16.155  1.0726 -0.8098  0.8301
  867MPD2    H312729   4.371   2.998  16.144  2.4168 -2.1522 -1.7150
  867MPD2     N12730   4.498   3.235  16.502  0.3074  0.2911 -0.6021
  867MPD2    H512731   4.408   3.282  16.494 -0.9573 -1.5515  2.7035
  867MPD2    N112732   0.032   2.854  16.324 -0.2594 -0.1189  0.0849
  867MPD2    H712733   0.033   2.790  16.245  1.9352  0.7276 -0.5599
  868MPD2     C12734   1.645   1.638  13.690 -0.1784 -0.4763 -0.5889
  868MPD2    C112735   1.649   1.670  13.559  0.3414 -0.0223  0.1029
  868MPD2    C212736   1.524   1.673  13.496 -0.1647  0.0209  0.3180
  868MPD2    C312737   1.411   1.642  13.572  0.4667 -0.1758 -0.6762
  868MPD2    C412738   1.419   1.609  13.706 -0.2085  0.5183  0.7876
  868MPD2    C512739   1.539   1.612  13.762  0.2824 -0.4133  0.5765
  868MPD2     H12740   1.517   1.696  13.390  0.4967 -1.5360 -0.0609
  868MPD2    H112741   1.327   1.578  13.755  0.1180 -0.3928  0.8237
  868MPD2    H212742   1.737   1.643  13.747 -0.3496 -2.2432 -0.1814
  868MPD2    H312743   1.550   1.588  13.867 -2.0702 -2.1559  0.4190
  868MPD2     N12744   1.283   1.641  13.508  0.6112 -0.1003 -0.0814
  868MPD2    H512745   1.286   1.695  13.422  0.6690  1.7570  1.0879
  868MPD2    N112746   1.778   1.679  13.490 -0.4449  0.2063 -0.2596
  868MPD2    H712747   1.854   1.668  13.556 -1.0069  1.7979  0.6457
  869MPD2     C12748   2.833   0.506   1.597  0.5523  0.0552  0.0452
  869MPD2    C112749   2.914   0.399   1.589  0.6554 -0.1921  0.2091
  869MPD2    C212750   2.938   0.345   1.461 -0.4120  0.2782  0.0819
  869MPD2    C312751   2.890   0.411   1.350 -0.0944  0.4173  0.0977
  869MPD2    C412752   2.810   0.520   1.363 -1.0652 -0.7256 -0.1784
  869MPD2    C512753   2.769   0.563   1.487  0.7842  0.4925 -0.4869
  869MPD2     H12754   3.017   0.272   1.446 -0.9608 -0.0252 -1.3373
  869MPD2    H112755   2.764   0.565   1.276  1.6548  2.2217 -0.1136
  869MPD2    H212756   2.832   0.568   1.685  0.7099  0.3700 -0.1708
  869MPD2    H312757   2.713   0.654   1.504  1.3675  0.9307 -0.9195
  869MPD2     N12758   2.914   0.367   1.216 -0.0003  0.2788 -0.7633
  869MPD2    H512759   2.880   0.435   1.150  1.1053  1.7620  0.2005
  869MPD2    N112760   2.969   0.349   1.707  0.9791  0.5465 -0.7141
  869MPD2    H712761   2.953   0.399   1.794  0.8533 -0.5957 -0.0826
  870MPD2     C12762   3.355   3.643   1.574 -0.7637 -0.3383 -0.5373
  870MPD2    C112763   3.239   3.568   1.592 -0.3051 -0.1100  0.0310
  870MPD2    C212764   3.136   3.579   1.495 -0.1945 -0.5728 -0.1716
  870MPD2    C312765   3.160   3.649   1.378 -0.1733 -0.1590 -0.5157
  870MPD2    C412766   3.280   3.719   1.367 -0.0086  0.0825 -0.2070
  870MPD2    C512767   3.376   3.720   1.465 -0.1644 -0.1609  0.6791
  870MPD2     H12768   3.044   3.523   1.505 -0.7580  0.6905  1.7076
  870MPD2    H112769   3.300   3.778   1.278  1.5242 -0.4337 -0.2059
  870MPD2    H212770   3.434   3.642   1.648 -1.1383  2.0529 -0.0955
  870MPD2    H312771   3.471   3.768   1.444 -1.1715  0.5859 -2.2340
  870MPD2     N12772   3.051   3.649   1.283  0.3408 -0.0357 -0.9688
  870MPD2    H512773   2.969   3.599   1.315  0.8823 -0.1196  0.3036
  870MPD2    N112774   3.231   3.486   1.706  0.5489 -0.1335 -0.4282
  870MPD2    H712775   3.304   3.482   1.778  0.0135 -1.6523  0.0259
  871MPD2     C12776   3.853   3.188  15.994  0.7496 -0.0018 -0.2042
  871MPD2    C112777   3.788   3.110  16.082 -0.4297 -0.9329  0.0673
  871MPD2    C212778   3.836   2.985  16.118 -0.3251  0.3781  0.0418
  871MPD2    C312779   3.949   2.941  16.055 -0.3197 -0.3020 -0.4983
  871MPD2    C412780   4.020   3.022  15.973  0.0584  0.8564  0.2337
  871MPD2    C512781   3.974   3.146  15.938 -0.0737  0.0089 -0.4009
  871MPD2     H12782   3.797   2.916  16.191 -0.9520  1.3648  0.6483
  871MPD2    H112783   4.109   2.986  15.922 -0.0235  0.2563  0.5183
  871MPD2    H212784   3.828   3.292  15.975  1.4272  0.2880  0.5094
  871MPD2    H312785   4.031   3.229  15.899  0.6670 -1.1676 -1.8002
  871MPD2     N12786   4.006   2.814  16.095  0.0317 -0.5243 -0.5160
  871MPD2    H512787   3.945   2.769  16.162  0.8387 -0.2374  0.4119
  871MPD2    N112788   3.679   3.168  16.153  1.0150  0.1874  0.3139
  871MPD2    H712789   3.676   3.269  16.152 -0.1061  0.1480 -0.7957
  872MPD2     C12790   4.672   0.762  14.166 -0.3768  0.2668 -0.4419
  872MPD2    C112791   4.627   0.830  14.052 -0.1505 -0.1503 -0.5071
  872MPD2    C212792   4.495   0.871  14.051 -0.6028  0.5932  0.5501
  872MPD2    C312793   4.421   0.854  14.164 -0.5120 -1.0156 -0.1399
  872MPD2    C412794   4.469   0.800  14.276  0.5687  0.0992  0.9417
  872MPD2    C512795   4.595   0.754  14.281  0.3287 -0.5671  0.7544
  872MPD2     H12796   4.468   0.933  13.966  1.9969  0.8552 -0.0745
  872MPD2    H112797   4.409   0.782  14.364  0.7742  2.0265  1.4583
  872MPD2    H212798   0.046   0.717  14.168 -1.0200 -1.2470 -2.9993
  872MPD2    H312799   4.617   0.695  14.369 -2.3040 -1.2822  0.9340
  872MPD2     N12800   4.288   0.906  14.178 -0.1060 -0.2812  0.0448
  872MPD2    H512801   4.254   0.898  14.273 -1.0562  0.6343 -0.2158
  872MPD2    N112802   4.706   0.833  13.935 -0.3512 -0.1188  0.4692
  872MPD2    H712803   4.668   0.883  13.855  0.0392 -1.9654 -0.8669
  873MPD2     C12804   0.614   0.142   0.175 -0.1552 -0.2578 -0.2996
  873MPD2    C112805   0.646   0.155   0.305 -0.1235  0.1598 -0.2383
  873MPD2    C212806   0.608   0.057   0.397 -0.3411 -0.3478  0.4023
  873MPD2    C312807   0.516   4.686   0.357 -0.0554  0.2231  0.6538
  873MPD2    C412808   0.474   4.683   0.228 -0.5275  0.1430  0.1063
  873MPD2    C512809   0.528   0.044   0.136  0.3538  0.6184 -0.1641
  873MPD2     H12810   0.658   0.061   0.493 -0.6374  0.0073  0.5458
  873MPD2    H112811   0.425   4.597   0.182 -0.7602 -0.4222  1.4164
  873MPD2    H212812   0.657   0.206   0.098 -1.3798  0.7054 -0.1795
  873MPD2    H312813   0.514   0.047   0.029  1.0125 -0.8144 -0.2882
  873MPD2     N12814   0.461   4.585   0.441 -0.0150 -0.1828  0.2209
  873MPD2    H512815   0.400   4.514   0.402  0.1409 -0.4631  0.4839
  873MPD2    N112816   0.732   0.267   0.341  0.8000 -0.2174 -0.1784
  873MPD2    H712817   0.769   0.330   0.271  2.2026  0.5641  1.2735
  874MPD2     C12818   0.746   1.350  16.175  0.3910 -0.1691  1.0447
  874MPD2    C112819   0.834   1.244  16.197  0.2639  1.1378 -0.2929
  874MPD2    C212820   0.958   1.248  16.126  0.3931 -0.0395  0.5123
  874MPD2    C312821   0.994   1.355  16.048  0.6917 -0.0846 -0.6314
  874MPD2    C412822   0.898   1.453  16.026 -0.0754  0.2508 -0.8469
  874MPD2    C512823   0.778   1.449  16.094 -0.6091  0.1601 -0.1434
  874MPD2     H12824   1.012   1.155  16.116  1.7102  0.9477 -1.4055
  874MPD2    H112825   0.903   1.533  15.954 -1.1842  1.4952  0.4504
  874MPD2    H212826   0.649   1.345  16.224 -0.1033  2.4290  0.3031
  874MPD2    H312827   0.705   1.528  16.078  0.7221  1.1539 -1.3547
  874MPD2     N12828   1.120   1.347  15.984  0.6459  0.6642 -0.4213
  874MPD2    H512829   1.182   1.271  16.013 -0.0820  0.0198 -0.5527
  874MPD2    N112830   0.800   1.139  16.279 -0.5987  0.2017 -0.2264
  874MPD2    H712831   0.709   1.147  16.322 -0.1654 -1.5707  1.0099
  875MPD2     C12832   2.281   3.768  14.572 -0.3486  0.7323 -0.7442
  875MPD2    C112833   2.192   3.873  14.550  0.2507 -0.2311  0.6758
  875MPD2    C212834   2.198   3.962  14.648  0.5749 -0.2920  0.1012
  875MPD2    C312835   2.263   3.943  14.768 -0.1201  0.5166  0.5475
  875MPD2    C412836   2.328   3.828  14.799 -0.4986  0.0476  0.5287
  875MPD2    C512837   2.357   3.751  14.685  0.6809  0.2166  0.5153
  875MPD2     H12838   2.125   4.037  14.620 -1.1539 -1.5659  1.1999
  875MPD2    H112839   2.371   3.806  14.896 -3.4965 -1.0556  1.5935
  875MPD2    H212840   2.272   3.683  14.505  0.7946 -0.8574  1.1312
  875MPD2    H312841   2.420   3.664  14.696  1.2617  0.5681 -0.0252
  875MPD2     N12842   2.258   4.038  14.871 -0.5213 -0.3962  0.0275
  875MPD2    H512843   2.331   4.028  14.941 -0.0668 -0.9373 -0.5271
  875MPD2    N112844   2.105   3.888  14.438 -0.4469 -0.2405  0.3161
  875MPD2    H712845   2.049   3.972  14.424 -2.3337 -1.6218 -0.4880
  876MPD2     C12846   1.253   1.258  15.536 -0.3784 -0.5320 -0.2248
  876MPD2    C112847   1.356   1.168  15.552  0.0933  0.5052  0.1918
  876MPD2    C212848   1.326   1.053  15.626  0.4865 -0.1735 -0.3579
  876MPD2    C312849   1.209   1.040  15.699  0.1483  0.1487 -0.2236
  876MPD2    C412850   1.109   1.135  15.688  0.2902 -0.2503  0.0159
  876MPD2    C512851   1.135   1.239  15.607  0.4605  0.1769 -0.1138
  876MPD2     H12852   1.399   0.974  15.640  0.0532 -0.5551 -0.2384
  876MPD2    H112853   1.021   1.133  15.751  1.1020 -1.6828  1.0938
  876MPD2    H212854   1.274   1.355  15.492  0.9009 -0.0211  1.5204
  876MPD2    H312855   1.066   1.322  15.594 -2.7618 -2.3617  0.7876
  876MPD2     N12856   1.203   0.923  15.773  0.3341  1.0243 -0.0603
  876MPD2    H512857   1.267   0.849  15.744  1.4777  2.4720 -1.2737
  876MPD2    N112858   1.472   1.187  15.469  0.3750 -0.0189 -0.2256
  876MPD2    H712859   1.467   1.263  15.402 -1.5652 -0.3730 -0.4549
  877MPD2     C12860   1.615   1.363  14.752 -0.4015 -0.1295  0.7750
  877MPD2    C112861   1.608   1.231  14.786  0.0992  0.0844  0.0414
  877MPD2    C212862   1.585   1.136  14.694  0.3985 -0.2705 -0.7094
  877MPD2    C312863   1.573   1.164  14.562  0.2127  0.4183 -0.1404
  877MPD2    C412864   1.577   1.301  14.527  0.0120 -0.3662  0.1132
  877MPD2    C512865   1.601   1.394  14.622 -0.8215 -0.4445  0.3701
  877MPD2     H12866   1.588   1.036  14.736  0.7255  0.4709  1.0294
  877MPD2    H112867   1.568   1.337  14.425  1.5259  0.0085  0.1107
  877MPD2    H212868   1.616   1.442  14.826  2.2826  1.5970 -1.1210
  877MPD2    H312869   1.606   1.498  14.589  0.8049 -0.4931  0.4390
  877MPD2     N12870   1.569   1.071  14.460 -0.3871  0.5164 -0.2418
  877MPD2    H512871   1.572   1.109  14.366  2.1329 -2.4596 -1.3468
  877MPD2    N112872   1.623   1.189  14.920  0.0806 -0.5769 -0.6718
  877MPD2    H712873   1.623   1.090  14.939  0.5317 -0.7790 -1.7281
  878MPD2     C12874   1.281   0.736  13.336 -0.5649 -0.5276 -0.2426
  878MPD2    C112875   1.241   0.630  13.260 -0.2548  0.0534 -0.0396
  878MPD2    C212876   1.268   0.497  13.306 -0.2173 -0.5398 -0.7599
  878MPD2    C312877   1.336   0.482  13.426 -0.0656  0.0209 -0.4751
  878MPD2    C412878   1.392   0.596  13.487  0.1909 -0.6203 -0.3147
  878MPD2    C512879   1.355   0.719  13.447 -0.0355 -0.3005  0.9440
  878MPD2     H12880   1.231   0.411  13.250 -1.0297 -0.7160  0.0438
  878MPD2    H112881   1.441   0.591  13.584  0.2578  0.6535 -0.2793
  878MPD2    H212882   1.265   0.841  13.317  1.8675 -0.1107  0.0705
  878MPD2    H312883   1.379   0.804  13.510 -1.1552  0.0215  0.9385
  878MPD2     N12884   1.338   0.360  13.493  0.0280 -0.3384 -0.7342
  878MPD2    H512885   1.296   0.283  13.443  1.9701 -0.3867 -2.2827
  878MPD2    N112886   1.184   0.645  13.133  0.2952  0.1903  0.1525
  878MPD2    H712887   1.159   0.557  13.089 -0.4909  0.3902  0.2106
  879MPD2     C12888   1.578   2.147  16.765  0.3353  0.2302  0.0424
  879MPD2    C112889   1.487   2.069  16.833  0.2956  0.0498  0.7195
  879MPD2    C212890   1.402   1.985  16.758 -0.0120 -0.2205  0.3331
  879MPD2    C312891   1.415   1.977  16.618 -0.1471 -0.2237 -0.3716
  879MPD2    C412892   1.504   2.056  16.547  0.2005  0.5946  0.0886
  879MPD2    C512893   1.588   2.131  16.631 -0.4887  0.3126 -0.6816
  879MPD2     H12894   1.322   1.927  16.803 -0.4256 -1.3360 -1.8376
  879MPD2    H112895   1.508   2.041  16.440  2.3908  3.0609 -0.1772
  879MPD2    H212896   1.642   2.212  16.824 -0.3127 -0.1859  1.2062
  879MPD2    H312897   1.672   2.178  16.583 -0.2370  0.0816 -0.4660
  879MPD2     N12898   1.327   1.900  16.538  0.3627  0.5755 -0.2019
  879MPD2    H512899   1.324   1.922  16.439 -1.7507 -1.4069 -0.6022
  879MPD2    N112900   1.475   2.079  16.974 -0.1309  0.6851  0.2368
  879MPD2    H712901   1.547   2.139  17.012 -0.5609  0.9708  0.5977
  880MPD2     C12902   2.571   3.045   0.315 -0.8523  0.5937  0.1865
  880MPD2    C112903   2.632   3.094   0.203  0.3685  0.2230 -0.1528
  880MPD2    C212904   2.738   3.018   0.144 -0.2268 -0.4875 -0.5540
  880MPD2    C312905   2.781   2.903   0.193  0.2502 -0.3391 -0.8348
  880MPD2    C412906   2.710   2.855   0.306 -0.1050  0.3722  0.1040
  880MPD2    C512907   2.613   2.927   0.363  0.6322 -0.1488 -0.2981
  880MPD2     H12908   2.785   3.064   0.058  0.2856 -0.7831 -0.4368
  880MPD2    H112909   2.741   2.760   0.348 -2.7838 -0.4015  0.3383
  880MPD2    H212910   2.495   3.110   0.357 -1.5142 -0.0466 -0.0094
  880MPD2    H312911   2.559   2.894   0.451  0.8797  1.1980  0.3751
  880MPD2     N12912   2.878   2.826   0.137  0.5993  0.5123 -0.2963
  880MPD2    H512913   2.902   2.741   0.187 -4.9993 -0.6625  0.2887
  880MPD2    N112914   2.590   3.224   0.152 -0.5206 -0.0075 -0.8438
  880MPD2    H712915   2.518   3.273   0.203  1.0103  0.6811  0.6506
  881MPD2     C12916   2.755   4.090  17.186 -0.5408  0.2955 -0.3295
  881MPD2    C112917   2.797   3.962  17.159 -0.2154 -0.1561  0.7178
  881MPD2    C212918   2.754   3.862  17.246 -0.4096 -0.1088 -0.1978
  881MPD2    C312919   2.678   3.887  17.354 -0.6971 -0.0515 -0.8933
  881MPD2    C412920   2.636   4.019  17.386  0.4156 -0.8457  0.2362
  881MPD2    C512921   2.681   4.120  17.303  0.6122  0.1955 -0.0001
  881MPD2     H12922   2.778   3.763  17.208 -0.1589  0.8967 -2.6542
  881MPD2    H112923   2.586   4.044  17.478  1.5050 -2.1837  1.1847
  881MPD2    H212924   2.769   4.165  17.108 -0.1721 -1.8024 -2.2979
  881MPD2    H312925   2.652   4.221  17.330  2.3493  0.8181 -0.4562
  881MPD2     N12926   2.650   3.799  17.460  0.4543 -0.2570 -0.0828
  881MPD2    H512927   2.597   3.825  17.542 -0.4618 -0.1659 -0.7061
  881MPD2    N112928   2.850   3.938  17.026 -0.4591 -0.1234 -0.4548
  881MPD2    H712929   2.850   4.020  16.967 -1.1975 -0.3729 -0.7918
  882MPD2     C12930   1.191   0.643  13.805 -0.3141 -0.4049  0.6155
  882MPD2    C112931   1.190   0.744  13.902  0.6814  0.2633 -0.1046
  882MPD2    C212932   1.069   0.808  13.928 -0.2606  0.4657 -0.1744
  882MPD2    C312933   0.957   0.758  13.864 -0.1080 -0.1283  0.0392
  882MPD2    C412934   0.965   0.646  13.788  0.0072 -0.9943  0.5250
  882MPD2    C512935   1.080   0.594  13.751 -0.5149 -0.0152  0.3416
  882MPD2     H12936   1.068   0.876  14.012 -0.1271  0.3988 -0.1182
  882MPD2    H112937   0.874   0.597  13.758 -0.5869  0.0341  0.6354
  882MPD2    H212938   1.284   0.608  13.760 -1.5911 -0.0143 -2.3578
  882MPD2    H312939   1.081   0.515  13.677  2.2716  0.4058 -0.0673
  882MPD2     N12940   0.825   0.790  13.908  0.2519  0.7822  0.1841
  882MPD2    H512941   0.744   0.739  13.875  0.3491  1.5701 -1.2869
  882MPD2    N112942   1.310   0.763  13.970 -0.7014 -0.5387 -0.1846
  882MPD2    H712943   1.384   0.697  13.946 -0.9553 -0.4303 -1.2663
  883MPD2     C12944   2.866   1.615  16.483 -0.4657 -0.4046  1.2101
  883MPD2    C112945   2.955   1.536  16.419  0.8530  0.2227 -0.0307
  883MPD2    C212946   3.071   1.496  16.484  0.3022  1.0500  0.3836
  883MPD2    C312947   3.090   1.521  16.613  0.2646 -0.4803  0.5822
  883MPD2    C412948   3.005   1.601  16.679 -0.6490 -0.3744 -0.1728
  883MPD2    C512949   2.891   1.646  16.614 -0.6878 -0.6856  0.7623
  883MPD2     H12950   3.146   1.436  16.435 -0.4454  0.5508 -0.1576
  883MPD2    H112951   3.017   1.625  16.784  2.3430 -0.4731 -0.5000
  883MPD2    H212952   2.779   1.659  16.435  0.9104  0.1626 -0.7731
  883MPD2    H312953   2.828   1.715  16.670 -0.1181 -1.0550  1.8593
  883MPD2     N12954   3.216   1.479  16.665 -0.2257 -0.0304  0.2087
  883MPD2    H512955   3.279   1.428  16.604 -1.2468 -0.2870 -0.6484
  883MPD2    N112956   2.944   1.508  16.282  0.0410 -0.1911  0.0764
  883MPD2    H712957   3.027   1.484  16.230 -0.1842 -0.1305 -0.3074
  884MPD2     C12958   0.348   1.600  14.996  0.5547 -0.5462  0.0215
  884MPD2    C112959   0.255   1.570  14.900 -0.2318  0.2308 -1.0563
  884MPD2    C212960   0.124   1.620  14.910 -0.5192  0.3856 -0.1243
  884MPD2    C312961   0.098   1.713  15.011 -0.3000 -0.5065  0.8599
  884MPD2    C412962   0.190   1.734  15.112  0.5049  0.1454 -0.5650
  884MPD2    C512963   0.316   1.674  15.110 -1.0544 -0.5107  0.4701
  884MPD2     H12964   0.053   1.606  14.829 -1.6604  1.4664  0.6881
  884MPD2    H112965   0.170   1.810  15.187  1.8327  0.1826 -0.2415
  884MPD2    H212966   0.447   1.561  14.975  0.3425 -1.6722  1.1163
  884MPD2    H312967   0.382   1.697  15.192 -1.9220  3.1223  0.1730
  884MPD2     N12968   4.693   1.780  15.011 -0.4042  0.4070 -0.5311
  884MPD2    H512969   4.625   1.751  14.942  0.0246  2.6527 -1.8887
  884MPD2    N112970   0.289   1.504  14.780 -0.0609 -0.2666 -0.3977
  884MPD2    H712971   0.211   1.497  14.716 -1.1518 -0.1652  0.9202
  885MPD2     C12972   3.529   2.061  17.688  0.1662  0.6975  0.9702
  885MPD2    C112973   3.461   1.943  17.668  1.1977  0.3254 -0.0354
  885MPD2    C212974   3.412   1.914  17.546 -0.4635 -0.3092 -0.1714
  885MPD2    C312975   3.418   2.007  17.442  0.1957  0.7311 -0.3695
  885MPD2    C412976   3.481   2.126  17.469 -0.1312  0.1681 -0.2818
  885MPD2    C512977   3.542   2.154  17.589  0.4534  0.3418 -0.8852
  885MPD2     H12978   3.351   1.825  17.543 -1.4836  0.3619  0.6542
  885MPD2    H112979   3.484   2.205  17.394 -2.8394  1.1726  0.6547
  885MPD2    H212980   3.560   2.087   0.088  1.8307 -0.8832  0.8599
  885MPD2    H312981   3.601   2.240  17.618 -1.1059  0.4505  1.9811
  885MPD2     N12982   3.363   1.977  17.315 -0.4710 -0.0851 -0.3516
  885MPD2    H512983   3.354   1.877  17.300  0.7878 -0.0580 -1.3034
  885MPD2    N112984   3.460   1.842   0.070  0.1099  0.0580  0.0565
  885MPD2    H712985   3.400   1.762   0.051 -0.1780  0.7002 -1.7422
  886MPD2     C12986   4.409   0.636  15.251 -0.1933 -0.5103 -0.1717
  886MPD2    C112987   4.542   0.628  15.219  0.1455  0.0636  0.1270
  886MPD2    C212988   4.592   0.686  15.102  0.4800  0.3085  0.6158
  886MPD2    C312989   4.502   0.737  15.009 -0.3592 -0.7318 -0.1089
  886MPD2    C412990   4.369   0.734  15.044  0.6059 -0.5450 -0.2336
  886MPD2    C512991   4.323   0.689  15.160  0.4858  0.0777 -0.0886
  886MPD2     H12992   4.697   0.671  15.079 -0.2075 -0.4081 -2.0274
  886MPD2    H112993   4.293   0.772  14.976  1.2335 -0.6404 -0.9791
  886MPD2    H212994   4.363   0.574  15.328  0.1348 -2.0889 -1.2623
  886MPD2    H312995   4.215   0.689  15.172  0.6780 -0.4254  1.6740
  886MPD2     N12996   4.538   0.780  14.878 -0.0994 -0.6773 -0.1219
  886MPD2    H512997   4.465   0.813  14.816 -1.3446  1.3497  2.4001
  886MPD2    N112998   4.635   0.544  15.274  0.5200  0.2119  0.1265
  886MPD2    H712999   0.005   0.547  15.237  0.1852 -1.1713 -0.8212
  887MPD2     C13000   0.583   0.354  15.158 -0.0744  0.0611  0.1959
  887MPD2    C113001   0.471   0.435  15.174 -0.0008  0.4816 -0.0171
  887MPD2    C213002   0.482   0.568  15.123  1.7545 -0.0951  0.4909
  887MPD2    C313003   0.586   0.608  15.038 -0.3558 -0.8245 -0.7998
  887MPD2    C413004   0.694   0.522  15.022  1.3502  0.2986  0.2513
  887MPD2    C513005   0.695   0.398  15.087 -0.5642 -0.1841  0.8664
  887MPD2     H13006   0.394   0.630  15.135  0.4249 -1.4593 -2.1706
  887MPD2    H113007   0.775   0.538  14.952 -1.7459  1.2049 -3.1632
  887MPD2    H213008   0.585   0.256  15.204 -3.2915  0.1433  0.5570
  887MPD2    H313009   0.779   0.330  15.086 -1.3707 -1.2071  2.0848
  887MPD2     N13010   0.566   0.727  14.969  0.0571 -0.5115 -0.0726
  887MPD2    H513011   0.470   0.760  14.967 -0.4360 -1.9502  0.2807
  887MPD2    N113012   0.358   0.404  15.241 -0.2972 -0.7198 -0.5416
  887MPD2    H713013   0.294   0.482  15.246 -0.1023 -0.7241  2.0082
  888MPD2     C13014   2.577   0.514  14.540 -0.7710  0.3102 -0.5758
  888MPD2    C113015   2.553   0.563  14.667 -0.0917  0.0299 -0.6247
  888MPD2    C213016   2.578   0.698  14.697  0.4674 -0.0332  0.5691
  888MPD2    C313017   2.631   0.782  14.596  0.7444  0.2987  0.2990
  888MPD2    C413018   2.644   0.731  14.470  1.0841  0.1500  0.8076
  888MPD2    C513019   2.611   0.597  14.436  0.6240 -0.7026  0.1524
  888MPD2     H13020   2.552   0.739  14.794 -0.7822  1.6063 -0.4521
  888MPD2    H113021   2.700   0.785  14.394  0.6872  0.6230  0.8563
  888MPD2    H213022   2.570   0.408  14.521  2.1262 -0.6728  3.8338
  888MPD2    H313023   2.642   0.556  14.341 -1.3466 -1.5503 -0.1296
  888MPD2     N13024   2.642   0.922  14.624 -0.1952 -0.6037 -0.7041
  888MPD2    H513025   2.643   0.959  14.718  1.3956 -0.4736 -0.7716
  888MPD2    N113026   2.504   0.472  14.768  0.6560  0.3639  0.3178
  888MPD2    H713027   2.483   0.511  14.859 -2.3018  1.1320 -0.6830
  889MPD2     C13028   1.189   0.317  12.565  0.4627  0.4274 -0.7091
  889MPD2    C113029   1.307   0.265  12.610  0.3841  0.4406 -0.2955
  889MPD2    C213030   1.385   0.345  12.692 -0.0039  0.4478 -0.2513
  889MPD2    C313031   1.351   0.484  12.705 -0.0604  0.8046  0.4581
  889MPD2    C413032   1.242   0.539  12.645  0.4197 -0.8147 -0.4599
  889MPD2    C513033   1.162   0.451  12.580 -0.4737 -0.5079  0.0581
  889MPD2     H13034   1.476   0.315  12.744 -0.6106 -0.5807  0.2077
  889MPD2    H113035   1.206   0.641  12.657  2.5346 -0.3414  2.1039
  889MPD2    H213036   1.134   0.263  12.488 -1.6657 -0.7764  1.6568
  889MPD2    H313037   1.078   0.496  12.528  0.2025  3.1401  2.1080
  889MPD2     N13038   1.436   0.553  12.802 -0.2189 -0.4378 -0.2246
  889MPD2    H513039   1.509   0.503  12.853  1.0989  0.0434 -1.6362
  889MPD2    N113040   1.334   0.128  12.613 -0.1181  0.3033  0.1410
  889MPD2    H713041   1.418   0.096  12.659  1.1670  0.0274 -2.3826
  890MPD2     C13042   1.460   1.834  14.093  0.2765  0.2060 -0.1557
  890MPD2    C113043   1.470   1.944  14.173 -0.2854  0.2874  0.4579
  890MPD2    C213044   1.468   1.939  14.318  0.8547  0.4594 -0.8912
  890MPD2    C313045   1.454   1.814  14.374 -0.3161 -1.2310  0.0462
  890MPD2    C413046   1.436   1.707  14.295 -0.4827  0.3923  0.4929
  890MPD2    C513047   1.446   1.715  14.160  0.4999 -0.5349 -0.0032
  890MPD2     H13048   1.495   2.021  14.383 -0.2358 -0.0708  0.2199
  890MPD2    H113049   1.412   1.614  14.346 -0.8991 -0.0555 -0.5156
  890MPD2    H213050   1.484   1.828  13.987  1.0121 -2.4061  0.1616
  890MPD2    H313051   1.451   1.617  14.113  0.3064 -0.8375  0.6195
  890MPD2     N13052   1.460   1.803  14.517  0.1635 -0.0809  0.3663
  890MPD2    H513053   1.484   1.884  14.573  1.1823 -1.1002  1.4140
  890MPD2    N113054   1.498   2.069  14.098 -1.3869 -0.0566 -0.2005
  890MPD2    H713055   1.516   2.058  13.999  0.0844 -2.0435  0.2803
  891MPD2     C13056   3.578   4.680  16.449 -0.6741 -0.1489 -0.0202
  891MPD2    C113057   3.556   0.088  16.466  0.3625  0.1815  0.2463
  891MPD2    C213058   3.652   0.174  16.519 -0.8841 -0.0849 -0.3673
  891MPD2    C313059   3.777   0.119  16.543 -0.8978 -0.5028  0.0481
  891MPD2    C413060   3.817   4.721  16.500  0.1784  0.1357 -0.2621
  891MPD2    C513061   3.705   4.634  16.469 -0.1070  0.0380 -0.0054
  891MPD2     H13062   3.641   0.282  16.518  0.8828  0.1107  0.8908
  891MPD2    H113063   3.913   4.671  16.498  0.5159  0.8798 -2.7267
  891MPD2    H213064   3.505   4.612  16.406  0.2270 -0.5934 -0.8431
  891MPD2    H313065   3.734   4.532  16.448  0.2345  0.2866 -0.7636
  891MPD2     N13066   3.859   0.215  16.594  0.6485 -0.3036 -0.1228
  891MPD2    H513067   3.823   0.304  16.628 -0.1836 -0.7506  0.1677
  891MPD2    N113068   3.434   0.131  16.423 -0.4086  0.2461  0.2161
  891MPD2    H713069   3.382   0.065  16.367 -1.1072  1.8791 -1.0506
  892MPD2     C13070   0.263   1.590  14.141 -0.2415  0.2327  0.7407
  892MPD2    C113071   0.199   1.492  14.211 -0.3302 -0.3761  0.5227
  892MPD2    C213072   0.247   1.362  14.204  0.1534  0.8719  0.4050
  892MPD2    C313073   0.371   1.336  14.150  0.0359 -0.2920  0.1901
  892MPD2    C413074   0.440   1.440  14.084  0.1081 -0.6419  0.1552
  892MPD2    C513075   0.380   1.569  14.078 -0.5275 -0.2904  0.0063
  892MPD2     H13076   0.186   1.291  14.260 -0.3027  1.0594  0.1469
  892MPD2    H113077   0.538   1.427  14.041  0.7915  0.4536  1.3802
  892MPD2    H213078   0.223   1.691  14.144  0.0049  0.3392  0.3926
  892MPD2    H313079   0.434   1.649  14.030 -0.8370 -0.0346  0.0856
  892MPD2     N13080   0.433   1.210  14.154  0.5656  0.3325  0.2672
  892MPD2    H513081   0.531   1.207  14.127  0.4741 -1.5723  0.1293
  892MPD2    N113082   0.088   1.531  14.286  0.6929 -0.6443 -0.6507
  892MPD2    H713083   0.037   1.614  14.256 -2.9314 -1.6609  2.7915
  893MPD2     C13084   2.943   3.617   2.174 -0.4106 -0.7657  0.0597
  893MPD2    C113085   2.923   3.604   2.038  0.1081 -0.0748  0.0548
  893MPD2    C213086   2.850   3.491   2.002 -0.0019  1.2283 -0.2838
  893MPD2    C313087   2.799   3.399   2.093  0.0695  0.1105 -0.0532
  893MPD2    C413088   2.826   3.414   2.226 -0.6922  0.5102 -0.3537
  893MPD2    C513089   2.902   3.523   2.262 -0.5927 -0.3896  0.1076
  893MPD2     H13090   2.822   3.473   1.899 -0.2286 -1.9379  0.3149
  893MPD2    H113091   2.780   3.350   2.300  1.5870  0.5038  1.0446
  893MPD2    H213092   2.990   3.708   2.212 -1.5647 -0.6889  1.2994
  893MPD2    H313093   2.916   3.551   2.365 -1.3902  0.0502  0.0910
  893MPD2     N13094   2.713   3.294   2.064 -0.4822  0.4978 -0.3107
  893MPD2    H513095   2.667   3.242   2.138  0.2687 -0.3186 -0.4190
  893MPD2    N113096   2.978   3.697   1.942 -0.2415  0.2002 -0.1109
  893MPD2    H713097   3.025   3.781   1.974 -0.0480 -0.6071  1.7143
  894MPD2     C13098   0.481   2.253   0.420  0.7334 -0.6335 -0.4648
  894MPD2    C113099   0.429   2.260   0.555 -0.1513 -0.4181  0.7666
  894MPD2    C213100   0.456   2.380   0.627  0.3922  0.0846 -0.4066
  894MPD2    C313101   0.524   2.486   0.566 -0.8334 -0.4336  0.2557
  894MPD2    C413102   0.564   2.482   0.427 -0.5911 -0.4441  0.1043
  894MPD2    C513103   0.534   2.366   0.362 -0.5000  0.2280 -0.4625
  894MPD2     H13104   0.433   2.388   0.732 -0.0941 -0.7934 -0.4442
  894MPD2    H113105   0.619   2.560   0.377 -1.1786 -1.5467 -2.2613
  894MPD2    H213106   0.474   2.166   0.356  0.0772 -0.1724 -1.0161
  894MPD2    H313107   0.566   2.372   0.258 -1.3139  1.7307 -0.6247
  894MPD2     N13108   0.543   2.602   0.636  0.3171  0.2661  0.8490
  894MPD2    H513109   0.516   2.587   0.733  1.0064  0.2814  1.0449
  894MPD2    N113110   0.369   2.155   0.621 -0.1539  0.2687 -0.2019
  894MPD2    H713111   0.347   2.167   0.720  0.9145 -1.9780  0.3199
  895MPD2     C13112   4.277   0.475  13.334  0.3654 -0.5387  0.0973
  895MPD2    C113113   4.196   0.404  13.257 -0.6172  0.0058  1.0760
  895MPD2    C213114   4.202   0.265  13.263 -0.3409 -0.1887  0.5012
  895MPD2    C313115   4.262   0.202  13.372 -0.5971 -0.1589 -0.3489
  895MPD2    C413116   4.331   0.280  13.465 -0.6617 -0.4639 -0.1432
  895MPD2    C513117   4.348   0.416  13.437 -0.6807  0.2714 -0.3095
  895MPD2     H13118   4.162   0.206  13.182  0.2505 -1.9801  1.5137
  895MPD2    H113119   4.375   0.236  13.554  0.0580  0.3254 -0.1027
  895MPD2    H213120   4.277   0.583  13.339  1.9709 -0.4007 -2.9669
  895MPD2    H313121   4.390   0.482  13.512  1.0007 -1.0141 -0.1275
  895MPD2     N13122   4.259   0.062  13.392 -0.2526 -0.3518  0.8104
  895MPD2    H513123   4.272   0.023  13.485 -1.7860 -0.2576  1.0718
  895MPD2    N113124   4.112   0.466  13.161 -0.4060 -0.3040 -0.0130
  895MPD2    H713125   4.048   0.405  13.112  0.1353 -1.7327  1.0462
  896MPD2     C13126   2.139   2.518   1.736  0.5724 -0.4325  0.5511
  896MPD2    C113127   2.184   2.503   1.608 -0.1153  0.3459  0.1339
  896MPD2    C213128   2.088   2.482   1.503 -0.0287  0.1013 -0.1275
  896MPD2    C313129   1.952   2.487   1.528  0.6664  0.4149  0.2102
  896MPD2    C413130   1.910   2.497   1.660  0.1918 -0.4209  0.9802
  896MPD2    C513131   2.002   2.517   1.755 -0.2260  0.3649  0.1180
  896MPD2     H13132   2.128   2.472   1.403  0.5052  0.7066  0.0217
  896MPD2    H113133   1.804   2.501   1.680 -0.3236  1.9978 -2.3332
  896MPD2    H213134   2.205   2.540   1.820  0.5318 -0.9418  0.7151
  896MPD2    H313135   1.974   2.532   1.859 -0.4584 -0.8757  0.2323
  896MPD2     N13136   1.857   2.474   1.423  0.3366 -0.1898  0.1208
  896MPD2    H513137   1.905   2.458   1.335  1.1366 -0.7798  0.6643
  896MPD2    N113138   2.325   2.496   1.585 -0.1284  0.1370  0.8166
  896MPD2    H713139   2.384   2.512   1.667 -0.0059  0.7180  0.6114
  897MPD2     C13140   2.562   0.506   9.886 -0.2818 -0.6689  0.0633
  897MPD2    C113141   2.617   0.404   9.963 -0.6845  0.4086 -0.2652
  897MPD2    C213142   2.554   0.352  10.075 -0.1471  0.5803  0.5233
  897MPD2    C313143   2.440   0.410  10.123  0.0447  0.1448  0.1055
  897MPD2    C413144   2.376   0.501  10.051 -0.3532  0.8866  0.3241
  897MPD2    C513145   2.438   0.551   9.935 -0.3682  0.5729 -0.4176
  897MPD2     H13146   2.616   0.285  10.133  0.2582 -0.8096 -1.5125
  897MPD2    H113147   2.281   0.544  10.078 -0.6144  0.1219  0.6015
  897MPD2    H213148   2.614   0.547   9.800  0.4789  0.2755  0.9633
  897MPD2    H313149   2.398   0.641   9.889 -1.0197  0.4908 -0.0209
  897MPD2     N13150   2.406   0.380  10.255  0.5980  0.8923 -0.1823
  897MPD2    H513151   2.462   0.314  10.307  0.3434  1.6964  1.1087
  897MPD2    N113152   2.741   0.349   9.914  0.2944 -0.4536  0.5891
  897MPD2    H713153   2.781   0.406   9.840 -1.5375 -1.8698 -1.5142
  898MPD2     C13154   4.426   0.898  17.418 -0.6594 -0.4167  0.1528
  898MPD2    C113155   4.552   0.927  17.365  0.3847 -0.8647  0.0997
  898MPD2    C213156   4.566   1.005  17.256 -0.2882  0.0359  0.0003
  898MPD2    C313157   4.461   1.084  17.211 -0.1736 -0.7698 -0.2956
  898MPD2    C413158   4.337   1.053  17.267 -0.1761 -0.2994  0.4121
  898MPD2    C513159   4.316   0.960  17.365 -0.4202 -0.2981 -1.0068
  898MPD2     H13160   4.664   1.017  17.211  0.6491  1.0638  2.3128
  898MPD2    H113161   4.246   1.103  17.235 -0.0572 -1.1027 -1.1601
  898MPD2    H213162   4.418   0.823  17.495  0.3899 -1.2295 -0.5145
  898MPD2    H313163   4.221   0.919  17.397  1.5328 -2.9986  1.2942
  898MPD2     N13164   4.479   1.173  17.105  0.1660 -0.2654  0.5212
  898MPD2    H513165   4.570   1.185  17.061 -0.8642  0.5569 -1.3966
  898MPD2    N113166   4.669   0.865  17.417 -0.0256 -0.2264 -0.2054
  898MPD2    H713167   0.031   0.894  17.372 -0.0740 -2.4681 -1.7600
  899MPD2     C13168   1.003   1.481  17.341 -0.0208 -0.1780  0.5059
  899MPD2    C113169   0.886   1.551  17.331  0.4536 -1.0458 -0.3105
  899MPD2    C213170   0.776   1.510  17.409 -0.3157 -0.2735 -0.9943
  899MPD2    C313171   0.794   1.415  17.511  1.0853  0.3986  0.5528
  899MPD2    C413172   0.917   1.369  17.533  0.6809 -0.9990  0.2780
  899MPD2    C513173   1.022   1.403  17.449 -0.3188 -0.2814  0.2642
  899MPD2     H13174   0.680   1.557  17.399 -0.4185 -0.3208 -0.2120
  899MPD2    H113175   0.928   1.296  17.612 -1.4514  0.1542  1.6309
  899MPD2    H213176   1.092   1.505  17.285  0.1341 -1.3960  0.2203
  899MPD2    H313177   1.119   1.360  17.472  0.2922  0.2966 -1.1747
  899MPD2     N13178   0.688   1.377  17.599 -0.1850 -0.0792  0.0474
  899MPD2    H513179   0.700   1.300  17.664  0.4791  2.1366  2.5393
  899MPD2    N113180   0.877   1.660  17.239 -0.0547  0.4199 -0.0636
  899MPD2    H713181   0.962   1.674  17.185  1.6050 -3.0129  1.7016
  900MPD2     C13182   0.917   3.043  11.991  0.0035  0.2276 -0.4568
  900MPD2    C113183   0.783   3.045  12.011 -0.4907 -0.2157 -0.1389
  900MPD2    C213184   0.705   3.131  11.933 -0.2989 -0.4557  0.4297
  900MPD2    C313185   0.761   3.209  11.837 -0.9377 -0.8397  0.0005
  900MPD2    C413186   0.897   3.213  11.823  0.5971 -0.3526  0.4521
  900MPD2    C513187   0.971   3.129  11.900 -0.0371  0.2371 -0.0438
  900MPD2     H13188   0.597   3.134  11.942 -0.4102 -0.9009 -0.8033
  900MPD2    H113189   0.952   3.280  11.759 -0.7168 -0.3898 -0.7155
  900MPD2    H213190   0.981   2.978  12.050 -1.7446  0.9852  2.3199
  900MPD2    H313191   1.078   3.116  11.887  0.1201  0.1231  1.4181
  900MPD2     N13192   0.677   3.282  11.754 -0.3607 -0.0182  0.0090
  900MPD2    H513193   0.579   3.288  11.780 -1.0916  0.7710 -2.8874
  900MPD2    N113194   0.737   2.972  12.113  0.1692 -0.1422 -0.1325
  900MPD2    H713195   0.800   2.908  12.159 -0.0139  0.0591  0.4020
  901MPD2     C13196   0.206   2.091  12.328 -0.0068 -0.2393 -0.3064
  901MPD2    C113197   0.344   2.103  12.336  0.5607 -0.3920  0.2578
  901MPD2    C213198   0.402   2.233  12.351  0.1742  0.1151 -0.4211
  901MPD2    C313199   0.332   2.349  12.338  0.2053 -0.5704 -0.4552
  901MPD2    C413200   0.194   2.335  12.313 -0.0239 -0.1878  0.0961
  901MPD2    C513201   0.137   2.211  12.312 -0.1575  0.2534  0.0003
  901MPD2     H13202   0.511   2.238  12.348  0.1664 -0.9787 -2.1047
  901MPD2    H113203   0.133   2.423  12.296  0.8916  0.3987 -0.1341
  901MPD2    H213204   0.156   1.995  12.325  1.8641 -1.2427  0.6931
  901MPD2    H313205   0.029   2.209  12.302  0.0407  1.0458 -2.2239
  901MPD2     N13206   0.400   2.471  12.345 -0.4406  0.1719  0.1397
  901MPD2    H513207   0.491   2.468  12.389 -1.1890 -5.3235  1.3082
  901MPD2    N113208   0.411   1.981  12.342  0.2566 -0.5621  0.1194
  901MPD2    H713209   0.365   1.892  12.328 -0.9797  0.4203 -2.0306
  902MPD2     C13210   3.948   1.126  12.676 -0.0795 -0.0885  0.4070
  902MPD2    C113211   3.955   1.137  12.536  0.6010  0.3493 -0.3651
  902MPD2    C213212   4.002   1.036  12.456 -0.1710 -0.6516  0.5169
  902MPD2    C313213   4.052   0.925  12.520  0.0682  0.2209  0.0076
  902MPD2    C413214   4.048   0.908  12.654  0.6363  0.4457  0.2392
  902MPD2    C513215   3.994   1.007  12.730  0.3179 -0.3074  0.0086
  902MPD2     H13216   4.009   1.038  12.348  1.8018 -1.0517  0.6291
  902MPD2    H113217   4.101   0.837  12.715 -0.3214 -2.7191 -2.5824
  902MPD2    H213218   3.903   1.201  12.739  0.0748  0.4958 -0.1736
  902MPD2    H313219   3.998   1.004  12.838  0.3254 -1.3081 -0.0225
  902MPD2     N13220   4.114   0.837  12.432  0.1954  0.3322  0.1205
  902MPD2    H513221   4.098   0.858  12.334  0.6653  2.8770  0.5886
  902MPD2    N113222   3.908   1.262  12.485  0.7670  0.2208 -0.4616
  902MPD2    H713223   3.903   1.339  12.552  0.1469 -0.1774 -0.0455
  903MPD2     C13224   4.335   0.560  11.699 -0.0834  0.1889 -0.1538
  903MPD2    C113225   4.268   0.613  11.805 -0.3592 -0.0770 -0.5909
  903MPD2    C213226   4.138   0.662  11.784 -0.0625  0.5550  0.3893
  903MPD2    C313227   4.072   0.643  11.661 -0.4465 -0.2040  0.1760
  903MPD2    C413228   4.146   0.594  11.554 -0.3880 -0.2056 -0.6053
  903MPD2    C513229   4.278   0.561  11.574  0.7612  0.1492 -0.5118
  903MPD2     H13230   4.081   0.722  11.855 -2.8540 -0.3237 -1.0967
  903MPD2    H113231   4.102   0.573  11.457  2.1068  0.1773 -1.8142
  903MPD2    H213232   4.440   0.535  11.712  0.3163  1.9379 -0.0145
  903MPD2    H313233   4.329   0.535  11.482 -0.3078 -0.5000 -0.9186
  903MPD2     N13234   3.942   0.690  11.644  0.0128 -0.8542  0.1830
  903MPD2    H513235   3.912   0.754  11.717 -1.0079 -0.5526 -0.4943
  903MPD2    N113236   4.337   0.627  11.927  0.0031 -0.0294 -0.1856
  903MPD2    H713237   4.425   0.576  11.935 -1.2395 -2.1896 -0.2043
  904MPD2     C13238   3.734   0.124  13.608  0.2520 -0.5635  0.1438
  904MPD2    C113239   3.739   0.185  13.735 -0.1469 -0.4863 -0.6920
  904MPD2    C213240   3.851   0.198  13.808 -0.5765  0.5141  0.4823
  904MPD2    C313241   3.974   0.173  13.748 -0.1588  0.0991 -0.4764
  904MPD2    C413242   3.975   0.116  13.619 -0.2116 -0.2729 -0.3328
  904MPD2    C513243   3.857   0.095  13.552  0.5867  0.0520  0.4733
  904MPD2     H13244   3.846   0.237  13.909 -2.7227  1.5448 -0.0309
  904MPD2    H113245   4.067   0.099  13.565  0.1666 -1.3482  0.6406
  904MPD2    H213246   3.644   0.120  13.548  0.5106 -0.7600 -0.2320
  904MPD2    H313247   3.859   0.068  13.447 -3.7491 -0.9125  0.6224
  904MPD2     N13248   4.091   0.172  13.829  0.4889 -0.1565 -0.4009
  904MPD2    H513249   4.090   0.213  13.921  0.0581  0.3237 -0.6271
  904MPD2    N113250   3.607   0.213  13.787  0.0699  0.2868 -0.1151
  904MPD2    H713251   3.597   0.185  13.884  1.3329  0.3237  0.0246
  905MPD2     C13252   3.397   4.581  13.313 -0.6069  0.4920 -0.0710
  905MPD2    C113253   3.504   4.670  13.285 -0.2296 -0.4459 -0.0825
  905MPD2    C213254   3.627   4.619  13.242 -0.2062 -0.2078  0.1487
  905MPD2    C313255   3.648   4.484  13.235  0.2471 -0.0488  0.6991
  905MPD2    C413256   3.540   4.401  13.264  0.2411  0.3422 -0.0557
  905MPD2    C513257   3.417   4.444  13.303 -0.3529  0.4196 -0.1477
  905MPD2     H13258   3.709   4.687  13.223  0.4915 -1.5069 -1.5076
  905MPD2    H113259   3.547   4.293  13.263 -1.0602  0.2533  0.9633
  905MPD2    H213260   3.300   4.620  13.341 -0.3930 -0.0770  1.4979
  905MPD2    H313261   3.340   4.369  13.313  1.3914 -1.3763 -0.3272
  905MPD2     N13262   3.777   4.428  13.234 -0.1562 -0.3747 -0.1567
  905MPD2    H513263   3.787   4.328  13.246 -0.7047 -0.4534 -0.3637
  905MPD2    N113264   3.470   0.074  13.306  0.3028 -0.1566 -0.0323
  905MPD2    H713265   3.377   0.093  13.341 -1.6016 -2.0972 -3.9616
  906MPD2     C13266   1.198   0.236  11.395  0.2441 -0.6730 -0.1506
  906MPD2    C113267   1.254   0.125  11.335 -0.2286 -0.0363 -0.0126
  906MPD2    C213268   1.259   0.007  11.401  0.2170  0.3917  0.3343
  906MPD2    C313269   1.197   4.712  11.522  0.2383  0.3663  0.0868
  906MPD2    C413270   1.131   0.093  11.576 -0.2172  0.1143  0.3129
  906MPD2    C513271   1.131   0.219  11.516  0.0173 -0.3906  0.6337
  906MPD2     H13272   1.313   4.651  11.353 -1.9443 -2.2936  2.3824
  906MPD2    H113273   1.081   0.075  11.670 -0.8675 -0.0144 -0.0587
  906MPD2    H213274   1.179   0.325  11.337  3.6144 -0.6903 -1.2387
  906MPD2    H313275   1.070   0.297  11.559 -0.0298  0.5942 -1.2064
  906MPD2     N13276   1.182   4.584  11.581  0.1998  0.3297  0.1802
  906MPD2    H513277   1.129   4.576  11.667 -1.4039  0.7502 -0.7841
  906MPD2    N113278   1.306   0.127  11.202 -0.1599  0.0932 -0.3731
  906MPD2    H713279   1.350   0.040  11.173  2.0418  0.8147  0.7956
  907MPD2     C13280   0.137   3.985  15.049  0.4668 -0.7530 -0.1346
  907MPD2    C113281   0.196   3.865  15.072  0.3565 -0.1040 -0.5087
  907MPD2    C213282   0.195   3.817  15.199 -0.4354 -0.6851 -0.0196
  907MPD2    C313283   0.150   3.891  15.311  0.3640  0.6368  0.6595
  907MPD2    C413284   0.094   4.019  15.285  0.2875 -0.2735  0.4732
  907MPD2    C513285   0.087   4.059  15.152  0.2445  0.2497  0.8999
  907MPD2     H13286   0.233   3.720  15.227  0.8257 -0.2161 -0.1414
  907MPD2    H113287   0.049   4.085  15.358 -0.5346  1.3287 -1.4921
  907MPD2    H213288   0.124   4.015  14.946 -2.5502 -1.6540 -0.0323
  907MPD2    H313289   0.040   4.155  15.132 -2.7187 -0.5518  3.8264
  907MPD2     N13290   0.159   3.837  15.442 -0.0239  0.8037  0.3152
  907MPD2    H513291   0.195   3.743  15.454  2.4716  1.6180 -0.6999
  907MPD2    N113292   0.230   3.777  14.971  0.3435 -0.2594 -0.5883
  907MPD2    H713293   0.262   3.686  15.000  0.5845  0.4924  1.4488
  908MPD2     C13294   2.862   0.059   9.162 -0.5169 -0.4951 -0.2775
  908MPD2    C113295   2.799   0.018   9.279  0.2075 -0.8992  0.2077
  908MPD2    C213296   2.858   0.045   9.402  0.8648  0.3102  0.3477
  908MPD2    C313297   2.976   0.123   9.417 -0.0358  0.1416  0.2870
  908MPD2    C413298   3.041   0.160   9.293 -0.3251 -0.2163  0.1589
  908MPD2    C513299   2.980   0.131   9.175 -0.4594 -0.1870  0.2201
  908MPD2     H13300   2.801   0.028   9.493 -1.1505 -2.6394 -1.4310
  908MPD2    H113301   3.139   0.205   9.289  0.2699 -1.7000 -1.7147
  908MPD2    H213302   2.826   0.033   9.063 -0.1402  0.4940 -0.6744
  908MPD2    H313303   3.029   0.148   9.080  0.0935 -0.3198  0.4826
  908MPD2     N13304   3.018   0.166   9.550  0.5031  0.0036 -0.2152
  908MPD2    H513305   2.967   0.125   9.627 -0.7060 -0.1895 -1.1099
  908MPD2    N113306   2.672   4.667   9.274  0.6666  0.0917  0.3835
  908MPD2    H713307   2.624   4.662   9.185  2.4184 -1.7098 -0.4354
  909MPD2     C13308   3.259   2.626  11.818 -0.0568  0.3747 -0.3995
  909MPD2    C113309   3.204   2.720  11.726  0.2071 -0.8522  0.6213
  909MPD2    C213310   3.115   2.811  11.771 -0.6690 -0.7590 -0.0010
  909MPD2    C313311   3.067   2.809  11.904  1.1674  0.2918  1.2092
  909MPD2    C413312   3.121   2.713  11.993  0.2703  0.0073  0.6527
  909MPD2    C513313   3.204   2.617  11.948  0.5474  0.2124 -0.8643
  909MPD2     H13314   3.072   2.883  11.703  2.2203 -0.1420 -1.1710
  909MPD2    H113315   3.097   2.695  12.098  4.5362 -1.5738  1.3428
  909MPD2    H213316   3.345   2.566  11.792  0.1391  0.1074  0.8945
  909MPD2    H313317   3.239   2.539  12.014  1.7152  1.4106 -0.0728
  909MPD2     N13318   2.972   2.910  11.941  0.3869 -0.4210 -0.2779
  909MPD2    H513319   2.963   2.986  11.875  0.5506 -0.3658 -0.2363
  909MPD2    N113320   3.242   2.724  11.593  0.2118 -0.4177 -0.1375
  909MPD2    H713321   3.210   2.800  11.534 -0.3723  0.2206  1.0169
  910MPD2     C13322   4.267   4.533  15.631 -0.1952  0.0891 -0.0909
  910MPD2    C113323   4.270   4.412  15.567 -0.3002 -0.1609  0.0052
  910MPD2    C213324   4.239   4.407  15.433  0.7763  0.4688 -0.2790
  910MPD2    C313325   4.217   4.526  15.365 -0.3060  0.2982  0.6260
  910MPD2    C413326   4.221   4.642  15.436  0.3168 -0.2821 -0.0061
  910MPD2    C513327   4.235   4.644  15.571  0.0683 -0.6850 -0.0738
  910MPD2     H13328   4.239   4.309  15.386 -0.9531 -0.7361  2.2576
  910MPD2    H113329   4.189   0.012  15.394 -1.0371  0.1476  1.9716
  910MPD2    H213330   4.283   4.549  15.737  2.3720  0.9234 -0.5855
  910MPD2    H313331   4.232   0.013  15.625 -0.8200  0.0613 -1.4158
  910MPD2     N13332   4.177   4.538  15.233 -0.5711  0.0750  0.3415
  910MPD2    H513333   4.168   4.632  15.195 -1.5785 -0.3907 -0.5795
  910MPD2    N113334   4.312   4.294  15.628  0.0213  0.5770 -0.5905
  910MPD2    H713335   4.340   4.223  15.560  0.8840  0.1678  0.1968
  911MPD2     C13336   2.069   0.102  15.823 -0.2177  0.3839 -0.0281
  911MPD2    C113337   2.011   0.173  15.926 -0.5761  0.6602  0.3502
  911MPD2    C213338   1.909   0.260  15.887  0.2866  0.3231  0.6641
  911MPD2    C313339   1.870   0.271  15.755 -0.4614  0.0807  0.0321
  911MPD2    C413340   1.934   0.197  15.656 -0.0502 -0.1923  0.5509
  911MPD2    C513341   2.031   0.113  15.695  0.2441  0.7706  0.1956
  911MPD2     H13342   1.872   0.326  15.964 -0.6010  0.0017  0.5095
  911MPD2    H113343   1.906   0.199  15.552  0.5086 -0.2073  0.4042
  911MPD2    H213344   2.161   0.054  15.854 -0.1845 -0.2568 -1.1065
  911MPD2    H313345   2.086   0.065  15.615 -2.0940 -1.2132 -0.2173
  911MPD2     N13346   1.771   0.363  15.715 -0.3915  0.3879 -0.5268
  911MPD2    H513347   1.755   0.364  15.615 -0.1039 -0.8708 -0.5863
  911MPD2    N113348   2.070   0.160  16.051 -0.9884  0.0797 -0.3396
  911MPD2    H713349   2.153   0.102  16.052 -1.1970 -0.2032  0.6747
  912MPD2     C13350   1.616   0.033  15.438 -0.7833  0.1583  0.1692
  912MPD2    C113351   1.572   0.080  15.560  0.3812  0.2490 -0.0208
  912MPD2    C213352   1.595   0.006  15.674  0.0761 -0.4533  0.2413
  912MPD2    C313353   1.661   4.614  15.672 -0.0716 -0.3568  0.1455
  912MPD2    C413354   1.712   4.574  15.555 -0.0543 -0.1976  0.3423
  912MPD2    C513355   1.694   4.648  15.439 -0.7745 -0.3479 -0.0366
  912MPD2     H13356   1.549   0.037  15.767  0.3307 -1.1484  0.5948
  912MPD2    H113357   1.769   4.482  15.544  0.3255 -0.0910  1.4152
  912MPD2    H213358   1.590   0.080  15.344 -2.3219 -1.4523 -0.2046
  912MPD2    H313359   1.722   4.613  15.340 -0.7200  3.1921 -1.2853
  912MPD2     N13360   1.670   4.545  15.791 -0.1215  0.6115 -0.0056
  912MPD2    H513361   1.639   4.601  15.869  1.8258  1.6910  0.0155
  912MPD2    N113362   1.502   0.198  15.571  0.1881 -0.3415 -0.2943
  912MPD2    H713363   1.462   0.204  15.663  2.1632 -0.9126  0.6118
  913MPD2     C13364   2.520   1.672   9.927 -0.1266  0.3545  0.2668
  913MPD2    C113365   2.557   1.709  10.057 -0.1265 -0.2765  0.4925
  913MPD2    C213366   2.574   1.846  10.083  1.2322 -0.4441 -0.0940
  913MPD2    C313367   2.565   1.941   9.979  0.7472  0.4628  0.1794
  913MPD2    C413368   2.530   1.902   9.856 -0.1371 -0.1705  0.6785
  913MPD2    C513369   2.497   1.772   9.831  0.1952  0.4050  0.0260
  913MPD2     H13370   2.593   1.876  10.185 -1.3155  3.7341 -0.8420
  913MPD2    H113371   2.516   1.976   9.778  1.0942 -1.0148 -0.3471
  913MPD2    H213372   2.494   1.570   9.898 -1.1505  0.2232  1.6263
  913MPD2    H313373   2.479   1.734   9.731 -0.7553  1.0841 -0.0601
  913MPD2     N13374   2.579   2.082   9.985  0.4455  0.0969 -0.2100
  913MPD2    H513375   2.574   2.130   9.896  1.0093  1.4640  0.4993
  913MPD2    N113376   2.586   1.601  10.146  0.2587 -0.4197 -0.0785
  913MPD2    H713377   2.558   1.510  10.110  0.9039 -0.8876  0.6245
  914MPD2     C13378   1.054   1.853  11.834  0.3973  0.4511 -0.1334
  914MPD2    C113379   1.042   1.932  11.945  0.2570  0.3656  0.4113
  914MPD2    C213380   0.974   1.881  12.047  0.8344  0.1222 -0.1254
  914MPD2    C313381   0.894   1.768  12.032  0.4018 -0.1924 -0.2771
  914MPD2    C413382   0.914   1.689  11.924  0.7533 -0.4587  0.0085
  914MPD2    C513383   0.989   1.729  11.825  0.2491  0.0875  0.2824
  914MPD2     H13384   0.956   1.939  12.137  0.4020 -1.0200  0.5214
  914MPD2    H113385   0.875   1.588  11.919  0.3368 -0.4644  3.5388
  914MPD2    H213386   1.114   1.888  11.750 -0.3741  1.9681 -0.0514
  914MPD2    H313387   1.003   1.663  11.740  0.2784  1.0160 -0.4326
  914MPD2     N13388   0.805   1.734  12.133  0.3154  0.1750 -0.6262
  914MPD2    H513389   0.806   1.798  12.212 -0.5677 -1.2070  0.5253
  914MPD2    N113390   1.114   2.058  11.949  0.4429  0.5948  0.4813
  914MPD2    H713391   1.121   2.103  11.858  1.0221 -0.8294 -0.1772
  915MPD2     C13392   3.561   2.183  15.438  1.6148 -0.1020  0.3010
  915MPD2    C113393   3.438   2.130  15.436 -0.1317 -0.1431 -0.7013
  915MPD2    C213394   3.346   2.159  15.532  0.1487  0.7148  0.3188
  915MPD2    C313395   3.382   2.234  15.643 -0.3043  0.1740  0.5250
  915MPD2    C413396   3.512   2.286  15.651 -0.2006 -0.3890 -0.1546
  915MPD2    C513397   3.597   2.261  15.549 -0.1231 -0.6583 -0.1907
  915MPD2     H13398   3.242   2.127  15.529  0.7579 -1.0687 -1.5440
  915MPD2    H113399   3.552   2.339  15.737 -0.1452 -1.3648  0.4263
  915MPD2    H213400   3.635   2.149  15.367  0.4453  0.1457 -1.0474
  915MPD2    H313401   3.700   2.293  15.553 -0.3191 -0.3082  2.5603
  915MPD2     N13402   3.279   2.266  15.733  0.2278  1.2189  0.3501
  915MPD2    H513403   3.186   2.226  15.727  0.8839 -0.2705  0.1900
  915MPD2    N113404   3.412   2.034  15.334  0.1083 -1.0016  0.1068
  915MPD2    H713405   3.474   2.036  15.254  3.1597 -1.9820  2.4750
  916MPD2     C13406   1.092   0.403  15.449  0.0575 -0.1065  0.3156
  916MPD2    C113407   1.108   0.348  15.572 -0.0761 -0.4296 -0.0125
  916MPD2    C213408   1.146   0.216  15.587 -0.1166 -0.4384  0.0337
  916MPD2    C313409   1.153   0.132  15.468  0.2929 -0.5213 -0.3619
  916MPD2    C413410   1.119   0.186  15.338 -0.1170  0.3141 -0.2666
  916MPD2    C513411   1.098   0.322  15.338  0.0211  0.3714 -0.0921
  916MPD2     H13412   1.163   0.173  15.685 -0.9103  1.5497  1.0367
  916MPD2    H113413   1.122   0.132  15.244 -1.9538 -0.8763  0.3585
  916MPD2    H213414   1.079   0.510  15.443 -1.3896 -0.1490  2.5682
  916MPD2    H313415   1.080   0.363  15.240  2.4173 -0.3603 -0.8408
  916MPD2     N13416   1.207   0.006  15.487 -0.0671 -0.0725 -0.1699
  916MPD2    H513417   1.215   4.693  15.581  0.8788 -1.9054 -1.0023
  916MPD2    N113418   1.101   0.439  15.681  0.0160  0.0994  0.2326
  916MPD2    H713419   1.070   0.534  15.661  1.3938  0.1190 -1.7931
  917MPD2     C13420   1.840   2.115  10.996  1.1120 -0.3159 -0.8425
  917MPD2    C113421   1.881   2.178  11.113 -0.4560 -0.6049  0.2551
  917MPD2    C213422   1.992   2.259  11.109 -0.0060 -0.1791 -0.1381
  917MPD2    C313423   2.063   2.271  10.995  0.0984  0.2587  0.8828
  917MPD2    C413424   2.019   2.229  10.872  0.0900 -0.3818  0.4269
  917MPD2    C513425   1.897   2.151  10.874  0.1863 -0.5559  0.1294
  917MPD2     H13426   2.015   2.317  11.197  0.3915  1.2729 -1.1952
  917MPD2    H113427   2.068   2.262  10.782 -1.5699  0.1294 -0.2946
  917MPD2    H213428   1.759   2.042  11.000  0.3998  0.4353 -1.4463
  917MPD2    H313429   1.850   2.108  10.786 -0.2174  0.9170 -0.3827
  917MPD2     N13430   2.183   2.348  10.993  0.1171  0.6645  0.0796
  917MPD2    H513431   2.229   2.368  10.905 -0.8525  0.6977 -0.4107
  917MPD2    N113432   1.801   2.148  11.232 -0.2907  0.2036 -0.4746
  917MPD2    H713433   1.730   2.076  11.223 -0.7082  0.8069 -2.0377
  918MPD2     C13434   1.779   2.539  12.209 -0.3902 -0.0074  0.0425
  918MPD2    C113435   1.891   2.456  12.183  0.0767  0.0613  0.1557
  918MPD2    C213436   1.888   2.380  12.067  0.2797  0.0176  0.0180
  918MPD2    C313437   1.775   2.371  11.984  0.6208 -0.4449  0.0552
  918MPD2    C413438   1.666   2.455  12.022  0.7522 -0.3694  0.3086
  918MPD2    C513439   1.677   2.544  12.131 -0.1273  0.0834 -0.1439
  918MPD2     H13440   1.973   2.313  12.059 -0.9743 -1.4044 -1.3222
  918MPD2    H113441   1.573   2.461  11.966  0.8371 -1.7420  0.0383
  918MPD2    H213442   1.779   2.593  12.303  0.0617  0.9896 -0.5369
  918MPD2    H313443   1.586   2.596  12.160  0.0856  0.1953  0.3244
  918MPD2     N13444   1.778   2.289  11.867 -0.0232  0.1880 -0.1577
  918MPD2    H513445   1.865   2.244  11.841  0.0459 -0.5781  1.4000
  918MPD2    N113446   2.002   2.441  12.266  0.2265  0.0282  0.0091
  918MPD2    H713447   2.086   2.394  12.236  1.3642  0.6333  2.2564
  919MPD2     C13448   2.669   1.259  11.506  0.7154 -0.6377  0.4048
  919MPD2    C113449   2.609   1.159  11.434  0.2663 -0.2685  0.2688
  919MPD2    C213450   2.621   1.152  11.299  0.1102 -1.1806 -0.1080
  919MPD2    C313451   2.696   1.248  11.234 -0.1588  0.1168 -0.9045
  919MPD2    C413452   2.754   1.350  11.304  0.0522  0.1419 -0.0863
  919MPD2    C513453   2.741   1.351  11.436  0.0848 -0.2551  0.7797
  919MPD2     H13454   2.565   1.072  11.252 -0.8989  0.2420 -1.3106
  919MPD2    H113455   2.821   1.415  11.249 -0.7409  1.0297  0.0096
  919MPD2    H213456   2.671   1.264  11.614  0.5923  3.5225  0.2015
  919MPD2    H313457   2.802   1.419  11.496  0.6622  0.7619 -0.9610
  919MPD2     N13458   2.715   1.246  11.093  0.1885 -0.3232 -0.2833
  919MPD2    H513459   2.784   1.313  11.060 -1.1566  0.9376 -0.5289
  919MPD2    N113460   2.547   1.055  11.496  0.0525 -0.5277  0.5002
  919MPD2    H713461   2.532   0.978  11.431  1.5565 -0.8182  0.4864
  920MPD2     C13462   2.314   1.830  10.357 -0.2503 -0.3633  0.4385
  920MPD2    C113463   2.226   1.719  10.366 -0.2543 -0.0356 -0.3359
  920MPD2    C213464   2.270   1.605  10.436  0.0988 -0.5024  0.7458
  920MPD2    C313465   2.389   1.614  10.512  0.7101 -0.0175  0.1495
  920MPD2    C413466   2.474   1.728  10.502 -0.3078 -0.0401 -0.4912
  920MPD2    C513467   2.435   1.831  10.424  0.1669  0.4398 -0.2047
  920MPD2     H13468   2.199   1.525  10.453 -1.1834  0.5457  0.4141
  920MPD2    H113469   2.569   1.735  10.554 -1.0768 -0.1679  0.9393
  920MPD2    H213470   2.281   1.918  10.303  3.3617  1.3101  0.9858
  920MPD2    H313471   2.515   1.902  10.410  0.0725  0.4273 -0.8434
  920MPD2     N13472   2.419   1.500  10.586  0.6719 -0.1077  0.1899
  920MPD2    H513473   2.350   1.428  10.570  2.5286 -1.8515  0.0053
  920MPD2    N113474   2.092   1.713  10.310 -0.4206 -0.0049  0.0914
  920MPD2    H713475   2.047   1.622  10.316 -2.5477  1.0682  0.4117
  921MPD2     C13476   2.722   0.714  16.209 -0.0492 -0.3659 -0.5559
  921MPD2    C113477   2.770   0.602  16.281  1.0291 -0.1988 -0.4189
  921MPD2    C213478   2.683   0.533  16.366 -0.1299  0.5051  0.3307
  921MPD2    C313479   2.546   0.560  16.371 -0.2503  0.0254 -0.3525
  921MPD2    C413480   2.510   0.664  16.295  0.0259 -0.6137 -0.6716
  921MPD2    C513481   2.591   0.746  16.227  0.1767  0.3453 -0.3301
  921MPD2     H13482   2.725   0.449  16.420  1.2950  0.5611 -0.6957
  921MPD2    H113483   2.409   0.701  16.292  0.0147 -0.5777  0.3249
  921MPD2    H213484   2.791   0.770  16.147  0.5507 -0.6313 -0.1203
  921MPD2    H313485   2.547   0.831  16.176 -1.5765  0.5601  1.5755
  921MPD2     N13486   2.455   0.468  16.428  0.0432  0.2502  1.3679
  921MPD2    H513487   2.505   0.396  16.480 -0.2521  0.0503  1.3767
  921MPD2    N113488   2.907   0.575  16.277 -0.0101  0.2070  0.7046
  921MPD2    H713489   2.964   0.612  16.201  0.3305  0.0294  0.8752
  922MPD2     C13490   3.854   2.391  17.356 -0.0622 -0.2036 -0.1672
  922MPD2    C113491   3.830   2.495  17.269  0.2802 -0.1860 -0.3228
  922MPD2    C213492   3.738   2.472  17.167 -0.1127  0.1583 -0.5802
  922MPD2    C313493   3.681   2.349  17.153 -0.6010 -0.4045  0.0150
  922MPD2    C413494   3.710   2.243  17.239  0.7160  0.3071 -0.4904
  922MPD2    C513495   3.798   2.267  17.343 -0.1350  0.2052  0.4435
  922MPD2     H13496   3.704   2.550  17.100 -2.3393 -0.5346 -0.2627
  922MPD2    H113497   3.648   2.154  17.245 -0.3348  1.1379  0.8892
  922MPD2    H213498   3.929   2.400  17.433 -1.6540 -0.1600  1.3806
  922MPD2    H313499   3.815   2.186  17.413 -1.0767  0.5525  1.0742
  922MPD2     N13500   3.589   2.341  17.046  0.1452  0.3007  0.1650
  922MPD2    H513501   3.581   2.419  16.982 -1.3947 -1.5122 -1.8498
  922MPD2    N113502   3.889   2.621  17.298 -0.4253 -0.1297  0.0093
  922MPD2    H713503   3.966   2.624  17.363 -1.0985 -0.4181  0.8255
  923MPD2     C13504   0.537   4.610   8.989  0.0709  0.5321  0.0831
  923MPD2    C113505   0.558   4.639   9.122 -0.4457 -0.2703  0.0194
  923MPD2    C213506   0.686   4.651   9.172 -0.0275  0.0199 -0.4413
  923MPD2    C313507   0.794   4.643   9.077 -0.0922  0.1045 -0.1373
  923MPD2    C413508   0.769   4.611   8.944  0.3002 -0.1230  0.1165
  923MPD2    C513509   0.640   4.605   8.898  0.3233 -0.3473 -0.5783
  923MPD2     H13510   0.698   4.671   9.278 -3.2386 -3.6337  0.6223
  923MPD2    H113511   0.844   4.586   8.871  0.9994 -0.7912  1.0638
  923MPD2    H213512   0.437   4.591   8.951  0.4500 -1.9940  0.4098
  923MPD2    H313513   0.617   4.589   8.794  1.1734 -3.7544 -0.2465
  923MPD2     N13514   0.932   4.647   9.112 -0.0129 -0.0999 -0.1952
  923MPD2    H513515   0.999   4.614   9.042  0.5031 -3.1288  1.7124
  923MPD2    N113516   0.462   4.647   9.226  0.6260 -0.4813 -0.3459
  923MPD2    H713517   0.504   4.675   9.314  1.3617  0.0572 -0.8681
  924MPD2     C13518   0.524   3.129  15.603 -0.4842 -0.0007  0.5411
  924MPD2    C113519   0.418   3.158  15.691 -0.4926  0.2977 -0.1255
  924MPD2    C213520   0.402   3.294  15.733 -0.2662  0.1346  0.2406
  924MPD2    C313521   0.472   3.391  15.667  0.2361  0.2487  0.3151
  924MPD2    C413522   0.560   3.357  15.564 -0.5540 -0.4631 -0.3101
  924MPD2    C513523   0.590   3.227  15.538  0.1197  0.7815 -0.3965
  924MPD2     H13524   0.321   3.307  15.804 -0.2397 -0.1415  0.3190
  924MPD2    H113525   0.619   3.434  15.515  1.2266 -0.0099  2.5051
  924MPD2    H213526   0.540   3.029  15.563  1.8811  0.9968 -0.9311
  924MPD2    H313527   0.661   3.196  15.464  0.2632  0.2882 -0.0515
  924MPD2     N13528   0.435   3.530  15.687  0.0089  1.0440  0.0043
  924MPD2    H513529   0.462   3.604  15.623 -0.2876  0.5477 -0.6786
  924MPD2    N113530   0.334   3.054  15.736  0.2108 -0.7750  0.2790
  924MPD2    H713531   0.329   2.970  15.679 -0.2586 -0.0298 -0.7898
  925MPD2     C13532   3.879   1.298  14.673  0.1611  0.4188 -0.0976
  925MPD2    C113533   3.815   1.186  14.622  0.2430 -0.0038  0.2759
  925MPD2    C213534   3.729   1.119  14.710 -0.2801  0.5907  0.2199
  925MPD2    C313535   3.707   1.165  14.842  0.2558  0.1641  0.8537
  925MPD2    C413536   3.780   1.274  14.885  0.3588 -0.0484 -0.1218
  925MPD2    C513537   3.860   1.340  14.802 -0.3320  0.5737  0.2987
  925MPD2     H13538   3.667   1.042  14.665  2.2723 -0.2606 -1.8495
  925MPD2    H113539   3.767   1.311  14.987  1.8384  1.5618 -0.5188
  925MPD2    H213540   3.941   1.363  14.612 -0.4202 -0.6993 -1.8631
  925MPD2    H313541   3.910   1.429  14.837  0.5252  0.0918  0.2921
  925MPD2     N13542   3.619   1.098  14.929  0.2083  0.1179  0.1187
  925MPD2    H513543   3.612   1.142  15.020  0.3088 -2.5166  1.4150
  925MPD2    N113544   3.827   1.148  14.495  0.0414  0.0177  0.1126
  925MPD2    H713545   3.754   1.085  14.464 -0.7795  1.2005 -0.3218
  926MPD2     C13546   2.613   4.038  13.124 -0.1696 -0.6913 -0.1529
  926MPD2    C113547   2.677   4.154  13.174  0.1509  0.0523  0.3622
  926MPD2    C213548   2.741   4.234  13.089 -0.1850 -0.5870 -0.0223
  926MPD2    C313549   2.736   4.216  12.951 -0.8955 -0.3930 -0.3930
  926MPD2    C413550   2.685   4.100  12.902  0.6281 -0.0739  0.1901
  926MPD2    C513551   2.629   4.013  12.992  0.9364 -0.2055 -0.3284
  926MPD2     H13552   2.793   4.320  13.130 -1.4421 -0.1718  0.7183
  926MPD2    H113553   2.697   4.054  12.805  0.7183 -0.1664  0.2451
  926MPD2    H213554   2.545   3.976  13.182  0.8916  0.6427  2.5462
  926MPD2    H313555   2.603   3.918  12.948  1.0759  0.1527 -1.1949
  926MPD2     N13556   2.796   4.308  12.864  0.6672  0.4754  0.4913
  926MPD2    H513557   2.809   4.280  12.768 -2.3419 -0.0844  0.2402
  926MPD2    N113558   2.679   4.197  13.310 -0.2003 -0.5655  0.4143
  926MPD2    H713559   2.739   4.274  13.335  1.4728 -0.6593 -3.3638
  927MPD2     C13560   1.683   1.680  17.274  0.5303 -0.3461 -0.1844
  927MPD2    C113561   1.776   1.763  17.320  0.0841  0.7852  0.0823
  927MPD2    C213562   1.825   1.865  17.246  0.3890  0.8415 -0.1903
  927MPD2    C313563   1.794   1.879  17.113 -0.9675  0.5959 -0.2440
  927MPD2    C413564   1.690   1.799  17.059 -0.4464 -0.1921  0.2479
  927MPD2    C513565   1.635   1.703  17.144  0.0987  0.3613  0.1480
  927MPD2     H13566   1.899   1.930  17.293  1.9781  1.6558 -3.8208
  927MPD2    H113567   1.652   1.812  16.959  0.6429  2.9435  0.2378
  927MPD2    H213568   1.625   1.610  17.333  2.4194 -0.8573  1.0445
  927MPD2    H313569   1.549   1.648  17.109  1.0366 -3.0866  3.3421
  927MPD2     N13570   1.860   1.992  17.053  0.4482  0.4085  0.3561
  927MPD2    H513571   1.909   2.056  17.114  1.5103 -0.6519  0.6163
  927MPD2    N113572   1.820   1.735  17.454 -0.3069 -0.7373  0.4340
  927MPD2    H713573   1.795   1.645  17.493  1.2417 -1.9445 -1.4170
  928MPD2     C13574   4.709   4.695   0.886 -0.3614  0.7259 -0.2396
  928MPD2    C113575   4.644   0.008   0.773  0.0393  0.3503 -0.0254
  928MPD2    C213576   4.719   0.049   0.663  0.0656 -0.1801 -0.5816
  928MPD2    C313577   0.132   0.074   0.675 -0.7093 -0.2609 -0.0880
  928MPD2    C413578   0.194   0.051   0.797  0.2969 -0.1173  0.1920
  928MPD2    C513579   0.119   0.010   0.902 -0.0889 -0.7950 -0.1737
  928MPD2     H13580   4.669   0.071   0.570 -1.5992 -2.7815 -0.2986
  928MPD2    H113581   0.297   0.073   0.824  0.1998 -0.7983  1.1180
  928MPD2    H213582   4.659   4.661   0.977 -0.8210  1.0319 -0.3788
  928MPD2    H313583   0.169   4.722   0.997 -1.4410  0.4089  0.7139
  928MPD2     N13584   0.213   0.134   0.575 -0.1304  0.6664 -0.1109
  928MPD2    H513585   0.309   0.158   0.596  0.0706  0.5507 -0.8925
  928MPD2    N113586   4.499   4.721   0.779 -0.0926 -0.0425  0.3929
  928MPD2    H713587   4.463   4.682   0.865 -1.4385  0.4322  0.0363
  929MPD2     C13588   0.985   4.427  10.738 -0.0153  0.1638 -0.0932
  929MPD2    C113589   0.863   4.374  10.694 -0.2042 -0.0242  0.4561
  929MPD2    C213590   0.802   4.428  10.576 -0.4689 -0.6051 -0.2021
  929MPD2    C313591   0.870   4.532  10.509 -0.0231 -0.1726 -0.8615
  929MPD2    C413592   0.987   4.583  10.562 -0.1118  0.3830  0.2724
  929MPD2    C513593   1.041   4.534  10.679 -0.0433 -0.0543 -0.1130
  929MPD2     H13594   0.700   4.407  10.543  0.0879  0.4710 -2.5756
  929MPD2    H113595   1.037   4.669  10.520  1.3955 -0.8770 -0.5125
  929MPD2    H213596   1.038   4.396  10.827  0.8580 -3.0792 -1.7680
  929MPD2    H313597   1.130   4.573  10.726 -1.0416  2.3802 -0.2735
  929MPD2     N13598   0.819   4.605  10.397 -0.0276  0.4010 -0.0823
  929MPD2    H513599   0.870   4.690  10.371 -1.3421  0.8128 -1.3158
  929MPD2    N113600   0.806   4.268  10.767 -0.1383  0.0333 -0.5059
  929MPD2    H713601   0.845   4.243  10.858  1.9112  0.8125 -1.1798
  930MPD2     C13602   1.932   2.188  14.229 -0.0315  0.5403  0.6088
  930MPD2    C113603   1.974   2.272  14.124 -0.6206  0.9138 -0.1264
  930MPD2    C213604   1.952   2.235  13.995  0.4244  0.2900  0.3423
  930MPD2    C313605   1.876   2.127  13.963 -0.1769  0.5862 -0.4625
  930MPD2    C413606   1.830   2.041  14.061  0.9621  0.3843  0.4866
  930MPD2    C513607   1.848   2.079  14.194 -0.2612  0.6496  0.4018
  930MPD2     H13608   2.000   2.290  13.915 -1.6117  0.2947 -0.8875
  930MPD2    H113609   1.778   1.950  14.030 -0.9714  1.0277  1.8287
  930MPD2    H213610   1.953   2.218  14.331 -0.6212 -0.3168  0.9778
  930MPD2    H313611   1.800   2.009  14.261  0.4898  0.3662  0.6508
  930MPD2     N13612   1.862   2.088  13.830 -0.2615  0.8781 -0.0780
  930MPD2    H513613   1.928   2.130  13.765  0.8420 -1.8814 -0.7361
  930MPD2    N113614   2.061   2.378  14.164 -0.4742  0.3509  0.3825
  930MPD2    H713615   2.079   2.394  14.263  0.7930  0.7409  0.0909
  931MPD2     C13616   2.170   1.213  17.543 -0.8346 -0.1175 -0.3171
  931MPD2    C113617   2.117   1.248  17.665  0.1684  0.4052 -0.1732
  931MPD2    C213618   2.127   1.159   0.069 -0.4234  0.0722 -0.6704
  931MPD2    C313619   2.177   1.030   0.051  0.8581  0.0678 -0.0759
  931MPD2    C413620   2.232   0.997  17.633  0.4309  0.1471  0.4447
  931MPD2    C513621   2.230   1.086  17.528 -0.0044  0.2819  0.2001
  931MPD2     H13622   2.096   1.191   0.168 -0.4947  0.1766 -0.7257
  931MPD2    H113623   2.278   0.901  17.612 -2.6339 -0.9623 -1.2003
  931MPD2    H213624   2.173   1.278  17.457 -1.7399  1.0785  0.5636
  931MPD2    H313625   2.271   1.058  17.431 -0.1099  2.8853 -0.5856
  931MPD2     N13626   2.183   0.933   0.156 -0.4866 -0.6046 -0.4310
  931MPD2    H513627   2.246   0.853   0.147  2.2930  1.4477  0.6069
  931MPD2    N113628   2.077   1.386  17.677 -1.0952 -0.4970  0.0596
  931MPD2    H713629   2.074   1.443  17.593  2.8722  1.2023  1.0814
  932MPD2     C13630   0.006   0.824  11.659 -0.0598  0.2381  0.6970
  932MPD2    C113631   4.636   0.814  11.560  0.3824 -1.0552  0.0192
  932MPD2    C213632   4.615   0.700  11.495 -0.4494  0.1514  0.0936
  932MPD2    C313633   4.697   0.592  11.522 -0.2606  0.2881 -0.3811
  932MPD2    C413634   0.072   0.601  11.614 -0.1138 -0.5374  0.3009
  932MPD2    C513635   0.085   0.715  11.691  0.1344  0.1684  0.1777
  932MPD2     H13636   4.535   0.693  11.423 -0.6429 -0.8982  0.4019
  932MPD2    H113637   0.138   0.518  11.636  1.2523  0.9613  1.9420
  932MPD2    H213638   0.036   0.913  11.713 -1.0707  1.4383 -0.7066
  932MPD2    H313639   0.152   0.724  11.775 -1.3987 -1.2444  1.5544
  932MPD2     N13640   4.660   0.462  11.488 -0.2190  0.1541 -0.3567
  932MPD2    H513641   4.704   0.386  11.539  1.9590  0.9651 -1.0583
  932MPD2    N113642   4.566   0.927  11.519 -0.5257  0.0694 -1.1502
  932MPD2    H713643   4.492   0.917  11.450 -1.2097  2.2978 -0.7561
  933MPD2     C13644   3.773   0.463   0.980  0.2726  0.0112 -0.2427
  933MPD2    C113645   3.901   0.477   0.936 -0.1809  0.3532  0.1798
  933MPD2    C213646   3.956   0.603   0.906  0.0233  0.3779 -0.0376
  933MPD2    C313647   3.879   0.716   0.937  0.9304 -0.8424 -0.1663
  933MPD2    C413648   3.753   0.700   0.990 -0.4927 -0.5673 -0.1610
  933MPD2    C513649   3.704   0.574   1.014 -0.3784  0.0631 -0.2332
  933MPD2     H13650   4.053   0.616   0.860  0.3085  2.6388  1.2369
  933MPD2    H113651   3.699   0.789   1.020  1.7514  0.5779  0.5307
  933MPD2    H213652   3.720   0.369   0.978 -1.2476  0.8464  0.5032
  933MPD2    H313653   3.605   0.561   1.057 -0.1610 -0.7933  0.0032
  933MPD2     N13654   3.937   0.842   0.914 -0.0894 -0.3531 -0.6024
  933MPD2    H513655   4.035   0.840   0.886  0.9828  1.6165  2.9361
  933MPD2    N113656   3.978   0.363   0.912  0.1114  0.2461  0.5397
  933MPD2    H713657   3.939   0.273   0.940 -2.5364  0.6585 -1.7428
  934MPD2     C13658   1.599   2.449   1.936 -0.4433 -0.0619  0.1939
  934MPD2    C113659   1.662   2.344   1.870 -0.0123  0.7784  0.0559
  934MPD2    C213660   1.619   2.307   1.743  0.2115 -0.3504 -0.1770
  934MPD2    C313661   1.521   2.388   1.684  0.3088  0.3401 -0.3843
  934MPD2    C413662   1.469   2.501   1.743 -0.0398  0.4736 -0.1090
  934MPD2    C513663   1.509   2.525   1.869 -0.4179 -0.3725 -0.2181
  934MPD2     H13664   1.661   2.213   1.709 -3.9559 -1.0823 -3.3028
  934MPD2    H113665   1.384   2.551   1.698 -0.4561 -0.1536 -0.0113
  934MPD2    H213666   1.621   2.484   2.036 -2.0483 -3.1816  1.6310
  934MPD2    H313667   1.458   2.603   1.925 -0.4357  0.0043 -0.7620
  934MPD2     N13668   1.457   2.343   1.568 -0.1554 -0.1747  0.3236
  934MPD2    H513669   1.388   2.412   1.541 -0.8999 -0.9812  0.1750
  934MPD2    N113670   1.775   2.276   1.935 -0.0410  0.1574  0.2642
  934MPD2    H713671   1.820   2.198   1.888  1.5023 -0.7125  3.1372
  935MPD2     C13672   1.454   1.463   1.017 -0.5833  0.1682 -0.2825
  935MPD2    C113673   1.325   1.499   1.041 -0.4695 -0.1893 -0.4047
  935MPD2    C213674   1.308   1.629   1.084 -0.7349 -0.2606  0.4775
  935MPD2    C313675   1.415   1.717   1.100 -0.5011  0.1454 -0.5387
  935MPD2    C413676   1.548   1.681   1.070 -0.0191 -0.1106  0.4565
  935MPD2    C513677   1.558   1.549   1.040 -0.4601 -0.3750  0.1406
  935MPD2     H13678   1.207   1.659   1.112 -1.3693 -2.3015  0.3801
  935MPD2    H113679   1.632   1.750   1.068  2.0781 -2.6464  1.3293
  935MPD2    H213680   1.485   1.361   0.994 -1.9740 -0.0170 -1.2865
  935MPD2    H313681   1.657   1.514   1.014 -0.1907  1.1921 -0.9123
  935MPD2     N13682   1.398   1.845   1.157 -0.0649 -0.0452  0.3884
  935MPD2    H513683   1.478   1.904   1.177  0.0948 -0.1276 -0.0176
  935MPD2    N113684   1.219   1.409   1.023 -0.8775 -0.4318  0.4912
  935MPD2    H713685   1.125   1.445   1.030 -1.0975 -0.8660 -0.1965
  936MPD2     C13686   4.438   3.335  12.505  0.0800 -0.4489 -1.0463
  936MPD2    C113687   4.506   3.392  12.606 -0.4672  0.2310  0.7697
  936MPD2    C213688   4.614   3.471  12.577  0.1889  0.6368  0.1547
  936MPD2    C313689   4.636   3.511  12.445 -0.3313  0.4398 -0.1865
  936MPD2    C413690   4.557   3.458  12.344 -0.1179 -0.5637  0.2733
  936MPD2    C513691   4.462   3.366  12.374  0.0782 -0.3059 -0.4547
  936MPD2     H13692   4.666   3.495  12.669 -0.4792 -0.1517  0.7304
  936MPD2    H113693   4.569   3.493  12.242  1.0218 -0.4530  0.4506
  936MPD2    H213694   4.345   3.282  12.524 -1.2750  2.0443 -0.6806
  936MPD2    H313695   4.394   3.336  12.296 -0.6415 -0.3421  0.1870
  936MPD2     N13696   0.006   3.618  12.414  0.2362 -0.4511  0.1154
  936MPD2    H513697   0.007   3.668  12.326 -1.5080  1.2612  1.0714
  936MPD2    N113698   4.463   3.383  12.743  0.2189 -0.1055 -0.5118
  936MPD2    H713699   4.526   3.433  12.805 -0.6376  0.3065  0.0149
  937MPD2     C13700   2.606   0.375  11.374  0.2864  0.2538 -0.4998
  937MPD2    C113701   2.681   0.485  11.410 -0.3020 -0.0548  0.4549
  937MPD2    C213702   2.799   0.515  11.336 -0.1321  0.0995  0.1503
  937MPD2    C313703   2.845   0.431  11.240 -0.2980  0.4776  0.0760
  937MPD2    C413704   2.772   0.313  11.223 -0.0021  0.5740 -0.2241
  937MPD2    C513705   2.655   0.292  11.283  0.2955  0.1487 -0.0151
  937MPD2     H13706   2.851   0.607  11.356 -1.0465  0.8051 -0.7023
  937MPD2    H113707   2.800   0.248  11.140  2.3081 -0.5726  1.4346
  937MPD2    H213708   2.507   0.348  11.409 -0.5649  1.9970 -1.5489
  937MPD2    H313709   2.602   0.203  11.250  1.1897  0.4231 -2.1952
  937MPD2     N13710   2.963   0.461  11.170 -0.3947 -0.3720  0.4422
  937MPD2    H513711   3.018   0.527  11.223  0.4720 -0.3488 -0.4855
  937MPD2    N113712   2.623   0.581  11.497  0.3578 -0.3891 -0.0637
  937MPD2    H713713   2.675   0.667  11.485  0.1213 -0.3822 -1.0739
  938MPD2     C13714   0.856   1.356   1.210  0.8928 -0.1957  0.0747
  938MPD2    C113715   0.740   1.424   1.177 -0.1817 -0.2963  0.0586
  938MPD2    C213716   0.621   1.380   1.224 -0.3732 -0.0091 -0.1521
  938MPD2    C313717   0.613   1.264   1.305  0.1192 -0.7177 -0.5149
  938MPD2    C413718   0.728   1.198   1.341  0.9237 -0.6144 -0.4355
  938MPD2    C513719   0.847   1.240   1.288  0.1477 -0.7381  0.1488
  938MPD2     H13720   0.529   1.429   1.195  0.3341  0.6923 -1.2081
  938MPD2    H113721   0.719   1.113   1.409  3.3063 -0.3894  0.1644
  938MPD2    H213722   0.956   1.380   1.174  0.6385 -2.4890 -2.1591
  938MPD2    H313723   0.941   1.188   1.300 -0.4859 -1.4728  1.9494
  938MPD2     N13724   0.493   1.219   1.360  0.1233 -0.2067  0.2207
  938MPD2    H513725   0.503   1.132   1.410  1.5659  1.1886  2.3599
  938MPD2    N113726   0.745   1.554   1.116  0.0604 -0.2604  0.4951
  938MPD2    H713727   0.665   1.614   1.133  0.0021  0.3830 -2.1122
  939MPD2     C13728   1.734   2.868   1.224 -0.3128  0.2612 -0.2304
  939MPD2    C113729   1.639   2.912   1.130 -0.3077  0.1027  0.3561
  939MPD2    C213730   1.654   2.880   0.995 -0.2708  0.5617 -0.0658
  939MPD2    C313731   1.755   2.805   0.950  0.1141  0.0949 -0.3449
  939MPD2    C413732   1.851   2.765   1.047  1.1020  0.1505  0.0410
  939MPD2    C513733   1.841   2.799   1.178 -0.1111 -0.0613  0.1344
  939MPD2     H13734   1.584   2.920   0.923  0.7835  2.5919  0.0333
  939MPD2    H113735   1.928   2.694   1.019  0.0447 -1.4071  1.0458
  939MPD2    H213736   1.724   2.882   1.331  0.6646 -0.5668 -0.0277
  939MPD2    H313737   1.922   2.768   1.242  1.1997  0.1630 -1.4042
  939MPD2     N13738   1.760   2.782   0.814  0.0790  0.2511  0.2217
  939MPD2    H513739   1.680   2.810   0.756  0.7816 -1.7933 -1.7431
  939MPD2    N113740   1.533   2.985   1.182 -0.3461  0.7994  0.2100
  939MPD2    H713741   1.521   2.999   1.282  2.1344  3.6030  0.1220
  940MPD2     C13742   0.476   3.788  12.892  0.1798 -0.6676 -0.4316
  940MPD2    C113743   0.587   3.729  12.938 -0.3724  0.2888  0.3461
  940MPD2    C213744   0.660   3.654  12.845  0.7652  0.4360 -0.2940
  940MPD2    C313745   0.621   3.626  12.719  0.1383 -0.1552  0.8523
  940MPD2    C413746   0.500   3.677  12.682  1.1009  0.1895 -0.5899
  940MPD2    C513747   0.439   3.762  12.766 -0.0015  0.1409  0.1211
  940MPD2     H13748   0.753   3.610  12.877  0.4954  0.3185  0.3245
  940MPD2    H113749   0.445   3.650  12.593 -0.4484  1.5414 -0.0468
  940MPD2    H213750   0.409   3.850  12.951  0.3932 -0.0433 -0.8516
  940MPD2    H313751   0.341   3.799  12.739  1.3105  2.1988 -1.8527
  940MPD2     N13752   0.693   3.561  12.616  0.4815  0.0211 -0.5123
  940MPD2    H513753   0.657   3.558  12.521  1.5762 -0.6535 -0.9146
  940MPD2    N113754   0.642   3.750  13.067 -0.6376 -0.0320 -0.4367
  940MPD2    H713755   0.734   3.713  13.092  0.1497 -0.3313 -3.6865
  941MPD2     C13756   0.100   3.360   9.350 -0.8245  0.2538 -0.0036
  941MPD2    C113757   0.133   3.265   9.443 -0.7728  0.7506 -0.5109
  941MPD2    C213758   0.055   3.152   9.455  0.1400 -0.5002 -0.1464
  941MPD2    C313759   4.659   3.139   9.397  0.0112 -0.4944 -0.0056
  941MPD2    C413760   4.621   3.239   9.313  0.0240  0.2099  0.1692
  941MPD2    C513761   4.709   3.342   9.281 -0.4935  0.3223 -0.1012
  941MPD2     H13762   0.083   3.080   9.532  0.7261  0.5047  0.5793
  941MPD2    H113763   4.527   3.231   9.260 -0.3369 -1.1132  0.9893
  941MPD2    H213764   0.142   3.459   9.342  0.9807 -0.5737 -1.0281
  941MPD2    H313765   4.669   3.421   9.220 -1.5102  0.9376  1.3483
  941MPD2     N13766   4.575   3.028   9.414 -0.4421  0.1134 -0.7324
  941MPD2    H513767   4.483   3.033   9.371 -0.3402 -0.0099 -0.9691
  941MPD2    N113768   0.252   3.272   9.521 -0.3767 -0.1720  0.3322
  941MPD2    H713769   0.264   3.203   9.595  1.0139 -0.1394  0.1431
  942MPD2     C13770   0.225   3.202   8.628  0.0914  0.5673 -0.4502
  942MPD2    C113771   0.220   3.342   8.623 -0.5738  0.0015  0.7691
  942MPD2    C213772   0.299   3.416   8.708 -0.2706 -0.2430 -0.4295
  942MPD2    C313773   0.385   3.352   8.794 -0.0036  0.3056 -0.3241
  942MPD2    C413774   0.376   3.219   8.806 -0.1335 -0.7752  0.5701
  942MPD2    C513775   0.293   3.140   8.720 -0.2256  0.2781 -0.2876
  942MPD2     H13776   0.297   3.525   8.704  1.0903 -0.2467 -1.2406
  942MPD2    H113777   0.428   3.161   8.882 -1.0279 -0.3687  1.4984
  942MPD2    H213778   0.167   3.140   8.560 -1.0760  0.4530  0.6652
  942MPD2    H313779   0.285   3.032   8.729  1.2825  0.1600 -0.4294
  942MPD2     N13780   0.471   3.422   8.879 -0.3886  0.0121 -0.2195
  942MPD2    H513781   0.536   3.360   8.926  0.0950  2.1955  1.9989
  942MPD2    N113782   0.140   3.406   8.523  0.0320  0.9393  0.1974
  942MPD2    H713783   0.141   3.508   8.525  0.3076  0.9568 -0.8968
  943MPD2     C13784   3.404   3.655  10.208  0.4506 -0.1935  0.4818
  943MPD2    C113785   3.278   3.594  10.224 -0.3777 -0.7799 -0.3778
  943MPD2    C213786   3.174   3.633  10.142 -0.0324 -1.0340 -0.1319
  943MPD2    C313787   3.178   3.750  10.057 -0.3374 -0.0794  0.4987
  943MPD2    C413788   3.296   3.817  10.066 -0.2669  0.5321 -0.1783
  943MPD2    C513789   3.406   3.770  10.136  0.8074 -0.3953  0.3544
  943MPD2     H13790   3.074   3.594  10.151 -0.2024 -0.6141 -0.1929
  943MPD2    H113791   3.310   3.902  10.001 -0.5623  0.5752 -0.1862
  943MPD2    H213792   3.494   3.628  10.261  1.7353 -1.3789 -2.3058
  943MPD2    H313793   3.498   3.827  10.129  0.3646  0.5702  2.6394
  943MPD2     N13794   3.073   3.801   9.974 -0.1176  0.1690 -0.0923
  943MPD2    H513795   3.075   3.899   9.948 -0.4947 -0.3649 -2.1155
  943MPD2    N113796   3.273   3.475  10.306  0.3972 -0.3146 -0.0392
  943MPD2    H713797   3.359   3.455  10.356  0.5920 -1.9491 -1.0347
  944MPD2     C13798   3.106   2.332  11.052  0.1230 -0.2465 -0.1485
  944MPD2    C113799   3.119   2.471  11.035 -0.1954  0.8296  0.4823
  944MPD2    C213800   3.082   2.547  11.146 -0.2402  0.6118 -0.4185
  944MPD2    C313801   3.036   2.495  11.265  0.2616  0.0305  0.4504
  944MPD2    C413802   3.033   2.358  11.274 -1.1764 -0.0101  0.0665
  944MPD2    C513803   3.066   2.279  11.171  0.2627  0.3120  0.4198
  944MPD2     H13804   3.078   2.655  11.137 -0.3797  0.6754  0.4501
  944MPD2    H113805   2.994   2.300  11.357  0.0630 -0.8859  0.0376
  944MPD2    H213806   3.120   2.266  10.967  1.6572  0.4899 -0.4643
  944MPD2    H313807   3.047   2.173  11.178  2.0984 -0.0540 -0.0620
  944MPD2     N13808   2.993   2.580  11.372  0.5611 -0.3205  0.1284
  944MPD2    H513809   2.971   2.677  11.354  0.0692 -0.5285 -0.3821
  944MPD2    N113810   3.159   2.518  10.909 -0.9544 -0.2317  0.2096
  944MPD2    H713811   3.187   2.448  10.841 -1.2082 -1.4973  1.4014
    1TCq1    O113812   1.219   2.581  14.251 -0.2800  0.2695  0.2178
    1TCq1    C113813   1.090   2.553  14.257  1.3073 -0.5312 -0.3986
    1TCq1    O213814   1.010   2.603  14.179 -0.2889 -0.3523 -0.2793
    1TCq1    C213815   1.073   2.572  14.399 -1.2917  0.2214 -0.2244
    1TCq1    C313816   1.069   2.462  14.475 -0.3095  0.2748 -0.0679
    1TCq1    C413817   1.097   2.469  14.609  0.2360  0.3210  0.0204
    1TCq1    C513818   1.124   2.589  14.665  0.2964 -0.3175 -0.7630
    1TCq1    C613819   1.137   2.702  14.582  0.9110 -0.2744 -0.0613
    1TCq1    C713820   1.111   2.692  14.445 -0.2203 -0.1293  0.1226
    1TCq1    C813821   1.148   2.836  14.639  0.4390  0.5218 -1.1973
    1TCq1    O413822   1.187   2.839  14.754  0.0393  0.3944 -0.2024
    1TCq1    C913823   1.098   2.345  14.682  0.0273 -0.4180 -0.2837
    1TCq1    O513824   1.145   2.347  14.800 -0.4960 -0.4283  0.5547
    1TCq1    O613825   1.093   2.242  14.606 -0.7803  0.2277  0.5467
    1TCq1    H113826   1.267   2.534  14.323 -0.6671 -1.2011 -0.4778
    1TCq1    H213827   1.048   2.366  14.431 -1.6447 -0.7832  2.9030
    1TCq1    H313828   1.139   2.593  14.772  1.0378 -3.5381 -0.7272
    1TCq1    H413829   1.122   2.772  14.374 -0.0188 -2.0768 -2.0338
    2MPD2     C13830   1.178   3.352  14.647 -0.4817 -0.6414  0.3164
    2MPD2    C113831   1.181   3.310  14.514 -0.1747  0.4388 -1.0006
    2MPD2    C213832   1.180   3.174  14.479  0.0919  0.0037 -0.2046
    2MPD2    C313833   1.165   3.081  14.583 -0.8766 -0.5222  0.2934
    2MPD2    C413834   1.161   3.123  14.714  0.2267 -0.3894 -0.1154
    2MPD2    C513835   1.170   3.257  14.744 -0.1776 -0.7909 -0.4044
    2MPD2     H13836   1.175   3.141  14.376  2.2902 -2.2623  0.4026
    2MPD2    H113837   1.148   3.057  14.799  2.3795 -1.4677 -0.6152
    2MPD2    H213838   1.151   3.455  14.665  1.4897  0.4478 -2.9941
    2MPD2    H313839   1.156   3.289  14.847  0.2500 -0.1271 -0.5556
    2MPD2     N13840   1.146   2.943  14.552 -0.6297 -0.3375 -0.2338
    2MPD2    H513841   1.130   2.918  14.455 -0.6830  2.3295 -0.9165
    2MPD2    N113842   1.162   3.410  14.416  0.1162  0.2047 -0.5304
    2MPD2    H713843   1.133   3.505  14.438 -0.8949  0.0781 -1.2924
    3TMC2    C113844   1.188   3.510  14.204 -0.4078 -0.0590  0.2559
    3TMC2    C213845   1.221   3.623  14.264 -0.2999 -0.3256  0.2329
    3TMC2    C313846   1.254   3.732  14.196 -0.2152 -0.6237  0.0960
    3TMC2    C413847   1.196   3.490  14.071  0.1661 -0.3242  0.3740
    3TMC2    C513848   1.227   3.601  13.996  0.3470 -0.2746 -0.0906
    3TMC2    C613849   1.257   3.720  14.058  0.8133  0.2585 -1.1544
    3TMC2     C13850   1.209   3.388  14.282  0.3934  0.1139  0.7026
    3TMC2     O13851   1.250   3.290  14.227  0.0605  0.2407  0.1133
    3TMC2     H13852   1.211   3.642  14.370  2.4625  1.1996  0.2208
    3TMC2    H113853   1.162   3.394  14.034 -0.2160 -0.3265  0.7353
    3TMC2    H213854   1.269   3.812  14.003 -0.6352  1.8324  1.1937
    3TMC2    C713855   1.193   3.604  13.854 -0.4877 -0.5262 -0.1450
    3TMC2    C813856   1.329   3.830  14.262  0.3919 -0.3162  0.9343
    3TMC2    O113857   1.131   3.509  13.814 -0.1009  0.3675 -0.1432
    3TMC2    O213858   1.287   3.945  14.250  0.0706 -0.0004  0.1540
    3TMC2    O513859   1.381   3.773  14.374 -0.0765  0.3369  1.2276
    3TMC2    H513860   1.421   3.687  14.352 -0.4367 -0.0780  2.1995
    4MPD2     C13861   0.828   4.596  13.108  1.3114 -0.3747 -0.3790
    4MPD2    C113862   0.848   4.458  13.089  0.7510 -0.3524 -0.4884
    4MPD2    C213863   0.964   4.393  13.136 -0.3214 -0.9724 -0.1769
    4MPD2    C313864   1.063   4.470  13.195 -0.1965 -0.7610 -0.2323
    4MPD2    C413865   1.040   4.604  13.212  0.6861 -0.1917 -0.0815
    4MPD2    C513866   0.928   4.670  13.170 -0.5725  0.3958 -0.1469
    4MPD2     H13867   0.980   4.289  13.111 -1.6640 -1.4540  0.9951
    4MPD2    H113868   1.114   4.673  13.252  1.3708  1.1659 -3.6827
    4MPD2    H213869   0.735   4.649  13.089 -0.0124 -1.9578  1.5779
    4MPD2    H313870   0.919   0.053  13.179  0.3252  0.6288 -2.1143
    4MPD2     N13871   1.180   4.406  13.235 -0.1259 -0.1994 -0.2636
    4MPD2    H513872   1.184   4.304  13.240  2.1239 -0.0151  1.6054
    4MPD2    N113873   0.749   4.390  13.020  0.4867  0.0225  0.1193
    4MPD2    H713874   0.683   4.444  12.965 -0.0916  1.4137  2.1876
    5TCq2    C113875   1.295   4.478  13.262  1.3341 -0.9110  0.1319
    5TCq2    O213876   1.316   4.598  13.248  1.0295 -0.5277 -0.0618
    5TCq2    C213877   1.402   4.400  13.324 -0.3257 -0.0329 -0.9121
    5TCq2    C313878   1.525   4.464  13.333  0.4322  0.2188  1.0690
    5TCq2    C413879   1.626   4.387  13.390  0.6239 -0.6163  0.4909
    5TCq2    C513880   1.610   4.258  13.424  0.5773 -0.0703 -0.1519
    5TCq2    C613881   1.488   4.199  13.404  0.3595 -0.0708 -0.4479
    5TCq2    C713882   1.380   4.272  13.361 -0.1937  0.8517  1.0035
    5TCq2    C813883   1.459   4.081  13.475 -0.1672 -0.1853 -0.1645
    5TCq2    O413884   1.524   4.050  13.574  0.5794 -0.1618  0.2615
    5TCq2    C913885   1.752   4.442  13.402  0.2545  0.5255 -0.6635
    5TCq2    O513886   1.843   4.375  13.456 -0.0498 -0.3516 -0.1775
    5TCq2    O613887   1.770   4.554  13.352  0.1682  0.4764  0.3685
    5TCq2    H213888   1.541   4.569  13.310 -0.2940 -0.0590 -0.7267
    5TCq2    H313889   1.693   4.198  13.459 -0.6101 -1.0308  1.0528
    5TCq2    H413890   1.278   4.234  13.366  0.1435 -0.2069 -0.1112
    6MPD1     C13891   4.566   0.986  12.352  0.6105  0.5006  0.1605
    6MPD1    C113892   4.488   0.934  12.449  0.1761  0.7080  0.4122
    6MPD1    C213893   4.511   0.804  12.483  0.5139  0.1983  0.1478
    6MPD1    C313894   4.589   0.717  12.400 -0.0365 -0.1036 -0.9515
    6MPD1    C413895   4.662   0.775  12.300  0.4817  0.2970  0.0180
    6MPD1    C513896   4.648   0.906  12.274  1.0348  0.0205  0.6498
    6MPD1     H13897   4.465   0.763  12.573  3.2258  0.2568  1.5534
    6MPD1    H113898   0.014   0.713  12.255 -0.8256  1.3773 -3.6808
    6MPD1    H213899   4.567   1.092  12.331 -1.7025  0.4341 -0.2095
    6MPD1    H313900   4.719   0.941  12.200 -0.6106 -2.2692 -2.0001
    6MPD1     N13901   4.619   0.587  12.425 -0.0203  0.2157  0.5747
    6MPD1    H513902   4.671   0.534  12.356 -0.3768  1.0480 -0.3421
    6MPD1    N113903   4.427   1.020  12.539 -0.1696  0.4169 -0.2161
    6MPD1    H613904   4.338   0.982  12.573 -1.2244  2.7607 -0.3697
    6MPD1    H713905   4.400   1.101  12.482  0.4419 -0.0245 -1.1364
    7MPD2     C13906   4.680   4.617  12.998  0.0106 -0.1243 -1.1928
    7MPD2    C113907   4.710   4.595  12.865  0.3789  0.0480  0.0660
    7MPD2    C213908   0.067   4.483  12.837  0.3135 -0.1896 -0.7930
    7MPD2    C313909   0.120   4.394  12.928  0.0560  0.3353  0.1240
    7MPD2    C413910   0.091   4.427  13.061 -0.6115 -0.0853 -0.1169
    7MPD2    C513911   0.009   4.536  13.094  0.2704 -0.2249  0.0710
    7MPD2     H13912   0.089   4.459  12.734  0.7252 -2.0408 -0.2620
    7MPD2    H113913   0.120   4.354  13.136  0.8109 -0.9221 -1.4709
    7MPD2    H213914   4.623   4.702  13.033 -2.4926 -2.4365  0.3361
    7MPD2    H313915   4.712   4.545  13.200  0.7968  0.9953  0.0873
    7MPD2     N13916   0.213   4.297  12.883 -0.4854 -0.1485  0.5900
    7MPD2    H513917   0.241   4.295  12.786  1.5794  0.3278  1.1679
    7MPD2    N113918   4.677   4.685  12.760 -0.1898  0.2200  0.5607
    7MPD2    H713919   4.709   4.660  12.667 -1.1172 -0.1164  0.3288
    8TMC3    C113920   0.405   4.157  12.893 -0.6439 -0.1731  0.1795
    8TMC3    C213921   0.521   4.159  12.968 -1.1898 -0.2524 -0.8854
    8TMC3    C313922   0.626   4.221  12.916 -0.3754  0.1565  0.0707
    8TMC3    C413923   0.401   4.197  12.766 -0.0035 -1.2352 -0.2750
    8TMC3    C513924   0.505   4.273  12.726 -0.0464  0.6525  0.1541
    8TMC3    C613925   0.625   4.280  12.795  0.2608  0.6215  0.7532
    8TMC3     C13926   0.292   4.218  12.968 -0.0578  0.4988  0.0138
    8TMC3     O13927   0.294   4.212  13.090 -0.0696 -0.4548 -0.0472
    8TMC3     H13928   0.535   4.124  13.070  1.2515  1.7087 -0.5576
    8TMC3    H113929   0.312   4.189  12.705  0.1510  0.6850 -0.7438
    8TMC3    H213930   0.713   4.338  12.769 -1.8074  3.3831 -0.0969
    8TMC3    C713931   0.461   4.372  12.628 -0.7891 -0.7527 -0.5781
    8TMC3    C813932   0.730   4.250  13.015 -0.1537  0.1903  0.2309
    8TMC3    O113933   0.342   4.380  12.601  0.6326 -0.7784 -0.2714
    8TMC3    O213934   0.769   4.168  13.100  0.0005 -0.0174  0.9065
    9TMC3    C113935   4.647   0.385  12.551  0.6467 -0.0769  0.4311
    9TMC3    C213936   0.039   0.369  12.483 -0.0350  0.3087  0.5549
    9TMC3    C313937   0.107   0.261  12.526  0.4527 -0.4010 -0.0315
    9TMC3    C413938   4.590   0.292  12.638  0.0205  0.5758 -0.0318
    9TMC3    C513939   4.661   0.177  12.667  0.3270  0.2458  0.1516
    9TMC3    C613940   0.065   0.165  12.619 -0.5667  1.4022 -0.1793
    9TMC3     C13941   4.577   0.512  12.535 -0.3460 -0.2727  0.0648
    9TMC3     O13942   4.514   0.555  12.631  0.1053  0.3177 -0.2921
    9TMC3     H13943   0.090   0.449  12.431 -2.4211  0.5583 -1.4113
    9TMC3    H113944   4.490   0.312  12.674 -0.6512  0.3256 -1.7735
    9TMC3    H213945   0.118   0.077  12.653 -1.5145  1.1840  0.7304
    9TMC3    C713946   4.628   0.086  12.772 -0.5418  0.4614 -0.2896
    9TMC3    C813947   0.231   0.237  12.459  1.4171 -0.1907 -0.2414
    9TMC3    O113948   4.566   0.139  12.868 -0.4665 -0.7423 -0.1968
    9TMC3    O213949   0.297   0.331  12.422 -0.3247  0.1268 -0.3845
   10MPD2     C13950   0.646   4.657  12.495  0.0826  1.1858  0.3998
   10MPD2    C113951   0.539   4.589  12.539 -0.6036 -0.0410  0.1644
   10MPD2    C213952   0.416   4.650  12.523  0.6192  0.1572 -0.2512
   10MPD2    C313953   0.401   0.058  12.482  0.7213 -0.5030 -0.3507
   10MPD2    C413954   0.510   0.127  12.442 -0.8125  0.4836 -0.7840
   10MPD2    C513955   0.629   0.059  12.448 -0.2727  0.3560 -0.5759
   10MPD2     H13956   0.338   4.600  12.579  0.5972  0.9557  0.4421
   10MPD2    H113957   0.518   0.228  12.405  0.4091 -0.2495 -2.4960
   10MPD2    H213958   0.745   4.615  12.508 -0.1129  0.1118 -1.6300
   10MPD2    H313959   0.726   0.103  12.426 -0.1592  0.5527  0.2881
   10MPD2     N13960   0.264   0.104  12.470 -0.0588  0.7797 -0.0997
   10MPD2    H513961   0.191   0.035  12.485  1.7541 -1.2427 -0.5423
   10MPD2    N113962   0.563   4.458  12.585  0.0805  0.1986 -0.3215
   10MPD2    H713963   0.660   4.433  12.599 -0.0280  0.1877  0.4617
   11MPD2     C13964   1.118   3.713  13.591 -1.2574  0.2266 -0.7481
   11MPD2    C113965   1.226   3.759  13.665 -0.4587  0.6902 -0.1016
   11MPD2    C213966   1.306   3.858  13.607 -0.7559 -0.1977  0.5682
   11MPD2    C313967   1.277   3.917  13.484  0.5313 -0.2361 -0.6197
   11MPD2    C413968   1.167   3.876  13.419 -0.2667  0.4015 -0.1499
   11MPD2    C513969   1.088   3.777  13.470  0.9321 -0.4249  0.5975
   11MPD2     H13970   1.392   3.893  13.663  0.1560 -1.4665 -0.0391
   11MPD2    H113971   1.145   3.932  13.329 -0.1263  1.4312  0.4532
   11MPD2    H213972   1.054   3.634  13.627 -0.4296 -1.1863 -2.3871
   11MPD2    H313973   0.997   3.749  13.418  0.2230 -2.0657  2.7051
   11MPD2     N13974   1.352   4.022  13.425 -0.4923  0.4320 -0.5307
   11MPD2    H513975   1.318   4.070  13.343  0.5858 -0.8838 -1.7664
   11MPD2    N113976   1.254   3.710  13.794  0.4075 -0.0029 -0.3082
   11MPD2    H713977   1.328   3.754  13.848  0.6252  0.3492 -0.8968
    1MPD1     C13978   2.788   0.352  17.130  0.4264 -0.5462  0.4832
    1MPD1    C113979   2.869   0.419  17.220 -0.5624 -0.0896  0.6371
    1MPD1    C213980   2.961   0.517  17.176  0.6271  0.1496 -0.1323
    1MPD1    C313981   2.973   0.545  17.037 -0.1772  0.0100 -0.2334
    1MPD1    C413982   2.878   0.486  16.952  0.0353  0.2838 -0.3187
    1MPD1    C513983   2.784   0.395  16.998  0.5109  0.2477 -0.1263
    1MPD1     H13984   3.022   0.558  17.255  0.8209 -1.8197  0.7572
    1MPD1    H113985   2.884   0.498  16.845  2.2023 -0.4586 -0.2726
    1MPD1    H213986   2.709   0.282  17.155  0.3799 -1.1335 -1.3189
    1MPD1    H313987   2.709   0.355  16.931 -0.6186 -0.4560  1.5597
    1MPD1     N13988   3.060   0.638  16.987 -0.1295 -0.5214 -0.2970
    1MPD1    H513989   3.064   0.643  16.885 -1.4810 -1.5876 -0.4010
    1MPD1    N113990   2.869   0.378  17.351 -0.0244  0.3115 -0.4320
    1MPD1    H613991   2.786   0.329  17.382  2.0109 -1.2560  2.5916
    1MPD1    H713992   2.889   0.454  17.415  2.5491 -0.9528  0.2929
    2MPD1     C13993   4.093   0.974  17.010  0.0329 -0.1510 -0.0308
    2MPD1    C113994   4.061   0.897  16.904  0.5494  0.2206 -0.4564
    2MPD1    C213995   3.933   0.853  16.883  0.0157 -0.4390 -0.0644
    2MPD1    C313996   3.832   0.908  16.964 -0.1839  0.0291 -0.0844
    2MPD1    C413997   3.861   0.997  17.062 -0.4085 -0.5572 -0.2456
    2MPD1    C513998   3.990   1.023  17.089 -0.4975  0.3398 -0.2561
    2MPD1     H13999   3.909   0.784  16.803 -0.8056  0.8227 -0.9094
    2MPD1    H114000   3.797   1.058  17.125  0.5170 -0.2403  0.4040
    2MPD1    H214001   4.197   1.000  17.021 -0.1920  1.0579 -0.7498
    2MPD1    H314002   4.004   1.100  17.164 -1.3704  0.7934 -0.5526
    2MPD1     N14003   3.693   0.878  16.937  0.0856  0.0994  0.7251
    2MPD1    H514004   3.680   0.811  16.862  0.5805 -0.7351  1.3967
    2MPD1    N114005   4.159   0.871  16.811 -0.1304  1.0488  0.8716
    2MPD1    H614006   4.147   0.785  16.759 -2.3549  0.9887  1.4858
    2MPD1    H714007   4.247   0.865  16.862  1.1115 -2.2766 -1.6583
    3TMC3    C114008   3.466   0.853  16.957 -0.6176  0.4776  0.3805
    3TMC3    C214009   3.472   0.828  16.821  0.4732  0.0260  0.2096
    3TMC3    C314010   3.356   0.790  16.760  0.2173 -0.3523  0.4402
    3TMC3    C414011   3.351   0.844  17.028  0.1364  0.5076  0.2851
    3TMC3    C514012   3.240   0.791  16.967  0.3052 -0.5881  0.1212
    3TMC3    C614013   3.241   0.765  16.834  0.0369 -0.4984  0.1824
    3TMC3     C14014   3.581   0.911  17.014 -0.2988  0.1961  0.1665
    3TMC3     O14015   3.577   0.968  17.123 -1.0859 -0.1094 -0.2822
    3TMC3     H14016   3.560   0.850  16.762  0.0522 -2.1138 -1.2351
    3TMC3    H114017   3.350   0.866  17.134  0.7391 -1.5665  0.7319
    3TMC3    H214018   3.149   0.749  16.778  0.0102  0.6769 -0.1020
    3TMC3    C714019   3.148   0.719  17.057 -0.4795  0.0583 -0.1477
    3TMC3    C814020   3.352   0.769  16.614 -0.1534 -0.4890 -0.6350
    3TMC3    O114021   3.162   0.728  17.179 -0.9832 -0.5782  0.4583
    3TMC3    O214022   3.277   0.686  16.568  0.1388  0.2047  0.0750
    4MPD1     C14023   3.531   0.874  16.145 -0.3999 -0.5010  0.1385
    4MPD1    C114024   3.562   0.986  16.237  0.4848 -0.7435  0.6708
    4MPD1    C214025   3.521   0.981  16.368  0.3804  0.0576  0.6886
    4MPD1    C314026   3.456   0.866  16.417 -0.8834  0.0600 -0.5619
    4MPD1    C414027   3.437   0.759  16.328  0.2312 -0.3417 -0.5301
    4MPD1    C514028   3.462   0.768  16.197  0.1419 -0.6925  0.2443
    4MPD1     H14029   3.536   1.057  16.444 -0.9335  1.4969 -0.4748
    4MPD1    H114030   3.393   0.667  16.363  2.0418 -0.4126  1.5162
    4MPD1    H214031   3.546   0.877  16.038 -1.2801  0.1248  0.0321
    4MPD1    H314032   3.433   0.687  16.131  2.1233 -1.5582  0.4578
    4MPD1     N14033   3.431   0.863  16.555 -0.3754  0.3313  0.0807
    4MPD1    H514034   3.472   0.939  16.609  1.5839 -2.2832  2.2687
    4MPD1    N114035   3.611   1.108  16.190  0.2498  0.2200 -0.0431
    4MPD1    H614036   3.691   1.146  16.241  0.0472  0.0441  0.4018
    4MPD1    H714037   3.654   1.100  16.098 -0.7897 -1.0438 -0.4250
    1TCq1    O114038   0.134   4.116  11.784  0.2885 -0.0199 -0.4079
    1TCq1    C114039   0.241   4.169  11.733  0.1857  0.3070 -0.1240
    1TCq1    O214040   0.344   4.197  11.787 -0.0489  0.7247 -0.1244
    1TCq1    C214041   0.199   4.211  11.607 -0.0434 -0.0112 -0.6945
    1TCq1    C314042   0.117   4.130  11.538  0.3534 -0.2029 -0.0873
    1TCq1    C414043   0.112   4.140  11.404 -0.0663 -0.5185  0.4544
    1TCq1    C514044   0.215   4.198  11.338  1.0232 -0.1070 -0.0014
    1TCq1    C614045   0.297   4.286  11.405  0.1065  0.2714 -0.1431
    1TCq1    C714046   0.285   4.300  11.541  0.8755 -0.0853 -0.7154
    1TCq1    C814047   0.360   4.396  11.328  0.1107  0.3484  0.1428
    1TCq1    O414048   0.364   4.381  11.208 -0.2178 -0.8149 -0.1098
    1TCq1    C914049   0.052   4.030  11.330 -0.0566  0.2174 -0.1901
    1TCq1    O514050   4.697   3.955  11.393 -0.4505  0.0390 -0.3535
    1TCq1    O614051   0.084   4.018  11.211  0.1181 -0.1700 -0.2212
    1TCq1    H114052   0.052   4.130  11.732  0.9395 -0.7039 -1.6460
    1TCq1    H214053   0.072   4.038  11.572  0.4867 -0.7946 -1.4976
    1TCq1    H314054   0.206   4.201  11.230 -2.7144  0.0378  0.3062
    1TCq1    H414055   0.352   4.352  11.609 -0.0025  0.7244 -0.4708
    2MPD1     C14056   0.579   0.129  11.294  0.4868  0.1260 -0.3464
    2MPD1    C114057   0.554   0.111  11.422  0.0203  0.0646  0.0093
    2MPD1    C214058   0.489   4.720  11.456 -0.1016 -0.4963 -0.8869
    2MPD1    C314059   0.459   4.623  11.362 -0.4882  0.1947 -0.9173
    2MPD1    C414060   0.489   4.645  11.228  0.5599  0.4608  0.2845
    2MPD1    C514061   0.553   0.035  11.198  0.2300  0.0432  0.0601
    2MPD1     H14062   0.466   4.705  11.560 -1.1622 -2.9377 -1.4542
    2MPD1    H114063   0.481   4.573  11.148  0.0865 -1.1746  1.7958
    2MPD1    H214064   0.633   0.208  11.242  0.2952  0.1572 -0.4984
    2MPD1    H314065   0.580   0.058  11.096  0.7010 -0.2536  0.1225
    2MPD1     N14066   0.396   4.503  11.402  0.1987  0.2762  0.5151
    2MPD1    H514067   0.387   4.486  11.501 -0.1473 -0.2422  0.3933
    2MPD1    N114068   0.547   0.222  11.505 -0.7520  0.0565  0.0762
    2MPD1    H614069   0.532   0.194  11.602  0.9269 -1.8710 -0.2412
    2MPD1    H714070   0.624   0.288  11.496  0.0626 -0.8463  0.4066
    1TCq1    O114071   3.172   3.014   1.479 -0.0163  0.4329  0.0610
    1TCq1    C114072   3.279   3.083   1.510 -0.2733 -0.0096 -0.3235
    1TCq1    O214073   3.313   3.096   1.624 -0.1719  0.5030  0.2867
    1TCq1    C214074   3.309   3.173   1.396 -0.1539 -0.4071  0.3633
    1TCq1    C314075   3.433   3.225   1.383 -0.1684 -0.1781 -0.5833
    1TCq1    C414076   3.444   3.343   1.313  0.3418 -0.4432  0.9623
    1TCq1    C514077   3.344   3.377   1.228  0.3183 -0.1819 -0.2044
    1TCq1    C614078   3.225   3.312   1.223  0.4436 -0.3369 -0.8373
    1TCq1    C714079   3.208   3.215   1.317  0.5799 -0.5757 -0.0393
    1TCq1    C814080   3.121   3.333   1.129 -0.2352 -0.6770 -0.5419
    1TCq1    O414081   3.020   3.266   1.139  0.3856 -0.4590 -0.1469
    1TCq1    C914082   3.575   3.390   1.298 -0.1423 -0.3100 -0.1190
    1TCq1    O514083   3.607   3.453   1.194  0.5075  0.1282  0.7539
    1TCq1    O614084   3.654   3.372   1.392 -0.1247  0.0528 -0.2489
    1TCq1    H114085   3.171   3.010   1.381  0.9424 -1.6659  0.1408
    1TCq1    H214086   3.509   3.193   1.454  1.0534  1.9732 -0.9059
    1TCq1    H314087   3.362   3.468   1.172 -0.7081  0.5786  0.7149
    1TCq1    H414088   3.107   3.184   1.341  1.0165 -2.1225 -0.1757
    2MPD1     C14089   2.950   3.523   0.682  0.1378 -0.8471 -0.4160
    2MPD1    C114090   3.081   3.562   0.697 -0.7430 -0.0960 -0.0998
    2MPD1    C214091   3.141   3.525   0.812  0.0661  0.0836 -0.2009
    2MPD1    C314092   3.081   3.454   0.916 -0.0873 -0.0223  0.0557
    2MPD1    C414093   2.949   3.423   0.896  0.0528 -0.0430  0.0564
    2MPD1    C514094   2.887   3.443   0.775  0.2766  0.2894  0.2553
    2MPD1     H14095   3.245   3.544   0.836  0.0091  0.7081 -0.4704
    2MPD1    H114096   2.887   3.369   0.967  0.1137 -0.3370 -0.1154
    2MPD1    H214097   2.890   3.554   0.597 -0.8545  0.5848  0.8249
    2MPD1    H314098   2.784   3.415   0.755  0.7533 -0.6311 -0.8724
    2MPD1     N14099   3.151   3.424   1.030 -0.1765 -0.0747  0.0658
    2MPD1    H514100   3.251   3.438   1.031 -0.2342  0.2849  1.1629
    2MPD1    N114101   3.153   3.626   0.594  0.1538 -0.0184  0.1139
    2MPD1    H614102   3.090   3.688   0.542  1.3623 -0.2747 -1.6615
    2MPD1    H714103   3.234   3.677   0.629 -0.6623  1.4792 -0.1749
    1MPD1     C14104   1.063   0.627  11.660 -0.2831 -0.0868  0.1712
    1MPD1    C114105   1.089   0.697  11.777  0.4753 -0.2197 -0.1273
    1MPD1    C214106   1.219   0.730  11.813  0.1111 -0.1935 -0.1835
    1MPD1    C314107   1.320   0.698  11.729  0.4006  0.7627 -0.8855
    1MPD1    C414108   1.297   0.653  11.597 -0.0865  0.5509  0.5648
    1MPD1    C514109   1.166   0.614  11.565  0.2952  0.3005  0.1948
    1MPD1     H14110   1.247   0.771  11.909 -0.5837  0.7259 -0.3759
    1MPD1    H114111   1.375   0.615  11.532 -2.8559  0.5903 -2.7449
    1MPD1    H214112   0.962   0.597  11.635 -1.2183  1.6152  1.9286
    1MPD1    H314113   1.153   0.558  11.473  1.8344  1.5656 -0.8012
    1MPD1     N14114   1.448   0.727  11.777 -0.2246 -0.0262  0.1517
    1MPD1    H514115   1.449   0.779  11.864  0.3858  0.9073 -0.4090
    1MPD1    N114116   0.988   0.721  11.871  0.1715 -0.3571 -0.2527
    1MPD1    H614117   1.011   0.795  11.937 -0.7500 -1.9207  1.8115
    1MPD1    H714118   0.912   0.756  11.814 -0.4376  2.6073  2.4194
    2MPD1     C14119   0.859   0.907  10.938  0.0380 -0.1575 -0.1776
    2MPD1    C114120   0.864   0.866  10.805 -0.2706 -0.8717 -0.3790
    2MPD1    C214121   0.985   0.807  10.765 -0.1256  0.3411 -0.5048
    2MPD1    C314122   1.098   0.809  10.850  0.3039 -0.0026 -0.4812
    2MPD1    C414123   1.086   0.872  10.969 -0.6523 -0.3814 -0.3207
    2MPD1    C514124   0.969   0.917  11.012  1.3904  0.2421  0.4301
    2MPD1     H14125   0.998   0.767  10.665  0.6446 -1.1029  0.1744
    2MPD1    H114126   1.171   0.889  11.034 -0.3904  1.9232 -1.2496
    2MPD1    H214127   0.767   0.945  10.981  0.6705  1.0298  0.1256
    2MPD1    H314128   0.964   0.961  11.111  0.5253  0.2999  0.3601
    2MPD1     N14129   1.223   0.756  10.808 -0.0693  0.0811  0.2800
    2MPD1    H514130   1.299   0.776  10.872  0.0126  0.8188 -0.0537
    2MPD1    N114131   0.751   0.863  10.724 -0.1662 -0.2292 -0.0268
    2MPD1    H614132   0.774   0.894  10.630 -1.0072 -1.4195 -0.6304
    2MPD1    H714133   0.679   0.922  10.765 -0.3284 -1.2629  1.1887
    3MPD1     C14134   1.779   0.094  10.130 -0.0993  0.2232  0.1763
    3MPD1    C114135   1.788   0.230  10.083  0.3455 -0.7158  0.4515
    3MPD1    C214136   1.754   0.321  10.178 -0.4284  0.0277  0.5549
    3MPD1    C314137   1.688   0.287  10.296 -0.4046  0.2440  0.5389
    3MPD1    C414138   1.677   0.156  10.333  0.6497 -0.8669 -0.8538
    3MPD1    C514139   1.716   0.060  10.248  0.7498  0.5028  0.6418
    3MPD1     H14140   1.777   0.423  10.147  0.4981 -0.5529 -0.6493
    3MPD1    H114141   1.625   0.124  10.422  1.8910 -1.3004 -0.2713
    3MPD1    H214142   1.818   0.019  10.061  1.4548  0.8958  0.3325
    3MPD1    H314143   1.724   4.682  10.282  0.9576  0.3101  0.0075
    3MPD1     N14144   1.633   0.386  10.384  0.1703  0.3112  0.1908
    3MPD1    H514145   1.659   0.484  10.373  1.0343  0.0595 -0.0146
    3MPD1    N114146   1.860   0.258   9.960 -0.3693 -0.3298 -0.5383
    3MPD1    H614147   1.839   0.353   9.930 -0.4805 -0.6466 -1.4578
    3MPD1    H714148   1.845   0.194   9.882 -1.5409 -0.7417  0.0275
    4MPD2     C14149   1.884   1.367  11.841  0.3253 -0.6670 -0.0519
    4MPD2    C114150   1.854   1.267  11.751 -0.4186  0.3017 -0.3176
    4MPD2    C214151   1.883   1.290  11.619  0.6667 -0.1850 -0.0461
    4MPD2    C314152   1.945   1.405  11.574 -0.2702 -0.3287  0.0814
    4MPD2    C414153   1.969   1.505  11.661 -0.3187  0.9033 -0.0895
    4MPD2    C514154   1.941   1.484  11.793  0.0820  0.5537  0.2625
    4MPD2     H14155   1.867   1.206  11.553  2.1950  0.7782 -1.6553
    4MPD2    H114156   2.014   1.599  11.630  0.4834  0.8783  0.9627
    4MPD2    H214157   1.870   1.360  11.948  0.7752 -1.3026 -0.0302
    4MPD2    H314158   1.971   1.562  11.862 -1.0500 -0.3173  1.7393
    4MPD2     N14159   1.988   1.410  11.440 -0.4677 -0.0359 -0.0361
    4MPD2    H514160   2.044   1.489  11.412  2.5166 -2.2793 -0.3825
    4MPD2    N114161   1.805   1.141  11.782  0.4835 -0.0100 -0.1921
    4MPD2    H714162   1.762   1.093  11.704  1.5518 -1.9554  0.4211
    5TMC3    C114163   1.783   0.947  11.909 -0.6924  0.3676  0.2445
    5TMC3    C214164   1.670   0.887  11.858 -0.9973 -0.1944  0.1544
    5TMC3    C314165   1.682   0.773  11.776 -0.0196  0.2604 -0.0231
    5TMC3    C414166   1.902   0.907  11.853  0.3629  0.1285 -0.1978
    5TMC3    C514167   1.906   0.808  11.759 -0.7296 -0.7398  0.3309
    5TMC3    C614168   1.800   0.731  11.725  0.2879 -0.4934 -0.0392
    5TMC3     C14169   1.792   1.090  11.915  0.1500 -0.4278  0.0583
    5TMC3     O14170   1.838   1.135  12.016  0.3492 -0.5853 -0.1293
    5TMC3     H14171   1.576   0.942  11.864 -0.0903  1.3177  0.4045
    5TMC3    H114172   1.999   0.947  11.879 -0.7442  0.9318  2.7931
    5TMC3    H214173   1.804   0.662  11.642  0.1411  1.3165 -1.5439
    5TMC3    C714174   2.002   0.836  11.669  0.1365  0.2804  0.7768
    5TMC3    C814175   1.563   0.722  11.705  0.6834  0.2546  0.2556
    5TMC3    O114176   2.017   0.952  11.643 -0.0444 -0.9383 -0.5467
    5TMC3    O214177   1.581   0.655  11.609  0.0971  0.5152  0.1137
    6TMC3    C114178   1.371   0.607  10.695  0.1607 -1.0102 -0.5570
    6TMC3    C214179   1.390   0.503  10.605 -0.6508 -1.0726 -0.9153
    6TMC3    C314180   1.514   0.477  10.564 -0.0988  0.1371 -0.0874
    6TMC3    C414181   1.471   0.687  10.728  0.3171  0.6623 -0.1628
    6TMC3    C514182   1.596   0.664  10.678 -0.0232  0.2876  0.3800
    6TMC3    C614183   1.619   0.557  10.595 -0.0128  0.4476  0.3049
    6TMC3     C14184   1.235   0.656  10.711 -0.1125  0.0254 -0.6014
    6TMC3     O14185   1.150   0.610  10.635 -0.5664  0.5286 -0.5444
    6TMC3     H14186   1.308   0.442  10.567 -0.4769 -1.5582 -0.5044
    6TMC3    H114187   1.463   0.761  10.808 -0.7229  1.3730 -0.9194
    6TMC3    H214188   1.717   0.537  10.554 -1.7108 -0.7191 -3.2439
    6TMC3    C714189   1.703   0.744  10.717  0.6000 -0.0765 -1.1955
    6TMC3    C814190   1.536   0.360  10.480  0.7612 -0.3336  0.6669
    6TMC3    O114191   1.680   0.827  10.806  0.4873 -0.3738 -0.2785
    6TMC3    O214192   1.457   0.270  10.495 -0.4880 -0.0504 -0.8381
    7MPD2     C14193   2.310   0.732  11.282  0.1756 -0.7417 -0.0937
    7MPD2    C114194   2.270   0.856  11.329 -0.6494  0.0712  0.6582
    7MPD2    C214195   2.188   0.854  11.442 -0.4431 -0.3144 -0.2609
    7MPD2    C314196   2.137   0.734  11.495 -0.3664  0.2596 -0.7386
    7MPD2    C414197   2.176   0.616  11.439  0.7398  0.9281  0.1446
    7MPD2    C514198   2.264   0.616  11.341 -0.1266 -0.6107  0.0750
    7MPD2     H14199   2.155   0.946  11.488 -2.2867 -0.7083 -0.7839
    7MPD2    H114200   2.154   0.523  11.491  0.4452  1.1162  0.3582
    7MPD2    H214201   2.381   0.731  11.200  2.0503 -1.4691  1.5398
    7MPD2    H314202   2.298   0.520  11.306  0.8194 -0.3277  0.2263
    7MPD2     N14203   2.052   0.728  11.607  0.2328 -0.2439  0.0210
    7MPD2    H514204   2.014   0.636  11.628 -1.1054 -0.3266 -2.7707
    7MPD2    N114205   2.307   0.972  11.258  0.6280 -1.0203 -0.6967
    7MPD2    H714206   2.334   0.959  11.161 -1.7652  2.3907 -1.8551
    8TMC3    C114207   2.255   1.201  11.209  0.0788 -0.2953  0.3372
    8TMC3    C214208   2.221   1.138  11.097 -0.0489  0.1450 -0.4964
    8TMC3    C314209   2.095   1.177  11.059  0.4425  0.3946 -0.3846
    8TMC3    C414210   2.183   1.304  11.263  0.6081 -0.3336  0.0083
    8TMC3    C514211   2.055   1.324  11.227  0.4572 -0.3722 -0.3176
    8TMC3    C614212   2.007   1.250  11.127 -0.4422  0.5432  0.5099
    8TMC3     C14213   2.292   1.102  11.307  0.7377 -0.2261  0.2915
    8TMC3     O14214   2.272   1.138  11.423  0.5603 -0.5054 -0.0652
    8TMC3     H14215   2.292   1.081  11.038 -0.5076 -0.2107 -0.7074
    8TMC3    H114216   2.220   1.351  11.354 -1.5064 -0.7662  1.0896
    8TMC3    H214217   1.908   1.261  11.086  1.1467 -0.2314 -3.5240
    8TMC3    C714218   1.962   1.316  11.342  0.3586  0.5158  0.0017
    8TMC3    C814219   2.030   1.111  10.952 -0.5771 -0.4485 -0.8008
    8TMC3    O114220   1.874   1.231  11.335  0.7614  0.0428 -0.3777
    8TMC3    O214221   1.909   1.115  10.937  0.0854 -0.0325 -0.4380
    9MPD2     C14222   2.183   0.952  10.662 -1.0834 -0.3597  0.4121
    9MPD2    C114223   2.090   0.962  10.767 -1.4924  0.0616 -0.0215
    9MPD2    C214224   1.972   0.886  10.765  0.0014  0.3291 -0.0291
    9MPD2    C314225   1.940   0.806  10.653 -0.4985  0.0760 -0.1271
    9MPD2    C414226   2.025   0.808  10.549 -0.3215  0.1109 -0.0365
    9MPD2    C514227   2.145   0.881  10.547  0.3910 -0.1954  0.5084
    9MPD2     H14228   1.910   0.906  10.852  1.4978  2.1688  0.6289
    9MPD2    H114229   2.004   0.737  10.470 -1.1099  1.3083 -0.9005
    9MPD2    H214230   2.274   1.009  10.652 -2.3412  2.1826  3.6409
    9MPD2    H314231   2.224   0.851  10.479 -1.4526 -3.0075 -0.4151
    9MPD2     N14232   1.821   0.734  10.642 -0.3909  0.3373 -0.2148
    9MPD2    H514233   1.808   0.688  10.552  0.3794  0.7004 -0.5106
    9MPD2    N114234   2.121   1.053  10.863  0.0606  0.8764 -0.1046
    9MPD2    H714235   2.218   1.082  10.870  0.9575 -2.3815  0.7286
    1MPD1     C14236   1.627   4.459  16.949 -0.4971 -1.1284 -0.3713
    1MPD1    C114237   1.538   4.352  16.974  1.1837  0.7758  0.1244
    1MPD1    C214238   1.496   4.277  16.862 -0.0715 -0.2478 -0.3689
    1MPD1    C314239   1.537   4.310  16.735 -0.2002 -0.0744 -0.3559
    1MPD1    C414240   1.615   4.420  16.720  0.0953  0.2463 -0.4228
    1MPD1    C514241   1.652   4.505  16.823  1.3532 -0.1443 -0.5881
    1MPD1     H14242   1.433   4.191  16.883 -0.0565 -0.5697 -1.6135
    1MPD1    H114243   1.649   4.456  16.624 -0.4014  3.0969  0.4772
    1MPD1    H214244   1.662   4.524  17.028  0.6788 -1.4339 -0.6476
    1MPD1    H314245   1.708   4.595  16.804  1.0279  0.1110 -0.3574
    1MPD1     N14246   1.531   4.226  16.622  0.4691 -0.2173  0.3626
    1MPD1    H514247   1.572   4.255  16.534 -1.7374  2.1263  0.1216
    1MPD1    N114248   1.517   4.322  17.106 -0.0828  0.0374 -0.2801
    1MPD1    H614249   1.427   4.275  17.110 -0.4289  0.8264  1.1416
    1MPD1    H714250   1.521   4.406  17.163 -2.5085 -1.2271  1.7501
    2MPD1     C14251   1.515   3.332  15.998 -0.2018 -0.5246 -0.8865
    2MPD1    C114252   1.534   3.447  15.920 -0.5027  0.2268 -0.1046
    2MPD1    C214253   1.530   3.571  15.984  0.4300  0.1363 -0.6749
    2MPD1    C314254   1.505   3.579  16.118 -0.2230  0.0411 -0.0504
    2MPD1    C414255   1.492   3.465  16.196  0.2797 -0.4520 -0.4529
    2MPD1    C514256   1.484   3.349  16.126  0.1604 -0.0413  0.6571
    2MPD1     H14257   1.548   3.662  15.929  2.5856  0.8469  1.2168
    2MPD1    H114258   1.481   3.462  16.303  2.1696 -0.5278 -0.2546
    2MPD1    H214259   1.539   3.234  15.959 -0.4599 -1.0245  0.2141
    2MPD1    H314260   1.475   3.254  16.178 -2.7605 -0.2452 -0.2441
    2MPD1     N14261   1.494   3.712  16.172  0.6520  0.8058  0.3427
    2MPD1    H514262   1.509   3.787  16.105  0.6509  1.3895  0.9995
    2MPD1    N114263   1.583   3.423  15.786  0.1725 -0.3778 -0.1067
    2MPD1    H614264   1.530   3.352  15.736 -0.3007 -1.4739  1.9358
    2MPD1    H714265   1.567   3.504  15.726 -0.8254 -0.7292 -0.3112
    3TCq2    C114266   1.475   3.747  16.304  0.0415 -0.2377  0.6711
    3TCq2    O214267   1.453   3.672  16.397  0.0151 -0.1546 -0.2383
    3TCq2    C214268   1.491   3.890  16.323 -0.2425 -0.3707  0.2448
    3TCq2    C314269   1.460   3.975  16.220 -0.1940  0.2369 -0.1941
    3TCq2    C414270   1.418   4.102  16.246 -0.2263 -0.5926 -0.0664
    3TCq2    C514271   1.432   4.143  16.377 -0.0924  0.0754  0.2681
    3TCq2    C614272   1.468   4.054  16.478  0.0626  0.6904 -0.0244
    3TCq2    C714273   1.504   3.923  16.456  0.3642  1.4554  0.7439
    3TCq2    C814274   1.474   4.104  16.615  0.7472  0.5245 -0.1202
    3TCq2    O414275   1.430   4.033  16.703 -0.1703 -0.5545  0.1032
    3TCq2    C914276   1.353   4.183  16.144 -0.1640  0.3695 -0.2294
    3TCq2    O514277   1.283   4.281  16.183 -0.1021 -0.1648  0.2429
    3TCq2    O614278   1.335   4.136  16.028 -0.1497  0.0150 -0.4171
    3TCq2    H214279   1.448   3.939  16.118 -0.9479  2.2446 -0.8163
    3TCq2    H314280   1.387   4.238  16.405 -1.8038 -0.6798  0.0786
    3TCq2    H414281   1.546   3.862  16.534 -0.2806  0.1454  0.0699
    1TCq1    O114282   4.208   3.039  11.987  0.2470  0.2081 -0.0341
    1TCq1    C114283   4.280   3.103  12.076 -0.7917 -0.1100  0.1774
    1TCq1    O214284   4.390   3.156  12.054  0.0080  0.2835 -0.4166
    1TCq1    C214285   4.239   3.059  12.209 -0.5586  0.6258 -0.2781
    1TCq1    C314286   4.118   3.087  12.265 -0.4864  0.6195 -0.5642
    1TCq1    C414287   4.105   3.089  12.405 -0.1953  0.2416  0.2730
    1TCq1    C514288   4.206   3.056  12.485 -0.6347 -0.0317  0.2184
    1TCq1    C614289   4.331   3.039  12.423  0.0038 -0.6000  0.6664
    1TCq1    C714290   4.350   3.047  12.288 -0.5255  0.7007 -0.2756
    1TCq1    C814291   4.447   2.991  12.500  0.7132  0.1462 -0.3020
    1TCq1    O414292   4.537   2.944  12.432  0.1785  0.7781 -0.0479
    1TCq1    C914293   3.970   3.104  12.453 -0.0864 -0.1098  0.7624
    1TCq1    O514294   3.951   3.077  12.572  0.0213 -0.0918 -0.2132
    1TCq1    O614295   3.873   3.128  12.381 -0.2984 -0.2667  0.0841
    1TCq1    H114296   4.141   2.983  12.031 -0.0100  0.6714  0.1600
    1TCq1    H214297   4.027   3.098  12.207 -1.6277 -0.2294  1.0529
    1TCq1    H314298   4.202   3.061  12.593  0.1947 -1.7556  0.3297
    1TCq1    H414299   4.441   3.026  12.231 -1.1354  1.7639 -1.6650
    2MPD2     C14300   4.619   2.865  12.699  0.3545 -0.8462  0.6937
    2MPD2    C114301   4.549   2.980  12.722 -0.1244 -0.5767 -0.6818
    2MPD2    C214302   4.571   3.051  12.836 -0.5705  0.0728 -0.3510
    2MPD2    C314303   4.679   3.019  12.918  0.0621  0.3189  0.1938
    2MPD2    C414304   0.029   2.910  12.888  0.6299 -0.5185  0.0531
    2MPD2    C514305   0.000   2.833  12.783 -0.0627  0.3226 -1.2327
    2MPD2     H14306   4.496   3.127  12.857 -0.1704  0.2604  0.4000
    2MPD2    H114307   0.114   2.881  12.949  0.9957 -0.0664 -0.2411
    2MPD2    H214308   4.625   2.797  12.615 -0.8983  0.8699 -0.7923
    2MPD2    H314309   0.056   2.744  12.756  0.4120  0.5431 -0.9709
    2MPD2     N14310   4.713   3.112  13.024 -0.4860 -0.2144  0.1654
    2MPD2    H514311   4.655   3.193  13.043 -0.9749 -0.2308 -1.2061
    2MPD2    N114312   4.444   3.021  12.634  0.0230 -0.1319  0.0583
    2MPD2    H714313   4.378   3.090  12.667 -1.2697 -1.4564  0.2102
    3TCq1    O114314   4.587   3.526  13.298  0.5458 -0.2729 -0.1054
    3TCq1    C114315   4.626   3.432  13.383  0.1208  0.2751  0.5182
    3TCq1    O214316   4.564   3.404  13.485 -0.6008 -0.6326 -0.1209
    3TCq1    C214317   0.028   3.366  13.346 -0.5647 -0.2362  0.1880
    3TCq1    C314318   0.109   3.328  13.455  0.0850 -0.4066 -0.5015
    3TCq1    C414319   0.188   3.217  13.437 -0.6058 -0.4975 -0.1562
    3TCq1    C514320   0.199   3.156  13.322 -0.5458  0.5908 -0.0589
    3TCq1    C614321   0.117   3.198  13.216  0.2328  0.1010  0.1816
    3TCq1    C714322   0.030   3.302  13.228 -0.7242  0.0406 -0.6859
    3TCq1    C814323   0.088   3.091  13.122 -0.2207  0.8877 -0.0844
    3TCq1    O414324   0.157   2.992  13.133  0.1669 -0.0607 -0.4996
    3TCq1    C914325   0.267   3.157  13.549  0.2415 -0.0518 -0.2829
    3TCq1    O514326   0.317   3.042  13.542  0.1694 -0.5285  0.0227
    3TCq1    O614327   0.263   3.221  13.649 -0.6474  0.1622  0.5094
    3TCq1    H114328   4.669   3.555  13.253  0.2307  0.5454 -0.1442
    3TCq1    H214329   0.107   3.372  13.554  0.5364  3.6585 -2.3259
    3TCq1    H314330   0.265   3.070  13.320  0.8205  1.6745 -1.8149
    3TCq1    H414331   4.673   3.323  13.159 -0.1158 -1.9866 -2.0359
    1MPD2     C14332   3.996   4.065  14.715 -0.5882  0.4826 -0.2671
    1MPD2    C114333   3.888   4.039  14.632  0.3906 -0.1166 -1.1526
    1MPD2    C214334   3.909   3.993  14.505 -0.2752  0.1575 -0.0283
    1MPD2    C314335   4.035   3.988  14.457  0.6443 -0.0435 -0.5421
    1MPD2    C414336   4.140   3.993  14.542  0.6035 -0.6173  0.4754
    1MPD2    C514337   4.118   4.025  14.670  0.5866 -0.9417  0.5924
    1MPD2     H14338   3.819   3.979  14.445  0.4956 -1.6249 -0.7551
    1MPD2    H114339   4.242   3.988  14.508  1.8165  0.7122  3.8647
    1MPD2    H214340   3.975   4.084  14.820  1.7179  0.7778  0.1451
    1MPD2    H314341   4.198   4.037  14.742  2.1942 -1.4296 -1.1153
    1MPD2     N14342   4.041   3.978  14.318  0.2610  0.3519 -0.1929
    1MPD2    H514343   3.954   3.993  14.268  1.5242  2.1033 -1.8918
    1MPD2    N114344   3.761   4.065  14.690 -0.2047  0.8267 -0.1124
    1MPD2    H714345   3.763   4.110  14.781  3.9941 -1.5026  0.9479
    2TMC3    C114346   3.538   3.994  14.741  0.2487 -0.3098  0.3151
    2TMC3    C214347   3.460   3.890  14.693 -0.3085  0.3419 -0.1094
    2TMC3    C314348   3.328   3.912  14.671 -0.0146 -0.1934 -0.2465
    2TMC3    C414349   3.484   4.119  14.764 -0.1381  0.2520 -0.0628
    2TMC3    C514350   3.348   4.130  14.750 -0.6983 -0.1835 -0.4728
    2TMC3    C614351   3.265   4.027  14.715  0.6077 -0.3313 -0.6328
    2TMC3     C14352   3.653   3.988  14.651 -0.3997  0.2676 -0.0197
    2TMC3     O14353   3.638   3.920  14.549 -0.2146  0.3467 -0.7921
    2TMC3     H14354   3.505   3.799  14.657 -1.4493  0.2212 -1.2027
    2TMC3    H114355   3.547   4.200  14.797  0.8729 -0.2872 -0.6682
    2TMC3    H214356   3.160   4.049  14.699  0.7214  1.2066  0.7296
    2TMC3    C714357   3.285   4.257  14.771  1.3176  0.0768 -0.3364
    2TMC3    C814358   3.279   3.878  14.539 -0.6929 -0.1724  0.6407
    2TMC3    O114359   3.175   4.252  14.816 -0.1391  0.2263 -0.0741
    2TMC3    O214360   3.158   3.878  14.514 -0.5895 -0.2836 -0.3605
    3TCq1    O114361   4.047   0.544  14.646 -0.5379  0.5388 -0.8881
    3TCq1    C114362   3.931   0.532  14.720 -0.2713 -0.0184  0.3251
    3TCq1    O214363   3.891   0.608  14.809  0.0559  0.3141  0.4354
    3TCq1    C214364   3.864   0.410  14.677 -0.6081 -0.0237 -0.4432
    3TCq1    C314365   3.860   0.379  14.544  0.2699  0.5040  0.3623
    3TCq1    C414366   3.761   0.293  14.501 -0.3699 -0.1139 -0.1324
    3TCq1    C514367   3.674   0.228  14.584  0.1671  0.3168  0.0346
    3TCq1    C614368   3.693   0.250  14.721 -0.4838 -0.1854 -0.8806
    3TCq1    C714369   3.785   0.342  14.763 -0.4973  1.6115  0.0835
    3TCq1    C814370   3.602   0.190  14.812  0.0575  0.4692 -0.0054
    3TCq1    O414371   3.565   0.239  14.921 -0.7995  0.0020  0.2048
    3TCq1    C914372   3.738   0.282  14.359  0.1113  0.1632  0.1847
    3TCq1    O514373   3.783   0.378  14.286 -0.2656 -0.1674  0.8751
    3TCq1    O614374   3.688   0.177  14.308  0.1600  0.2779  0.6758
    3TCq1    H114375   4.052   0.468  14.584 -0.0728 -0.5307  0.4389
    3TCq1    H214376   3.914   0.434  14.468 -1.6733  0.0678 -1.3467
    3TCq1    H314377   3.592   0.177  14.535  0.3923  0.6910 -0.7324
    3TCq1    H414378   3.790   0.368  14.868 -2.8271  1.5242  0.2186
    4MPD2     C14379   3.352   0.029  14.897 -0.5011  0.3894  0.5089
    4MPD2    C114380   3.465   4.707  14.824  0.2508  0.3851 -0.2879
    4MPD2    C214381   3.457   4.582  14.767 -0.6624 -0.3049  0.0431
    4MPD2    C314382   3.354   4.495  14.801 -0.0396 -0.3695 -0.0392
    4MPD2    C414383   3.247   4.535  14.880  0.5450 -0.3862  0.2035
    4MPD2    C514384   3.258   4.658  14.937 -0.4358 -0.6415 -0.7002
    4MPD2     H14385   3.537   4.542  14.707  1.7346  2.9064  1.0541
    4MPD2    H114386   3.170   4.465  14.910 -0.0502  0.4737  0.6764
    4MPD2    H214387   3.353   0.121  14.954 -1.6690 -0.1087  1.3421
    4MPD2    H314388   3.182   4.690  15.008  1.5814  2.5425  0.0560
    4MPD2     N14389   3.362   4.367  14.750  0.1008  0.1307 -0.2290
    4MPD2    H514390   3.452   4.349  14.707  0.1495 -1.8619  0.6545
    4MPD2    N114391   3.557   0.071  14.772  0.8579  0.1322  0.1850
    4MPD2    H714392   3.609   0.040  14.691 -0.1623 -0.3239 -0.2987
    5TMC2    C114393   3.893   3.884  14.042 -0.4681  0.2347 -0.0954
    5TMC2    C214394   3.917   3.754  14.022 -0.2487  0.1963  0.4408
    5TMC2    C314395   4.045   3.710  14.037  0.4571 -0.5986 -0.2721
    5TMC2    C414396   3.989   3.970  14.085  0.9137  0.3821 -0.4873
    5TMC2    C514397   4.110   3.925  14.118 -0.2029  0.2863  0.4912
    5TMC2    C614398   4.140   3.797  14.082 -0.4414  0.1712  0.5074
    5TMC2     C14399   3.771   3.913  14.106 -0.3272  0.9258 -0.0892
    5TMC2     O14400   3.786   3.982  14.206 -0.1781  0.0616  0.2705
    5TMC2     H14401   3.838   3.681  14.015 -0.8652  1.2548 -3.3891
    5TMC2    H114402   3.962   4.075  14.087 -0.6591  0.0187 -2.2376
    5TMC2    H214403   4.239   3.757  14.099 -1.2250 -2.0945 -0.2687
    5TMC2    C714404   4.158   3.965  14.246  0.1134  1.1565  1.1611
    5TMC2    C814405   4.061   3.576  14.080  0.0969 -0.3588  0.2222
    5TMC2    O114406   4.276   3.934  14.283  0.3565 -0.2722 -0.3843
    5TMC2    O214407   3.964   3.517  14.128 -0.0673 -0.6016 -0.7091
    5TMC2    O514408   4.140   3.527  13.987 -1.0260 -0.3125  0.4777
    5TMC2    H514409   4.173   3.593  13.923 -0.1456 -0.5979  0.6466
    6MPD2     C14410   3.277   3.842  14.236 -0.2100 -0.1373 -0.8651
    6MPD2    C114411   3.392   3.869  14.309  0.3341 -0.7449  0.0019
    6MPD2    C214412   3.514   3.887  14.250  0.2385 -0.5790  0.4392
    6MPD2    C314413   3.531   3.865  14.110 -0.7096 -0.2461  0.3563
    6MPD2    C414414   3.419   3.823  14.042 -0.1530  0.1356 -0.1046
    6MPD2    C514415   3.293   3.817  14.100 -0.4733 -0.2237  0.7211
    6MPD2     H14416   3.597   3.913  14.314 -0.4316 -2.5577  2.1257
    6MPD2    H114417   3.416   3.799  13.936 -0.1515 -1.3326  0.2219
    6MPD2    H214418   3.179   3.853  14.281  0.3582  0.1779  0.2934
    6MPD2    H314419   3.206   3.787  14.042 -1.3043  2.3944  0.5946
    6MPD2     N14420   3.660   3.863  14.049  0.0766  0.0006 -0.7171
    6MPD2    H514421   3.669   3.824  13.956  2.8616 -0.9655 -0.0495
    6MPD2    N114422   3.389   3.883  14.450  0.7785  0.0316 -0.0373
    6MPD2    H714423   3.478   3.907  14.492  0.4570 -2.0020  1.8517
  945NH4     N114424   1.986   4.600  13.573 -0.4442  0.2402  0.2233
  945NH4     H214425   2.067   4.618  13.511 -0.4636  1.7281  0.6279
  945NH4     H314426   2.005   4.536  13.653  0.2537  0.2182  0.0412
  945NH4     H414427   1.919   4.552  13.511 -1.1374  1.2139  0.2194
  945NH4     H514428   1.951   4.695  13.596 -0.2725  0.2504  0.4487
  946SOD     NA14429   0.192   0.967   0.623 -0.6550  0.0179 -0.5294
  947SOD     NA14430   0.201   3.833  11.170  0.1963 -0.3712  0.1138
  948SOD     NA14431   1.750   3.405   0.588  0.0375  0.2248 -0.2680
  949SOD     NA14432   0.478   1.718  16.908  0.1100  0.2158 -0.3484
  950SOD     NA14433   1.548   4.559   6.650 -0.0517  0.3516 -0.0675
  951SOD     NA14434   3.606   4.579  10.024  0.1129 -0.5086 -0.1638
  952SOD     NA14435   2.271   2.942   1.127  0.2892 -0.2647  0.0018
  953SOD     NA14436   0.575   3.139  11.124  0.3485 -0.4318  0.5179
  954SOD     NA14437   4.723   3.734  11.452 -0.3526  0.3183 -0.1386
  955SOD     NA14438   3.784   4.692  14.345 -0.5074 -0.0830  0.2308
  956SOD     NA14439   0.988   1.508  14.221 -0.4674  0.1730  0.4482
  957SOD     NA14440   3.890   2.176  10.797  0.3563 -0.1713 -0.3130
  958SOD     NA14441   0.637   4.575  15.193 -0.0490  0.0111  0.1879
  959SOD     NA14442   0.893   2.388  12.958 -0.0377 -0.1337  0.3451
  960SOD     NA14443   4.104   2.605  10.325  0.0140 -0.4444 -0.4145
  961SOD     NA14444   3.634   3.056   7.856 -0.1810 -0.3923  0.0839
  962SOD     NA14445   1.400   2.748   0.238 -0.0631 -0.1445  0.5294
  963SOD     NA14446   3.775   0.282  11.313  0.2812 -0.2475 -0.4071
  964SOD     NA14447   2.189   4.475  13.233  0.0973 -0.0635  0.3426
  965SOD     NA14448   3.680   0.091   2.099  0.3359  0.1648  0.2136
  966SOD     NA14449   4.171   2.491  10.048  0.0555 -0.0778  0.4971
  967SOD     NA14450   1.667   4.111  12.622  0.2061  0.1462 -0.0903
  968SOD     NA14451   4.459   3.764   9.957  0.3738 -0.2423  0.1192
  969SOD     NA14452   1.363   4.022  15.841 -0.2046 -0.2986  0.2472
  970SOD     NA14453   1.917   1.058   3.025 -0.3432 -0.7168 -0.5389
  971SOD     NA14454   0.334   2.939   9.905  0.1896  0.5391  0.0143
  972SOD     NA14455   0.825   2.825  14.189  0.3230  0.3495  0.5172
  973SOD     NA14456   0.209   1.090  10.273  0.0660  0.3451  0.0770
  974SOD     NA14457   3.359   3.377  11.016 -0.2465  0.4848  0.1649
  975SOD     NA14458   1.030   3.360  11.525 -0.1725  0.1416 -0.0351
  976SOD     NA14459   1.562   2.960   2.061 -0.7803 -0.2760 -0.0868
  977SOD     NA14460   3.033   2.541  10.156 -0.4120  0.4054  0.2156
  978SOD     NA14461   3.079   3.152  11.033 -0.0913  0.0585 -0.0582
  979SOD     NA14462   2.197   4.547   1.483  0.2342  0.6197 -0.0470
  980SOD     NA14463   0.361   3.360  14.188  0.1204  0.0052 -0.2091
  981SOD     NA14464   3.745   4.044  17.690  0.3581  0.3144 -0.0922
  982SOD     NA14465   2.181   3.325  10.351 -0.2196  0.0168 -0.0626
  983SOD     NA14466   2.313   3.989   4.128 -0.4673  0.2408  0.0482
  984SOD     NA14467   3.340   0.801   0.786 -0.2159  0.3531  0.0129
  985SOD     NA14468   1.649   4.217   2.231 -0.2895  0.3859  0.7215
  986SOD     NA14469   3.385   2.242  14.876 -0.6110  0.6039  0.0354
  987SOD     NA14470   4.599   4.200  14.484  0.3544 -0.3701  0.1770
  988SOD     NA14471   3.530   2.938   9.464  0.4459 -0.5738 -0.0095
  989SOD     NA14472   4.149   4.716  11.044 -0.3136 -0.4086  0.3752
  990SOD     NA14473   0.066   4.120  11.012 -0.6153 -0.2585  0.2880
  991SOD     NA14474   1.177   4.272  15.968  0.5298 -0.0690  0.4895
  992SOD     NA14475   0.884   3.021  13.389 -0.3129 -0.0317  0.0619
  993SOD     NA14476   2.151   1.110  15.066 -0.1540  0.5179  0.3328
  994SOD     NA14477   1.164   2.208  12.974 -0.0954 -0.1363  0.0313
  995SOD     NA14478   0.169   1.927   5.420  0.1038 -0.0920  0.0726
  996SOD     NA14479   3.739   3.509  15.162  0.0508  0.6107 -0.1610
  997SOD     NA14480   2.875   0.666   3.659 -0.0025  0.4455  0.4139
  998SOD     NA14481   2.870   0.844   8.608 -0.0790  0.5069  0.3933
  999SOD     NA14482   2.752   4.351  10.110  0.1035 -1.0375 -0.2707
 1000SOD     NA14483   2.824   1.871   5.163  0.2244  0.6010  0.1674
 1001SOD     NA14484   2.599   2.849  13.056  0.3330 -0.1361  0.3651
 1002SOD     NA14485   1.618   1.746   0.304 -0.0288 -0.0683 -0.3507
 1003SOD     NA14486   0.753   3.881  14.935 -0.1524  0.1956 -0.0897
 1004SOD     NA14487   1.149   3.850  14.850 -0.1091  0.2237  0.1735
 1005SOD     NA14488   3.264   3.111   0.605  0.5029  0.0355 -0.1378
 1006SOD     NA14489   3.728   3.144  12.541  0.2894 -0.1652 -0.2454
 1007SOD     NA14490   3.579   1.815   8.428 -0.1265 -0.4159 -0.0233
 1008SOD     NA14491   3.746   1.872   9.764  0.2326  0.0151 -0.1748
 1009SOD     NA14492   1.429   4.087  10.752 -0.2140  0.1363  0.1560
 1010SOD     NA14493   4.447   4.210  16.777  0.3620  0.2338 -0.6977
 1011SOL     OW14494   1.435   4.293   2.336  0.0170  0.0104  0.5219
 1011SOL    HW114495   1.360   4.306   2.278  1.6330 -0.5946 -1.7022
 1011SOL    HW214496   1.395   4.279   2.422 -0.2007 -0.8948  0.2774
 1012SOL     OW14497   2.955   4.402   9.225  0.2131  0.1256  0.1170
 1012SOL    HW114498   3.010   4.392   9.147  1.1870  0.3845  0.7785
 1012SOL    HW214499   2.874   4.436   9.186  0.3270 -1.9951 -1.9747
 1013SOL     OW14500   0.194   2.507   5.517  0.3921 -0.4393  0.0558
 1013SOL    HW114501   0.272   2.455   5.498 -0.0474 -0.5362 -1.4294
 1013SOL    HW214502   0.212   2.581   5.458  1.5562  0.2805  1.2899
 1014SOL     OW14503   2.424   3.067   8.326  0.1489  0.4303  0.3411
 1014SOL    HW114504   2.509   3.037   8.360  0.3728 -0.3397 -0.9073
 1014SOL    HW214505   2.363   3.023   8.384 -0.6128  1.3581  0.2454
 1015SOL     OW14506   1.168   1.850   2.271  0.1589  0.2949 -0.2284
 1015SOL    HW114507   1.259   1.880   2.270  0.3103 -0.2280 -1.9086
 1015SOL    HW214508   1.161   1.817   2.360 -0.9951 -2.1591 -1.2397
 1016SOL     OW14509   3.959   1.275  11.642 -0.9494 -0.7948  0.4965
 1016SOL    HW114510   4.031   1.261  11.703  0.8056  1.3015 -1.0587
 1016SOL    HW214511   3.976   1.363  11.608  0.6112 -0.8327  1.1885
 1017SOL     OW14512   0.486   3.846   7.700  0.3531  0.4997  0.3873
 1017SOL    HW114513   0.533   3.918   7.657  0.1665  0.7265  0.5666
 1017SOL    HW214514   0.393   3.868   7.694  0.5845  0.8182 -2.1050
 1018SOL     OW14515   3.268   3.329   2.787 -0.0722 -0.1961  0.1247
 1018SOL    HW114516   3.286   3.374   2.705  0.7551 -2.5965 -1.0369
 1018SOL    HW214517   3.274   3.236   2.762  1.4064  0.2052 -1.0393
 1019SOL     OW14518   3.958   3.542   3.877  0.0435 -0.0257  0.1154
 1019SOL    HW114519   3.924   3.600   3.945  1.2907  1.3540 -0.4476
 1019SOL    HW214520   4.053   3.556   3.871 -0.1009  0.4110 -1.0263
 1020SOL     OW14521   3.009   1.964   3.008 -0.0052  0.1805 -0.2755
 1020SOL    HW114522   2.923   2.004   2.997  1.6355  3.7331 -0.5059
 1020SOL    HW214523   3.025   2.010   3.091 -0.7807 -2.2211  1.1810
 1021SOL     OW14524   2.023   0.261  10.368 -0.3688 -0.0653  0.6428
 1021SOL    HW114525   1.974   0.179  10.374 -1.6978  0.8680  2.8328
 1021SOL    HW214526   2.061   0.266  10.456  1.5152  0.9052 -0.2263
 1022SOL     OW14527   1.173   1.770   8.209  0.1561 -0.1432 -0.0380
 1022SOL    HW114528   1.199   1.857   8.179  2.9632  0.1073  3.0953
 1022SOL    HW214529   1.259   1.727   8.213  0.3581  0.4224  1.7248
 1023SOL     OW14530   0.247   1.286  15.992 -0.6998 -0.6850 -0.3060
 1023SOL    HW114531   0.264   1.194  16.010  2.4962 -0.1095 -0.4412
 1023SOL    HW214532   0.154   1.272  15.972 -0.6120 -1.6225 -0.0424
 1024SOL     OW14533   3.856   0.367   6.330  0.0885  0.0395  0.1076
 1024SOL    HW114534   3.778   0.418   6.350 -0.2574 -0.9945  1.4065
 1024SOL    HW214535   3.914   0.417   6.387  0.2007 -1.2290  1.1172
 1025SOL     OW14536   3.948   4.410   8.307  0.4377 -0.6359 -0.3607
 1025SOL    HW114537   3.884   4.427   8.238 -0.4460 -1.0624  0.3482
 1025SOL    HW214538   3.910   4.444   8.388  2.9163 -1.7752  1.2746
 1026SOL     OW14539   0.819   3.737   4.467  0.4934  0.8974  0.8098
 1026SOL    HW114540   0.909   3.705   4.463 -0.7818 -2.1296 -3.0288
 1026SOL    HW214541   0.780   3.685   4.538 -0.9988  1.1179  0.1393
 1027SOL     OW14542   3.779   4.700  10.870  0.6829  0.1550 -0.3064
 1027SOL    HW114543   3.712   4.688  10.938  0.9236  0.9109  0.0649
 1027SOL    HW214544   3.838   4.631  10.901  1.6076  0.9384 -0.3174
 1028SOL     OW14545   4.631   3.112   0.380  0.1636 -0.1495  0.5829
 1028SOL    HW114546   4.682   3.185   0.414  2.0368 -1.9162  1.5940
 1028SOL    HW214547   4.673   3.040   0.427 -0.1118 -1.8554 -1.7481
 1029SOL     OW14548   0.556   1.002   7.912 -0.2930  0.8442  0.2517
 1029SOL    HW114549   0.502   1.067   7.958 -0.6088  1.1494 -0.5492
 1029SOL    HW214550   0.503   0.922   7.921  2.0526 -0.5833  1.3275
 1030SOL     OW14551   3.818   1.952  13.522 -0.1753  0.3915 -0.3860
 1030SOL    HW114552   3.843   2.011  13.451  1.3428 -0.3593 -0.4673
 1030SOL    HW214553   3.879   1.879  13.515 -1.1322 -0.3133 -1.5355
 1031SOL     OW14554   0.515   4.659   1.490  0.2511 -0.0172 -0.2154
 1031SOL    HW114555   0.520   4.633   1.398  0.7532  2.5659 -0.9274
 1031SOL    HW214556   0.569   0.013   1.483 -0.9118  0.7340 -0.8919
 1032SOL     OW14557   4.020   1.271  16.889  0.6698  0.9933  0.1243
 1032SOL    HW114558   4.011   1.184  16.927  2.5329  1.6487  1.9943
 1032SOL    HW214559   4.089   1.256  16.825 -0.3576 -0.8949 -0.5353
 1033SOL     OW14560   0.180   4.499   5.531 -0.2265 -0.0936  0.7253
 1033SOL    HW114561   0.195   4.420   5.480 -0.1747 -0.8066  1.8549
 1033SOL    HW214562   0.087   4.483   5.549 -0.5886  0.2113 -0.9081
 1034SOL     OW14563   3.296   3.410  11.871  0.5185  0.2149 -0.0791
 1034SOL    HW114564   3.386   3.434  11.847  0.2647  1.1697 -0.1022
 1034SOL    HW214565   3.275   3.486  11.925 -0.7415 -1.7515  2.1816
 1035SOL     OW14566   2.242   0.033  11.089  0.1218 -0.9279 -0.3047
 1035SOL    HW114567   2.253   0.110  11.146  0.3378 -0.6403 -0.7326
 1035SOL    HW214568   2.316   4.707  11.123  1.0545  1.2412  0.9247
 1036SOL     OW14569   0.416   2.338   6.347 -0.2676 -0.3172 -0.4090
 1036SOL    HW114570   0.339   2.344   6.290 -1.0815  2.4724  0.9875
 1036SOL    HW214571   0.457   2.421   6.326 -0.5816  0.3099  1.4748
 1037SOL     OW14572   1.608   3.749   4.305  0.0532  0.3208  0.4045
 1037SOL    HW114573   1.683   3.779   4.357  1.1793  1.1985 -1.7353
 1037SOL    HW214574   1.649   3.703   4.232 -0.0915 -1.2608  1.3304
 1038SOL     OW14575   2.912   2.302   5.162  0.1482 -0.2583 -0.3930
 1038SOL    HW114576   2.936   2.326   5.251 -1.0083  1.3497 -0.5144
 1038SOL    HW214577   2.991   2.304   5.107 -0.0767  1.4994 -0.6762
 1039SOL     OW14578   2.382   2.758   2.412  0.7210  0.3361 -0.6899
 1039SOL    HW114579   2.391   2.828   2.348 -0.0686 -0.4728 -1.6835
 1039SOL    HW214580   2.436   2.693   2.368  1.0013 -1.3469  2.1103
 1040SOL     OW14581   0.971   1.792   9.267 -0.8605 -0.3381 -0.4694
 1040SOL    HW114582   1.004   1.803   9.356 -0.4022 -0.0597 -0.6714
 1040SOL    HW214583   0.877   1.787   9.281 -0.7042  1.4852  1.2659
 1041SOL     OW14584   1.223   0.726   5.040  0.0001 -0.2296  0.2607
 1041SOL    HW114585   1.283   0.711   4.966 -1.4483  2.2136 -1.3995
 1041SOL    HW214586   1.230   0.654   5.102  0.0669  0.4324  1.0130
 1042SOL     OW14587   4.396   2.021  12.077  0.0516  0.4233 -0.1231
 1042SOL    HW114588   4.315   2.012  12.126  0.2259  0.5207  0.1832
 1042SOL    HW214589   4.386   1.960  12.003  3.4729 -0.3138 -0.0162
 1043SOL     OW14590   1.698   3.379   7.605 -0.3477  0.0607 -0.0424
 1043SOL    HW114591   1.774   3.438   7.607  0.1849 -0.6547  0.6842
 1043SOL    HW214592   1.629   3.441   7.581 -1.0812 -0.0508  1.7967
 1044SOL     OW14593   3.480   2.865   4.070 -0.3043  0.7134 -0.6898
 1044SOL    HW114594   3.454   2.810   3.996 -3.1508  0.9067  0.1902
 1044SOL    HW214595   3.425   2.942   4.055  1.9966  2.2816 -1.1328
 1045SOL     OW14596   3.081   1.611   5.041 -0.4815  0.0482  0.2610
 1045SOL    HW114597   3.037   1.583   4.961  0.3328  1.2930 -0.6129
 1045SOL    HW214598   3.005   1.636   5.093 -0.3338 -0.5787  0.7805
 1046SOL     OW14599   3.524   4.608   7.161  0.4641 -0.3604 -0.3121
 1046SOL    HW114600   3.546   4.517   7.143  1.7364  0.1366 -1.2914
 1046SOL    HW214601   3.438   4.598   7.200  0.1316 -0.8944 -1.1820
 1047SOL     OW14602   0.361   3.162   5.160  0.1479 -0.1320 -0.3541
 1047SOL    HW114603   0.269   3.136   5.162  0.7552 -2.3169 -1.2150
 1047SOL    HW214604   0.399   3.084   5.119 -0.8306 -1.2546  0.8708
 1048SOL     OW14605   0.402   4.303  10.527 -0.3590 -0.0460 -0.2622
 1048SOL    HW114606   0.480   4.271  10.572  0.5206 -0.5513 -2.1663
 1048SOL    HW214607   0.431   4.394  10.520  1.6204 -0.7784 -1.4856
 1049SOL     OW14608   0.127   0.891  15.094  0.9399  0.6361  0.2694
 1049SOL    HW114609   0.193   0.961  15.098 -3.1651  4.4035  2.0069
 1049SOL    HW214610   0.045   0.939  15.103 -0.2422 -1.2616 -0.5954
 1050SOL     OW14611   1.196   1.244  11.049  0.4032 -0.6982  0.1931
 1050SOL    HW114612   1.230   1.207  11.131  1.6530 -0.5938 -0.2820
 1050SOL    HW214613   1.109   1.265  11.081 -0.3186  0.8077 -2.7800
 1051SOL     OW14614   3.521   4.539   2.385 -0.0630  0.0979  0.3369
 1051SOL    HW114615   3.514   4.629   2.416 -0.7787  0.6514 -1.3855
 1051SOL    HW214616   3.556   4.549   2.296  0.6643  0.5734  0.6829
 1052SOL     OW14617   1.919   2.178  17.277 -0.0095 -0.1753  0.8750
 1052SOL    HW114618   1.833   2.219  17.288 -0.7364 -1.1251 -1.2101
 1052SOL    HW214619   1.946   2.165  17.368  1.4234  0.2476  0.5030
 1053SOL     OW14620   3.919   0.813   7.075 -0.5485  0.2277 -0.2274
 1053SOL    HW114621   3.967   0.773   7.002 -0.1555 -0.9158  0.6444
 1053SOL    HW214622   3.959   0.900   7.066 -1.5224  0.7544  0.6017
 1054SOL     OW14623   4.672   2.110  15.725 -0.4793  0.9430  0.4086
 1054SOL    HW114624   4.634   2.127  15.638  0.7965  2.0668  0.0682
 1054SOL    HW214625   4.691   2.202  15.745  1.2725  1.0091 -1.5309
 1055SOL     OW14626   3.612   2.499   9.432  0.3365 -0.2626 -0.1153
 1055SOL    HW114627   3.559   2.466   9.359  1.8458 -0.0513 -1.3119
 1055SOL    HW214628   3.701   2.488   9.400  0.3659  0.5826 -0.3299
 1056SOL     OW14629   4.605   4.350   0.049 -0.2960  0.2931  0.5240
 1056SOL    HW114630   4.670   4.309   0.106 -3.5929  0.4774  4.4099
 1056SOL    HW214631   4.593   4.435   0.091 -0.6141  0.3599  0.2920
 1057SOL     OW14632   2.841   1.751  11.734 -0.1451 -0.0053 -0.2582
 1057SOL    HW114633   2.769   1.691  11.716  0.0530 -1.0898  2.6447
 1057SOL    HW214634   2.917   1.711  11.691 -0.5656 -1.5050  0.3757
 1058SOL     OW14635   1.004   0.091   5.564 -0.0060  0.4371  0.5580
 1058SOL    HW114636   0.926   0.143   5.543 -1.9508 -3.3307 -1.5146
 1058SOL    HW214637   1.043   0.096   5.477  0.6866 -1.6229  0.7557
 1059SOL     OW14638   0.459   4.464  17.364  0.1597  0.2165  0.4645
 1059SOL    HW114639   0.402   4.533  17.331 -0.7741 -0.2801  1.0407
 1059SOL    HW214640   0.394   4.394  17.361  0.3336  0.0811 -0.3676
 1060SOL     OW14641   4.280   1.548   2.289 -0.1014 -0.1965  0.3013
 1060SOL    HW114642   4.240   1.570   2.373  2.5314  2.8520  0.7324
 1060SOL    HW214643   4.228   1.469   2.274  0.4459 -0.2440 -1.3549
 1061SOL     OW14644   4.671   4.648   7.800 -0.0328 -0.1437 -0.7979
 1061SOL    HW114645   4.694   4.641   7.893 -0.3730  0.3085 -0.6790
 1061SOL    HW214646   4.721   0.005   7.793  0.2610 -0.2017  0.5570
 1062SOL     OW14647   4.411   2.133   3.747  0.0320 -0.1087  0.4011
 1062SOL    HW114648   4.386   2.197   3.680  1.6100 -1.6231 -1.5952
 1062SOL    HW214649   4.498   2.108   3.718 -0.3857 -0.4974 -0.5123
 1063SOL     OW14650   4.340   0.794   6.818  0.8214  0.4194  0.3749
 1063SOL    HW114651   4.279   0.765   6.751  1.9907 -1.4708  0.1117
 1063SOL    HW214652   4.275   0.824   6.881 -0.0345 -0.0900 -0.2660
 1064SOL     OW14653   2.037   3.946   3.122 -0.0965  0.4667 -0.1328
 1064SOL    HW114654   2.100   4.017   3.125 -1.1084  1.3298  0.5543
 1064SOL    HW214655   2.086   3.872   3.085  1.4822  0.3703  2.1780
 1065SOL     OW14656   3.053   4.138  15.692  0.2843  0.1666  0.4871
 1065SOL    HW114657   3.058   4.043  15.680  0.4943  0.2019  0.2906
 1065SOL    HW214658   2.994   4.169  15.622 -1.4852 -0.5523  1.6502
 1066SOL     OW14659   0.208   0.157   2.256 -0.3566 -0.3182 -0.3548
 1066SOL    HW114660   0.242   0.121   2.174 -2.3682 -1.2003 -0.8003
 1066SOL    HW214661   0.278   0.222   2.267 -0.5915  0.2797 -2.3966
 1067SOL     OW14662   2.697   1.857   8.219 -0.1053 -0.0939  0.0314
 1067SOL    HW114663   2.691   1.835   8.126 -1.5376  1.2911 -0.2111
 1067SOL    HW214664   2.613   1.829   8.257 -0.9723  1.5496 -0.6865
 1068SOL     OW14665   1.825   3.975   7.465 -0.1289  0.4170 -0.4876
 1068SOL    HW114666   1.909   3.986   7.422 -0.0520 -0.0549 -0.4593
 1068SOL    HW214667   1.816   3.883   7.439  0.5944  0.8092 -2.0811
 1069SOL     OW14668   0.108   0.689   9.207  0.6596  0.2976  0.2268
 1069SOL    HW114669   0.183   0.693   9.266  1.0402 -1.7993 -0.1028
 1069SOL    HW214670   0.158   0.679   9.126 -1.6938  0.1986 -1.2407
 1070SOL     OW14671   1.169   2.462   6.125 -0.2255 -0.2754 -0.0693
 1070SOL    HW114672   1.144   2.382   6.172  0.3953 -1.5074 -1.8395
 1070SOL    HW214673   1.088   2.512   6.117 -0.0364  0.1265  0.4645
 1071SOL     OW14674   3.920   4.123   4.137 -0.1374 -0.8065 -0.2850
 1071SOL    HW114675   3.826   4.110   4.148 -0.2340 -0.3737 -0.6128
 1071SOL    HW214676   3.926   4.170   4.053  2.1072 -1.8459 -0.7152
 1072SOL     OW14677   1.424   1.879   7.546 -0.7554  0.4507  0.1272
 1072SOL    HW114678   1.410   1.840   7.632  0.4591 -2.8912 -1.1878
 1072SOL    HW214679   1.421   1.797   7.496 -0.8181  0.1586  0.6035
 1073SOL     OW14680   1.232   0.728  10.375  0.0952  0.9196  0.1224
 1073SOL    HW114681   1.166   0.675  10.420  0.1455  1.0233  0.3191
 1073SOL    HW214682   1.241   0.802  10.436  3.9728  0.6553 -0.1268
 1074SOL     OW14683   2.699   4.655   8.241 -0.7389 -0.2707  0.4822
 1074SOL    HW114684   2.695   4.603   8.321 -0.3534 -1.3796 -0.2205
 1074SOL    HW214685   2.609   4.675   8.213 -0.6821 -0.2150  0.3424
 1075SOL     OW14686   1.651   2.213  12.255  0.4990 -0.1475 -0.2003
 1075SOL    HW114687   1.714   2.141  12.244 -1.3180 -1.6821 -0.4841
 1075SOL    HW214688   1.694   2.290  12.217  0.3249 -0.9877 -2.1381
 1076SOL     OW14689   4.438   0.256   3.640 -0.6603  0.1345 -0.4120
 1076SOL    HW114690   4.407   0.174   3.601  0.4597  0.4517 -2.0036
 1076SOL    HW214691   4.532   0.237   3.638 -0.6078  0.5937 -3.0333
 1077SOL     OW14692   1.582   1.078   8.845  0.7502 -0.0555 -0.2816
 1077SOL    HW114693   1.508   1.105   8.900 -1.9646 -0.5770 -3.6430
 1077SOL    HW214694   1.577   1.133   8.766 -0.0526  1.1884  0.6487
 1078SOL     OW14695   1.137   4.245   5.227  0.5172 -0.1679  0.0590
 1078SOL    HW114696   1.159   4.155   5.250  1.1477 -0.1426 -0.4483
 1078SOL    HW214697   1.157   4.289   5.309  1.2784  0.6398 -0.5661
 1079SOL     OW14698   2.993   1.702   9.567  0.5337  0.3768  0.5425
 1079SOL    HW114699   2.987   1.668   9.656  2.3146  3.1014  1.7019
 1079SOL    HW214700   2.904   1.722   9.540 -0.1667  1.1062  3.4653
 1080SOL     OW14701   1.978   3.476   1.979 -0.4915 -0.3822  0.1935
 1080SOL    HW114702   1.973   3.509   2.069 -0.4143 -0.2307  0.1415
 1080SOL    HW214703   2.001   3.386   2.001  1.1988  0.3891  1.5662
 1081SOL     OW14704   1.274   4.547   2.821  0.1039  0.4193  0.2443
 1081SOL    HW114705   1.269   4.471   2.879 -0.5709 -0.1468 -0.5575
 1081SOL    HW214706   1.205   4.535   2.757  2.3243  1.3321 -2.3435
 1082SOL     OW14707   4.672   1.605   3.358  0.1345  0.0034 -0.1116
 1082SOL    HW114708   4.646   1.593   3.267 -0.2221  1.0195 -0.1487
 1082SOL    HW214709   0.024   1.548   3.364  0.9556  1.1042 -0.0817
 1083SOL     OW14710   2.901   2.340  12.755 -0.6223 -0.0125 -0.7002
 1083SOL    HW114711   2.938   2.414  12.707 -1.2418  1.4157  1.0643
 1083SOL    HW214712   2.934   2.353  12.844  0.9634  1.4193 -1.4932
 1084SOL     OW14713   0.567   0.860   0.963 -0.5457  0.8599 -0.0937
 1084SOL    HW114714   0.565   0.839   0.870  0.0912 -2.4910  0.6419
 1084SOL    HW214715   0.657   0.846   0.992 -0.2019  1.0159 -1.0862
 1085SOL     OW14716   1.340   2.581   3.401  0.0494  0.5777 -0.5562
 1085SOL    HW114717   1.363   2.525   3.327  0.9830 -0.7005  0.7067
 1085SOL    HW214718   1.404   2.561   3.469  0.4970  1.3872 -0.7369
 1086SOL     OW14719   2.779   3.677   7.413 -0.2659 -0.2527 -0.0675
 1086SOL    HW114720   2.701   3.732   7.408 -0.1281 -0.1731 -1.4740
 1086SOL    HW214721   2.822   3.689   7.328 -2.1104  1.0487 -0.8280
 1087SOL     OW14722   2.473   2.936   5.651  0.2573 -0.0830  0.1828
 1087SOL    HW114723   2.491   3.016   5.603 -0.4830 -0.0071  0.0210
 1087SOL    HW214724   2.544   2.945   5.714  0.1476 -0.5375  0.3779
 1088SOL     OW14725   1.745   3.725  13.413  0.6642 -0.0356  0.8849
 1088SOL    HW114726   1.771   3.806  13.457  0.8250  1.1219 -1.3091
 1088SOL    HW214727   1.823   3.718  13.357 -2.1567 -3.0183 -2.6301
 1089SOL     OW14728   2.634   1.976   2.580 -0.0072  0.2048  0.0071
 1089SOL    HW114729   2.586   1.932   2.509 -1.1184  0.4674  0.5965
 1089SOL    HW214730   2.634   1.913   2.652  2.4822  1.8234  1.4265
 1090SOL     OW14731   2.525   0.450   7.988  0.0268 -0.1838 -0.2397
 1090SOL    HW114732   2.512   0.362   7.951 -0.0107  0.2012 -1.1312
 1090SOL    HW214733   2.483   0.453   8.075  2.7402  0.2642  1.0474
 1091SOL     OW14734   3.524   1.658   7.305 -0.0789 -0.0878 -0.3101
 1091SOL    HW114735   3.536   1.740   7.353  2.6663 -0.6716 -0.0010
 1091SOL    HW214736   3.541   1.692   7.217 -1.4068  3.5238  0.8099
 1092SOL     OW14737   3.463   2.350   1.272 -0.1626  0.4317 -0.2406
 1092SOL    HW114738   3.555   2.330   1.291 -0.5889 -1.0684  0.2577
 1092SOL    HW214739   3.462   2.339   1.177 -0.7281 -0.6562 -0.1080
 1093SOL     OW14740   2.160   0.020   0.466  0.2816 -0.1904  0.0087
 1093SOL    HW114741   2.070   4.715   0.456  0.3348  0.1951 -1.5521
 1093SOL    HW214742   2.215   4.666   0.464 -2.2679 -1.9470 -0.5442
 1094SOL     OW14743   4.082   2.271   8.183 -0.1886  0.2078 -0.1538
 1094SOL    HW114744   4.144   2.198   8.177 -0.0334  0.4162 -1.0985
 1094SOL    HW214745   4.058   2.250   8.273 -0.5356  0.0948 -0.2738
 1095SOL     OW14746   2.414   0.189   5.539  0.0486  0.4384 -0.3600
 1095SOL    HW114747   2.355   0.187   5.463  0.0749  0.7021 -0.3885
 1095SOL    HW214748   2.369   0.136   5.605  0.0032 -0.0934 -0.8125
 1096SOL     OW14749   4.679   0.674   4.445  0.4286 -0.5166 -0.1766
 1096SOL    HW114750   4.638   0.669   4.358 -0.4599 -2.9019  0.3918
 1096SOL    HW214751   0.020   0.606   4.433 -1.7205 -2.5768 -0.1396
 1097SOL     OW14752   2.038   0.475   8.199  0.1120 -0.6408 -0.4614
 1097SOL    HW114753   2.001   0.547   8.149  1.8849  0.5444 -0.0489
 1097SOL    HW214754   2.115   0.450   8.148 -1.0710 -3.1909 -1.0104
 1098SOL     OW14755   2.530   4.342   8.957  0.4207  0.0310 -0.0239
 1098SOL    HW114756   2.609   4.289   8.958  1.0197  0.9171 -0.9380
 1098SOL    HW214757   2.476   4.283   9.010 -1.1649  0.2686 -1.3452
 1099SOL     OW14758   0.185   0.481  13.360 -0.0487  0.4856  0.6360
 1099SOL    HW114759   0.262   0.457  13.308 -0.2391 -0.4251  0.7724
 1099SOL    HW214760   0.211   0.428  13.435  0.9922 -1.9638 -1.4534
 1100SOL     OW14761   2.255   2.825  13.463  0.4992 -0.8811  0.2046
 1100SOL    HW114762   2.344   2.797  13.441  0.2690 -0.5937 -1.1142
 1100SOL    HW214763   2.219   2.826  13.375 -0.7390  4.0766  0.7650
 1101SOL     OW14764   3.733   2.916   1.364  0.3989  0.5525  0.2321
 1101SOL    HW114765   3.738   3.011   1.353 -0.2138  0.7710  1.7758
 1101SOL    HW214766   3.672   2.925   1.437 -1.3242  0.9412 -1.2522
 1102SOL     OW14767   1.137   1.383   3.018  0.0986 -0.1386 -0.7980
 1102SOL    HW114768   1.156   1.313   2.956  0.1549 -0.5726 -0.2909
 1102SOL    HW214769   1.085   1.335   3.083  1.4496 -0.2429  0.2154
 1103SOL     OW14770   2.555   0.811   7.140 -0.2547  0.5117 -0.1906
 1103SOL    HW114771   2.595   0.898   7.136 -2.5560  1.6168  1.1936
 1103SOL    HW214772   2.558   0.789   7.233 -0.4409  0.5142 -0.1846
 1104SOL     OW14773   0.727   0.995   5.392  0.0945  0.1326 -0.2775
 1104SOL    HW114774   0.710   1.071   5.448  0.2810 -1.7565  2.3401
 1104SOL    HW214775   0.641   0.989   5.350 -0.1864  2.7080 -0.0945
 1105SOL     OW14776   1.787   2.818   0.062  0.3986 -0.6680 -0.2216
 1105SOL    HW114777   1.764   2.904   0.096 -0.3933 -1.1082  0.3287
 1105SOL    HW214778   1.730   2.757   0.108 -0.3477  0.9854  1.0055
 1106SOL     OW14779   0.404   4.337  16.308  0.0458  0.3859 -0.0948
 1106SOL    HW114780   0.495   4.360  16.288 -0.1655  3.3861  2.5156
 1106SOL    HW214781   0.387   4.264  16.248  1.1222 -0.2690  0.3996
 1107SOL     OW14782   3.455   2.710   5.267  0.3586 -0.1915 -0.0615
 1107SOL    HW114783   3.483   2.769   5.337 -0.2314  0.7692 -0.6408
 1107SOL    HW214784   3.384   2.755   5.221 -0.1244  0.4015  1.2806
 1108SOL     OW14785   0.063   2.226  14.399  0.2511  0.1018  0.0750
 1108SOL    HW114786   0.151   2.216  14.436  0.2021  0.5031  0.2917
 1108SOL    HW214787   0.078   2.303  14.344 -0.8356  0.3188  0.1007
 1109SOL     OW14788   1.552   3.897  15.900 -0.6505 -0.1153 -0.2593
 1109SOL    HW114789   1.627   3.943  15.935 -1.4198  1.2257 -0.3726
 1109SOL    HW214790   1.595   3.865  15.820 -1.4681 -2.9263  0.4272
 1110SOL     OW14791   2.948   3.866  16.213  1.0871  0.0011 -0.4386
 1110SOL    HW114792   2.904   3.950  16.199  0.8471  0.1932  1.4880
 1110SOL    HW214793   3.034   3.880  16.174  0.5251 -1.2208 -2.1119
 1111SOL     OW14794   2.791   0.789   4.226  0.0704  0.1854 -0.3037
 1111SOL    HW114795   2.857   0.736   4.182  0.2175 -0.8932  1.2233
 1111SOL    HW214796   2.772   0.855   4.159 -2.4957 -0.1922  0.0593
 1112SOL     OW14797   1.391   1.115  11.239 -0.0265 -0.0212 -0.3093
 1112SOL    HW114798   1.428   1.053  11.176 -2.7419 -0.9773 -0.9535
 1112SOL    HW214799   1.468   1.167  11.261  0.3937 -1.1749  0.9565
 1113SOL     OW14800   0.395   2.832  16.936  0.1689  0.1380 -0.6522
 1113SOL    HW114801   0.337   2.757  16.922  0.6940 -0.2801 -0.5743
 1113SOL    HW214802   0.359   2.879  16.861 -2.0217  0.6540  0.7121
 1114SOL     OW14803   3.750   3.730   9.112 -0.2564  0.8481  0.0056
 1114SOL    HW114804   3.695   3.654   9.091  0.7490  0.0564  0.2527
 1114SOL    HW214805   3.684   3.790   9.148 -0.9088 -0.2952  0.7288
 1115SOL     OW14806   3.351   2.202  11.328  0.1154  0.2523 -0.2445
 1115SOL    HW114807   3.311   2.179  11.244 -2.8235 -0.8453  1.4466
 1115SOL    HW214808   3.430   2.246  11.295 -1.8121  3.0959 -1.0335
 1116SOL     OW14809   1.372   3.515   1.251  0.4433  0.0100  0.2868
 1116SOL    HW114810   1.303   3.512   1.317 -0.3483  2.1171 -0.4256
 1116SOL    HW214811   1.447   3.476   1.295 -1.8260 -2.9484  1.4895
 1117SOL     OW14812   2.231   4.433   4.146  0.4660 -0.4759  0.1074
 1117SOL    HW114813   2.326   4.443   4.151  0.4445  0.9793 -2.5432
 1117SOL    HW214814   2.222   4.341   4.119  0.1350 -0.5330  0.4243
 1118SOL     OW14815   2.534   0.701   4.533  0.0856  0.2767  0.0863
 1118SOL    HW114816   2.555   0.794   4.524  0.6352  0.2688  1.2769
 1118SOL    HW214817   2.472   0.711   4.606  0.9312 -0.4319  0.8987
 1119SOL     OW14818   2.161   3.546   6.467 -0.6161  0.1639 -0.4054
 1119SOL    HW114819   2.249   3.518   6.489 -1.3844  0.1587  2.5672
 1119SOL    HW214820   2.167   3.640   6.484 -1.5928  0.7111 -2.9788
 1120SOL     OW14821   2.122   0.641   9.325 -0.0500  0.2403 -0.0673
 1120SOL    HW114822   2.175   0.721   9.328  0.2491  0.0871 -1.0987
 1120SOL    HW214823   2.042   0.675   9.286  0.4514 -0.6740 -1.9026
 1121SOL     OW14824   4.651   2.844   6.323  0.3946  0.1318  0.0655
 1121SOL    HW114825   4.670   2.772   6.383 -0.1028  1.1302  1.4326
 1121SOL    HW214826   4.576   2.884   6.368  0.2853 -2.1072  1.8568
 1122SOL     OW14827   3.876   3.379   8.090 -0.1956 -0.4256  0.8056
 1122SOL    HW114828   3.904   3.458   8.136  0.8249 -0.6969  0.6490
 1122SOL    HW214829   3.821   3.421   8.024  1.4715 -0.5862 -0.6920
 1123SOL     OW14830   1.206   0.159  10.455  0.3654 -0.4417 -0.1646
 1123SOL    HW114831   1.289   0.207  10.458 -0.2581  0.6550 -0.2138
 1123SOL    HW214832   1.158   0.202  10.526  0.4954 -1.9131  0.8001
 1124SOL     OW14833   1.511   1.280   3.029 -0.1708  0.0565  0.3390
 1124SOL    HW114834   1.450   1.234   2.971  0.4900 -1.5584  0.9076
 1124SOL    HW214835   1.472   1.366   3.041  0.0967  0.1219  0.7511
 1125SOL     OW14836   3.764   0.893   2.249  0.2875 -0.0164 -0.2289
 1125SOL    HW114837   3.743   0.819   2.306  2.2186 -1.1561 -0.9678
 1125SOL    HW214838   3.724   0.966   2.296  1.2225  0.3925 -0.0637
 1126SOL     OW14839   3.392   3.352   2.509  0.5593 -0.6048  0.0478
 1126SOL    HW114840   3.446   3.314   2.440  0.7768 -1.4457  0.6827
 1126SOL    HW214841   3.330   3.400   2.455  1.5280  0.0349 -0.4976
 1127SOL     OW14842   2.219   3.832  11.550  0.1991 -0.1999 -0.1319
 1127SOL    HW114843   2.198   3.884  11.473  1.1082  0.9346  0.3851
 1127SOL    HW214844   2.210   3.898  11.618  0.6012  0.6372 -0.8994
 1128SOL     OW14845   3.715   1.808   8.248  0.1401  0.1054 -0.3916
 1128SOL    HW114846   3.799   1.762   8.243 -0.5613 -1.1582 -0.6176
 1128SOL    HW214847   3.715   1.850   8.162 -1.3431 -0.9956 -0.9300
 1129SOL     OW14848   1.066   3.875   3.241  0.4476  0.0208  0.4258
 1129SOL    HW114849   1.138   3.924   3.280  0.5179  0.2012  0.0678
 1129SOL    HW214850   0.996   3.940   3.230  1.7554  1.2975 -0.2994
 1130SOL     OW14851   2.007   0.835   7.440 -0.0863  0.4379 -0.1068
 1130SOL    HW114852   1.924   0.791   7.463 -0.3236  0.4781 -0.8684
 1130SOL    HW214853   1.981   0.863   7.352 -1.2715  1.7004  0.6477
 1131SOL     OW14854   0.565   4.496   5.121  0.1855 -0.4662  0.2584
 1131SOL    HW114855   0.638   4.558   5.131 -1.0188  0.7383  1.5445
 1131SOL    HW214856   0.569   4.444   5.201  2.1881 -0.7983 -0.0638
 1132SOL     OW14857   2.255   1.322   4.424 -0.6669  0.0111  0.0975
 1132SOL    HW114858   2.229   1.295   4.513  0.4312 -1.7880 -0.1495
 1132SOL    HW214859   2.189   1.278   4.370  1.3120 -0.3866 -1.9621
 1133SOL     OW14860   3.447   2.474   2.886  0.1218 -0.0765 -0.0872
 1133SOL    HW114861   3.474   2.442   2.800 -0.4127  0.8269 -0.5854
 1133SOL    HW214862   3.464   2.568   2.881 -1.6995  0.2224 -0.6006
 1134SOL     OW14863   0.456   1.504   9.809 -0.1716  0.8070  0.1377
 1134SOL    HW114864   0.437   1.435   9.872  2.6718 -0.3187 -0.2630
 1134SOL    HW214865   0.479   1.574   9.871 -0.3575 -0.1266  1.2482
 1135SOL     OW14866   0.168   2.232  13.487  0.1496  0.2792  0.0353
 1135SOL    HW114867   0.165   2.167  13.417 -1.4526 -0.9098  1.1947
 1135SOL    HW214868   0.107   2.186  13.545  1.8286 -0.5768  1.1542
 1136SOL     OW14869   0.869   2.866   8.272  0.4708  0.2933 -0.1734
 1136SOL    HW114870   0.805   2.882   8.203 -0.0624 -3.4131 -0.5436
 1136SOL    HW214871   0.809   2.857   8.346  2.0964 -0.9963  0.9841
 1137SOL     OW14872   3.452   4.127   6.229 -0.0397 -0.2440  0.2457
 1137SOL    HW114873   3.500   4.136   6.146  0.8748 -0.9977  0.6881
 1137SOL    HW214874   3.479   4.200   6.285  0.7200 -0.0397 -0.3846
 1138SOL     OW14875   3.325   3.266   6.813 -0.5746 -0.1542 -0.5271
 1138SOL    HW114876   3.276   3.348   6.819  1.6819  1.1713 -0.1502
 1138SOL    HW214877   3.377   3.274   6.893  0.0237 -0.8813 -0.8414
 1139SOL     OW14878   1.680   3.569   3.242 -0.6395 -0.4734 -0.0166
 1139SOL    HW114879   1.639   3.635   3.186 -1.1010 -1.9350 -1.3898
 1139SOL    HW214880   1.734   3.632   3.290 -1.8320  0.1819  0.4730
 1140SOL     OW14881   2.561   0.351   2.214  0.1784 -0.6192  0.0582
 1140SOL    HW114882   2.594   0.404   2.287 -0.2185  0.4832 -0.5677
 1140SOL    HW214883   2.637   0.293   2.214 -1.1365 -2.3532 -1.4961
 1141SOL     OW14884   3.212   2.844  14.888  0.1630  0.0746 -0.3824
 1141SOL    HW114885   3.238   2.752  14.898  0.9577  0.3336 -0.0387
 1141SOL    HW214886   3.123   2.835  14.854  0.1682  0.4910 -0.5054
 1142SOL     OW14887   3.080   1.880   2.522 -0.2778  0.2023  0.0111
 1142SOL    HW114888   3.149   1.888   2.456 -0.2163 -0.6621 -0.0198
 1142SOL    HW214889   3.141   1.889   2.595  0.7693 -4.0301 -0.3919
 1143SOL     OW14890   0.561   0.300  14.039  0.5988  0.3907  1.2399
 1143SOL    HW114891   0.493   0.330  14.099 -1.3179  3.0527 -2.2362
 1143SOL    HW214892   0.534   0.213  14.009 -2.1775  2.5682 -2.5626
 1144SOL     OW14893   1.019   2.242  14.119 -0.4101 -0.5275  0.2418
 1144SOL    HW114894   1.049   2.194  14.042  2.5776 -0.2852  1.2427
 1144SOL    HW214895   1.022   2.174  14.187  0.6057 -0.8939 -0.1699
 1145SOL     OW14896   4.695   4.316   9.154  0.4893 -0.1943  0.3054
 1145SOL    HW114897   0.054   4.271   9.149 -0.1118 -1.3439  0.6387
 1145SOL    HW214898   4.690   4.332   9.248  0.1787 -0.8055  0.3904
 1146SOL     OW14899   1.590   1.822   6.462 -0.1612  0.0063 -0.4342
 1146SOL    HW114900   1.553   1.771   6.534 -0.0500  1.0083  0.3233
 1146SOL    HW214901   1.513   1.812   6.405 -0.9147 -0.6025  0.6778
 1147SOL     OW14902   0.400   0.595   5.042 -0.3201 -0.2507 -0.4807
 1147SOL    HW114903   0.435   0.529   4.982  0.0153 -0.8244  0.3531
 1147SOL    HW214904   0.313   0.555   5.052 -0.2123 -0.6583 -1.1203
 1148SOL     OW14905   3.927   0.914   6.399  0.1110  0.4760  0.2578
 1148SOL    HW114906   3.948   0.936   6.308 -0.7032 -1.1478 -0.3300
 1148SOL    HW214907   3.851   0.971   6.414 -1.9682 -1.8419 -1.3186
 1149SOL     OW14908   3.677   0.120   2.325  0.3917 -0.0490 -0.4833
 1149SOL    HW114909   3.724   0.091   2.403  2.8631 -0.0397 -1.9647
 1149SOL    HW214910   3.592   0.135   2.366  1.1796 -1.5898  1.7187
 1150SOL     OW14911   4.196   1.818  13.230 -0.0590 -0.5974  0.5332
 1150SOL    HW114912   4.185   1.860  13.315  0.5107 -0.0457  0.3404
 1150SOL    HW214913   4.272   1.769  13.262  1.2503  0.9203 -0.2600
 1151SOL     OW14914   3.888   4.594   4.751  0.1045  0.0701  0.5939
 1151SOL    HW114915   3.943   4.532   4.798  0.2071 -0.7983 -0.6621
 1151SOL    HW214916   3.826   4.530   4.717 -0.3881 -0.4557  2.4725
 1152SOL     OW14917   4.519   1.008   3.343 -0.2523 -0.1352 -0.1179
 1152SOL    HW114918   4.592   0.998   3.404 -2.3988 -2.2199  2.0965
 1152SOL    HW214919   4.448   0.965   3.389 -1.2382  2.1482  0.4768
 1153SOL     OW14920   3.911   2.398   6.278  0.2302 -0.0714 -1.1553
 1153SOL    HW114921   3.873   2.423   6.194 -3.0207 -0.2127  0.2471
 1153SOL    HW214922   3.848   2.444   6.335 -0.1116  0.8493 -2.2835
 1154SOL     OW14923   2.847   1.061   8.079 -0.3998  0.4335 -0.5547
 1154SOL    HW114924   2.825   1.075   7.987  1.4949 -0.4947 -1.1482
 1154SOL    HW214925   2.773   1.003   8.099 -0.6735  0.7163 -0.7266
 1155SOL     OW14926   2.776   0.963  13.303  0.5829 -0.5336  0.2856
 1155SOL    HW114927   2.785   0.917  13.387 -3.3609 -0.8932  0.5090
 1155SOL    HW214928   2.685   0.994  13.303  1.2527  1.4560 -1.5143
 1156SOL     OW14929   4.078   3.001   2.564  0.5384  0.2098 -0.7777
 1156SOL    HW114930   4.090   2.962   2.477 -1.6071  2.3216 -2.0200
 1156SOL    HW214931   3.986   3.026   2.550  0.0027 -0.5630  1.3061
 1157SOL     OW14932   2.675   1.777   2.771 -0.0093 -0.1203  0.0410
 1157SOL    HW114933   2.594   1.727   2.763 -1.6548  2.4263  0.6935
 1157SOL    HW214934   2.730   1.713   2.726 -3.3202 -1.6003 -1.9182
 1158SOL     OW14935   0.155   2.831   4.456  0.1756 -0.0395  0.1719
 1158SOL    HW114936   0.243   2.861   4.474  0.1680 -1.0310  1.8443
 1158SOL    HW214937   0.167   2.793   4.369  3.4251  0.9810  0.1949
 1159SOL     OW14938   0.859   2.254  11.872  0.2301 -0.4390 -0.3009
 1159SOL    HW114939   0.828   2.320  11.810  1.1402 -0.4833 -0.7911
 1159SOL    HW214940   0.805   2.268  11.950  1.6726  0.1773  0.5976
 1160SOL     OW14941   1.636   0.396   6.155  0.7079 -0.2600 -0.3861
 1160SOL    HW114942   1.556   0.427   6.198  0.6569 -0.1026 -0.5936
 1160SOL    HW214943   1.670   0.474   6.110 -0.5492 -0.3546 -1.5041
 1161SOL     OW14944   2.928   1.390   4.562 -0.3133  0.3537  0.0847
 1161SOL    HW114945   2.936   1.323   4.494 -0.4555  0.5776 -0.1491
 1161SOL    HW214946   2.892   1.461   4.508  1.7433  0.1148 -1.6183
 1162SOL     OW14947   4.660   4.625   6.795  0.1714 -0.5119  0.0320
 1162SOL    HW114948   4.594   4.664   6.852 -0.9557 -1.7955 -0.4057
 1162SOL    HW214949   4.612   4.634   6.713 -1.0550  1.1811  0.9213
 1163SOL     OW14950   3.928   3.940   2.593 -0.3431 -0.1258  0.0912
 1163SOL    HW114951   3.837   3.921   2.570 -0.1607  0.3034 -1.0194
 1163SOL    HW214952   3.948   3.874   2.659 -0.0284 -0.6555 -0.5313
 1164SOL     OW14953   3.212   0.205  11.888  0.0318 -0.1552 -0.3010
 1164SOL    HW114954   3.240   0.156  11.966 -1.3806 -3.7427 -2.0914
 1164SOL    HW214955   3.296   0.240  11.858  0.1126 -0.5215 -0.5071
 1165SOL     OW14956   1.330   0.116  11.882  0.1138 -0.0783 -0.5727
 1165SOL    HW114957   1.323   0.211  11.878  0.5782 -0.0243 -0.0902
 1165SOL    HW214958   1.367   0.107  11.794 -0.8671 -1.3645 -0.8600
 1166SOL     OW14959   1.850   2.968  11.538 -0.2189  0.1835 -0.1923
 1166SOL    HW114960   1.787   2.909  11.496  0.3726 -1.6271  1.4700
 1166SOL    HW214961   1.920   2.945  11.477 -0.1687 -0.1788  0.0032
 1167SOL     OW14962   4.479   4.163   6.616 -0.2859 -0.0786  0.3434
 1167SOL    HW114963   4.543   4.230   6.592 -0.6244  0.7096  1.6053
 1167SOL    HW214964   4.424   4.152   6.539  0.5889  0.2993 -0.3255
 1168SOL     OW14965   0.042   0.210   9.923 -0.4704  0.7085 -0.5180
 1168SOL    HW114966   0.073   0.151   9.992 -1.7460 -1.5033 -1.8366
 1168SOL    HW214967   0.087   0.176   9.845 -0.9197 -3.0277  0.8517
 1169SOL     OW14968   2.139   0.038   2.536  0.2178 -0.3194  0.4538
 1169SOL    HW114969   2.087   0.109   2.498 -0.4773 -0.9725  0.1766
 1169SOL    HW214970   2.225   0.070   2.510 -2.0395  3.4124 -2.4277
 1170SOL     OW14971   2.463   2.755  12.874 -0.1171  0.3306  0.4742
 1170SOL    HW114972   2.413   2.673  12.876 -1.5632  1.1424 -2.8272
 1170SOL    HW214973   2.522   2.746  12.799  1.0048  1.5283  1.2132
 1171SOL     OW14974   2.480   3.119   8.077  0.5106  0.2550 -0.2358
 1171SOL    HW114975   2.505   3.028   8.063 -0.9346  0.2474 -2.6513
 1171SOL    HW214976   2.442   3.113   8.165  1.9306 -0.5172  0.3125
 1172SOL     OW14977   2.229   1.486   0.648  0.9643  0.1651  0.6458
 1172SOL    HW114978   2.237   1.550   0.719 -1.2878 -1.3228  2.2281
 1172SOL    HW214979   2.156   1.530   0.605  1.6155 -0.1748 -0.8145
 1173SOL     OW14980   3.125   1.213   4.758  0.3739 -0.0400 -0.1678
 1173SOL    HW114981   3.097   1.277   4.694 -2.5890 -0.8908  0.2808
 1173SOL    HW214982   3.188   1.269   4.803  1.1250 -0.2687 -0.9394
 1174SOL     OW14983   2.617   0.909   5.585 -0.0518 -0.6111 -0.4140
 1174SOL    HW114984   2.616   0.826   5.632  0.7721 -1.0418 -1.1605
 1174SOL    HW214985   2.693   0.949   5.629 -0.2386  0.3048 -0.9176
 1175SOL     OW14986   4.551   1.483   9.539 -1.0526 -0.5267 -0.0637
 1175SOL    HW114987   4.609   1.413   9.510  0.1259  0.7179 -0.7227
 1175SOL    HW214988   4.511   1.448   9.618 -0.5150 -0.5604  0.1914
 1176SOL     OW14989   0.281   3.926   3.290  0.6549  0.2602  0.1389
 1176SOL    HW114990   0.283   3.892   3.380 -0.8794 -1.3370 -0.4307
 1176SOL    HW214991   0.195   3.900   3.259  0.9570 -0.1074 -0.3827
 1177SOL     OW14992   3.682   1.114   2.415  0.6587  0.6099  0.0868
 1177SOL    HW114993   3.767   1.158   2.410 -0.0773  1.7611 -2.4273
 1177SOL    HW214994   3.623   1.189   2.417 -1.8028 -1.3087 -0.0785
 1178SOL     OW14995   3.774   4.333   0.501 -0.1582 -0.0271 -0.5651
 1178SOL    HW114996   3.857   4.338   0.453  0.2552 -2.6785 -0.1259
 1178SOL    HW214997   3.747   4.250   0.462  1.3214 -0.1601 -1.3346
 1179SOL     OW14998   0.443   1.069   7.217  0.3726 -0.3249 -0.6901
 1179SOL    HW114999   0.471   1.024   7.297  0.4650  0.0916 -0.4892
 1179SOL    HW215000   0.458   1.159   7.247  2.3088 -0.9569  0.3109
 1180SOL     OW15001   0.561   1.758   7.885 -0.2897 -0.6929  0.0201
 1180SOL    HW115002   0.637   1.700   7.878 -0.3287 -0.8349  0.8256
 1180SOL    HW215003   0.497   1.710   7.832 -1.0208  1.2738 -0.8899
 1181SOL     OW15004   1.271   4.133   4.738  0.1661 -0.5190 -0.2376
 1181SOL    HW115005   1.267   4.178   4.823  0.3933 -0.6043 -0.1835
 1181SOL    HW215006   1.352   4.085   4.757  0.5449  1.4747  3.1604
 1182SOL     OW15007   1.629   1.088   1.398 -0.1762  0.0304  0.2551
 1182SOL    HW115008   1.555   1.101   1.339  0.5922 -0.9746 -0.9344
 1182SOL    HW215009   1.702   1.105   1.339  0.0747  0.6937  0.7582
 1183SOL     OW15010   3.510   1.034  15.532  0.2446 -0.0506  0.8649
 1183SOL    HW115011   3.493   1.065  15.621 -0.9510  1.4731  0.1107
 1183SOL    HW215012   3.451   0.960  15.518 -0.7841  0.9793 -0.2875
 1184SOL     OW15013   0.192   0.516   8.644 -0.0993  0.6692  0.3452
 1184SOL    HW115014   0.141   0.596   8.651  0.7196  1.2491 -0.2752
 1184SOL    HW215015   0.122   0.461   8.606 -0.7903  0.8596  1.3627
 1185SOL     OW15016   3.799   2.390   3.576  0.0628  0.0233 -0.3317
 1185SOL    HW115017   3.836   2.455   3.516 -4.5848  3.1215  0.1435
 1185SOL    HW215018   3.875   2.384   3.635 -0.0089 -0.4987 -0.2949
 1186SOL     OW15019   3.015   0.424   4.574 -0.1103  0.3693  0.2430
 1186SOL    HW115020   3.110   0.423   4.572 -0.1194  1.4264 -0.3458
 1186SOL    HW215021   3.001   0.518   4.572  1.5650  0.6287  0.9280
 1187SOL     OW15022   2.565   2.544   2.331 -0.2930  0.4573 -0.0546
 1187SOL    HW115023   2.580   2.537   2.425  0.4579 -0.7315 -0.2601
 1187SOL    HW215024   2.656   2.544   2.302 -0.2797 -0.3258 -0.0277
 1188SOL     OW15025   4.576   1.568  10.467 -0.1981 -0.5694 -0.0827
 1188SOL    HW115026   4.618   1.651  10.491 -1.0382 -0.1139 -0.2168
 1188SOL    HW215027   4.488   1.595  10.443  0.3436  2.3614  1.1617
 1189SOL     OW15028   1.119   0.457   3.914  0.1133 -0.0900 -0.4617
 1189SOL    HW115029   1.039   0.427   3.956  0.2076  1.6895  0.9987
 1189SOL    HW215030   1.099   0.463   3.821  2.2375  1.1557 -0.8515
 1190SOL     OW15031   2.348   3.885   3.894  0.0308 -0.1189 -0.3359
 1190SOL    HW115032   2.418   3.837   3.849  0.3527  0.7616 -0.7751
 1190SOL    HW215033   2.335   3.961   3.838  0.3738 -0.9304 -1.5201
 1191SOL     OW15034   0.088   3.201  10.646  0.4070 -0.1550  0.1755
 1191SOL    HW115035   0.103   3.294  10.659 -0.8301 -0.1505  1.6874
 1191SOL    HW215036   4.717   3.208  10.649  0.2962 -1.4684 -0.3359
 1192SOL     OW15037   0.395   4.050  13.941 -0.2205 -0.1773 -0.0788
 1192SOL    HW115038   0.460   4.015  14.002  1.0724 -2.2317 -2.6288
 1192SOL    HW215039   0.334   4.058  14.015 -0.0929 -1.4159  0.1639
 1193SOL     OW15040   0.411   0.898   4.688 -0.3413 -0.3784  0.5917
 1193SOL    HW115041   0.323   0.866   4.669  0.2747 -0.9894 -1.2778
 1193SOL    HW215042   0.445   0.809   4.683 -1.9392 -1.0776  2.1330
 1194SOL     OW15043   0.461   3.318   8.261  0.4571  0.4768 -0.0051
 1194SOL    HW115044   0.442   3.410   8.243  0.4507  0.0971 -1.9583
 1194SOL    HW215045   0.478   3.315   8.355  0.0072 -3.3797 -0.0381
 1195SOL     OW15046   0.961   2.780  15.162 -0.5283 -0.6258 -0.6086
 1195SOL    HW115047   0.917   2.806  15.082  1.4237 -1.1017 -1.8366
 1195SOL    HW215048   0.946   2.685  15.159  0.9876 -0.7380 -3.9096
 1196SOL     OW15049   1.407   3.899   3.699 -0.0138  0.1788  0.1532
 1196SOL    HW115050   1.369   3.949   3.771  1.9843  0.9610  0.6640
 1196SOL    HW215051   1.341   3.933   3.640 -2.9410 -1.7102  2.3379
 1197SOL     OW15052   2.681   2.988   8.387 -0.0121  0.0587 -0.1283
 1197SOL    HW115053   2.732   2.915   8.422  0.6583  1.0966  1.0602
 1197SOL    HW215054   2.753   3.021   8.333 -2.5806  2.2209 -2.2650
 1198SOL     OW15055   1.110   3.790   4.111 -0.2522  0.1341 -0.2010
 1198SOL    HW115056   1.029   3.765   4.155 -0.3099 -0.3543 -0.5903
 1198SOL    HW215057   1.100   3.771   4.018  0.6477  2.9010 -0.8669
 1199SOL     OW15058   2.511   4.337  10.523  0.4291  0.2551 -0.0600
 1199SOL    HW115059   2.569   4.261  10.526  0.1891  0.1677  2.1652
 1199SOL    HW215060   2.520   4.347  10.618  1.3011 -1.1649  0.0056
 1200SOL     OW15061   3.977   3.904   4.313 -0.1359  0.3288 -0.7148
 1200SOL    HW115062   3.900   3.892   4.369  1.2986  0.8427  1.3878
 1200SOL    HW215063   3.963   3.987   4.269 -0.6580 -0.6240 -2.3400
 1201SOL     OW15064   1.037   4.593   1.779  0.2946  0.2059 -0.1389
 1201SOL    HW115065   1.096   4.634   1.843 -1.2557  1.0024  0.7995
 1201SOL    HW215066   1.020   4.513   1.828 -0.4328  1.0170  0.9295
 1202SOL     OW15067   2.750   0.851  11.792  0.0015 -0.7399 -0.1358
 1202SOL    HW115068   2.764   0.931  11.843 -2.3670 -0.0150 -0.6244
 1202SOL    HW215069   2.721   0.796  11.865 -1.1563 -1.0431 -0.8372
 1203SOL     OW15070   2.693   1.488   6.720 -0.1833 -0.3916 -0.7034
 1203SOL    HW115071   2.741   1.435   6.784  2.0421  0.2376 -1.8671
 1203SOL    HW215072   2.733   1.447   6.643  0.3951 -0.0079 -0.6075
 1204SOL     OW15073   4.182   1.425  12.211  0.1614 -0.2394 -0.0093
 1204SOL    HW115074   4.203   1.401  12.302  1.5372 -2.7093 -0.9703
 1204SOL    HW215075   4.205   1.517  12.221 -1.1754  0.2325 -1.2102
 1205SOL     OW15076   4.327   2.238   7.622 -0.5619 -0.1493  0.3250
 1205SOL    HW115077   4.247   2.185   7.621 -0.4449 -0.2572 -3.6964
 1205SOL    HW215078   4.337   2.258   7.715  3.1810  1.9587 -0.5561
 1206SOL     OW15079   2.864   1.422   7.777  0.2490 -0.3205  0.5786
 1206SOL    HW115080   2.835   1.513   7.787 -1.9559 -1.0308  0.6121
 1206SOL    HW215081   2.794   1.381   7.727 -1.0354  1.3017  1.0634
 1207SOL     OW15082   3.511   1.159   4.661 -0.2304 -0.0481  0.6235
 1207SOL    HW115083   3.508   1.112   4.578  2.0656 -0.5588  0.8384
 1207SOL    HW215084   3.590   1.119   4.696  0.7537 -0.4558 -2.0800
 1208SOL     OW15085   2.343   3.372   7.041  0.5776  1.3019 -0.4169
 1208SOL    HW115086   2.327   3.385   6.948 -0.2587  0.4550 -0.3935
 1208SOL    HW215087   2.434   3.344   7.050 -0.4286 -1.3340  1.8172
 1209SOL     OW15088   2.278   2.621   0.832  0.2199 -0.3035  0.0045
 1209SOL    HW115089   2.291   2.558   0.902 -0.3512  0.1653  0.5298
 1209SOL    HW215090   2.242   2.563   0.764  0.0003  0.3285 -0.4235
 1210SOL     OW15091   0.483   1.501   8.672  0.0325  0.1385 -0.1182
 1210SOL    HW115092   0.506   1.444   8.599  0.6199 -0.1329  0.2730
 1210SOL    HW215093   0.566   1.524   8.714  0.9194  0.8638 -2.3165
 1211SOL     OW15094   0.872   3.970  15.935 -0.0299 -0.5586 -0.0793
 1211SOL    HW115095   0.914   4.041  15.887 -1.4975  0.6657  0.4225
 1211SOL    HW215096   0.908   3.984  16.022  1.1658  1.7516 -0.9490
 1212SOL     OW15097   3.891   0.010   2.099 -0.1424 -0.2704 -0.2677
 1212SOL    HW115098   3.976   0.052   2.110 -0.7742  0.5889  1.2839
 1212SOL    HW215099   3.918   4.682   2.024 -0.4968 -0.0865 -0.5272
 1213SOL     OW15100   0.299   0.493   2.875  0.2309 -0.5251 -0.9198
 1213SOL    HW115101   0.277   0.565   2.816  0.2891 -1.0651 -1.6004
 1213SOL    HW215102   0.335   0.543   2.948 -0.5638 -1.9975  0.4861
 1214SOL     OW15103   0.525   3.629  16.437  0.6419 -0.3355  0.1802
 1214SOL    HW115104   0.510   3.535  16.432  0.5479 -0.4432  2.5656
 1214SOL    HW215105   0.555   3.639  16.528 -2.1369 -0.1188  1.0654
 1215SOL     OW15106   0.167   3.008   0.646  0.0736 -0.2746 -0.2831
 1215SOL    HW115107   0.182   3.050   0.561 -0.8045 -1.8996 -1.2545
 1215SOL    HW215108   0.112   2.936   0.614  0.2021 -0.9478  1.0165
 1216SOL     OW15109   2.300   1.632   9.484  0.1893 -0.4720  0.2041
 1216SOL    HW115110   2.222   1.581   9.506 -0.2010  0.9249  2.1210
 1216SOL    HW215111   2.260   1.719   9.482  1.9380  0.3330  0.2846
 1217SOL     OW15112   2.192   0.640   3.642 -0.1812 -0.2212 -0.0210
 1217SOL    HW115113   2.249   0.704   3.600 -1.3981  0.3104 -0.8436
 1217SOL    HW215114   2.168   0.706   3.706  0.9512  0.4635 -0.3040
 1218SOL     OW15115   3.660   1.688   9.899 -0.1858  0.0243 -0.0345
 1218SOL    HW115116   3.584   1.661   9.950  1.1096 -1.9628  0.8486
 1218SOL    HW215117   3.682   1.602   9.862 -1.3951  0.2533 -1.2586
 1219SOL     OW15118   2.551   2.426   7.105  0.3414 -0.2600 -0.3644
 1219SOL    HW115119   2.588   2.352   7.056  0.6678  0.4414 -1.1799
 1219SOL    HW215120   2.587   2.396   7.188 -0.3617 -0.3757 -0.1044
 1220SOL     OW15121   1.952   3.184   7.392  0.2725  0.0710  0.5870
 1220SOL    HW115122   2.009   3.204   7.318 -0.3225  2.1833  0.7163
 1220SOL    HW215123   2.004   3.214   7.466  1.4120 -2.6398  0.8876
 1221SOL     OW15124   0.868   1.079   5.160 -0.6727 -0.0678  0.0085
 1221SOL    HW115125   0.952   1.036   5.143  0.0225  1.2783  0.0367
 1221SOL    HW215126   0.821   1.010   5.207  2.0932 -0.0081  2.9134
 1222SOL     OW15127   0.473   2.267   4.515 -0.3827 -0.5409  0.0870
 1222SOL    HW115128   0.381   2.243   4.532 -0.6594  0.1107 -0.4884
 1222SOL    HW215129   0.512   2.184   4.490 -0.2178 -0.5800  0.4671
 1223SOL     OW15130   3.476   0.843   8.122 -0.1225 -0.0560  0.3089
 1223SOL    HW115131   3.441   0.932   8.131  1.5223  0.6677 -0.5985
 1223SOL    HW215132   3.470   0.810   8.212  0.8188  0.5632  0.5953
 1224SOL     OW15133   2.340   1.864   6.920 -0.2967 -0.3778  0.0953
 1224SOL    HW115134   2.304   1.917   6.849 -0.1879 -2.1381 -1.2667
 1224SOL    HW215135   2.412   1.823   6.872  0.6710 -0.1829  1.3836
 1225SOL     OW15136   0.413   0.121  14.946  0.0902  0.5579 -0.6307
 1225SOL    HW115137   0.380   0.115  14.857  3.9294  0.6549 -2.0627
 1225SOL    HW215138   0.412   0.214  14.968  0.3365  0.4062  0.0257
 1226SOL     OW15139   1.761   4.625   6.770  0.0411  0.1220 -0.0045
 1226SOL    HW115140   1.855   4.635   6.759 -0.0387 -0.2218 -0.9814
 1226SOL    HW215141   1.762   4.609   6.864 -0.8878 -0.4085 -0.0840
 1227SOL     OW15142   3.188   1.511   5.778  0.2998  0.4686  0.4098
 1227SOL    HW115143   3.222   1.426   5.752  1.1473  0.7711  0.5480
 1227SOL    HW215144   3.219   1.559   5.702 -0.2645  0.9640  0.4881
 1228SOL     OW15145   2.579   1.253   4.591 -0.0419  0.0259  0.4564
 1228SOL    HW115146   2.574   1.290   4.502 -0.1151  1.1266  0.9248
 1228SOL    HW215147   2.541   1.318   4.651 -0.4893  0.6867 -0.5335
 1229SOL     OW15148   0.470   2.804  17.198 -0.2589  0.5709  0.1556
 1229SOL    HW115149   0.445   2.816  17.107 -1.3645  0.8221  0.4797
 1229SOL    HW215150   0.411   2.868  17.238 -1.5314 -0.7699  0.4529
 1230SOL     OW15151   2.603   1.076   7.052 -0.0774 -0.2038 -0.3808
 1230SOL    HW115152   2.528   1.133   7.037  0.4764  1.1800  1.9758
 1230SOL    HW215153   2.609   1.093   7.147 -0.1815  2.1252 -0.7714
 1231SOL     OW15154   2.293   4.703   6.897 -0.0748 -0.3794  0.4696
 1231SOL    HW115155   2.367   4.706   6.836 -0.7873 -0.7831 -0.4141
 1231SOL    HW215156   2.287   0.073   6.908 -0.4936 -0.1552 -1.6599
 1232SOL     OW15157   1.612   4.546   6.422 -0.4337  0.0474 -0.1202
 1232SOL    HW115158   1.698   4.576   6.392  1.1969 -3.0364  1.5196
 1232SOL    HW215159   1.619   4.456   6.391  0.2653  0.5006 -1.2928
 1233SOL     OW15160   2.333   0.789   2.067 -0.1258  0.2085 -0.1964
 1233SOL    HW115161   2.424   0.767   2.048 -0.3915 -2.1487  1.2560
 1233SOL    HW215162   2.311   0.729   2.138 -0.2913  0.6316  0.1129
 1234SOL     OW15163   2.854   2.584   8.251 -0.0108  0.0405 -0.0593
 1234SOL    HW115164   2.857   2.660   8.310 -0.1882 -0.5060  0.6520
 1234SOL    HW215165   2.864   2.509   8.309 -2.2874  0.1823  0.5310
 1235SOL     OW15166   1.810   3.102   4.407 -0.2532 -0.1586 -0.2758
 1235SOL    HW115167   1.871   3.109   4.333 -1.7378  2.3866 -1.2327
 1235SOL    HW215168   1.721   3.112   4.374 -0.5396 -0.6480  0.3579
 1236SOL     OW15169   0.615   3.182   8.039  0.5890 -0.4566  0.5407
 1236SOL    HW115170   0.590   3.104   8.089 -0.8076 -0.8484 -0.7789
 1236SOL    HW215171   0.566   3.256   8.073  0.6074 -1.3960  2.6363
 1237SOL     OW15172   1.725   3.227   0.998 -0.0424 -0.0737  0.4548
 1237SOL    HW115173   1.657   3.166   0.970 -0.5418  0.5342  0.3298
 1237SOL    HW215174   1.677   3.307   1.017 -0.6464 -0.5784  1.0170
 1238SOL     OW15175   1.816   3.638   7.381  0.4315  0.0684  0.2973
 1238SOL    HW115176   1.862   3.661   7.461  0.0180 -0.6450  0.7508
 1238SOL    HW215177   1.820   3.542   7.379  0.1433  0.1232 -2.7149
 1239SOL     OW15178   0.841   1.788   8.185 -0.2017 -0.1346 -0.3052
 1239SOL    HW115179   0.794   1.867   8.158 -0.9310 -0.2481  0.6499
 1239SOL    HW215180   0.927   1.827   8.202 -0.8019  0.9503  0.1993
 1240SOL     OW15181   1.766   0.560   0.956 -0.0918 -0.4760  0.0616
 1240SOL    HW115182   1.804   0.509   0.885  0.4573  0.8914 -0.6305
 1240SOL    HW215183   1.682   0.517   0.972  0.3317 -1.7755 -1.2177
 1241SOL     OW15184   1.586   4.526   7.233 -0.8918  0.1072 -0.2698
 1241SOL    HW115185   1.528   4.470   7.181 -0.6272 -0.4337  0.0207
 1241SOL    HW215186   1.536   4.605   7.254  0.6710  1.3606 -1.2307
 1242SOL     OW15187   2.604   3.611   6.332  0.3841 -0.3276 -0.3931
 1242SOL    HW115188   2.699   3.605   6.343  0.1650  0.1856  1.8266
 1242SOL    HW215189   2.597   3.663   6.252 -1.1459 -1.4163 -0.9575
 1243SOL     OW15190   1.348   0.731   4.803 -0.3746 -0.2413 -0.1628
 1243SOL    HW115191   1.368   0.817   4.765  0.8290 -1.9009 -3.2917
 1243SOL    HW215192   1.292   0.698   4.733  0.8225 -2.5195 -0.0551
 1244SOL     OW15193   1.687   1.996   1.153 -0.4608 -0.5287  0.5892
 1244SOL    HW115194   1.739   1.953   1.085  0.8031  0.5330  0.8771
 1244SOL    HW215195   1.691   2.086   1.121 -1.9266 -1.1482 -1.3263
 1245SOL     OW15196   0.877   0.233   2.648 -0.3521 -0.5062 -0.0829
 1245SOL    HW115197   0.846   0.186   2.726  0.5477  0.9104  1.1452
 1245SOL    HW215198   0.799   0.226   2.593 -1.4331 -1.9172  1.6284
 1246SOL     OW15199   4.094   4.437   6.924  0.0812 -0.1001  0.3335
 1246SOL    HW115200   4.119   4.408   7.012 -1.3570  0.6013  0.9838
 1246SOL    HW215201   4.132   4.364   6.875 -2.9536 -1.2281 -0.3369
 1247SOL     OW15202   1.076   1.996  13.089 -0.0636  0.5795  0.4803
 1247SOL    HW115203   1.109   1.925  13.034 -3.2673 -1.4235  1.1843
 1247SOL    HW215204   1.030   1.942  13.153  0.7847  0.9046  1.3529
 1248SOL     OW15205   3.194   2.435  10.014  0.5616 -0.1782 -0.0342
 1248SOL    HW115206   3.200   2.454   9.921 -1.5777  0.8770  0.0362
 1248SOL    HW215207   3.282   2.400  10.025  0.7565  0.6979  1.1543
 1249SOL     OW15208   0.694   1.642   2.181  0.3891 -0.1729 -0.5699
 1249SOL    HW115209   0.730   1.555   2.196  0.3199 -0.4059 -1.7419
 1249SOL    HW215210   0.778   1.683   2.161  0.4568 -1.2104 -2.4191
 1250SOL     OW15211   2.542   0.441   5.642 -0.1105  0.5322 -0.4944
 1250SOL    HW115212   2.492   0.502   5.588 -0.9017  0.7829  0.5287
 1250SOL    HW215213   2.508   0.361   5.601  1.2316 -0.9670  1.3004
 1251SOL     OW15214   3.807   0.353   3.178 -0.0502 -0.4286  0.0500
 1251SOL    HW115215   3.736   0.295   3.153 -0.2514 -0.1563 -0.0045
 1251SOL    HW215216   3.772   0.441   3.167  0.2717  0.0309  2.7217
 1252SOL     OW15217   1.875   3.348   2.992  0.0162 -0.3365 -0.1252
 1252SOL    HW115218   1.783   3.371   2.977  0.4240  1.2556 -0.2135
 1252SOL    HW215219   1.892   3.277   2.930  2.7978  2.2375 -2.3033
 1253SOL     OW15220   3.514   3.851   5.557  0.7636  0.3868  0.8034
 1253SOL    HW115221   3.544   3.936   5.590  1.0636  0.6810 -0.2338
 1253SOL    HW215222   3.423   3.864   5.530  2.3406  2.3593 -3.6476
 1254SOL     OW15223   0.487   2.497  12.806 -0.0115 -0.6650  1.0235
 1254SOL    HW115224   0.540   2.571  12.778 -0.2519 -0.6814  0.5175
 1254SOL    HW215225   0.474   2.516  12.898  1.4768 -2.7377  1.6596
 1255SOL     OW15226   2.033   2.382   4.660  0.3390 -0.5024  0.2270
 1255SOL    HW115227   1.998   2.439   4.592  1.5807 -0.5864 -0.4877
 1255SOL    HW215228   2.123   2.406   4.638 -0.3296  0.1576 -1.7268
 1256SOL     OW15229   3.622   2.840   5.670  0.8118 -0.3765 -0.0325
 1256SOL    HW115230   3.541   2.891   5.665 -0.1357 -1.7152  1.8869
 1256SOL    HW215231   3.578   2.759   5.695  1.4001 -0.5503  0.4250
 1257SOL     OW15232   1.861   3.879   6.260 -0.0037  0.2705 -0.1749
 1257SOL    HW115233   1.907   3.963   6.268  0.4844 -0.1556  1.4660
 1257SOL    HW215234   1.837   3.867   6.352 -3.3832 -1.7522 -1.3298
 1258SOL     OW15235   0.484   1.725   3.396 -0.1453 -0.1258 -0.6035
 1258SOL    HW115236   0.426   1.776   3.339  0.7075  0.8479 -0.6085
 1258SOL    HW215237   0.500   1.782   3.471 -1.0847  0.2860 -0.7098
 1259SOL     OW15238   3.899   2.827   2.010 -0.7253 -0.2050  0.2908
 1259SOL    HW115239   3.837   2.826   1.937 -1.4639 -1.7911  0.9359
 1259SOL    HW215240   3.843   2.846   2.085  2.5249  0.6666  2.4605
 1260SOL     OW15241   0.775   2.718   6.758  1.0417 -0.4619  0.0451
 1260SOL    HW115242   0.694   2.667   6.750  2.2827 -2.5609  0.6407
 1260SOL    HW215243   0.811   2.716   6.670  0.9672 -0.5506  0.0166
 1261SOL     OW15244   1.672   2.187   4.176 -0.5106 -0.4028  0.4443
 1261SOL    HW115245   1.675   2.196   4.271 -2.7457 -0.3112  0.5017
 1261SOL    HW215246   1.581   2.171   4.152  0.1993 -0.4281 -2.2202
 1262SOL     OW15247   0.025   3.128   6.324  0.1261  0.3240 -0.3291
 1262SOL    HW115248   0.015   3.039   6.291 -0.4767  0.0144  0.6865
 1262SOL    HW215249   0.011   3.106   6.416  0.4958 -1.6648 -0.7580
 1263SOL     OW15250   0.001   2.701  15.969  0.7912 -0.2877 -0.7862
 1263SOL    HW115251   4.700   2.633  16.031 -0.4134  1.5340  0.7243
 1263SOL    HW215252   4.695   2.657  15.890  0.8529  0.2154 -1.0932
 1264SOL     OW15253   4.069   0.842   2.491  0.1784 -0.1837 -0.3992
 1264SOL    HW115254   4.048   0.751   2.513  0.0800  0.1560  0.9680
 1264SOL    HW215255   4.165   0.836   2.494  0.1356  0.0108  1.5862
 1265SOL     OW15256   0.505   2.689   8.336 -0.0644  0.4238 -0.2044
 1265SOL    HW115257   0.424   2.723   8.375 -0.3422 -1.7629  1.1131
 1265SOL    HW215258   0.559   2.682   8.415 -2.6931 -1.5588  1.4425
 1266SOL     OW15259   0.961   4.636   6.367  0.2007  0.4618 -0.0304
 1266SOL    HW115260   1.045   4.591   6.371 -1.0614 -1.8452  0.7383
 1266SOL    HW215261   0.924   4.592   6.290 -0.8947  0.4942  0.4639
 1267SOL     OW15262   2.992   1.083   7.097  0.1153  0.1157 -0.5461
 1267SOL    HW115263   2.939   1.086   7.017 -2.1942  0.7212  1.0103
 1267SOL    HW215264   3.015   0.990   7.101 -2.5149 -0.5420 -0.4417
 1268SOL     OW15265   0.010   4.043  16.145 -0.4607  0.4305  0.6365
 1268SOL    HW115266   0.044   4.131  16.125  3.2985 -1.4666 -1.3454
 1268SOL    HW215267   0.074   4.006  16.206  0.1606 -0.6218 -0.6665
 1269SOL     OW15268   2.900   0.807  11.114 -0.5330 -0.2129  0.0294
 1269SOL    HW115269   2.953   0.793  11.192  0.4554  1.3272 -0.3646
 1269SOL    HW215270   2.942   0.740  11.060  0.5851  0.7158 -0.2577
 1270SOL     OW15271   1.170   1.538   1.936 -0.0201  0.5853  0.2944
 1270SOL    HW115272   1.097   1.588   1.900  2.6055  3.0763 -1.5167
 1270SOL    HW215273   1.180   1.485   1.857  0.4927  0.4331  0.4604
 1271SOL     OW15274   1.985   4.374  16.871 -0.8519  0.1424 -0.4148
 1271SOL    HW115275   1.950   4.315  16.805  0.2072  0.4386 -1.2397
 1271SOL    HW215276   1.954   4.460  16.844 -0.6775 -0.3828 -2.2796
 1272SOL     OW15277   3.600   1.532  14.869 -0.0245  0.5947  0.0026
 1272SOL    HW115278   3.506   1.526  14.885  0.1648 -1.4377  0.3409
 1272SOL    HW215279   3.633   1.526  14.958  1.5016  1.2358 -0.5111
 1273SOL     OW15280   2.639   0.196   1.876  0.3068 -0.0696  0.2550
 1273SOL    HW115281   2.692   0.134   1.827 -1.0105 -1.0304  0.0573
 1273SOL    HW215282   2.574   0.221   1.810  2.2139  0.7159 -1.3260
 1274SOL     OW15283   1.633   2.232   3.130  0.2684 -0.2037 -0.1472
 1274SOL    HW115284   1.608   2.234   3.038  1.6909 -0.1814 -0.5203
 1274SOL    HW215285   1.717   2.187   3.135 -0.1526 -1.2859 -2.8907
 1275SOL     OW15286   1.706   2.096   8.946 -0.6244  0.0408 -0.3264
 1275SOL    HW115287   1.678   2.182   8.914  1.1743  0.2134 -1.4544
 1275SOL    HW215288   1.630   2.059   8.990 -0.7980  0.4441 -0.2912
 1276SOL     OW15289   1.851   0.816   0.897 -0.0510 -0.3609 -0.8133
 1276SOL    HW115290   1.826   0.730   0.930 -0.6658  0.3360  0.5561
 1276SOL    HW215291   1.772   0.841   0.848 -1.1783  0.3600  1.3502
 1277SOL     OW15292   3.249   1.063   2.939 -0.1520  0.0456  0.0187
 1277SOL    HW115293   3.337   1.095   2.960 -0.7659  1.9560 -0.2921
 1277SOL    HW215294   3.209   1.150   2.942 -0.1408  0.0446  0.1932
 1278SOL     OW15295   0.305   1.333   4.780 -0.1467  0.8961  0.0821
 1278SOL    HW115296   0.354   1.415   4.785  0.2185  0.6374  0.6489
 1278SOL    HW215297   0.377   1.275   4.755 -0.1736  0.6731  0.5286
 1279SOL     OW15298   0.430   2.104   2.338  0.2420 -0.0896 -0.3436
 1279SOL    HW115299   0.371   2.076   2.267 -1.2252  0.5021  0.6360
 1279SOL    HW215300   0.481   2.025   2.353 -0.6118 -0.2896  1.5066
 1280SOL     OW15301   0.345   2.831  15.573 -0.1301  0.6398 -0.9204
 1280SOL    HW115302   0.298   2.757  15.613  0.6682  0.9683  0.6340
 1280SOL    HW215303   0.409   2.789  15.516 -1.0129  0.5094 -1.8148
 1281SOL     OW15304   1.826   1.370   1.611 -0.4858  0.2968 -0.1520
 1281SOL    HW115305   1.741   1.412   1.596 -0.5217  0.2624 -0.0466
 1281SOL    HW215306   1.883   1.408   1.545  1.9253  0.8524  2.2558
 1282SOL     OW15307   0.805   3.597   6.960  0.4410 -0.3531  0.1791
 1282SOL    HW115308   0.773   3.589   7.050  0.3446  0.5725  0.2252
 1282SOL    HW215309   0.749   3.665   6.924  0.5718 -0.4396 -0.1861
 1283SOL     OW15310   4.235   0.102  15.167  0.2771 -0.1734 -0.1693
 1283SOL    HW115311   4.203   0.185  15.204 -0.8846 -1.1601  1.0301
 1283SOL    HW215312   4.322   0.099  15.206 -0.7987 -2.7200  2.0304
 1284SOL     OW15313   1.126   2.838  11.817  0.3837  0.4071 -0.0028
 1284SOL    HW115314   1.037   2.853  11.787 -0.4427  0.8814  2.7103
 1284SOL    HW215315   1.118   2.806  11.907 -2.7254  1.0462 -0.0506
 1285SOL     OW15316   1.595   0.596  12.305 -0.1511  0.2835  0.2863
 1285SOL    HW115317   1.625   0.536  12.373 -0.5242 -1.5229 -1.1525
 1285SOL    HW215318   1.508   0.616  12.342 -0.6216 -0.4798 -0.4093
 1286SOL     OW15319   1.651   4.337   4.616  0.7140 -0.1370 -0.0237
 1286SOL    HW115320   1.685   4.256   4.578  0.0343  0.7697 -2.5998
 1286SOL    HW215321   1.714   4.399   4.580 -2.4204  1.0481 -3.4438
 1287SOL     OW15322   0.545   3.909   6.306  0.0017  0.0656  0.3689
 1287SOL    HW115323   0.477   3.850   6.337  2.2009 -2.2724  0.7478
 1287SOL    HW215324   0.487   3.985   6.300  0.9381  0.8138  0.8972
 1288SOL     OW15325   4.075   3.400   7.645  0.0905  0.3428  0.6794
 1288SOL    HW115326   4.044   3.367   7.730  1.1544 -1.8925  0.1939
 1288SOL    HW215327   4.142   3.335   7.626 -2.1041 -2.0972  1.3654
 1289SOL     OW15328   3.047   2.586   7.612 -0.5022  0.7932  0.3110
 1289SOL    HW115329   3.071   2.500   7.647  0.1362  0.5427 -0.7467
 1289SOL    HW215330   3.077   2.580   7.521 -1.2586  2.2471 -0.0336
 1290SOL     OW15331   1.676   2.265   7.316  0.1319  0.5272  0.0007
 1290SOL    HW115332   1.604   2.318   7.349  0.2708  0.6972  0.0343
 1290SOL    HW215333   1.639   2.178   7.301 -0.7581  0.9631 -0.3041
 1291SOL     OW15334   2.810   1.293   9.112  0.0007 -0.4186  0.1838
 1291SOL    HW115335   2.874   1.324   9.048  1.6915 -3.5734  0.2996
 1291SOL    HW215336   2.871   1.250   9.172 -1.6765 -1.4014  1.1851
 1292SOL     OW15337   3.902   4.675   5.051  0.1699  0.1033 -0.3632
 1292SOL    HW115338   3.968   4.724   5.102 -1.9420  1.1614  1.3735
 1292SOL    HW215339   3.931   4.692   4.962 -1.8323 -1.7005 -1.3420
 1293SOL     OW15340   0.937   3.531   4.946  0.9606 -0.0832 -0.3101
 1293SOL    HW115341   0.978   3.569   5.023  1.7169  0.6263 -1.0671
 1293SOL    HW215342   1.006   3.537   4.880  1.2196  0.1668 -0.0122
 1294SOL     OW15343   4.095   3.274  11.462 -0.1772  0.0631  0.0775
 1294SOL    HW115344   4.072   3.181  11.458  1.2003 -0.3311  0.8234
 1294SOL    HW215345   4.119   3.292  11.371  0.7313 -0.2317  0.2522
 1295SOL     OW15346   4.020   2.563   9.032  0.6192 -0.3497  0.0133
 1295SOL    HW115347   4.048   2.617   8.958 -1.2008  0.5179 -0.0372
 1295SOL    HW215348   4.101   2.554   9.083  0.1672 -2.7446  0.3247
 1296SOL     OW15349   0.579   1.528   3.600  0.4297 -0.3035  0.3344
 1296SOL    HW115350   0.585   1.450   3.544  1.2236 -0.4146  0.5729
 1296SOL    HW215351   0.552   1.598   3.542 -0.7455  0.7210  2.1054
 1297SOL     OW15352   3.676   1.859   7.716  0.3450  0.8406  0.5446
 1297SOL    HW115353   3.590   1.894   7.738  0.4883  1.2943  0.3804
 1297SOL    HW215354   3.729   1.895   7.788 -3.1104  1.7026  2.6220
 1298SOL     OW15355   3.776   2.029   1.979  0.2521  0.3824  0.1895
 1298SOL    HW115356   3.712   2.055   2.045  0.6629  3.0569 -0.4577
 1298SOL    HW215357   3.744   1.941   1.958 -0.9085  0.3040  2.2182
 1299SOL     OW15358   2.132   0.912  15.170  0.2746 -0.6180 -0.2931
 1299SOL    HW115359   2.117   0.878  15.258  2.3140  0.8145  0.6021
 1299SOL    HW215360   2.098   0.839  15.117  1.8432 -0.5357 -1.4270
 1300SOL     OW15361   4.356   1.814   2.601  0.2753  0.2211  0.0739
 1300SOL    HW115362   4.264   1.840   2.596  0.3263  0.2715 -0.7210
 1300SOL    HW215363   4.388   1.892   2.554  0.9157 -0.8744 -1.3029
 1301SOL     OW15364   0.227   2.261   1.963  0.2577  0.0893  0.2615
 1301SOL    HW115365   0.236   2.320   2.038  1.1864 -0.3485  0.4912
 1301SOL    HW215366   0.137   2.238   1.984 -0.4763  2.7414  0.0347
 1302SOL     OW15367   1.868   3.262   8.853  0.5304  0.3637 -0.0687
 1302SOL    HW115368   1.793   3.217   8.816  2.1465 -2.7720  0.4162
 1302SOL    HW215369   1.929   3.193   8.880 -1.2073 -0.6552  1.2915
 1303SOL     OW15370   2.624   2.944   9.960 -0.0388 -0.4351 -0.5845
 1303SOL    HW115371   2.678   2.935  10.039  0.0101  0.3802 -0.5240
 1303SOL    HW215372   2.628   2.857   9.919  3.6519 -0.5648 -0.0090
 1304SOL     OW15373   4.077   0.494  10.930 -0.6136  0.0875 -0.3248
 1304SOL    HW115374   4.163   0.455  10.944 -0.0851  1.7159  0.8777
 1304SOL    HW215375   4.047   0.511  11.019  0.8625  0.9433 -0.0054
 1305SOL     OW15376   1.520   0.404   5.122 -0.3210  0.2544  0.4612
 1305SOL    HW115377   1.527   0.393   5.217  1.6752 -0.2317  0.2668
 1305SOL    HW215378   1.499   0.316   5.092  0.6716 -0.8505  2.9918
 1306SOL     OW15379   0.424   4.544  15.591 -0.5484 -0.2598  0.4871
 1306SOL    HW115380   0.370   4.465  15.593 -0.6475 -0.1966  0.3407
 1306SOL    HW215381   0.509   4.510  15.620 -0.9401 -0.4198  1.4434
 1307SOL     OW15382   4.327   2.683   2.704  0.0541 -0.6737 -0.1500
 1307SOL    HW115383   4.317   2.596   2.665  0.4426 -0.3139 -1.0770
 1307SOL    HW215384   4.309   2.662   2.795  1.2259  0.1625  0.2772
 1308SOL     OW15385   1.008   3.163   7.899  0.2989 -0.5682  0.3327
 1308SOL    HW115386   1.019   3.258   7.910  0.2625 -0.6918  1.4052
 1308SOL    HW215387   0.953   3.134   7.972  0.4095  3.5137  2.0515
 1309SOL     OW15388   0.075   4.194  17.412 -0.0540 -0.0031 -0.1029
 1309SOL    HW115389   0.133   4.201  17.336 -0.4369  0.7952 -0.3145
 1309SOL    HW215390   0.004   4.146  17.369  1.7571 -1.1402 -1.8722
 1310SOL     OW15391   2.504   2.922  15.428 -0.1765  0.1320  0.2947
 1310SOL    HW115392   2.455   2.883  15.500  0.7135  1.3708  1.5512
 1310SOL    HW215393   2.439   2.980  15.388  0.9635  1.1033 -0.1681
 1311SOL     OW15394   3.172   4.716   5.265  0.0502 -0.0147 -0.0385
 1311SOL    HW115395   3.212   0.017   5.182  0.9442 -0.7299  0.1698
 1311SOL    HW215396   3.092   4.674   5.234 -1.6168  0.4452  3.6196
 1312SOL     OW15397   2.526   2.865   8.024 -0.1188 -0.5882  0.0021
 1312SOL    HW115398   2.484   2.787   7.988 -1.6865  0.7134 -1.0007
 1312SOL    HW215399   2.615   2.832   8.039  0.5285  0.4431 -1.6065
 1313SOL     OW15400   1.114   0.462   8.350 -0.0608 -0.1812  0.2307
 1313SOL    HW115401   1.145   0.379   8.388 -0.1390 -0.3725 -0.1240
 1313SOL    HW215402   1.039   0.467   8.410 -0.3514 -2.1824  0.0469
 1314SOL     OW15403   3.583   1.241   4.368 -0.4365 -0.1084  0.0897
 1314SOL    HW115404   3.511   1.179   4.361  0.5193 -1.2297  0.3194
 1314SOL    HW215405   3.658   1.183   4.357 -1.8263 -2.3971  2.8958
 1315SOL     OW15406   1.827   3.695   5.264  0.7776  0.3416 -0.0398
 1315SOL    HW115407   1.854   3.741   5.344  0.0419  3.6043 -1.6526
 1315SOL    HW215408   1.781   3.620   5.302  0.8785 -0.0902 -0.7719
 1316SOL     OW15409   3.865   2.659   4.487 -0.4647 -0.1185  0.0836
 1316SOL    HW115410   3.927   2.625   4.423  0.8725  2.8984 -0.1978
 1316SOL    HW215411   3.779   2.667   4.447 -0.0918  0.8371 -0.5372
 1317SOL     OW15412   0.950   1.158   8.342 -0.7272  0.0306 -0.6574
 1317SOL    HW115413   0.889   1.137   8.413 -1.6142  0.0188 -1.4196
 1317SOL    HW215414   0.970   1.251   8.349 -0.8059 -0.0146  0.0933
 1318SOL     OW15415   2.470   1.602   5.287  0.5080  0.0987 -0.6902
 1318SOL    HW115416   2.437   1.515   5.264  1.3646 -0.9156  1.9225
 1318SOL    HW215417   2.474   1.582   5.381 -2.5327 -2.0778 -1.0260
 1319SOL     OW15418   1.041   0.389   2.801 -0.2131 -0.7898 -0.2890
 1319SOL    HW115419   0.974   0.438   2.849  1.9389  2.3019 -0.4443
 1319SOL    HW215420   0.993   0.343   2.732  1.6616  0.5439 -2.4721
 1320SOL     OW15421   2.013   0.398   7.185  0.0729  0.2088  0.1656
 1320SOL    HW115422   2.055   0.393   7.271 -1.1682  1.0399  0.8395
 1320SOL    HW215423   2.091   0.422   7.137  0.0826 -1.6191 -0.6988
 1321SOL     OW15424   3.150   4.536  13.908  0.1583  0.7140 -0.0569
 1321SOL    HW115425   3.065   4.494  13.917 -0.1125  0.6482 -2.9031
 1321SOL    HW215426   3.138   4.591  13.986  0.5033 -0.4596  0.8288
 1322SOL     OW15427   0.941   1.184   5.432  0.6310 -0.1953  0.0243
 1322SOL    HW115428   0.886   1.158   5.359 -0.0968  1.3704  0.0126
 1322SOL    HW215429   0.988   1.258   5.394 -0.7932  1.9285  2.3762
 1323SOL     OW15430   1.548   1.811   5.308  0.2392  0.3448  0.2387
 1323SOL    HW115431   1.498   1.741   5.267  0.4321  0.2308  0.1965
 1323SOL    HW215432   1.631   1.792   5.264  0.8163 -0.1759  1.5204
 1324SOL     OW15433   2.017   0.178  12.490  0.1807 -0.6584  0.1918
 1324SOL    HW115434   2.048   0.194  12.579  1.3779 -1.8222 -0.0218
 1324SOL    HW215435   2.093   0.145  12.443 -1.0125 -1.5281 -1.1365
 1325SOL     OW15436   2.389   3.219   6.359  0.5548  0.6892 -0.1112
 1325SOL    HW115437   2.297   3.232   6.381  0.9709  1.2950  1.2671
 1325SOL    HW215438   2.402   3.159   6.285 -0.5626  0.6935 -0.3065
 1326SOL     OW15439   3.994   4.027   6.896  0.1239  0.0801  0.3562
 1326SOL    HW115440   4.072   4.082   6.902  1.6194 -1.8308 -1.2035
 1326SOL    HW215441   4.022   3.936   6.909  1.5813  0.7610  1.9969
 1327SOL     OW15442   3.349   0.061   8.181 -0.0348  0.4191  0.2039
 1327SOL    HW115443   3.341   0.058   8.086 -0.1132 -1.0467  0.2467
 1327SOL    HW215444   3.327   4.696   8.208  2.5472 -0.5864 -1.0256
 1328SOL     OW15445   0.314   3.137   6.921 -0.0628  0.5663  0.2737
 1328SOL    HW115446   0.388   3.178   6.965  0.8190  0.3122 -0.9807
 1328SOL    HW215447   0.323   3.051   6.963  2.1550  0.4361 -0.4437
 1329SOL     OW15448   0.047   3.556   5.589  0.5271  0.1139  0.6297
 1329SOL    HW115449   4.713   3.543   5.514  3.1108  1.6537 -1.6165
 1329SOL    HW215450   0.050   3.651   5.593 -1.3870  0.1775  0.8488
 1330SOL     OW15451   3.716   1.140   7.012 -0.4620 -0.3529 -0.1361
 1330SOL    HW115452   3.775   1.144   6.937 -0.7165  1.2916 -0.2300
 1330SOL    HW215453   3.665   1.220   7.008  0.2535  0.2196  2.1851
 1331SOL     OW15454   1.355   1.837   3.954  0.1194 -0.2329  0.1539
 1331SOL    HW115455   1.282   1.799   4.003  0.9811  0.0944  1.6760
 1331SOL    HW215456   1.328   1.927   3.939  1.1340 -0.2169 -1.6319
 1332SOL     OW15457   3.310   2.320   1.624  0.0750 -0.3086  0.3360
 1332SOL    HW115458   3.298   2.385   1.554  1.3117  0.3927  0.7683
 1332SOL    HW215459   3.241   2.353   1.682 -0.9514  2.6222 -2.5160
 1333SOL     OW15460   2.456   1.651   2.689  0.0732 -0.0972  0.3649
 1333SOL    HW115461   2.479   1.680   2.601  0.4867 -0.4347  0.3602
 1333SOL    HW215462   2.402   1.577   2.663  0.8205  0.0579 -1.6998
 1334SOL     OW15463   1.304   4.063  12.414 -0.4514 -0.3115 -0.2406
 1334SOL    HW115464   1.298   4.088  12.322 -1.4194 -0.4603 -0.2231
 1334SOL    HW215465   1.244   4.128  12.451  0.6537  0.7688 -0.3358
 1335SOL     OW15466   1.834   2.697  10.179 -0.3652  0.1238  0.3159
 1335SOL    HW115467   1.740   2.709  10.196 -0.5419  0.8080 -1.1643
 1335SOL    HW215468   1.832   2.638  10.104 -1.7510 -0.0416  0.4762
 1336SOL     OW15469   2.145   2.094   2.728 -0.8311  0.9629  0.7181
 1336SOL    HW115470   2.087   2.133   2.662 -2.5971 -1.4470  0.8374
 1336SOL    HW215471   2.223   2.088   2.674 -1.2889 -0.5616  0.2241
 1337SOL     OW15472   4.419   3.098   2.778  0.5745 -0.1482 -0.8889
 1337SOL    HW115473   4.483   3.103   2.707  2.1637 -1.0877  0.4882
 1337SOL    HW215474   4.436   3.006   2.799 -0.6195 -0.3874 -0.9378
 1338SOL     OW15475   2.597   3.723   7.028  0.2760  0.0356  0.3338
 1338SOL    HW115476   2.518   3.761   7.066  0.2459 -0.5234  0.8325
 1338SOL    HW215477   2.604   3.777   6.949 -1.5504 -1.0591 -0.5953
 1339SOL     OW15478   2.887   1.648   5.210 -0.0341  0.4508  0.2453
 1339SOL    HW115479   2.885   1.623   5.302  1.7440 -2.5093 -0.4883
 1339SOL    HW215480   2.809   1.600   5.181 -0.2986 -1.5797  4.2500
 1340SOL     OW15481   0.753   1.655  10.213 -0.2855  0.3401  0.0484
 1340SOL    HW115482   0.718   1.724  10.270  0.9255  0.7460  0.3067
 1340SOL    HW215483   0.800   1.600  10.275 -0.3150 -0.6529 -0.8142
 1341SOL     OW15484   3.308   2.931   3.005 -0.0062 -0.0807 -0.0867
 1341SOL    HW115485   3.334   3.008   3.055 -0.9666  0.3409 -0.2495
 1341SOL    HW215486   3.306   2.959   2.914 -0.1816  1.4108  0.3776
 1342SOL     OW15487   2.793   4.001  17.693  0.1636 -0.7978  0.2043
 1342SOL    HW115488   2.877   4.039  17.668  0.2117 -2.4848 -2.1884
 1342SOL    HW215489   2.735   4.053  17.638  1.4044  1.0118  0.6085
 1343SOL     OW15490   1.700   2.770   5.657  0.5939  0.3461 -0.0301
 1343SOL    HW115491   1.658   2.722   5.586  1.2290  0.0476 -0.2019
 1343SOL    HW215492   1.626   2.787   5.715  2.1163  0.0470  2.0176
 1344SOL     OW15493   3.208   0.660   5.383 -0.5392  0.2817 -0.3321
 1344SOL    HW115494   3.294   0.694   5.407  0.4461 -1.7431 -0.9867
 1344SOL    HW215495   3.193   0.598   5.454 -0.6343  0.6303 -0.0479
 1345SOL     OW15496   4.519   4.061   4.747  0.3121 -0.2518  0.1534
 1345SOL    HW115497   4.549   4.109   4.669  3.4119 -2.5256 -0.0815
 1345SOL    HW215498   4.547   3.972   4.724  1.2293 -0.1671  0.9481
 1346SOL     OW15499   1.983   2.601   6.389  0.4409 -0.1604  0.1605
 1346SOL    HW115500   2.012   2.537   6.324  1.6919  0.4850  0.0690
 1346SOL    HW215501   1.893   2.570   6.399  0.1016  1.2108  1.3386
 1347SOL     OW15502   1.219   4.637   4.694  0.0715 -0.2586  0.3893
 1347SOL    HW115503   1.162   4.590   4.633 -0.0175 -1.9108  1.7453
 1347SOL    HW215504   1.301   4.590   4.680  0.8499  1.0498  0.5338
 1348SOL     OW15505   3.498   2.437  14.932  0.1516  0.2739  0.0565
 1348SOL    HW115506   3.594   2.443  14.940  0.3711 -4.7077  1.2713
 1348SOL    HW215507   3.469   2.519  14.893 -1.0081  0.1722  0.6935
 1349SOL     OW15508   2.081   2.839   4.795 -0.0424 -0.2310 -0.1064
 1349SOL    HW115509   2.154   2.898   4.814 -0.7877  0.1412  1.5653
 1349SOL    HW215510   2.040   2.900   4.733  0.4530 -0.1366 -0.3422
 1350SOL     OW15511   1.716   1.794   5.832  0.5549  0.1530  0.0741
 1350SOL    HW115512   1.622   1.791   5.851  0.3520  3.4379 -0.5038
 1350SOL    HW215513   1.743   1.737   5.905  1.4296 -1.8236 -1.7959
 1351SOL     OW15514   2.390   3.577   5.958  0.3605  0.3933 -0.1494
 1351SOL    HW115515   2.325   3.643   5.982  0.3615  0.5878 -0.6958
 1351SOL    HW215516   2.460   3.639   5.940  1.4149 -0.7985 -0.1661
 1352SOL     OW15517   2.370   4.210   2.146  0.3979 -0.2671 -0.2611
 1352SOL    HW115518   2.431   4.221   2.219 -1.6365  1.1073  1.2296
 1352SOL    HW215519   2.370   4.115   2.133  0.5346 -0.4039  0.7434
 1353SOL     OW15520   3.664   2.253   3.219 -0.2843 -0.5231 -0.5558
 1353SOL    HW115521   3.596   2.223   3.280 -0.0671 -0.6543 -0.3743
 1353SOL    HW215522   3.651   2.348   3.222  1.9375 -0.1706 -3.2825
 1354SOL     OW15523   0.206   3.910  16.291  0.1637  0.0154  0.1673
 1354SOL    HW115524   0.275   3.975  16.275  0.3169 -0.4098 -0.9418
 1354SOL    HW215525   0.224   3.883  16.381  0.7898  2.1970  0.6965
 1355SOL     OW15526   0.671   3.428   5.239 -0.4980 -0.2070 -0.4121
 1355SOL    HW115527   0.669   3.504   5.297 -0.3098 -0.4731 -0.0623
 1355SOL    HW215528   0.607   3.376   5.287  0.2572 -0.3239  0.4641
 1356SOL     OW15529   3.624   0.552   8.132 -0.0073 -0.3011  0.2790
 1356SOL    HW115530   3.586   0.640   8.138  0.2253 -0.2451  0.9265
 1356SOL    HW215531   3.571   0.522   8.058 -0.2075  0.3583  0.1524
 1357SOL     OW15532   1.781   2.287   5.381  0.2661  0.7773 -0.1089
 1357SOL    HW115533   1.708   2.340   5.350  0.1721  0.3886 -0.5471
 1357SOL    HW215534   1.729   2.206   5.382  0.7568  0.4493 -0.5967
 1358SOL     OW15535   2.601   4.654   5.345  0.0288  0.0669  0.5631
 1358SOL    HW115536   2.642   0.006   5.385  1.2619  1.0479 -2.6068
 1358SOL    HW215537   2.584   4.680   5.254 -0.4852 -0.3327  0.5439
 1359SOL     OW15538   3.040   0.893   9.534  0.2871  0.2253  0.2572
 1359SOL    HW115539   3.132   0.906   9.510  0.2454 -0.1005 -0.0805
 1359SOL    HW215540   3.046   0.825   9.601 -4.5143 -1.2325 -0.7901
 1360SOL     OW15541   4.431   2.660   6.724  0.1567  0.1286  0.0113
 1360SOL    HW115542   4.476   2.590   6.677  0.6745 -0.2253  1.0326
 1360SOL    HW215543   4.487   2.738   6.726 -2.9577  2.4101 -0.7517
 1361SOL     OW15544   0.732   3.308   6.840 -0.2585 -0.1948  0.1479
 1361SOL    HW115545   0.718   3.394   6.801  0.1417 -1.1452 -2.0806
 1361SOL    HW215546   0.662   3.317   6.905 -1.5779  0.9553 -1.4393
 1362SOL     OW15547   1.315   2.086   7.789 -0.1417  0.2710 -0.2074
 1362SOL    HW115548   1.330   2.177   7.813 -3.6969  1.0155 -0.7595
 1362SOL    HW215549   1.289   2.102   7.698  0.4008  0.8093 -0.2619
 1363SOL     OW15550   4.494   0.324   4.734 -0.4363 -0.3259 -0.1464
 1363SOL    HW115551   4.503   0.237   4.773  1.6167 -1.0810 -2.3263
 1363SOL    HW215552   4.544   0.314   4.653  0.2229  0.2702  0.1897
 1364SOL     OW15553   0.910   0.085   2.257  0.3361  0.5023  0.2803
 1364SOL    HW115554   0.965   0.011   2.280  0.9781  0.3652 -1.7451
 1364SOL    HW215555   0.917   0.094   2.162  2.3823 -0.0545  0.3609
 1365SOL     OW15556   1.773   4.426   2.770  0.6982  0.1556 -0.0806
 1365SOL    HW115557   1.817   4.484   2.707  1.7999 -0.5474  0.0396
 1365SOL    HW215558   1.716   4.493   2.808 -0.0658  0.2565 -1.3778
 1366SOL     OW15559   0.612   1.476   3.904  0.3659 -0.0526  0.2354
 1366SOL    HW115560   0.617   1.502   3.812 -0.6111 -1.2698 -0.1621
 1366SOL    HW215561   0.671   1.401   3.891 -1.1670 -1.3416  0.7735
 1367SOL     OW15562   0.013   0.669  17.163 -0.1633  0.1379  0.4189
 1367SOL    HW115563   4.699   0.693  17.079  0.1129  1.0672  0.5569
 1367SOL    HW215564   4.663   0.622  17.199  2.0274 -1.8863  2.3082
 1368SOL     OW15565   1.825   0.400   2.948  0.3973 -0.1299 -0.5985
 1368SOL    HW115566   1.845   0.342   2.875  0.7266  0.5267 -1.0188
 1368SOL    HW215567   1.914   0.396   2.984  0.5884  0.7922 -0.9863
 1369SOL     OW15568   1.149   0.751   4.582 -0.1891 -0.2082  0.1170
 1369SOL    HW115569   1.163   0.844   4.566  4.6000 -1.3775 -2.8081
 1369SOL    HW215570   1.108   0.754   4.668  1.1529  0.9371  0.7123
 1370SOL     OW15571   0.265   3.289  15.383 -0.3716  0.3682 -0.2627
 1370SOL    HW115572   0.327   3.256  15.448  0.8435  2.5176 -0.3567
 1370SOL    HW215573   0.188   3.233  15.390  1.8484 -2.8133 -1.3340
 1371SOL     OW15574   3.109   2.414   9.432 -0.3741 -0.0419  0.1818
 1371SOL    HW115575   3.151   2.328   9.443 -0.9491  0.0460  2.9985
 1371SOL    HW215576   3.069   2.412   9.519  1.7122  0.1296  1.1448
 1372SOL     OW15577   0.310   2.499   5.777  0.2379  0.0951  0.4732
 1372SOL    HW115578   0.301   2.510   5.682 -3.4957 -1.8585  0.6118
 1372SOL    HW215579   0.260   2.418   5.787  0.5675 -0.2071 -0.3411
 1373SOL     OW15580   4.247   3.398  16.426  0.1329  0.0453 -0.0783
 1373SOL    HW115581   4.247   3.477  16.480 -1.4523  0.2985 -0.4556
 1373SOL    HW215582   4.283   3.427  16.342  1.4012 -1.4478 -0.0460
 1374SOL     OW15583   0.147   2.348   4.668  0.0558  0.4418  0.1868
 1374SOL    HW115584   0.069   2.400   4.647  0.2432  1.4738  2.0309
 1374SOL    HW215585   0.164   2.304   4.585 -0.4055 -0.2556  0.4624
 1375SOL     OW15586   1.852   0.181   2.120  0.4070  0.1931  0.2887
 1375SOL    HW115587   1.863   0.091   2.089 -1.2288  0.1958 -0.2954
 1375SOL    HW215588   1.895   0.237   2.055 -1.9619 -1.1702 -2.4427
 1376SOL     OW15589   2.886   1.707  14.950  0.1016  0.2565  0.1196
 1376SOL    HW115590   2.804   1.656  14.946  0.0214  0.3496  0.5994
 1376SOL    HW215591   2.946   1.633  14.938 -0.9814 -0.4604 -0.9360
 1377SOL     OW15592   3.405   4.153   5.715  0.3187  0.2653  0.0335
 1377SOL    HW115593   3.324   4.134   5.667  0.9762 -3.5293  0.4189
 1377SOL    HW215594   3.431   4.243   5.694  1.0651  0.3613  1.3993
 1378SOL     OW15595   3.345   2.479   8.844  0.4570  0.1950 -0.2519
 1378SOL    HW115596   3.391   2.398   8.864  0.0018 -0.2476 -1.0073
 1378SOL    HW215597   3.277   2.472   8.911 -0.9671 -0.0889 -1.7352
 1379SOL     OW15598   1.994   2.455   6.043  0.1975  0.2881 -0.5392
 1379SOL    HW115599   2.064   2.430   6.103  1.4675  1.2102 -1.6319
 1379SOL    HW215600   1.970   2.383   5.986  1.1465  0.6387 -1.3857
 1380SOL     OW15601   4.644   3.270   1.971  0.7361  0.2373  0.0454
 1380SOL    HW115602   4.595   3.212   1.913 -0.8550  1.4644  0.1764
 1380SOL    HW215603   4.705   3.323   1.920 -0.0820  0.9838 -0.1478
 1381SOL     OW15604   3.942   4.285   5.412  0.1110  0.0558 -0.4926
 1381SOL    HW115605   3.915   4.195   5.394  1.6117 -0.5586  0.3380
 1381SOL    HW215606   3.906   4.339   5.341 -1.6142 -1.1857 -0.5609
 1382SOL     OW15607   3.269   1.238   8.636 -0.6758 -0.1212  0.4997
 1382SOL    HW115608   3.196   1.286   8.596 -2.3777 -1.7250  1.6746
 1382SOL    HW215609   3.337   1.304   8.649 -0.6552 -0.7218  3.4167
 1383SOL     OW15610   0.492   4.106   5.369  0.7062 -0.1748 -0.0333
 1383SOL    HW115611   0.513   4.043   5.438  0.2576  2.0924  2.2202
 1383SOL    HW215612   0.532   4.059   5.296  1.1517  0.3952 -0.1594
 1384SOL     OW15613   0.276   0.742   5.938 -0.9104  0.1432  0.5556
 1384SOL    HW115614   0.299   0.755   5.846  2.1980  2.2010  1.6130
 1384SOL    HW215615   0.220   0.665   5.949 -1.7077  0.0990 -3.8370
 1385SOL     OW15616   4.297   0.388  11.031 -0.0631 -0.2367  0.0373
 1385SOL    HW115617   4.376   0.410  10.981 -0.1972  0.7091  0.2500
 1385SOL    HW215618   4.294   0.292  11.032 -0.0291 -0.2425 -0.8794
 1386SOL     OW15619   3.575   2.690   6.233 -0.4157 -0.0825  0.0811
 1386SOL    HW115620   3.639   2.651   6.293 -1.1719 -0.7323  0.4645
 1386SOL    HW215621   3.530   2.619   6.188  0.6385 -0.6394 -0.0987
 1387SOL     OW15622   0.174   2.023   5.632  0.2788  0.1127  0.2583
 1387SOL    HW115623   0.122   2.095   5.669 -0.8068 -0.6091  0.1260
 1387SOL    HW215624   0.146   1.961   5.700 -0.2872 -0.3957 -0.4428
 1388SOL     OW15625   1.046   1.139   1.752 -0.0208 -0.3516  0.0234
 1388SOL    HW115626   1.059   1.103   1.664  0.6527 -2.5974  1.0376
 1388SOL    HW215627   1.086   1.226   1.745  0.1645 -0.2136  2.6725
 1389SOL     OW15628   4.527   0.939  12.803 -0.1432  0.0598 -0.8241
 1389SOL    HW115629   4.450   0.882  12.809 -1.4840  2.1881  1.8191
 1389SOL    HW215630   4.494   0.977  12.721  1.0193  0.5503 -1.0548
 1390SOL     OW15631   0.375   1.870   4.804  0.1865 -0.3710 -0.4020
 1390SOL    HW115632   0.337   1.826   4.880 -0.8983 -2.0001 -1.8984
 1390SOL    HW215633   0.362   1.963   4.823 -3.3392 -0.8098 -0.7199
 1391SOL     OW15634   3.025   4.167   4.337 -0.8403  0.4462  0.4173
 1391SOL    HW115635   3.061   4.256   4.342 -1.8060  0.8386  0.3026
 1391SOL    HW215636   3.105   4.116   4.350 -0.9327  0.0813 -0.4783
 1392SOL     OW15637   4.364   0.548   0.662 -0.1614  0.0429 -0.3607
 1392SOL    HW115638   4.285   0.523   0.710 -0.6519  0.5332 -0.9109
 1392SOL    HW215639   4.435   0.489   0.687 -0.1218  1.2550  2.4151
 1393SOL     OW15640   2.529   4.096   6.926  0.4446 -0.0596 -0.2438
 1393SOL    HW115641   2.558   4.155   6.996 -2.1590  1.6264 -0.5603
 1393SOL    HW215642   2.448   4.138   6.896 -0.2121  0.5089  2.3344
 1394SOL     OW15643   4.378   0.432   5.154  0.3447 -0.3856 -0.5451
 1394SOL    HW115644   4.404   0.340   5.154  1.1995 -0.1438  1.3687
 1394SOL    HW215645   4.384   0.442   5.059 -1.1087  0.6983 -0.5309
 1395SOL     OW15646   0.127   3.177   3.552 -0.3763  0.4045 -0.5343
 1395SOL    HW115647   0.035   3.204   3.560 -0.1844  1.2835 -1.4096
 1395SOL    HW215648   0.120   3.134   3.467  0.0057 -2.0787  0.6953
 1396SOL     OW15649   0.930   0.150  11.940  0.9837  0.1054  0.1151
 1396SOL    HW115650   0.908   0.168  11.849 -0.5622  0.2020  0.5147
 1396SOL    HW215651   0.954   0.241  11.958 -0.8992  0.5404  0.4078
 1397SOL     OW15652   3.659   2.569   7.509 -0.0148  0.1223  0.2697
 1397SOL    HW115653   3.595   2.526   7.565 -2.2375  0.7945 -1.7408
 1397SOL    HW215654   3.612   2.652   7.497 -1.1916 -0.9471 -2.5561
 1398SOL     OW15655   1.500   2.991  16.419 -0.3001  0.1469 -0.5449
 1398SOL    HW115656   1.411   2.973  16.449 -0.1526  1.0910  0.4727
 1398SOL    HW215657   1.534   2.905  16.391 -1.8107 -1.0095  1.1891
 1399SOL     OW15658   3.404   3.923   7.588 -0.6014  0.4889  0.1727
 1399SOL    HW115659   3.382   3.965   7.504  0.8832  2.0889  0.5897
 1399SOL    HW215660   3.323   3.935   7.636 -2.3650 -1.2175 -2.3783
 1400SOL     OW15661   0.523   3.781   9.997 -0.0040 -0.0410 -0.4620
 1400SOL    HW115662   0.451   3.745   9.945 -0.1494  1.8537 -1.5560
 1400SOL    HW215663   0.484   3.858  10.037 -1.4196  1.2563 -4.3358
 1401SOL     OW15664   2.956   0.481  13.792  0.1470 -0.0733 -0.3036
 1401SOL    HW115665   2.926   0.478  13.702 -3.1023  1.2583  0.7186
 1401SOL    HW215666   2.880   0.511  13.843  1.3053 -0.4289  1.6274
 1402SOL     OW15667   3.257   0.137   0.223 -0.0080 -0.0204 -0.6485
 1402SOL    HW115668   3.276   0.063   0.280 -2.1144  1.1840  1.6436
 1402SOL    HW215669   3.163   0.145   0.241 -0.1588  1.0629 -1.8679
 1403SOL     OW15670   0.478   3.539   1.114  0.0981  0.3104  0.6859
 1403SOL    HW115671   0.399   3.533   1.060  0.4775  0.2712  0.1290
 1403SOL    HW215672   0.532   3.468   1.078 -0.7187 -0.4621  0.9806
 1404SOL     OW15673   4.098   2.914   1.189 -0.0162 -0.1692  0.4876
 1404SOL    HW115674   4.145   2.991   1.157 -1.1095  0.0511 -0.5693
 1404SOL    HW215675   4.007   2.935   1.167  0.3190  1.8241  1.0457
 1405SOL     OW15676   2.416   1.443   9.680 -0.6717 -0.2634  0.3505
 1405SOL    HW115677   2.399   1.521   9.627 -0.5091 -0.5594 -0.1398
 1405SOL    HW215678   2.449   1.386   9.610  1.9928 -0.1369  1.5067
 1406SOL     OW15679   0.122   2.338   3.256  0.1395 -0.8502  0.6929
 1406SOL    HW115680   0.100   2.431   3.252  0.5111 -0.7965 -0.1500
 1406SOL    HW215681   0.202   2.324   3.205  0.7053  1.6905  0.8841
 1407SOL     OW15682   3.827   2.378  10.709 -0.2297  0.7019 -0.0340
 1407SOL    HW115683   3.873   2.451  10.750  1.0594  0.2446 -0.6764
 1407SOL    HW215684   3.780   2.434  10.647 -0.4951  1.9048  1.2716
 1408SOL     OW15685   1.738   0.010  16.007 -0.0939  0.8489 -0.0904
 1408SOL    HW115686   1.799   0.063  15.955  1.8746  1.2395  2.6452
 1408SOL    HW215687   1.677   0.074  16.042  1.7302  1.4814  1.9151
 1409SOL     OW15688   0.447   2.733   0.100 -0.0090 -0.1648  0.0384
 1409SOL    HW115689   0.413   2.820   0.079 -0.0256 -0.3404 -0.6612
 1409SOL    HW215690   0.541   2.754   0.099  0.5559 -2.6061  2.0789
 1410SOL     OW15691   3.757   3.479  13.796 -0.3270  0.4742 -0.1115
 1410SOL    HW115692   3.735   3.427  13.719  0.2368 -3.0181  2.0849
 1410SOL    HW215693   3.790   3.413  13.857  1.8993  2.4992  0.8654
 1411SOL     OW15694   4.218   3.931   0.377  0.1170  0.2698 -0.1599
 1411SOL    HW115695   4.225   3.849   0.329  1.7772  0.6510 -0.5459
 1411SOL    HW215696   4.305   3.966   0.362 -0.2613  1.7856  1.1736
 1412SOL     OW15697   3.062   1.039   1.604 -0.3299  0.0380  0.4418
 1412SOL    HW115698   3.126   1.022   1.672  1.1652  2.4305 -0.3671
 1412SOL    HW215699   3.006   0.962   1.617  0.7807 -0.5506  1.7712
 1413SOL     OW15700   0.288   3.219   2.372  0.0137  0.2142  0.2449
 1413SOL    HW115701   0.337   3.292   2.336 -1.0151  1.4285  1.3148
 1413SOL    HW215702   0.200   3.236   2.336 -0.1918 -3.2713 -0.9720
 1414SOL     OW15703   0.077   0.395   9.229  0.5257  0.0093 -0.6986
 1414SOL    HW115704   0.091   0.395   9.323  2.8575 -1.3427 -1.0382
 1414SOL    HW215705   0.081   0.488   9.209 -1.7297  0.5425  1.3359
 1415SOL     OW15706   0.075   2.565   7.296 -0.2897  0.1266 -0.0066
 1415SOL    HW115707   0.126   2.555   7.376 -0.7435  1.0227  0.3984
 1415SOL    HW215708   0.111   2.647   7.260 -0.4619 -0.0006 -0.4645
 1416SOL     OW15709   1.292   2.802  14.993 -0.8084 -0.0863 -0.0302
 1416SOL    HW115710   1.242   2.787  14.912 -0.5707 -1.3399  0.0624
 1416SOL    HW215711   1.220   2.812  15.055 -0.1987 -3.0018  1.1244
 1417SOL     OW15712   4.340   4.589  12.695  0.7453  0.0520  0.3853
 1417SOL    HW115713   4.355   4.605  12.788  0.7100  0.5630  0.3002
 1417SOL    HW215714   4.273   4.655  12.677  1.0652  0.4406  0.6248
 1418SOL     OW15715   0.423   3.216   5.791 -0.2043  0.0567 -0.2155
 1418SOL    HW115716   0.461   3.231   5.704  2.2575  0.0382  0.8429
 1418SOL    HW215717   0.329   3.208   5.778 -0.0965  0.5178 -1.2813
 1419SOL     OW15718   2.406   2.664   8.800 -0.0672 -1.0550 -0.7077
 1419SOL    HW115719   2.439   2.678   8.711 -0.5760  2.9215 -0.3016
 1419SOL    HW215720   2.474   2.701   8.857  0.8145 -2.3596 -0.9325
 1420SOL     OW15721   3.528   3.372  10.040 -0.1988 -0.1175  0.0743
 1420SOL    HW115722   3.620   3.346  10.032 -0.8969 -2.6312  0.2177
 1420SOL    HW215723   3.549   3.438  10.106 -1.0209  0.1452  0.0669
 1421SOL     OW15724   1.230   2.837  16.483 -0.2704 -0.4876  0.3545
 1421SOL    HW115725   1.143   2.861  16.516 -0.3231 -0.2260  0.0290
 1421SOL    HW215726   1.284   2.867  16.556  1.6913 -2.6608 -0.1835
 1422SOL     OW15727   3.225   2.328   5.084  0.2052  0.8778  0.4632
 1422SOL    HW115728   3.226   2.260   5.016  3.3667  0.1487  1.2272
 1422SOL    HW215729   3.316   2.355   5.073  0.5972 -1.6310 -2.4363
 1423SOL     OW15730   1.341   0.908   3.034  0.5182  0.1681 -0.1043
 1423SOL    HW115731   1.373   0.970   3.099  1.9663  1.0355 -1.6475
 1423SOL    HW215732   1.419   0.858   3.010 -1.3676 -2.3679 -0.9363
 1424SOL     OW15733   0.363   2.175   2.899  0.3727  0.0363 -0.1923
 1424SOL    HW115734   0.426   2.107   2.872  0.1839 -0.1266 -0.2182
 1424SOL    HW215735   0.346   2.212   2.813 -0.5101 -0.2960 -0.1560
 1425SOL     OW15736   2.837   2.480   3.355  0.1030 -0.3246 -0.7479
 1425SOL    HW115737   2.758   2.476   3.410  0.6903 -0.7302  0.0603
 1425SOL    HW215738   2.892   2.421   3.406  2.2096  1.7620 -0.6272
 1426SOL     OW15739   3.714   0.218   8.013  0.6053  0.1777 -0.7496
 1426SOL    HW115740   3.741   0.265   7.933  1.0534 -0.1990 -0.8215
 1426SOL    HW215741   3.760   0.136   7.997 -0.3507 -0.5460  0.2214
 1427SOL     OW15742   4.090   1.789   7.624  0.0928 -0.2625 -0.0951
 1427SOL    HW115743   4.176   1.750   7.613  2.2971  4.0250  2.1395
 1427SOL    HW215744   4.037   1.745   7.557 -0.0354 -0.5579  0.1980
 1428SOL     OW15745   1.496   3.979   4.817  0.6161  0.6929 -0.2622
 1428SOL    HW115746   1.569   3.952   4.873  1.5490 -0.5276 -2.0887
 1428SOL    HW215747   1.537   3.992   4.732  0.8578  1.0424 -0.0932
 1429SOL     OW15748   1.789   0.101   3.897 -0.1174 -0.2409 -0.3380
 1429SOL    HW115749   1.827   0.160   3.832  0.9041  0.5294  0.9508
 1429SOL    HW215750   1.720   0.163   3.921 -1.4817 -0.0128 -4.9271
 1430SOL     OW15751   1.343   1.351   5.663 -0.1680  0.4633  0.1110
 1430SOL    HW115752   1.415   1.289   5.657 -1.3383 -0.9000  0.2246
 1430SOL    HW215753   1.393   1.431   5.647  2.6553 -1.5941 -1.1431
 1431SOL     OW15754   2.431   4.689   1.855  0.5333 -0.4083 -0.3002
 1431SOL    HW115755   2.336   4.700   1.845  0.3439 -0.6362  1.2257
 1431SOL    HW215756   2.428   0.019   1.934 -0.1218  0.1808 -0.7293
 1432SOL     OW15757   2.248   3.342   3.371 -0.4321  0.5432 -0.0028
 1432SOL    HW115758   2.237   3.414   3.309 -2.7502  0.1705 -0.0341
 1432SOL    HW215759   2.344   3.336   3.375 -0.5396 -2.0294 -1.0476
 1433SOL     OW15760   3.022   4.495   2.830  0.4987 -0.1930 -0.8535
 1433SOL    HW115761   2.950   4.536   2.783  0.0370 -1.3351 -1.1360
 1433SOL    HW215762   2.975   4.472   2.911  1.3119  1.9823  0.2333
 1434SOL     OW15763   2.109   0.359  17.535 -0.0363 -0.3433  0.0706
 1434SOL    HW115764   2.110   0.454  17.526 -3.7796 -0.3244 -0.0103
 1434SOL    HW215765   2.113   0.336  17.442 -1.0809 -5.2265  1.2100
 1435SOL     OW15766   1.588   2.322   0.669  0.1222 -0.0231 -0.3280
 1435SOL    HW115767   1.516   2.346   0.611 -1.3326 -2.8698  0.3313
 1435SOL    HW215768   1.541   2.289   0.745  0.3176  0.7095  0.1097
 1436SOL     OW15769   3.110   2.181   9.275  0.4189  0.7649 -0.0407
 1436SOL    HW115770   3.146   2.111   9.328 -1.7669 -0.2475  0.1287
 1436SOL    HW215771   3.152   2.161   9.191 -3.8156 -0.3338 -1.9539
 1437SOL     OW15772   4.264   3.143   3.846  0.6033 -0.3295 -0.1971
 1437SOL    HW115773   4.332   3.093   3.889  1.0349  0.3390 -0.1007
 1437SOL    HW215774   4.213   3.182   3.917  1.4730 -1.2050  0.9005
 1438SOL     OW15775   0.157   0.476   5.721 -0.4224  0.0463 -0.1139
 1438SOL    HW115776   0.239   0.523   5.704  1.1668 -2.5885  0.3651
 1438SOL    HW215777   0.179   0.386   5.698  0.8004  0.9151 -2.3071
 1439SOL     OW15778   0.015   3.853   4.491 -0.1343  0.1361  0.0152
 1439SOL    HW115779   4.686   3.782   4.527  1.0628  0.8265  3.1519
 1439SOL    HW215780   4.672   3.900   4.442  0.8099 -0.8933 -2.2744
 1440SOL     OW15781   3.521   2.900  14.971  0.3611 -0.3438 -0.4043
 1440SOL    HW115782   3.500   2.853  15.052  1.1412 -0.5854 -0.3388
 1440SOL    HW215783   3.482   2.844  14.904 -0.0243  0.7550 -1.0916
 1441SOL     OW15784   2.363   0.832  14.978 -1.2030  0.3029  0.0286
 1441SOL    HW115785   2.315   0.783  14.912  0.6660 -0.2593 -0.9137
 1441SOL    HW215786   2.328   0.920  14.962  1.2083  0.8425 -2.3860
 1442SOL     OW15787   4.183   3.257   4.708  0.2102  0.2805  0.0846
 1442SOL    HW115788   4.101   3.304   4.693  0.5381  0.3051 -1.6601
 1442SOL    HW215789   4.160   3.166   4.690  0.1880 -0.0298  1.6996
 1443SOL     OW15790   2.239   0.839   7.182  0.2259 -0.5566 -0.3721
 1443SOL    HW115791   2.332   0.858   7.166 -0.3229  1.7670 -0.8427
 1443SOL    HW215792   2.198   0.894   7.114  1.3809  1.3966  0.4920
 1444SOL     OW15793   4.500   1.438   2.437 -0.2631 -0.3688  0.4263
 1444SOL    HW115794   4.486   1.346   2.415  2.4117 -0.8646  0.7904
 1444SOL    HW215795   4.428   1.477   2.387  1.8263  0.4947 -1.8981
 1445SOL     OW15796   0.788   0.501   5.570  0.0466  0.0238  0.2471
 1445SOL    HW115797   0.822   0.456   5.493 -0.1678  0.9230 -0.3766
 1445SOL    HW215798   0.749   0.578   5.528  0.1883  1.7299  3.1546
 1446SOL     OW15799   1.955   3.175   4.828 -0.0697  0.3387 -0.2393
 1446SOL    HW115800   1.983   3.113   4.760  0.2059  2.1198 -1.7364
 1446SOL    HW215801   1.866   3.197   4.799 -0.7300 -0.6929  1.0077
 1447SOL     OW15802   0.368   0.568   9.175 -0.2209 -0.3070  0.3689
 1447SOL    HW115803   0.404   0.655   9.190 -1.3434  0.3978 -1.0252
 1447SOL    HW215804   0.346   0.573   9.082  0.6439 -0.3700  0.1599
 1448SOL     OW15805   2.829   1.696  13.091 -0.3637  0.0327 -0.5251
 1448SOL    HW115806   2.827   1.790  13.073  1.4635  0.1164 -0.2940
 1448SOL    HW215807   2.836   1.703  13.186 -0.8602 -1.8177 -0.3472
 1449SOL     OW15808   3.382   0.795   1.007 -0.3442 -0.4996 -0.6157
 1449SOL    HW115809   3.400   0.759   1.094  0.1183  0.0639 -0.4749
 1449SOL    HW215810   3.372   0.887   1.030  0.3172 -0.5138 -0.2668
 1450SOL     OW15811   4.075   2.431   1.670 -0.7182 -0.2785 -0.3548
 1450SOL    HW115812   4.104   2.478   1.748 -1.7966 -0.4082  0.1200
 1450SOL    HW215813   4.114   2.486   1.601  0.0687 -0.2385  0.1194
 1451SOL     OW15814   1.290   4.124   8.707 -0.2048  0.7110  0.1692
 1451SOL    HW115815   1.270   4.031   8.718  0.4191  0.2148 -2.8348
 1451SOL    HW215816   1.225   4.175   8.755  0.2605  0.2430  1.2917
 1452SOL     OW15817   0.761   4.596   3.540 -0.6079 -0.2981 -0.4503
 1452SOL    HW115818   0.669   4.623   3.528  0.3846  3.3185  0.0835
 1452SOL    HW215819   0.744   4.548   3.622 -4.1431 -1.8289 -2.0677
 1453SOL     OW15820   4.342   2.287   4.938  0.0238  0.9141 -0.0136
 1453SOL    HW115821   4.342   2.380   4.914 -1.5607  0.4581 -1.8861
 1453SOL    HW215822   4.260   2.275   4.985 -0.0374 -1.9218 -0.8761
 1454SOL     OW15823   4.163   2.443   8.452 -0.2792 -0.3187 -0.1146
 1454SOL    HW115824   4.241   2.496   8.468  0.9513 -1.5781 -1.9250
 1454SOL    HW215825   4.109   2.508   8.406  1.1126  2.0828  1.6646
 1455SOL     OW15826   3.241   2.608  15.053  0.1789  0.5397  0.2401
 1455SOL    HW115827   3.219   2.533  14.998 -0.2113  1.6137 -1.0741
 1455SOL    HW215828   3.155   2.639  15.082 -0.1130 -0.5212  0.5120
 1456SOL     OW15829   2.553   3.193   1.452  0.1011  0.6925  0.0127
 1456SOL    HW115830   2.641   3.223   1.475  0.3645 -0.2864  0.2798
 1456SOL    HW215831   2.497   3.263   1.485 -0.3867 -0.2217  1.1054
 1457SOL     OW15832   1.425   0.574   7.396  0.0790  0.3831  0.4199
 1457SOL    HW115833   1.461   0.629   7.327 -1.5410 -0.2422 -0.9222
 1457SOL    HW215834   1.434   0.621   7.479 -1.1375  0.3815  0.5542
 1458SOL     OW15835   1.199   1.380  14.722  0.4582  0.7764  0.0724
 1458SOL    HW115836   1.291   1.387  14.698  0.0876 -1.3358 -2.0369
 1458SOL    HW215837   1.189   1.290  14.754  0.2215  0.7037 -0.2049
 1459SOL     OW15838   4.130   4.369   4.031  0.2014  0.1479  0.4653
 1459SOL    HW115839   4.055   4.314   4.009  0.8227  0.9811 -3.6808
 1459SOL    HW215840   4.142   4.416   3.949  0.1876  0.5196  0.6778
 1460SOL     OW15841   4.326   2.881   4.496 -0.0882 -0.3361  0.6094
 1460SOL    HW115842   4.405   2.928   4.525 -0.2565  0.4467 -0.1837
 1460SOL    HW215843   4.364   2.810   4.444 -0.3163  1.9337 -2.6505
 1461SOL     OW15844   3.963   3.425   5.203 -0.1570 -0.1533  0.1636
 1461SOL    HW115845   3.915   3.352   5.164  2.7322 -1.0498 -1.7497
 1461SOL    HW215846   3.981   3.383   5.287  1.0401  1.0793  0.5201
 1462SOL     OW15847   0.096   0.282  11.638  0.6361 -0.2223 -0.0316
 1462SOL    HW115848   0.075   0.244  11.724  1.8398  0.5107  0.5909
 1462SOL    HW215849   0.188   0.307  11.646  0.5625  0.5813 -1.7454
 1463SOL     OW15850   3.029   2.887   9.610 -0.9764  0.2354  0.6030
 1463SOL    HW115851   2.997   2.933   9.688  2.3636  1.6150  1.1635
 1463SOL    HW215852   2.946   2.884   9.561 -0.4362  0.5484 -0.3204
 1464SOL     OW15853   0.189   0.276   6.891 -0.0080  0.0046  0.5245
 1464SOL    HW115854   0.273   0.308   6.922  1.2195  0.5587 -3.3704
 1464SOL    HW215855   0.133   0.335   6.941 -0.5889 -0.7348  0.7559
 1465SOL     OW15856   0.684   2.515   2.695  0.5405  0.0116 -0.3974
 1465SOL    HW115857   0.766   2.563   2.683  0.6677 -0.7673 -2.5290
 1465SOL    HW215858   0.625   2.572   2.645  1.5056 -1.1670 -2.8626
 1466SOL     OW15859   2.492   4.307   5.588  0.1115  0.4044 -0.0196
 1466SOL    HW115860   2.415   4.301   5.532  1.2916  0.3132 -1.6155
 1466SOL    HW215861   2.564   4.309   5.525  0.3585  1.9156  0.3004
 1467SOL     OW15862   2.576   0.206   3.656  0.2140  0.2287  0.5709
 1467SOL    HW115863   2.494   0.228   3.701 -1.5013  0.6805 -2.7585
 1467SOL    HW215864   2.624   0.163   3.727 -0.7679  0.4020  1.3388
 1468SOL     OW15865   0.574   1.814   5.622  0.2651  0.2473  0.6152
 1468SOL    HW115866   0.571   1.732   5.671  1.4296  0.3919  0.9258
 1468SOL    HW215867   0.660   1.814   5.582 -1.0614  3.7500 -2.3105
 1469SOL     OW15868   2.108   3.232   3.855 -0.1486 -0.1572  0.2824
 1469SOL    HW115869   2.141   3.212   3.767 -2.7067  0.0627 -0.7335
 1469SOL    HW215870   2.036   3.294   3.846 -0.0151  0.1962  1.6745
 1470SOL     OW15871   2.016   4.195  11.977 -0.0779  0.2923 -0.0224
 1470SOL    HW115872   2.090   4.255  11.970 -0.7318  1.0724 -0.2790
 1470SOL    HW215873   2.020   4.175  12.071  0.2125 -2.4772 -0.6085
 1471SOL     OW15874   1.743   4.336   4.893 -0.3572 -0.6083 -0.2911
 1471SOL    HW115875   1.701   4.338   4.807 -3.4357  1.5543  1.2704
 1471SOL    HW215876   1.665   4.346   4.948 -0.7297  1.4515 -1.2151
 1472SOL     OW15877   2.170   1.822   5.464 -0.3432  0.3318  0.6517
 1472SOL    HW115878   2.212   1.825   5.378 -1.1654  0.7612  0.2592
 1472SOL    HW215879   2.086   1.862   5.441 -1.1324 -1.8518 -0.1858
 1473SOL     OW15880   0.327   2.203   6.772  0.8339  0.2653  0.4041
 1473SOL    HW115881   0.388   2.129   6.766  1.7954  1.1229 -0.3651
 1473SOL    HW215882   0.285   2.186   6.856  1.5874 -1.2993  0.4668
 1474SOL     OW15883   2.574   4.342   8.135  0.5071 -0.6003  0.3524
 1474SOL    HW115884   2.527   4.409   8.184  1.1087  0.2874 -0.2824
 1474SOL    HW215885   2.509   4.314   8.072  0.2234  0.4332  0.1892
 1475SOL     OW15886   2.735   1.000   0.529  0.0672 -0.7715 -0.0021
 1475SOL    HW115887   2.729   1.040   0.442  0.7451 -0.4750  0.0851
 1475SOL    HW215888   2.683   1.060   0.583  2.2881 -0.6278  1.9611
 1476SOL     OW15889   1.955   0.890  13.204  0.1821 -0.1211  0.2365
 1476SOL    HW115890   1.931   0.806  13.166 -1.2752 -0.1541  1.2087
 1476SOL    HW215891   2.049   0.887  13.222  0.7628  1.9670 -2.5161
 1477SOL     OW15892   4.241   0.629   8.457  0.1396 -0.2417  0.1142
 1477SOL    HW115893   4.177   0.557   8.456  1.3721 -1.3581  1.4280
 1477SOL    HW215894   4.212   0.692   8.523  0.6663 -0.5067  0.6022
 1478SOL     OW15895   1.447   1.844   8.563  0.1471  0.4452  0.3383
 1478SOL    HW115896   1.449   1.774   8.628 -0.2582  0.6176  0.5393
 1478SOL    HW215897   1.380   1.907   8.591 -3.8908 -2.3699 -2.9664
 1479SOL     OW15898   1.049   3.177   2.244 -0.3514 -0.2632  0.4861
 1479SOL    HW115899   1.069   3.214   2.158 -0.7765  0.5035  0.7101
 1479SOL    HW215900   1.028   3.088   2.216  1.0717 -0.5713  0.4084
 1480SOL     OW15901   1.209   3.600   7.747  0.2484 -0.2070  0.3328
 1480SOL    HW115902   1.180   3.533   7.684  3.8709 -0.2644 -1.2590
 1480SOL    HW215903   1.230   3.673   7.688 -0.8125 -1.5432 -1.7220
 1481SOL     OW15904   0.889   1.111   7.999  0.0389 -0.3446  0.4042
 1481SOL    HW115905   0.933   1.176   7.944  0.1094 -0.0271  0.8333
 1481SOL    HW215906   0.963   1.058   8.030  0.3367 -0.5290 -0.6193
 1482SOL     OW15907   2.533   2.129   5.600  0.7397 -0.2365  0.0047
 1482SOL    HW115908   2.486   2.057   5.641 -0.5832 -0.5048 -1.9874
 1482SOL    HW215909   2.515   2.114   5.507  0.1330  0.3415  0.0308
 1483SOL     OW15910   1.868   3.976   7.744  0.3249 -0.0752 -0.4503
 1483SOL    HW115911   1.832   3.993   7.657  1.0026  0.0656 -0.7021
 1483SOL    HW215912   1.789   3.967   7.797  0.4538 -1.6224 -0.5211
 1484SOL     OW15913   0.823   4.570  15.062  0.4451  0.1149 -0.4565
 1484SOL    HW115914   0.795   4.620  14.985 -0.7380 -0.0190 -0.1169
 1484SOL    HW215915   0.918   4.581  15.068  0.3457  0.5684  0.2406
 1485SOL     OW15916   3.866   4.277   7.310 -0.5025  0.6316  0.0245
 1485SOL    HW115917   3.832   4.191   7.286 -0.8456  0.5193  0.9183
 1485SOL    HW215918   3.943   4.250   7.360 -0.3552  0.1708 -0.4506
 1486SOL     OW15919   4.302   4.057   3.657  0.3049  0.2144  0.2380
 1486SOL    HW115920   4.321   4.000   3.732 -1.3227  1.8081  1.8775
 1486SOL    HW215921   4.373   4.044   3.595  1.1705 -0.5643  1.3830
 1487SOL     OW15922   2.889   0.798   4.858 -0.0226 -0.1217  0.2342
 1487SOL    HW115923   2.931   0.832   4.937  0.3904  0.3986 -0.2082
 1487SOL    HW215924   2.857   0.886   4.835 -0.2878 -0.3237 -0.1591
 1488SOL     OW15925   3.168   1.383   1.289  0.3734  0.2135 -0.2161
 1488SOL    HW115926   3.098   1.444   1.314 -0.2193  0.2542 -1.9413
 1488SOL    HW215927   3.210   1.371   1.374 -0.1481  3.8191  0.5634
 1489SOL     OW15928   3.750   4.026   9.686 -0.4026 -0.1618 -0.3000
 1489SOL    HW115929   3.756   4.119   9.665  2.8531 -0.6496 -1.5645
 1489SOL    HW215930   3.663   3.990   9.671 -0.3688 -1.1928  1.9800
 1490SOL     OW15931   1.648   3.638   2.427  0.1543  0.4132 -0.2830
 1490SOL    HW115932   1.648   3.672   2.338  0.1880 -0.9057 -0.7786
 1490SOL    HW215933   1.612   3.554   2.401 -1.8155  0.7368  1.3587
 1491SOL     OW15934   0.185   3.671   3.823  0.2514 -0.8487 -0.0727
 1491SOL    HW115935   0.204   3.577   3.827 -1.7249 -1.3409 -2.1174
 1491SOL    HW215936   0.157   3.702   3.909 -0.5370  1.9619 -1.3477
 1492SOL     OW15937   2.263   3.688   5.571 -0.0533 -0.5043  0.4174
 1492SOL    HW115938   2.330   3.663   5.635 -0.0096 -0.4611  0.3885
 1492SOL    HW215939   2.187   3.700   5.628  0.3816 -0.8121  1.0554
 1493SOL     OW15940   3.055   3.633   5.979  0.5608  0.1411  0.3016
 1493SOL    HW115941   3.040   3.721   5.945 -0.6549 -0.4249 -0.6624
 1493SOL    HW215942   3.080   3.661   6.067 -1.9807  0.7691  0.8132
 1494SOL     OW15943   1.780   1.300   7.672  0.6138  0.6553  0.2969
 1494SOL    HW115944   1.724   1.338   7.740  0.7228 -1.8127  1.7823
 1494SOL    HW215945   1.761   1.359   7.599 -1.4628  1.6348  1.6224
 1495SOL     OW15946   3.617   4.234  17.635 -0.0942 -0.4816 -0.0655
 1495SOL    HW115947   3.650   4.277  17.557 -1.2186 -3.3421 -2.1131
 1495SOL    HW215948   3.526   4.220  17.609 -0.4078  0.4217  0.5389
 1496SOL     OW15949   1.680   0.383   7.244 -0.1442 -0.3039  0.5413
 1496SOL    HW115950   1.700   0.373   7.338 -3.0975  2.5694  1.4503
 1496SOL    HW215951   1.767   0.414   7.217  0.1108 -1.3903  0.1181
 1497SOL     OW15952   1.014   1.953   8.517 -0.2356  0.2775 -0.2682
 1497SOL    HW115953   1.051   2.040   8.530  2.3531 -0.5097 -2.5275
 1497SOL    HW215954   1.089   1.906   8.551 -0.8871 -0.6951 -0.1622
 1498SOL     OW15955   1.366   1.156   4.886 -0.5027  0.1500  0.0503
 1498SOL    HW115956   1.281   1.166   4.845 -0.4926 -2.4874 -0.5561
 1498SOL    HW215957   1.405   1.081   4.842 -2.0990 -0.4802 -0.2818
 1499SOL     OW15958   2.551   3.280   9.016 -0.3067  0.3252 -0.0007
 1499SOL    HW115959   2.471   3.319   8.981  0.3237  0.8625 -0.8447
 1499SOL    HW215960   2.617   3.333   8.972 -2.5404  2.4293 -0.8572
 1500SOL     OW15961   2.076   3.774   6.958 -0.3228 -0.0081 -0.5352
 1500SOL    HW115962   2.012   3.727   7.011  1.2783 -1.5260  0.0672
 1500SOL    HW215963   2.096   3.700   6.901 -0.6149 -1.1243  0.8256
 1501SOL     OW15964   3.922   0.286   9.760 -0.2433 -0.8060  0.4819
 1501SOL    HW115965   3.942   0.193   9.770  1.4450 -0.4267  0.4846
 1501SOL    HW215966   3.881   0.282   9.673  1.0938  0.5419 -0.2054
 1502SOL     OW15967   3.082   0.313   6.858 -0.3403  0.1546  0.2934
 1502SOL    HW115968   3.118   0.230   6.887 -0.9451  0.5331  2.0767
 1502SOL    HW215969   3.016   0.328   6.925 -1.0626  0.2160 -0.4279
 1503SOL     OW15970   0.881   0.378   5.341 -0.2023  0.3212  0.2594
 1503SOL    HW115971   0.897   0.309   5.276  1.8248  0.4825  0.5694
 1503SOL    HW215972   0.817   0.432   5.295 -0.1620  1.0246  1.0334
 1504SOL     OW15973   2.704   1.869   1.009  0.1824 -0.4764  0.6001
 1504SOL    HW115974   2.689   1.955   1.047 -0.4493  0.0378 -0.8681
 1504SOL    HW215975   2.791   1.840   1.038  0.6061  1.1156  0.8736
 1505SOL     OW15976   3.701   0.321   6.710 -0.1732 -0.3824  1.1493
 1505SOL    HW115977   3.650   0.305   6.630  1.4883  1.4038 -0.2668
 1505SOL    HW215978   3.691   0.416   6.710  1.3439 -0.2109  0.0647
 1506SOL     OW15979   1.852   3.238   3.561  0.0847 -0.8570  0.1170
 1506SOL    HW115980   1.870   3.161   3.615  0.8779  2.1069  4.0993
 1506SOL    HW215981   1.770   3.276   3.594  0.4578 -0.7018  0.8659
 1507SOL     OW15982   4.330   3.347   4.445  0.2174  0.3791 -0.4675
 1507SOL    HW115983   4.374   3.339   4.529 -1.5014 -0.8676  0.3327
 1507SOL    HW215984   4.278   3.266   4.453 -1.9954  2.0084  1.6461
 1508SOL     OW15985   1.037   2.925   5.982 -0.6834 -0.2009 -0.2369
 1508SOL    HW115986   0.968   2.899   5.921  0.6178 -2.8380 -0.5991
 1508SOL    HW215987   1.081   2.984   5.921  0.5227  1.2945  2.0515
 1509SOL     OW15988   3.682   3.894   6.531 -0.0104 -0.3673  0.5780
 1509SOL    HW115989   3.590   3.907   6.554 -0.2487 -0.9530 -0.0140
 1509SOL    HW215990   3.695   3.799   6.532  0.9114 -0.2619 -1.7056
 1510SOL     OW15991   3.470   1.393   1.402 -0.2703 -0.0206 -0.3180
 1510SOL    HW115992   3.466   1.484   1.432 -0.9988 -0.7908  1.9242
 1510SOL    HW215993   3.429   1.347   1.475 -0.0793 -0.4959 -0.5125
 1511SOL     OW15994   3.827   4.684   8.409 -0.0890 -0.1457 -0.5218
 1511SOL    HW115995   3.753   4.649   8.361  0.9864 -0.0492 -2.2563
 1511SOL    HW215996   3.863   0.037   8.366 -1.1266  0.6251 -0.0023
 1512SOL     OW15997   3.808   3.730   6.920  0.2262  0.6488  0.4765
 1512SOL    HW115998   3.806   3.670   6.994 -0.6228 -0.8291 -0.7398
 1512SOL    HW215999   3.858   3.680   6.856  0.1426 -2.8447  3.1476
 1513SOL     OW16000   0.595   3.876   4.539 -0.7203  0.8355  0.2150
 1513SOL    HW116001   0.529   3.836   4.483  1.2062 -2.5627  0.4164
 1513SOL    HW216002   0.674   3.860   4.486 -0.5529  0.5359  0.5540
 1514SOL     OW16003   2.555   1.405   4.072 -0.6417  0.1206  0.0719
 1514SOL    HW116004   2.463   1.429   4.069 -0.4623  0.8065 -0.1897
 1514SOL    HW216005   2.577   1.391   3.979 -0.0648  0.2592  0.1842
 1515SOL     OW16006   0.583   3.432  17.156  0.1110 -0.1968 -0.0028
 1515SOL    HW116007   0.667   3.474  17.177 -0.0685  0.1398  0.0356
 1515SOL    HW216008   0.534   3.451  17.235  1.1389 -1.2586  0.8904
 1516SOL     OW16009   2.424   4.678   7.907  0.0464  0.1543  0.4532
 1516SOL    HW116010   2.401   4.652   7.818 -1.4045  1.3540  0.4732
 1516SOL    HW216011   2.386   4.602   7.952 -0.0767 -1.0242 -1.6676
 1517SOL     OW16012   3.807   1.500  12.716  0.0693 -0.0231 -0.4600
 1517SOL    HW116013   3.889   1.504  12.765  0.3796 -4.7952 -0.6028
 1517SOL    HW216014   3.755   1.544  12.784 -1.3379  0.0947 -1.6276
 1518SOL     OW16015   1.330   0.328   7.038  0.2310  0.5166  0.2386
 1518SOL    HW116016   1.308   0.421   7.044  0.6793  0.8042 -2.5839
 1518SOL    HW216017   1.360   0.317   7.129 -0.5977 -0.1994  0.4319
 1519SOL     OW16018   2.046   0.706  15.002  0.0824 -0.0284  0.5639
 1519SOL    HW116019   2.105   0.663  14.940  0.5115 -1.7027  2.1166
 1519SOL    HW216020   2.001   0.765  14.941  0.9911  0.2421  0.1549
 1520SOL     OW16021   2.149   2.396   8.668 -0.1072  0.0694 -0.1104
 1520SOL    HW116022   2.072   2.387   8.613  0.1807 -0.0808 -0.4922
 1520SOL    HW216023   2.215   2.425   8.604 -0.4730  0.7142 -0.1893
 1521SOL     OW16024   2.945   4.259   7.331 -0.4906  0.2759 -0.3562
 1521SOL    HW116025   2.854   4.246   7.359  0.3177 -0.8785  1.6911
 1521SOL    HW216026   2.981   4.179   7.368  1.8483  1.1671 -0.7408
 1522SOL     OW16027   3.061   3.850  15.706 -0.1911  0.0789  0.7253
 1522SOL    HW116028   3.015   3.816  15.629 -0.5680  0.2640  0.8687
 1522SOL    HW216029   3.018   3.812  15.782 -1.7827 -1.4459 -0.9290
 1523SOL     OW16030   3.867   1.742   7.327 -0.1161  0.4892  0.4813
 1523SOL    HW116031   3.932   1.675   7.304 -1.5030  0.3253 -2.8730
 1523SOL    HW216032   3.852   1.717   7.419  1.9331  2.2309  1.2818
 1524SOL     OW16033   3.701   0.095   1.388  0.5287  0.1862 -0.3284
 1524SOL    HW116034   3.683   0.183   1.423 -0.5300  0.5767 -1.8207
 1524SOL    HW216035   3.668   0.050   1.465  1.0171 -2.0779 -1.4496
 1525SOL     OW16036   1.993   2.815  11.327  0.4774  0.2860  0.5716
 1525SOL    HW116037   1.970   2.724  11.345 -0.4951  0.2869 -0.5978
 1525SOL    HW216038   2.079   2.802  11.366 -0.2230  0.1124  2.0739
 1526SOL     OW16039   4.521   4.333  15.229 -0.0515  0.4582 -0.2161
 1526SOL    HW116040   4.582   4.335  15.302  1.0639  0.4482 -1.1408
 1526SOL    HW216041   4.520   4.237  15.224  0.7630  0.4416 -0.0510
 1527SOL     OW16042   1.140   1.622  13.884 -0.0309 -0.3415 -0.5848
 1527SOL    HW116043   1.123   1.546  13.828 -0.4276  0.1438 -1.1161
 1527SOL    HW216044   1.147   1.574  13.967  0.0877 -1.0080 -0.9818
 1528SOL     OW16045   0.406   0.381  13.143  0.2724  0.4989  0.2571
 1528SOL    HW116046   0.489   0.334  13.143  0.6183  1.1109 -0.0281
 1528SOL    HW216047   0.421   0.415  13.055 -2.2783  0.8488 -0.0662
 1529SOL     OW16048   4.675   2.447   8.722  0.2558 -0.7882 -0.2649
 1529SOL    HW116049   4.617   2.523   8.720 -0.0573 -1.0238 -0.0857
 1529SOL    HW216050   4.611   2.378   8.707  1.0124 -1.4847 -0.3391
 1530SOL     OW16051   0.492   4.303   6.339 -0.1346  0.3279  0.2096
 1530SOL    HW116052   0.578   4.312   6.299 -0.0349 -0.0829  0.3310
 1530SOL    HW216053   0.455   4.383   6.303 -0.0301  0.1522 -0.2897
 1531SOL     OW16054   0.366   4.531   6.207  0.5188  0.1120  0.6572
 1531SOL    HW116055   0.381   4.624   6.228 -3.2874  1.3148 -1.8433
 1531SOL    HW216056   0.273   4.525   6.183  1.0152 -0.2331 -1.1581
 1532SOL     OW16057   1.773   1.503   3.537 -0.1488 -0.4077 -0.1808
 1532SOL    HW116058   1.680   1.507   3.517  0.2720  0.1710 -2.0747
 1532SOL    HW216059   1.774   1.453   3.619  1.8612  0.0739  0.0793
 1533SOL     OW16060   4.698   4.512   4.432 -0.4541  0.0827  0.0020
 1533SOL    HW116061   4.613   4.526   4.390  0.2122 -0.1993 -1.4448
 1533SOL    HW216062   0.006   4.449   4.367 -0.7212  1.6235 -1.6411
 1534SOL     OW16063   0.475   1.824   6.556 -0.0735  0.4489  0.3811
 1534SOL    HW116064   0.474   1.813   6.461  0.7071  4.8049 -0.1434
 1534SOL    HW216065   0.396   1.878   6.563 -1.1450 -1.0433 -0.1982
 1535SOL     OW16066   2.369   4.555  12.375 -0.4368  0.0469 -0.5161
 1535SOL    HW116067   2.343   4.561  12.283  0.8534 -1.4805 -0.9746
 1535SOL    HW216068   2.289   4.514  12.409 -0.2012 -1.5247 -1.8370
 1536SOL     OW16069   1.631   0.590  14.666 -0.4575 -0.0253  0.1448
 1536SOL    HW116070   1.660   0.660  14.724  1.4595  3.0931 -4.6596
 1536SOL    HW216071   1.616   0.519  14.729 -2.1568  1.2379  1.1694
 1537SOL     OW16072   4.708   2.054  11.311 -0.1828  0.0016  0.7015
 1537SOL    HW116073   4.615   2.033  11.318  0.0580  0.0723  4.1316
 1537SOL    HW216074   4.702   2.146  11.334  1.0636  0.3797 -0.4852
 1538SOL     OW16075   0.664   2.156   2.697  0.6102  0.0787  0.4340
 1538SOL    HW116076   0.640   2.214   2.624  0.4544 -1.1811 -0.5197
 1538SOL    HW216077   0.591   2.094   2.697 -0.3775  1.2115 -0.0898
 1539SOL     OW16078   1.744   4.476  14.554  0.4814  0.1558  0.0272
 1539SOL    HW116079   1.759   4.451  14.646  0.8781  1.0735  0.2146
 1539SOL    HW216080   1.833   4.482  14.520  0.8050 -1.3219  0.5808
 1540SOL     OW16081   2.010   1.015   5.710 -0.5180  0.6350 -0.5339
 1540SOL    HW116082   1.999   1.026   5.615  0.0574  0.7168 -0.5921
 1540SOL    HW216083   2.089   0.962   5.721 -1.0906 -0.0532  0.2522
 1541SOL     OW16084   3.758   1.504   3.157 -0.2106 -0.1992  0.4688
 1541SOL    HW116085   3.843   1.489   3.199 -0.6202  1.3379  1.8735
 1541SOL    HW216086   3.736   1.414   3.135 -0.6239 -0.4750  1.9760
 1542SOL     OW16087   4.670   3.801   3.497 -0.1137  0.0073 -0.6600
 1542SOL    HW116088   0.004   3.850   3.554 -1.3623 -0.8793  1.3952
 1542SOL    HW216089   4.645   3.719   3.541  0.7745 -0.1690 -0.4765
 1543SOL     OW16090   1.295   3.680   4.273  0.2455  0.4253 -0.0354
 1543SOL    HW116091   1.249   3.732   4.207  3.0089  1.6120 -1.0425
 1543SOL    HW216092   1.379   3.724   4.283 -0.0577  1.4259 -1.9307
 1544SOL     OW16093   2.359   4.362  17.639  0.0313 -0.2670  0.2050
 1544SOL    HW116094   2.346   4.330  17.550 -1.5815  0.3434  0.2062
 1544SOL    HW216095   2.278   4.331  17.680 -0.9275  1.0388 -0.6681
 1545SOL     OW16096   4.462   2.183  15.293  0.0815  0.1802 -0.3338
 1545SOL    HW116097   4.509   2.126  15.353 -0.4623  0.6452  0.5338
 1545SOL    HW216098   4.385   2.130  15.270  0.5344 -1.1910  1.3069
 1546SOL     OW16099   0.465   3.384   3.423  0.3433  0.3245  0.2509
 1546SOL    HW116100   0.488   3.437   3.346 -1.2880  2.0550  0.9487
 1546SOL    HW216101   0.386   3.434   3.445 -1.1050 -0.9848 -1.9863
 1547SOL     OW16102   2.708   2.851   3.837 -0.6591  0.0595  0.0650
 1547SOL    HW116103   2.731   2.779   3.779 -3.1363  0.0723 -0.9292
 1547SOL    HW216104   2.644   2.817   3.899 -2.0394  2.4211 -0.0253
 1548SOL     OW16105   3.970   2.955   4.263 -0.2566  0.4724 -0.0710
 1548SOL    HW116106   3.934   3.044   4.265 -0.3399  0.4235  0.6854
 1548SOL    HW216107   3.888   2.907   4.253  0.2116 -0.5433  0.9492
 1549SOL     OW16108   4.424   3.547  15.904  0.3989 -0.4966  0.3912
 1549SOL    HW116109   4.478   3.472  15.927  2.3767  1.0705  0.8582
 1549SOL    HW216110   4.391   3.573  15.990 -0.7392  0.7957 -0.4215
 1550SOL     OW16111   3.731   3.146   2.608 -0.1491 -0.3768 -0.8895
 1550SOL    HW116112   3.645   3.157   2.648 -0.2465 -3.0711 -0.2985
 1550SOL    HW216113   3.779   3.208   2.662 -0.3074 -0.0982 -1.0670
 1551SOL     OW16114   1.446   2.301   5.948  0.0636 -0.1577  0.1791
 1551SOL    HW116115   1.453   2.380   6.000  2.8553  0.2486 -0.7853
 1551SOL    HW216116   1.370   2.259   5.987  0.7352 -2.7861 -1.2800
 1552SOL     OW16117   2.183   4.067   8.146  0.2391  0.0116  0.2082
 1552SOL    HW116118   2.131   4.146   8.164  0.5868  0.2191  0.3061
 1552SOL    HW216119   2.105   4.013   8.138 -0.4481  1.1913 -1.1007
 1553SOL     OW16120   0.917   3.766   1.503  0.1295 -0.2485 -0.2296
 1553SOL    HW116121   0.940   3.834   1.566 -0.5969 -0.1080 -0.1101
 1553SOL    HW216122   0.954   3.785   1.417  2.5411 -0.2232  0.8353
 1554SOL     OW16123   0.231   2.097  10.499  0.5507  0.1055  0.2307
 1554SOL    HW116124   0.258   2.066  10.413 -0.8185  0.5127 -0.3431
 1554SOL    HW216125   0.139   2.126  10.499 -0.2091 -2.2927 -0.4437
 1555SOL     OW16126   2.131   4.474  11.206 -0.3013 -0.4869  0.7012
 1555SOL    HW116127   2.063   4.541  11.205  0.2468  0.0670  0.6945
 1555SOL    HW216128   2.175   4.484  11.122 -0.7315  1.2842  0.6941
 1556SOL     OW16129   1.723   1.354   4.527  0.2844  0.8330 -0.3497
 1556SOL    HW116130   1.629   1.368   4.525  0.3775  1.1433 -2.2871
 1556SOL    HW216131   1.734   1.299   4.604  1.0846 -0.3023 -1.2737
 1557SOL     OW16132   3.562   4.048  11.895  0.6134 -0.0084 -0.6811
 1557SOL    HW116133   3.502   4.113  11.859 -1.1102 -0.9365  0.5450
 1557SOL    HW216134   3.606   4.006  11.822  1.9660  2.4209 -1.2661
 1558SOL     OW16135   1.054   2.725  13.804  0.3484  0.3744 -0.0212
 1558SOL    HW116136   1.068   2.755  13.893  3.5223  1.7562 -0.9647
 1558SOL    HW216137   1.147   2.717  13.781  0.3330 -1.7249  0.6355
 1559SOL     OW16138   3.735   0.927   8.012 -0.0431  0.6608 -0.1168
 1559SOL    HW116139   3.662   0.893   8.064  2.2733 -0.9093  2.1228
 1559SOL    HW216140   3.750   0.865   7.941  1.3302 -0.0607  0.8103
 1560SOL     OW16141   4.446   1.581   9.205 -0.0601 -0.3059 -0.2440
 1560SOL    HW116142   4.473   1.494   9.235  0.1055  0.2793  1.2777
 1560SOL    HW216143   4.502   1.579   9.128 -0.2788 -0.5519 -0.3968
 1561SOL     OW16144   4.562   3.239   3.650  0.1492  0.0554 -0.1226
 1561SOL    HW116145   4.526   3.276   3.569  0.3699  3.3424  1.2764
 1561SOL    HW216146   4.484   3.241   3.706 -0.2638  0.8693 -0.7461
 1562SOL     OW16147   3.541   1.791   4.265  1.1349  0.6817 -0.3816
 1562SOL    HW116148   3.540   1.703   4.227 -0.4550  0.8838 -0.8292
 1562SOL    HW216149   3.574   1.768   4.351 -0.6410 -2.3900 -0.4907
 1563SOL     OW16150   2.317   0.179   5.292 -0.3212  0.2812  0.3708
 1563SOL    HW116151   2.250   0.113   5.271  0.7521 -0.8860  0.6121
 1563SOL    HW216152   2.353   0.196   5.205 -0.3782  0.4186  0.3749
 1564SOL     OW16153   2.240   2.913  12.907 -0.2276 -0.3138  0.4932
 1564SOL    HW116154   2.335   2.903  12.903 -0.2399  0.6853 -2.2084
 1564SOL    HW216155   2.210   2.856  12.837 -0.7130  1.4802 -0.7525
 1565SOL     OW16156   0.606   4.389   4.700 -0.0418 -0.3164 -0.1970
 1565SOL    HW116157   0.633   4.302   4.670 -1.2712 -0.9143  0.4244
 1565SOL    HW216158   0.534   4.374   4.761  0.3827 -1.3906  0.0448
 1566SOL     OW16159   4.035   4.611   6.278 -0.4072  0.5169  0.0047
 1566SOL    HW116160   4.057   4.656   6.360 -0.6818  1.9528 -0.7157
 1566SOL    HW216161   4.004   4.687   6.229 -1.6146 -0.1488 -0.2868
 1567SOL     OW16162   4.472   0.032  14.647 -0.5045  0.0976  0.3957
 1567SOL    HW116163   4.515   4.684  14.692 -2.3993 -1.4359 -0.2527
 1567SOL    HW216164   4.390   4.714  14.622 -1.4431  0.5133  2.7386
 1568SOL     OW16165   3.705   4.678   4.503 -0.4979 -0.0087  0.0731
 1568SOL    HW116166   3.683   4.607   4.564 -2.0781  0.9152  0.5682
 1568SOL    HW216167   3.617   4.714   4.488  0.1471  1.9083  0.8489
 1569SOL     OW16168   2.944   3.009   3.482 -0.6067 -0.3494  0.2485
 1569SOL    HW116169   3.037   3.003   3.460 -0.3155  1.5172  0.9881
 1569SOL    HW216170   2.897   2.941   3.433  0.0457 -1.0451  0.5890
 1570SOL     OW16171   1.335   4.307   4.526  0.4428 -0.0854  0.6096
 1570SOL    HW116172   1.311   4.229   4.575 -0.7457 -0.2750 -0.2871
 1570SOL    HW216173   1.393   4.361   4.580  0.2146 -0.2041  0.9760
 1571SOL     OW16174   3.474   2.608   5.744 -0.1107  0.1201 -0.6338
 1571SOL    HW116175   3.385   2.643   5.741 -0.0248  0.5497  1.7945
 1571SOL    HW216176   3.459   2.520   5.778 -1.1577  0.6102  0.1753
 1572SOL     OW16177   1.492   4.649   8.832 -0.2148  0.1228 -0.0008
 1572SOL    HW116178   1.558   4.698   8.882 -0.5914  0.7357 -0.1009
 1572SOL    HW216179   1.546   4.571   8.819 -2.8820 -1.8598  0.7878
 1573SOL     OW16180   4.353   0.287   6.721 -0.6622 -0.1305  0.0882
 1573SOL    HW116181   4.317   0.267   6.808 -0.0738  4.2755  1.3127
 1573SOL    HW216182   4.434   0.329   6.748 -0.1720  0.4317 -2.2379
 1574SOL     OW16183   0.001   3.755   7.424 -0.1301  0.0241 -0.0450
 1574SOL    HW116184   4.669   3.828   7.450 -1.4817 -0.8635 -0.4922
 1574SOL    HW216185   0.085   3.799   7.426 -0.1692  0.0908  0.1910
 1575SOL     OW16186   0.321   1.410   3.727  0.1141 -0.1971 -0.1556
 1575SOL    HW116187   0.342   1.318   3.712 -1.4076 -0.5409 -0.2114
 1575SOL    HW216188   0.388   1.456   3.677  1.2148  0.2465  1.7030
 1576SOL     OW16189   4.394   4.628   8.406 -0.3148 -0.4461  0.0400
 1576SOL    HW116190   4.410   4.609   8.499  2.7856  0.6767 -0.2572
 1576SOL    HW216191   4.314   4.578   8.392 -1.8004  2.3102 -1.3071
 1577SOL     OW16192   4.697   2.292   3.916 -0.3258 -0.3675  0.1744
 1577SOL    HW116193   4.639   2.328   3.983 -1.4420 -0.5440 -0.6959
 1577SOL    HW216194   4.673   2.345   3.839 -1.2775  0.3571  0.9717
 1578SOL     OW16195   4.666   1.870   3.203 -0.1988  0.0883  0.4723
 1578SOL    HW116196   4.603   1.812   3.162 -0.4770 -0.2393  1.3800
 1578SOL    HW216197   4.651   1.954   3.159  0.8521  1.1864  2.2095
 1579SOL     OW16198   3.937   2.678   9.769 -0.2855 -0.1946  0.3921
 1579SOL    HW116199   3.933   2.768   9.738 -0.5498  0.0115  1.0321
 1579SOL    HW216200   4.016   2.674   9.823  0.1999 -0.6223 -0.3520
 1580SOL     OW16201   3.784   3.773  13.118 -0.6684 -0.0745 -0.4240
 1580SOL    HW116202   3.842   3.704  13.149  0.0259  1.2969  1.3301
 1580SOL    HW216203   3.717   3.718  13.079  0.3712 -0.2312 -1.9898
 1581SOL     OW16204   2.480   0.268   9.037 -0.0981  0.5944 -0.1062
 1581SOL    HW116205   2.435   0.322   9.102 -1.1289 -0.0514 -0.2897
 1581SOL    HW216206   2.540   0.335   9.003 -0.3654  0.0847 -1.5789
 1582SOL     OW16207   0.590   2.055   5.161  0.5056 -0.2175 -0.5849
 1582SOL    HW116208   0.562   2.134   5.117  0.9163 -0.2996 -0.9878
 1582SOL    HW216209   0.505   2.013   5.177  0.7469 -0.8286 -0.9010
 1583SOL     OW16210   4.616   4.433   8.394  0.5894  0.4450 -0.2037
 1583SOL    HW116211   4.561   4.388   8.458 -0.7878  0.4530 -1.3870
 1583SOL    HW216212   4.692   4.468   8.442  0.1638  1.1153 -0.0162
 1584SOL     OW16213   0.706   0.383   7.066 -0.7338 -0.3525  0.2724
 1584SOL    HW116214   0.728   0.291   7.054 -0.0169 -0.0501 -0.7022
 1584SOL    HW216215   0.790   0.428   7.064 -2.3685  2.6416 -0.8273
 1585SOL     OW16216   0.149   4.203   2.767 -0.5192 -0.1234 -0.0703
 1585SOL    HW116217   0.207   4.268   2.727 -1.8515  1.1251  0.0281
 1585SOL    HW216218   0.211   4.135   2.792 -2.0314 -1.2298  0.6905
 1586SOL     OW16219   1.511   4.605   1.130 -0.1886 -0.6859 -0.0484
 1586SOL    HW116220   1.481   4.517   1.108  1.8429 -1.4046  0.0950
 1586SOL    HW216221   1.477   4.602   1.219  1.7919  0.7440  0.7408
 1587SOL     OW16222   0.186   2.804   3.031 -0.2514 -0.0180  0.5016
 1587SOL    HW116223   0.095   2.797   3.060 -0.1625 -0.5965  0.6547
 1587SOL    HW216224   0.225   2.746   3.097  1.2797  0.7965  0.3033
 1588SOL     OW16225   0.703   2.897  13.391  0.0294 -0.0212  0.2990
 1588SOL    HW116226   0.728   2.804  13.386  1.3232  0.3794 -0.6654
 1588SOL    HW216227   0.627   2.900  13.449 -0.3086  0.4036 -0.1602
 1589SOL     OW16228   0.792   0.634   6.487  0.2084  0.1793  0.5176
 1589SOL    HW116229   0.748   0.703   6.537 -1.2709  0.1127 -0.6968
 1589SOL    HW216230   0.755   0.552   6.519  2.0093 -0.0194  2.0909
 1590SOL     OW16231   1.624   1.939   7.296 -0.3053  0.0423  0.4376
 1590SOL    HW116232   1.583   1.954   7.381 -0.2369 -1.4059  0.7248
 1590SOL    HW216233   1.675   1.859   7.313  3.4444  2.5286  0.8139
 1591SOL     OW16234   1.582   3.113  17.031  0.8861 -0.8206  0.5620
 1591SOL    HW116235   1.605   3.151  17.116  1.2146  0.5485 -0.1232
 1591SOL    HW216236   1.644   3.166  16.979  1.2926 -1.2682  0.5884
 1592SOL     OW16237   3.303   4.033   4.695  0.1104 -0.3754 -0.7664
 1592SOL    HW116238   3.257   3.964   4.646  0.6740 -0.6565 -0.9016
 1592SOL    HW216239   3.228   4.093   4.694 -0.9532 -1.6966 -0.3919
 1593SOL     OW16240   1.466   4.514   4.653  0.2135  0.8505 -0.2558
 1593SOL    HW116241   1.479   4.593   4.706  0.1419  0.9520 -0.3890
 1593SOL    HW216242   1.547   4.463   4.661  0.4261  0.9194 -2.0105
 1594SOL     OW16243   1.461   1.268   3.905  0.6413  0.3167 -0.6289
 1594SOL    HW116244   1.374   1.275   3.866  0.0654 -1.4102  0.3167
 1594SOL    HW216245   1.482   1.175   3.917 -0.4102 -0.0398 -1.6144
 1595SOL     OW16246   1.418   2.796   0.610 -0.7471  0.5812  0.2580
 1595SOL    HW116247   1.459   2.760   0.532  0.1901 -0.5520  1.2815
 1595SOL    HW216248   1.360   2.725   0.638 -0.0751  0.8026  2.2274
 1596SOL     OW16249   0.701   0.077  17.037 -0.5719 -0.2744  0.5537
 1596SOL    HW116250   0.668   0.006  17.093 -1.0636 -0.2228  0.3242
 1596SOL    HW216251   0.662   0.152  17.082  0.7557  0.0306  1.1882
 1597SOL     OW16252   4.355   3.894   6.434 -0.0909 -0.3931 -0.3989
 1597SOL    HW116253   4.438   3.898   6.482  0.3578  0.1337 -1.2280
 1597SOL    HW216254   4.336   3.800   6.437 -0.2807 -0.3021  1.4139
 1598SOL     OW16255   4.595   0.228   3.279  0.7184 -0.4592  0.0488
 1598SOL    HW116256   4.654   0.157   3.303  0.3957 -0.2654  1.3740
 1598SOL    HW216257   4.513   0.183   3.257  0.8237 -0.8732  0.5187
 1599SOL     OW16258   3.749   3.161   0.589 -0.5525  0.1926 -0.0107
 1599SOL    HW116259   3.689   3.115   0.648  1.9564  0.7222  2.9796
 1599SOL    HW216260   3.753   3.249   0.626  1.6150 -0.3469  1.0295
 1600SOL     OW16261   1.942   0.180   2.380  0.1064 -0.1577 -0.6473
 1600SOL    HW116262   1.858   0.140   2.401  1.0150 -0.7023  1.9806
 1600SOL    HW216263   1.937   0.193   2.285 -0.5601  0.7736 -0.4836
 1601SOL     OW16264   1.802   3.441   6.900  0.1017  0.4119  0.1089
 1601SOL    HW116265   1.841   3.356   6.918  3.5609  2.0878  0.6232
 1601SOL    HW216266   1.715   3.420   6.866  0.7475 -1.6925 -0.1862
 1602SOL     OW16267   4.210   0.247   2.379  0.7296 -0.5525  0.1334
 1602SOL    HW116268   4.300   0.215   2.378 -0.2777 -3.3682 -0.3551
 1602SOL    HW216269   4.171   0.226   2.293  0.9212 -1.3724  0.2565
 1603SOL     OW16270   2.176   1.158  11.696 -0.3459 -0.4019 -0.5327
 1603SOL    HW116271   2.204   1.137  11.607 -1.8569 -1.5997 -0.7376
 1603SOL    HW216272   2.096   1.105  11.690 -0.7478  0.0633  0.6265
 1604SOL     OW16273   2.207   4.247   9.943 -0.5965  0.1374 -0.2796
 1604SOL    HW116274   2.236   4.306  10.012 -2.3813  1.4188 -0.6322
 1604SOL    HW216275   2.245   4.163   9.971  0.4775  1.1573  1.2787
 1605SOL     OW16276   1.431   0.931  14.934  0.4345 -0.0743  0.1204
 1605SOL    HW116277   1.447   0.866  14.866  0.5265 -1.2489  1.2740
 1605SOL    HW216278   1.472   0.899  15.014 -2.7534 -1.9058  1.0057
 1606SOL     OW16279   1.637   2.814  16.224 -0.5372  0.1362  0.1059
 1606SOL    HW116280   1.650   2.885  16.162  1.6714 -0.3697 -0.0012
 1606SOL    HW216281   1.633   2.740  16.163 -0.4490  0.8631 -0.7677
 1607SOL     OW16282   1.683   1.039   8.060  0.5639  0.2526 -0.5224
 1607SOL    HW116283   1.684   0.945   8.078 -0.4414  0.3577  0.0768
 1607SOL    HW216284   1.597   1.057   8.098  1.2494  1.3147  0.5506
 1608SOL     OW16285   3.397   4.422  11.543 -0.5396  0.6546 -0.0167
 1608SOL    HW116286   3.321   4.468  11.579 -1.8430 -0.4878 -1.3101
 1608SOL    HW216287   3.405   4.456  11.454 -0.7645 -0.2374 -0.3769
 1609SOL     OW16288   0.423   2.422  17.562 -0.0532 -0.6794  0.3606
 1609SOL    HW116289   0.433   2.490  17.496 -0.4470 -1.0063 -0.0339
 1609SOL    HW216290   0.348   2.379  17.522  0.8381 -0.3636 -1.6324
 1610SOL     OW16291   3.548   1.974   3.611  0.0688  0.1445 -0.3621
 1610SOL    HW116292   3.588   1.889   3.628 -0.0474  0.7464  3.0398
 1610SOL    HW216293   3.460   1.936   3.605 -0.4461  1.3505 -0.3394
 1611SOL     OW16294   0.898   3.679  15.026  0.0289  0.1961  0.2787
 1611SOL    HW116295   0.963   3.609  15.020  0.0166  0.0965  1.2568
 1611SOL    HW216296   0.924   3.703  15.115 -0.5301 -0.7713  0.7060
 1612SOL     OW16297   1.375   1.391   5.241 -0.1009  0.2557 -0.0005
 1612SOL    HW116298   1.470   1.378   5.239 -0.1757 -0.8553  3.2809
 1612SOL    HW216299   1.375   1.458   5.308 -1.7476  0.9426 -0.6880
 1613SOL     OW16300   2.975   2.166   3.187  0.4015 -0.1636 -0.5014
 1613SOL    HW116301   3.056   2.203   3.222  0.5920  0.1332 -1.2534
 1613SOL    HW216302   2.910   2.192   3.253  1.8340  0.7143  0.5507
 1614SOL     OW16303   4.512   0.013   8.806  0.4922 -0.0633  0.1140
 1614SOL    HW116304   4.549   4.658   8.844  0.6578  1.0897  2.3476
 1614SOL    HW216305   4.445   0.039   8.869 -0.5907 -1.5646 -0.4254
 1615SOL     OW16306   4.355   1.536   6.630  0.1102  0.3753 -0.0190
 1615SOL    HW116307   4.310   1.485   6.562 -1.7100 -0.3238  1.7268
 1615SOL    HW216308   4.433   1.482   6.647 -0.0630  1.1490  3.1168
 1616SOL     OW16309   4.329   1.430   7.806  0.0022 -0.4161 -0.3070
 1616SOL    HW116310   4.393   1.369   7.841 -0.4771  0.1349  1.5465
 1616SOL    HW216311   4.395   1.479   7.757  0.1965  0.0196  0.3962
 1617SOL     OW16312   2.780   1.445   1.611 -0.3453  0.2683  0.4335
 1617SOL    HW116313   2.736   1.435   1.696  0.3435  0.8992  0.8670
 1617SOL    HW216314   2.710   1.425   1.549  1.1271 -1.7345 -0.5852
 1618SOL     OW16315   3.709   1.721  16.662 -0.1125 -0.3406 -0.1057
 1618SOL    HW116316   3.715   1.815  16.644 -1.8735 -0.1139  0.5087
 1618SOL    HW216317   3.782   1.712  16.723  0.4029 -0.3021 -0.7211
 1619SOL     OW16318   4.463   4.504   9.324 -0.1033  0.0055  0.3245
 1619SOL    HW116319   4.403   4.454   9.379 -0.3891 -0.8969 -0.7933
 1619SOL    HW216320   4.408   4.501   9.245  1.0363 -0.7491 -0.4479
 1620SOL     OW16321   1.428   1.437   7.160 -0.0400  0.7124 -0.1425
 1620SOL    HW116322   1.348   1.462   7.114 -0.6276 -1.5471 -0.3274
 1620SOL    HW216323   1.481   1.399   7.091  1.9822  3.1181  0.0850
 1621SOL     OW16324   2.414   2.957   0.921 -0.0968 -0.0224  0.3310
 1621SOL    HW116325   2.399   3.039   0.873 -1.7753 -1.0512 -0.8963
 1621SOL    HW216326   2.507   2.956   0.898  0.6521  0.3904  3.3745
 1622SOL     OW16327   3.317   3.592   2.887 -0.2224 -0.1765  0.5055
 1622SOL    HW116328   3.252   3.610   2.956  0.4298  0.1901  1.0226
 1622SOL    HW216329   3.297   3.498   2.886  1.7636 -0.6423  2.6378
 1623SOL     OW16330   4.032   3.294  11.774  0.1390  0.9601 -0.2945
 1623SOL    HW116331   4.064   3.279  11.685  0.1874 -0.8891  0.0315
 1623SOL    HW216332   4.108   3.323  11.824  0.7221 -0.4210 -0.3812
 1624SOL     OW16333   3.585   1.732   4.527  0.3139  0.0319  0.1555
 1624SOL    HW116334   3.504   1.716   4.577  1.2026 -0.9013  1.3104
 1624SOL    HW216335   3.598   1.814   4.574 -0.7620  0.3311 -0.0647
 1625SOL     OW16336   3.788   2.460  14.980 -0.2266 -0.0413  0.6041
 1625SOL    HW116337   3.790   2.522  15.053  0.6195  3.2272 -2.2143
 1625SOL    HW216338   3.843   2.508  14.918 -0.0893  0.1277  0.8595
 1626SOL     OW16339   0.514   3.029   1.294 -0.3317  0.3171 -0.1705
 1626SOL    HW116340   0.561   2.998   1.216  0.1486  0.8438 -0.0940
 1626SOL    HW216341   0.510   2.949   1.345 -0.3289 -0.3798 -1.2608
 1627SOL     OW16342   4.153   1.704  11.737 -0.5678  0.1354  0.5911
 1627SOL    HW116343   4.231   1.649  11.726  0.9043  1.8558  2.1929
 1627SOL    HW216344   4.126   1.686  11.827  2.0607 -1.1005  1.1483
 1628SOL     OW16345   2.382   4.241  12.850  0.3504 -0.5233  0.0079
 1628SOL    HW116346   2.467   4.199  12.866 -0.2031 -1.5363  0.3325
 1628SOL    HW216347   2.347   4.242  12.940 -0.7311 -1.9158 -0.3856
 1629SOL     OW16348   3.326   2.505   2.105 -0.2918 -0.2940 -0.6829
 1629SOL    HW116349   3.289   2.533   2.189 -0.0471 -2.0690  0.0181
 1629SOL    HW216350   3.254   2.549   2.060 -0.7337  1.3934  1.6761
 1630SOL     OW16351   4.439   3.315  11.122 -0.7040  0.8412  0.1904
 1630SOL    HW116352   4.505   3.302  11.191 -1.2643  0.0954  0.5888
 1630SOL    HW216353   4.454   3.231  11.078 -0.7472  0.6630  0.5145
 1631SOL     OW16354   4.498   1.342   6.808 -0.1046 -0.2935  0.0786
 1631SOL    HW116355   4.593   1.347   6.815 -0.2106  2.8135 -1.0011
 1631SOL    HW216356   4.482   1.394   6.887 -1.8968 -0.2766 -0.2853
 1632SOL     OW16357   4.567   4.619   6.117 -0.0955 -0.6330 -0.4599
 1632SOL    HW116358   4.502   4.616   6.187  1.3478 -1.4521  0.8273
 1632SOL    HW216359   4.518   4.656   6.043 -0.6934 -3.1174 -1.3106
 1633SOL     OW16360   4.304   2.706   5.344 -0.6080 -0.2651 -0.1671
 1633SOL    HW116361   4.273   2.651   5.416 -0.4102 -0.6497 -0.3734
 1633SOL    HW216362   4.379   2.656   5.312  0.0108  0.1611  0.6129
 1634SOL     OW16363   4.474   1.877  15.725  0.6374  0.2123 -0.0105
 1634SOL    HW116364   4.530   1.800  15.719 -0.3852 -0.3911 -1.7361
 1634SOL    HW216365   4.534   1.938  15.769  1.2297  0.1296 -0.7176
 1635SOL     OW16366   4.354   3.225   8.306  0.1137  0.8222  0.1992
 1635SOL    HW116367   4.355   3.131   8.323 -0.7189  1.2398  2.5565
 1635SOL    HW216368   4.317   3.258   8.388  1.6967 -1.7259  1.9306
 1636SOL     OW16369   3.148   2.402   6.107  0.0990  0.1138 -1.0963
 1636SOL    HW116370   3.157   2.446   6.191  1.5684 -2.1023 -0.1004
 1636SOL    HW216371   3.205   2.332   6.138 -0.8477  0.1841  0.7555
 1637SOL     OW16372   2.563   1.780   2.357  0.4422  0.0922  0.5541
 1637SOL    HW116373   2.630   1.833   2.313 -0.5845 -0.4697 -1.6498
 1637SOL    HW216374   2.593   1.695   2.327 -1.8295 -0.6004  0.2420
 1638SOL     OW16375   2.493   1.542  12.892  0.6075 -0.8704  0.1820
 1638SOL    HW116376   2.413   1.574  12.852  0.3984 -0.6638  0.7588
 1638SOL    HW216377   2.559   1.549  12.823  1.6104  1.5437  1.3892
 1639SOL     OW16378   3.726   3.462  16.202 -0.5432 -0.3633 -0.5763
 1639SOL    HW116379   3.703   3.511  16.281  1.0546 -1.3704  0.5006
 1639SOL    HW216380   3.785   3.521  16.154 -1.5616  0.7941 -0.4195
 1640SOL     OW16381   3.082   3.865   5.833  0.3082  0.6974  0.2325
 1640SOL    HW116382   3.109   3.816   5.756  1.9855  0.0455  1.2437
 1640SOL    HW216383   3.167   3.879   5.874  1.0413  1.5505 -1.5763
 1641SOL     OW16384   2.159   2.195   3.934 -0.4311 -0.9359 -0.0767
 1641SOL    HW116385   2.106   2.136   3.988 -2.1985 -1.2913 -2.2216
 1641SOL    HW216386   2.177   2.261   4.002  1.1795 -0.6627 -0.7617
 1642SOL     OW16387   2.396   1.277   3.361  0.5033 -0.5598  0.0023
 1642SOL    HW116388   2.402   1.300   3.268  0.1924  1.3357  0.4506
 1642SOL    HW216389   2.301   1.273   3.370  0.7976 -2.6024  1.9426
 1643SOL     OW16390   2.470   2.327  11.879 -0.1297 -0.2507 -0.7009
 1643SOL    HW116391   2.506   2.238  11.886 -1.1279 -0.8067 -2.7927
 1643SOL    HW216392   2.513   2.354  11.799 -0.5243 -0.3260 -0.9365
 1644SOL     OW16393   1.965   0.583   3.451  0.3043  0.2371  0.4083
 1644SOL    HW116394   1.903   0.624   3.511 -0.5574  0.8481 -0.8910
 1644SOL    HW216395   2.041   0.582   3.509  1.7006  0.0012 -1.4128
 1645SOL     OW16396   4.087   4.609   4.409 -0.4552 -0.1003  0.3547
 1645SOL    HW116397   4.067   4.684   4.465  0.2027  0.3009  0.0607
 1645SOL    HW216398   4.011   4.600   4.351 -0.6743  0.2223  0.5946
 1646SOL     OW16399   3.484   0.865   4.896  0.5283 -0.2711  0.0081
 1646SOL    HW116400   3.560   0.917   4.869  1.2414 -2.1791 -1.6607
 1646SOL    HW216401   3.533   0.803   4.951 -0.9370 -0.0810  1.4983
 1647SOL     OW16402   3.634   3.496   9.032 -0.0447 -0.1001 -0.4040
 1647SOL    HW116403   3.711   3.440   9.039 -0.5865 -0.9645 -1.4207
 1647SOL    HW216404   3.641   3.519   8.939 -1.0984  0.7896 -0.2600
 1648SOL     OW16405   0.749   0.377  12.110  0.0296  0.0234 -0.9257
 1648SOL    HW116406   0.799   0.385  12.191 -1.9135 -0.7765  0.3317
 1648SOL    HW216407   0.665   0.372  12.155  0.7521 -1.1751  0.2501
 1649SOL     OW16408   2.933   1.655   8.172  0.0948 -0.9703 -0.8517
 1649SOL    HW116409   2.875   1.631   8.244  0.4571  0.0056 -0.2312
 1649SOL    HW216410   2.874   1.635   8.100 -0.3969  0.1948 -0.7762
 1650SOL     OW16411   2.940   3.270   2.795 -0.4576  0.5035  0.3423
 1650SOL    HW116412   2.996   3.247   2.868  1.6366  0.7225 -1.2064
 1650SOL    HW216413   2.934   3.188   2.745  0.9472  0.9148 -0.5166
 1651SOL     OW16414   3.637   4.325   2.833  0.0469  0.2956 -0.2006
 1651SOL    HW116415   3.660   4.344   2.742 -2.4707 -1.2686 -1.1489
 1651SOL    HW216416   3.659   4.232   2.839  0.2940  0.4187  0.8719
 1652SOL     OW16417   4.310   1.913   9.799 -0.6612  0.2391  0.3457
 1652SOL    HW116418   4.341   1.971   9.729  0.7442 -1.7053 -0.6528
 1652SOL    HW216419   4.373   1.939   9.867  1.4868  1.6205 -2.1533
 1653SOL     OW16420   2.904   2.416   9.220  0.1536  0.3417  0.4101
 1653SOL    HW116421   2.987   2.406   9.267  1.2009  0.4025 -1.4062
 1653SOL    HW216422   2.885   2.510   9.220 -0.5646  0.1990  0.4049
 1654SOL     OW16423   0.231   2.724  11.890  0.3848  0.0341 -0.6430
 1654SOL    HW116424   0.226   2.632  11.863 -2.5263  0.2777 -0.9482
 1654SOL    HW216425   0.168   2.707  11.960 -0.6156  1.2629 -1.2422
 1655SOL     OW16426   2.074   2.980   6.606  0.4753 -0.1135  0.2522
 1655SOL    HW116427   2.111   2.914   6.665 -2.0183 -0.7659  1.0742
 1655SOL    HW216428   2.103   2.944   6.522 -1.8856 -2.2104  0.3638
 1656SOL     OW16429   4.125   2.518   2.877 -0.1714 -0.5144  0.6613
 1656SOL    HW116430   4.176   2.499   2.955  1.8865 -0.2744 -0.6191
 1656SOL    HW216431   4.042   2.551   2.911 -0.3623  1.4569 -1.6648
 1657SOL     OW16432   2.962   4.496  10.247 -0.2266 -0.3209  0.2275
 1657SOL    HW116433   2.988   4.583  10.278  0.5991 -0.4460 -0.1183
 1657SOL    HW216434   3.002   4.431  10.305 -0.1040  0.3083  0.8515
 1658SOL     OW16435   3.554   3.154   9.373  0.8165 -0.1941 -0.4399
 1658SOL    HW116436   3.533   3.245   9.355  1.7721  0.4148  1.5644
 1658SOL    HW216437   3.629   3.153   9.313  0.4426  0.0613 -0.9198
 1659SOL     OW16438   1.275   3.072  11.658  0.0384  0.4585 -0.0217
 1659SOL    HW116439   1.344   3.022  11.614  1.6548  0.6434  2.2647
 1659SOL    HW216440   1.255   3.004  11.723  2.4351 -1.6298 -1.4775
 1660SOL     OW16441   2.794   3.142   5.105 -0.1592 -0.8122 -0.2826
 1660SOL    HW116442   2.867   3.112   5.159 -0.7899 -3.8573 -1.1158
 1660SOL    HW216443   2.743   3.195   5.167 -1.4338 -1.3259 -0.8900
 1661SOL     OW16444   1.719   1.869   1.368  0.2494 -0.1348  0.1257
 1661SOL    HW116445   1.757   1.797   1.318 -0.0921  1.5110 -2.5048
 1661SOL    HW216446   1.690   1.927   1.298 -0.6380  1.3058  1.6808
 1662SOL     OW16447   2.092   1.040   4.409 -0.1754 -0.2063 -0.0674
 1662SOL    HW116448   2.084   0.986   4.330  0.1922  0.8114 -0.8022
 1662SOL    HW216449   1.998   1.037   4.430 -0.0824 -0.2554  0.3358
 1663SOL     OW16450   0.659   2.967   3.601 -1.0153 -0.5954 -0.0758
 1663SOL    HW116451   0.594   3.037   3.605 -1.2808 -0.8293 -0.2033
 1663SOL    HW216452   0.685   2.970   3.509 -0.0901 -1.5026  0.1560
 1664SOL     OW16453   4.718   0.254   8.752 -0.2211 -0.0050 -0.0576
 1664SOL    HW116454   4.673   0.306   8.819 -1.3955  2.9684 -3.1595
 1664SOL    HW216455   4.658   0.180   8.742  2.8155 -2.4333 -0.2620
 1665SOL     OW16456   2.642   2.275  16.821 -0.0213 -0.4443  0.5616
 1665SOL    HW116457   2.629   2.367  16.845  0.8865 -0.2124  0.1594
 1665SOL    HW216458   2.726   2.279  16.775 -1.1633  3.9549 -1.0556
 1666SOL     OW16459   1.061   0.966   5.559  0.1112 -0.1059  0.5894
 1666SOL    HW116460   1.029   1.053   5.536  0.0407 -0.4092 -0.4796
 1666SOL    HW216461   1.155   0.981   5.559 -0.0086  0.6104 -2.2856
 1667SOL     OW16462   2.387   3.680   1.770  0.0173  0.5218 -0.2477
 1667SOL    HW116463   2.337   3.674   1.852 -0.0979  3.9262 -0.1032
 1667SOL    HW216464   2.459   3.618   1.783 -1.8973 -1.3095  1.7726
 1668SOL     OW16465   1.338   1.131  12.717 -0.8369  0.2549  0.0513
 1668SOL    HW116466   1.322   1.140  12.811  2.9721  1.9802  0.5482
 1668SOL    HW216467   1.365   1.222  12.705  2.6505 -0.6892  0.6991
 1669SOL     OW16468   0.986   3.157   8.864 -0.4813 -0.1574  1.0133
 1669SOL    HW116469   0.983   3.133   8.957  1.5102  0.1947  1.1565
 1669SOL    HW216470   0.987   3.073   8.819  2.0727 -0.3144  1.3787
 1670SOL     OW16471   3.632   1.185   3.605 -0.8551 -0.4684 -0.2912
 1670SOL    HW116472   3.595   1.245   3.670 -1.0557 -2.8613  1.7901
 1670SOL    HW216473   3.561   1.192   3.542 -0.1057 -0.0763 -1.0894
 1671SOL     OW16474   3.935   0.109   5.911 -0.2883  0.2296 -0.3330
 1671SOL    HW116475   3.933   0.014   5.901 -1.8882  0.1006  1.1182
 1671SOL    HW216476   3.905   0.135   5.824 -0.9451 -0.2656 -0.2588
 1672SOL     OW16477   4.570   2.026   1.661  0.5232  0.2336 -0.0571
 1672SOL    HW116478   4.657   2.027   1.621  0.8443 -0.9213  0.6288
 1672SOL    HW216479   4.553   1.932   1.655  2.1308 -0.1139  0.9067
 1673SOL     OW16480   2.501   3.695  17.064  0.2285 -0.1292 -0.2024
 1673SOL    HW116481   2.473   3.642  16.989 -0.5978 -2.3349  1.6683
 1673SOL    HW216482   2.588   3.657  17.073 -0.8557 -2.7127 -0.4781
 1674SOL     OW16483   3.112   0.570   4.301  0.1467 -0.1959  0.3268
 1674SOL    HW116484   3.126   0.624   4.379  2.0400 -0.4718  0.1925
 1674SOL    HW216485   3.139   0.488   4.344 -2.1210 -0.0471  2.0237
 1675SOL     OW16486   1.354   4.406   5.635  0.5064  0.4232 -0.3776
 1675SOL    HW116487   1.276   4.403   5.580  1.1366  0.3160 -1.2695
 1675SOL    HW216488   1.350   4.496   5.667 -1.0628 -0.3953  1.7622
 1676SOL     OW16489   1.801   0.641   2.535 -0.1951 -0.2458 -0.3166
 1676SOL    HW116490   1.872   0.694   2.572  0.2398  0.0243 -1.5384
 1676SOL    HW216491   1.839   0.622   2.449 -1.0347  0.4569 -0.8360
 1677SOL     OW16492   2.957   1.116   7.416 -0.4134  0.1076 -0.1151
 1677SOL    HW116493   2.967   1.133   7.322 -0.8365  2.4957  0.2829
 1677SOL    HW216494   3.002   1.193   7.451 -0.0099 -0.1885  0.0274
 1678SOL     OW16495   4.605   4.485   0.314 -0.6537 -0.1331  0.1988
 1678SOL    HW116496   4.591   4.579   0.310 -0.5571 -0.0895  0.8229
 1678SOL    HW216497   4.674   4.483   0.380 -0.0382 -1.8777 -0.4945
 1679SOL     OW16498   0.681   4.345  12.149  0.0304 -0.6414 -0.5686
 1679SOL    HW116499   0.653   4.435  12.133 -0.4941 -1.2505 -3.1383
 1679SOL    HW216500   0.615   4.288  12.109  1.4286 -2.7665  0.1630
 1680SOL     OW16501   0.333   3.513   9.167  0.3163  0.4453 -0.6811
 1680SOL    HW116502   0.322   3.474   9.254 -0.9117  0.2169 -0.9393
 1680SOL    HW216503   0.349   3.606   9.181 -2.0702  0.9248 -1.1148
 1681SOL     OW16504   3.310   1.400   4.895 -0.1507  0.5970 -0.0849
 1681SOL    HW116505   3.339   1.328   4.951  1.7087  0.6183 -1.0388
 1681SOL    HW216506   3.287   1.469   4.958 -3.2907  1.1334 -1.8511
 1682SOL     OW16507   3.716   1.817   9.533 -0.4185 -0.2185 -0.6353
 1682SOL    HW116508   3.794   1.821   9.477  0.4930  0.1732  0.6577
 1682SOL    HW216509   3.664   1.764   9.473  0.3114 -2.4724  0.7193
 1683SOL     OW16510   1.300   3.088  12.039  0.7013 -0.3279 -0.2534
 1683SOL    HW116511   1.317   3.003  11.999  1.2981  0.0210 -0.7345
 1683SOL    HW216512   1.350   3.070  12.119  1.5463 -1.7068 -1.0848
 1684SOL     OW16513   1.146   0.944  12.324 -0.0570  0.9858  0.4412
 1684SOL    HW116514   1.062   0.915  12.360  1.2396 -1.6075  1.3794
 1684SOL    HW216515   1.197   0.938  12.405  1.1232  2.1332 -0.2248
 1685SOL     OW16516   2.541   3.169  17.166  0.3387 -0.8060 -0.0422
 1685SOL    HW116517   2.557   3.264  17.165  2.1041 -1.0916  1.6192
 1685SOL    HW216518   2.513   3.171  17.258  1.4287  1.1416  0.2523
 1686SOL     OW16519   1.285   3.320   6.979  0.1176 -0.2278  0.6357
 1686SOL    HW116520   1.191   3.317   6.962  0.1936  1.8803 -0.1606
 1686SOL    HW216521   1.296   3.411   7.006  1.2250 -0.1035 -0.2228
 1687SOL     OW16522   2.266   0.515   7.073 -0.1555 -0.3395 -0.3599
 1687SOL    HW116523   2.301   0.603   7.083 -0.2919 -0.2641 -0.5495
 1687SOL    HW216524   2.224   0.515   6.987 -0.9921  0.9262  0.0545
 1688SOL     OW16525   3.930   4.336  14.526  0.0322 -0.8597  0.2697
 1688SOL    HW116526   3.922   4.255  14.577 -1.0282 -1.2143 -0.4653
 1688SOL    HW216527   3.883   4.400  14.580  0.6317 -1.1034  1.0812
 1689SOL     OW16528   0.173   2.282   5.890  0.0835  0.3782 -0.0974
 1689SOL    HW116529   0.130   2.280   5.975 -2.2773 -1.1922 -1.3395
 1689SOL    HW216530   0.105   2.253   5.830 -1.7911 -1.4016  2.8955
 1690SOL     OW16531   0.971   2.266   3.920  0.3089 -0.2188 -0.3965
 1690SOL    HW116532   0.937   2.181   3.945 -1.3885  1.0882  1.7449
 1690SOL    HW216533   0.899   2.294   3.863 -0.9645 -1.8592  0.4337
 1691SOL     OW16534   1.984   4.645  17.117 -0.3670  0.6056 -0.8011
 1691SOL    HW116535   1.931   4.715  17.154  2.0362  0.7714  2.3524
 1691SOL    HW216536   2.029   4.610  17.194  1.0840  3.6279 -0.2671
 1692SOL     OW16537   1.713   3.553   6.481  0.1982  0.2789  0.2083
 1692SOL    HW116538   1.642   3.569   6.543 -2.2069 -0.9200 -2.2041
 1692SOL    HW216539   1.682   3.575   6.393 -0.1710 -0.7376  0.0779
 1693SOL     OW16540   2.539   4.626  16.916 -0.4992  0.5104  0.6482
 1693SOL    HW116541   2.500   4.688  16.855  1.4952 -0.3900 -1.5347
 1693SOL    HW216542   2.524   4.671  16.999 -1.9697 -2.1048  1.7756
 1694SOL     OW16543   2.220   1.599   6.355  0.1922 -0.3804  0.4019
 1694SOL    HW116544   2.215   1.659   6.281 -3.2621 -0.2512  0.7223
 1694SOL    HW216545   2.183   1.518   6.320 -3.4523  0.8477  1.4453
 1695SOL     OW16546   2.541   4.368  12.557  0.0857 -0.0426 -0.0056
 1695SOL    HW116547   2.557   4.387  12.465  2.1587  0.8076  0.5361
 1695SOL    HW216548   2.564   4.275  12.559 -0.8447 -0.2735  0.0375
 1696SOL     OW16549   4.308   0.967   8.757  0.5144 -0.1013 -0.1011
 1696SOL    HW116550   4.236   0.922   8.801  1.5121 -1.1709  0.4405
 1696SOL    HW216551   4.378   0.941   8.818  0.4262  1.3009  0.6005
 1697SOL     OW16552   0.408   4.186   0.541  0.7156  0.2552  0.0602
 1697SOL    HW116553   0.502   4.194   0.526  0.6415  1.9902  0.5368
 1697SOL    HW216554   0.383   4.174   0.450  1.0645 -1.7906  0.2369
 1698SOL     OW16555   1.910   2.058   0.572 -0.0585  0.5349 -0.3269
 1698SOL    HW116556   2.004   2.075   0.560 -0.0402  1.0266  0.4700
 1698SOL    HW216557   1.906   2.056   0.668  1.5142  1.6025 -0.2368
 1699SOL     OW16558   2.200   1.167   1.883 -0.2402 -0.6461  0.4974
 1699SOL    HW116559   2.117   1.214   1.872  0.1441 -0.0549  0.1493
 1699SOL    HW216560   2.228   1.189   1.794 -1.5304 -1.9139 -0.2327
 1700SOL     OW16561   1.329   0.175   3.360  0.7040 -0.8845 -0.4465
 1700SOL    HW116562   1.356   0.154   3.450 -1.5633  0.2150  0.4951
 1700SOL    HW216563   1.400   0.128   3.316  1.1675 -1.5113  0.9458
 1701SOL     OW16564   0.020   4.313  14.353 -0.3437 -0.6018  0.2840
 1701SOL    HW116565   0.007   4.370  14.277  0.9153 -1.1615 -0.3509
 1701SOL    HW216566   0.110   4.288  14.336  0.3113  0.4787  2.2679
 1702SOL     OW16567   2.129   4.723   2.931  0.8407 -0.4414 -0.0188
 1702SOL    HW116568   2.191   0.064   2.897  1.3172  0.0815  1.8812
 1702SOL    HW216569   2.153   4.665   2.858 -1.2303 -0.5788 -0.5752
 1703SOL     OW16570   0.540   1.812   8.449 -0.4978  0.4339  0.3631
 1703SOL    HW116571   0.560   1.809   8.542 -0.4659  2.0799  0.4080
 1703SOL    HW216572   0.453   1.771   8.449  0.4280 -1.5730 -2.2437
 1704SOL     OW16573   2.296   4.122  16.635 -0.5289 -0.2572 -0.0670
 1704SOL    HW116574   2.300   4.202  16.687 -2.0451  1.1760 -2.1506
 1704SOL    HW216575   2.374   4.121  16.580 -0.8189 -2.8375 -0.4095
 1705SOL     OW16576   1.095   1.861   6.361 -0.1198 -0.1715  0.0989
 1705SOL    HW116577   1.001   1.873   6.372 -0.2061  0.0566 -0.8975
 1705SOL    HW216578   1.095   1.827   6.272  1.8676  0.3011 -0.0783
 1706SOL     OW16579   4.454   1.139   7.271 -0.4230 -0.0855 -0.1179
 1706SOL    HW116580   4.431   1.146   7.179 -0.2199 -0.8495 -0.2291
 1706SOL    HW216581   4.363   1.145   7.300  0.7319  0.0077  3.5024
 1707SOL     OW16582   1.406   2.346   3.231  0.5262  0.2302 -0.1146
 1707SOL    HW116583   1.496   2.319   3.211  0.4708 -0.3087  0.3481
 1707SOL    HW216584   1.358   2.265   3.211 -0.8007  1.3547 -1.4510
 1708SOL     OW16585   0.215   4.311  15.229 -0.1972  0.3907 -0.4911
 1708SOL    HW116586   0.259   4.342  15.150 -0.8685 -1.9377 -1.7657
 1708SOL    HW216587   0.135   4.363  15.219 -1.1126 -0.8327  0.5546
 1709SOL     OW16588   4.557   0.445  10.861  0.2249  0.3925 -0.0567
 1709SOL    HW116589   4.615   0.448  10.784  0.3041 -2.9395 -0.1153
 1709SOL    HW216590   4.604   0.389  10.923  0.2309  0.5704  0.0970
 1710SOL     OW16591   1.892   1.075   2.591  0.2854 -0.0747 -0.3636
 1710SOL    HW116592   1.966   1.135   2.585  1.2440 -1.2809 -0.5739
 1710SOL    HW216593   1.820   1.133   2.617  0.7429  0.7431 -0.9043
 1711SOL     OW16594   2.971   2.296   8.340 -0.1947  0.5852  0.8729
 1711SOL    HW116595   2.987   2.282   8.247 -1.5871 -1.5309  0.9401
 1711SOL    HW216596   2.881   2.267   8.352 -0.4748  0.1260 -2.5219
 1712SOL     OW16597   0.781   4.279   0.982  0.1988  0.1424  0.4370
 1712SOL    HW116598   0.785   4.213   1.051  1.6155  0.1720  0.3847
 1712SOL    HW216599   0.698   4.322   0.999  0.5031  0.4257  1.1997
 1713SOL     OW16600   1.501   0.740   5.250  0.6528  0.5642  0.6862
 1713SOL    HW116601   1.439   0.666   5.252 -0.7233  1.7248  0.9676
 1713SOL    HW216602   1.537   0.741   5.161 -0.0532 -0.1176  0.3930
 1714SOL     OW16603   2.775   2.902   9.500  0.9781  0.0587 -0.5115
 1714SOL    HW116604   2.723   2.983   9.493  1.0840  0.2210  0.5627
 1714SOL    HW216605   2.774   2.872   9.410 -0.3761  0.1168 -0.5182
 1715SOL     OW16606   1.881   2.193   8.313 -0.0468  0.0752  0.2282
 1715SOL    HW116607   1.971   2.163   8.301 -0.1687  0.3588 -1.3007
 1715SOL    HW216608   1.860   2.254   8.243  0.5874  0.2949  0.2340
 1716SOL     OW16609   0.667   3.352   1.021 -0.2784  0.1913 -0.3796
 1716SOL    HW116610   0.696   3.328   0.933 -1.4951  3.0733 -1.5657
 1716SOL    HW216611   0.747   3.398   1.047 -0.8459  1.1638 -0.3418
 1717SOL     OW16612   1.404   0.135   9.067  0.2451  0.3065  0.3739
 1717SOL    HW116613   1.434   0.053   9.107  0.5933 -0.0217 -0.5774
 1717SOL    HW216614   1.355   0.105   8.991  0.3061 -0.0905  0.4893
 1718SOL     OW16615   3.983   2.645   8.378  0.7854  0.0320  0.2277
 1718SOL    HW116616   3.935   2.700   8.440 -0.4440  0.0777 -0.7783
 1718SOL    HW216617   3.964   2.695   8.298 -0.8369 -0.1027  0.5359
 1719SOL     OW16618   2.213   4.208   2.716  0.5956  0.5775 -0.0894
 1719SOL    HW116619   2.293   4.197   2.767 -0.2334 -0.0800  1.0697
 1719SOL    HW216620   2.245   4.234   2.630 -0.3328 -0.6264 -0.7942
 1720SOL     OW16621   0.073   0.853   3.894  0.6708  0.1550 -0.0927
 1720SOL    HW116622   0.016   0.853   3.817 -3.2178 -1.1111  2.7931
 1720SOL    HW216623   0.024   0.792   3.949  1.6953 -0.7472 -0.1988
 1721SOL     OW16624   3.155   2.143  10.540 -0.2425  0.1905 -0.3005
 1721SOL    HW116625   3.121   2.122  10.453  1.3166 -0.1533 -0.8120
 1721SOL    HW216626   3.147   2.238  10.540  3.3433  0.4756  1.1413
 1722SOL     OW16627   1.437   3.490  17.358 -0.1021  0.1911  0.4094
 1722SOL    HW116628   1.348   3.523  17.349  0.2007  0.2432 -2.3307
 1722SOL    HW216629   1.437   3.404  17.315 -1.7273 -1.0932  3.0111
 1723SOL     OW16630   2.037   1.481  17.366 -0.0642 -0.6339  0.1499
 1723SOL    HW116631   2.055   1.492  17.273 -0.1921  3.1707  0.5847
 1723SOL    HW216632   1.995   1.395  17.365 -1.4040  0.0168  0.7259
 1724SOL     OW16633   2.003   1.601   0.528 -0.2150 -0.3558  0.3828
 1724SOL    HW116634   1.966   1.534   0.471 -0.0918 -1.8406  2.0475
 1724SOL    HW216635   1.924   1.627   0.575 -1.1226 -0.2299 -1.2266
 1725SOL     OW16636   2.747   4.018   2.173  0.1746 -0.0124 -0.3250
 1725SOL    HW116637   2.678   3.958   2.202  0.1449 -0.3296 -1.0663
 1725SOL    HW216638   2.767   4.061   2.257  0.5659  0.5310 -0.6969
 1726SOL     OW16639   3.704   2.218  14.841  0.0898 -0.1354 -0.0939
 1726SOL    HW116640   3.760   2.290  14.869 -0.6919  1.5330 -2.8514
 1726SOL    HW216641   3.696   2.244  14.750 -0.6395 -2.0378 -0.5838
 1727SOL     OW16642   4.320   4.637   5.079 -0.6182  0.0392 -0.1387
 1727SOL    HW116643   4.304   4.591   5.161 -2.3949 -3.2736 -2.3267
 1727SOL    HW216644   4.344   4.567   5.018 -0.2158  0.1565 -0.1144
 1728SOL     OW16645   1.959   2.987   7.146  0.1141 -0.1162 -0.0249
 1728SOL    HW116646   1.893   3.043   7.105 -0.9774 -1.2649  0.1806
 1728SOL    HW216647   2.037   3.041   7.134 -0.4226  0.2777 -1.7457
 1729SOL     OW16648   1.657   0.259   8.694 -0.5380 -0.1114 -0.1684
 1729SOL    HW116649   1.590   0.197   8.666 -0.0762 -1.1144  0.9811
 1729SOL    HW216650   1.624   0.339   8.653  2.5458  1.3582  0.1824
 1730SOL     OW16651   2.651   1.528  12.692 -0.0401 -0.2036  0.5882
 1730SOL    HW116652   2.640   1.609  12.642  2.5890 -0.0292  0.3019
 1730SOL    HW216653   2.736   1.536  12.736  0.1882 -1.8624  0.4568
 1731SOL     OW16654   1.673   4.603   0.255 -0.5297 -0.5918  0.0376
 1731SOL    HW116655   1.662   4.514   0.222 -1.6559  0.1602 -1.5840
 1731SOL    HW216656   1.674   4.647   0.170  0.8936 -1.4914 -0.4194
 1732SOL     OW16657   1.775   3.443   4.236 -0.5362 -0.6075 -0.1163
 1732SOL    HW116658   1.789   3.447   4.331 -0.5277 -0.6448 -0.1162
 1732SOL    HW216659   1.680   3.456   4.242 -0.3005  0.8392  0.6409
 1733SOL     OW16660   2.211   2.995  11.702 -0.2038 -0.0890  0.1139
 1733SOL    HW116661   2.268   2.928  11.739  1.9013  0.4729 -2.0855
 1733SOL    HW216662   2.278   3.040  11.651 -0.4448  2.0306  1.6526
 1734SOL     OW16663   2.622   4.581   2.474  0.3347 -0.7914  0.0285
 1734SOL    HW116664   2.611   4.608   2.383  3.1844 -0.8013 -0.3203
 1734SOL    HW216665   2.569   4.501   2.473 -1.6273  0.5500 -2.2363
 1735SOL     OW16666   0.493   1.303   0.922  0.1048 -0.3467  0.6041
 1735SOL    HW116667   0.562   1.304   0.856  0.1380  0.6198  0.6567
 1735SOL    HW216668   0.449   1.387   0.908 -0.2212 -0.7617 -0.9074
 1736SOL     OW16669   2.891   2.810   8.838  0.1397  0.0924 -0.0608
 1736SOL    HW116670   2.801   2.842   8.836 -0.2846 -1.0698  0.3110
 1736SOL    HW216671   2.879   2.715   8.831 -2.4726  0.4019  0.3991
 1737SOL     OW16672   4.019   1.889  13.739 -0.1459  0.1094 -0.2027
 1737SOL    HW116673   4.008   1.818  13.676  0.1084 -0.3147  0.2411
 1737SOL    HW216674   4.111   1.907  13.720  0.5194 -2.0692  1.0733
 1738SOL     OW16675   1.368   2.121  10.210 -0.3521  0.0982 -0.7851
 1738SOL    HW116676   1.417   2.179  10.269 -1.0328  0.4210 -0.5356
 1738SOL    HW216677   1.444   2.096  10.157 -0.5566 -1.6050 -0.2939
 1739SOL     OW16678   0.418   3.563   7.010  0.1486 -0.3091 -0.4666
 1739SOL    HW116679   0.427   3.602   7.097 -0.6321 -0.8070 -0.1622
 1739SOL    HW216680   0.324   3.562   6.991  0.1175  1.5949 -0.4029
 1740SOL     OW16681   2.582   3.748   4.710 -0.3773  0.6922  0.3163
 1740SOL    HW116682   2.597   3.700   4.628  1.1226 -0.0016  1.0021
 1740SOL    HW216683   2.496   3.782   4.684 -0.3369  1.4271  1.1536
 1741SOL     OW16684   2.395   3.987   8.481  0.3606 -0.0861  0.1299
 1741SOL    HW116685   2.416   4.055   8.545  2.1553 -0.4668 -0.0625
 1741SOL    HW216686   2.350   4.044   8.418 -0.4657 -1.3790 -0.4556
 1742SOL     OW16687   3.682   0.632   4.879 -0.5648 -0.0528  0.8038
 1742SOL    HW116688   3.762   0.622   4.827  1.0269  1.6384  2.9141
 1742SOL    HW216689   3.714   0.656   4.966  0.7453  0.6007  0.1403
 1743SOL     OW16690   4.180   1.871  15.144  0.3351  0.0670 -0.0324
 1743SOL    HW116691   4.244   1.804  15.168 -0.8690 -0.6732  1.0832
 1743SOL    HW216692   4.188   1.925  15.222  0.8549  0.1041 -0.1117
 1744SOL     OW16693   3.174   2.317   8.143 -0.5903  0.3635  0.3254
 1744SOL    HW116694   3.229   2.245   8.111 -1.0558 -0.1916  0.7649
 1744SOL    HW216695   3.165   2.356   8.056  2.5117 -1.6607 -0.9415
 1745SOL     OW16696   4.436   0.132   9.061  0.0392 -0.1226 -0.2250
 1745SOL    HW116697   4.351   0.148   9.102 -0.8960 -0.6773 -1.9607
 1745SOL    HW216698   4.476   0.058   9.107 -0.2834 -1.3354 -1.8832
 1746SOL     OW16699   2.382   2.102  13.903 -0.0680  0.2938 -0.0401
 1746SOL    HW116700   2.401   2.056  13.985  2.3292  0.1320 -0.6811
 1746SOL    HW216701   2.461   2.153  13.885 -0.8202  1.1262 -1.0332
 1747SOL     OW16702   4.597   1.254   2.982 -0.0434 -0.4331 -0.5792
 1747SOL    HW116703   4.549   1.249   2.899 -0.6924  0.6477 -0.2550
 1747SOL    HW216704   4.681   1.218   2.952  0.4526  0.6167 -0.4436
 1748SOL     OW16705   0.940   0.859  12.461  0.3165 -0.1089  0.3572
 1748SOL    HW116706   0.901   0.908  12.533  0.7059  1.8365 -0.7625
 1748SOL    HW216707   0.873   0.794  12.439 -0.5963  0.4754  1.4380
 1749SOL     OW16708   0.951   1.454   4.389 -0.1632 -0.0088  0.4485
 1749SOL    HW116709   0.939   1.549   4.383  3.4317  0.3800 -0.5237
 1749SOL    HW216710   0.864   1.430   4.359 -0.0674 -1.3751  1.2680
 1750SOL     OW16711   3.276   1.744  13.137  0.1256  0.1034 -0.7446
 1750SOL    HW116712   3.234   1.723  13.054 -0.8134 -1.1050  0.0233
 1750SOL    HW216713   3.213   1.804  13.177  0.0735  0.2674 -1.0728
 1751SOL     OW16714   3.080   2.622   2.031 -0.1575 -0.5105 -0.4072
 1751SOL    HW116715   3.045   2.710   2.018  1.0205  0.0354  0.1793
 1751SOL    HW216716   3.006   2.565   2.055  0.5991 -0.4171  2.0675
 1752SOL     OW16717   4.122   2.144  10.750  0.3501  0.0778 -0.0306
 1752SOL    HW116718   4.180   2.112  10.819  0.1082  1.9535  1.0358
 1752SOL    HW216719   4.139   2.089  10.673 -2.9367 -2.5455  1.1494
 1753SOL     OW16720   4.054   1.088   4.642 -0.1652  0.0042 -0.1442
 1753SOL    HW116721   4.121   1.077   4.710  0.7172 -1.3657 -1.2136
 1753SOL    HW216722   4.104   1.078   4.561  0.4507 -1.7975  0.4425
 1754SOL     OW16723   2.299   4.589  16.621 -0.0919 -0.0553 -0.1967
 1754SOL    HW116724   2.273   4.534  16.695 -0.0973  1.6399  1.0598
 1754SOL    HW216725   2.289   4.533  16.544 -1.2444 -0.6184  0.3584
 1755SOL     OW16726   0.372   2.846   1.887  0.0026  0.0616  0.0407
 1755SOL    HW116727   0.279   2.823   1.895  0.5031 -1.2920  2.0061
 1755SOL    HW216728   0.373   2.877   1.796  2.2040  2.5233  0.9015
 1756SOL     OW16729   2.715   0.868   8.779 -0.0294  0.7535  0.0100
 1756SOL    HW116730   2.660   0.796   8.810  1.0991 -1.2811 -2.6232
 1756SOL    HW216731   2.770   0.866   8.858  0.8334 -0.2110 -0.6085
 1757SOL     OW16732   4.666   3.266   4.535 -0.0037  0.0307  0.2282
 1757SOL    HW116733   4.696   3.180   4.565  1.5874 -0.0473 -1.6110
 1757SOL    HW216734   4.590   3.278   4.592 -0.5073 -1.7789 -0.0596
 1758SOL     OW16735   0.403   1.612   7.703  0.2480  0.0790  0.8532
 1758SOL    HW116736   0.367   1.595   7.616 -0.0953 -0.0675  1.0236
 1758SOL    HW216737   0.409   1.524   7.739 -0.4378 -0.3378 -0.0305
 1759SOL     OW16738   3.826   0.589   5.104  0.5718 -0.0554 -0.2003
 1759SOL    HW116739   3.899   0.527   5.100  0.4731 -0.2929  1.7341
 1759SOL    HW216740   3.869   0.670   5.135  0.2937  0.3692 -0.9222
 1760SOL     OW16741   1.171   1.600   3.542  0.1056  0.3086  0.2626
 1760SOL    HW116742   1.118   1.648   3.606 -0.6494  1.7483 -1.4536
 1760SOL    HW216743   1.234   1.559   3.602  0.9013 -2.6023 -2.5429
 1761SOL     OW16744   1.968   2.130   0.836 -0.3833 -0.3187 -0.3997
 1761SOL    HW116745   2.008   2.217   0.839 -2.6086  0.5862  3.0819
 1761SOL    HW216746   1.884   2.149   0.878 -0.7049  0.6203 -1.4618
 1762SOL     OW16747   3.669   3.556   5.112 -0.0487 -0.1829 -0.8364
 1762SOL    HW116748   3.657   3.636   5.163 -1.9894 -1.0535  0.0765
 1762SOL    HW216749   3.752   3.564   5.065  0.6504 -2.3499  0.0495
 1763SOL     OW16750   2.450   3.207  17.428  0.6983 -0.1810  0.5880
 1763SOL    HW116751   2.514   3.193  17.498 -0.6681 -0.0827  1.8518
 1763SOL    HW216752   2.381   3.257  17.470 -0.0906 -0.2534 -0.6182
 1764SOL     OW16753   2.992   1.849  16.024 -0.1523 -0.0100 -0.3340
 1764SOL    HW116754   2.906   1.825  16.056  0.5753 -0.5821  1.1808
 1764SOL    HW216755   2.994   1.926  16.082 -0.3995  0.4570 -0.9418
 1765SOL     OW16756   1.094   3.640   2.613  0.0830 -0.3177  0.1805
 1765SOL    HW116757   1.060   3.575   2.552 -1.8343 -0.9373  1.9388
 1765SOL    HW216758   1.169   3.642   2.553 -0.9586 -1.9391 -1.1802
 1766SOL     OW16759   3.019   2.004   1.731  0.4938 -0.4563  0.1914
 1766SOL    HW116760   3.084   1.943   1.695  0.9229  0.0267  0.1323
 1766SOL    HW216761   2.947   1.969   1.680 -0.4817  0.9327  0.6162
 1767SOL     OW16762   3.989   1.800   9.773  0.3147  0.0167  0.1682
 1767SOL    HW116763   4.029   1.719   9.806  0.7354 -0.5755 -1.8168
 1767SOL    HW216764   4.021   1.866   9.836  0.0798 -0.2114  0.5288
 1768SOL     OW16765   4.600   0.962   6.124  0.1221 -0.3453 -0.1822
 1768SOL    HW116766   4.677   1.018   6.115 -0.8123  0.8587 -0.7327
 1768SOL    HW216767   4.630   0.893   6.183 -1.6516  1.3964  2.7192
 1769SOL     OW16768   0.291   0.811   3.637  0.1943 -0.7582 -0.1169
 1769SOL    HW116769   0.269   0.733   3.688  0.3021 -1.4145 -1.0706
 1769SOL    HW216770   0.238   0.871   3.690  2.4104  0.2170  0.9998
 1770SOL     OW16771   2.707   2.479   3.934 -0.2732 -0.3375 -0.0553
 1770SOL    HW116772   2.618   2.503   3.958 -0.3897 -2.2236  1.3348
 1770SOL    HW216773   2.726   2.556   3.879  0.7392  0.6393  1.6507
 1771SOL     OW16774   1.183   3.858   8.702  0.1341 -0.1068 -0.2386
 1771SOL    HW116775   1.182   3.872   8.797 -0.7937  0.4357 -0.3245
 1771SOL    HW216776   1.208   3.767   8.686 -0.7361 -0.4646  0.4096
 1772SOL     OW16777   0.564   3.055  11.339 -0.2045 -0.5316  0.3531
 1772SOL    HW116778   0.565   3.086  11.430  1.6557 -0.2818  0.2309
 1772SOL    HW216779   0.515   2.973  11.347  0.9664 -1.3065 -0.3923
 1773SOL     OW16780   2.231   2.602   2.059  0.3565 -0.1264  0.3052
 1773SOL    HW116781   2.246   2.685   2.104  1.6880  1.3741 -2.9457
 1773SOL    HW216782   2.244   2.535   2.127  2.5568 -0.8504 -0.8293
 1774SOL     OW16783   2.325   4.544   1.296  0.1804 -0.2602 -0.1231
 1774SOL    HW116784   2.299   4.592   1.218  0.0065  0.3258  0.2923
 1774SOL    HW216785   2.420   4.555   1.295 -0.0041  1.1548 -2.8202
 1775SOL     OW16786   1.849   2.814   6.768 -0.5409 -0.3611 -0.1793
 1775SOL    HW116787   1.817   2.873   6.836 -0.4030 -0.6557  0.1407
 1775SOL    HW216788   1.940   2.843   6.774  0.1567 -2.1235 -2.3697
 1776SOL     OW16789   3.542   1.117  10.065  0.4076  0.1153 -0.2960
 1776SOL    HW116790   3.630   1.112  10.102 -0.1022 -2.1954  0.6490
 1776SOL    HW216791   3.515   1.025  10.077  1.7914 -0.0892  1.1807
 1777SOL     OW16792   1.348   0.228   4.750 -0.3895 -0.1038  0.3213
 1777SOL    HW116793   1.387   0.145   4.776 -1.2800  0.8991  4.9700
 1777SOL    HW216794   1.394   0.288   4.809 -0.3121 -1.7941  1.9838
 1778SOL     OW16795   3.363   2.997   4.464  0.5670  0.2364 -0.3851
 1778SOL    HW116796   3.306   3.043   4.524 -0.3874 -1.6264  0.1264
 1778SOL    HW216797   3.303   2.944   4.411  1.4088  1.3363 -2.4547
 1779SOL     OW16798   2.225   2.365   3.505  0.1640 -0.1958  0.1879
 1779SOL    HW116799   2.256   2.382   3.594 -0.3260  1.1759  0.0834
 1779SOL    HW216800   2.299   2.311   3.479  0.3056 -0.8257  1.8945
 1780SOL     OW16801   0.181   0.641  15.232  0.0050 -0.1041 -0.6591
 1780SOL    HW116802   0.182   0.702  15.158  1.1307  0.4855 -0.1581
 1780SOL    HW216803   0.140   0.690  15.304 -0.0618  2.1372 -2.2453
 1781SOL     OW16804   1.252   1.312   6.664  0.3131  0.2499  0.5532
 1781SOL    HW116805   1.293   1.369   6.599 -0.9581 -0.1473 -0.5753
 1781SOL    HW216806   1.285   1.226   6.641  1.2678  0.4909  1.0251
 1782SOL     OW16807   2.413   3.283   0.830 -0.1296 -0.6848 -0.0830
 1782SOL    HW116808   2.418   3.330   0.913 -0.0263 -1.0010  0.0857
 1782SOL    HW216809   2.380   3.357   0.778 -1.2143 -0.9552  0.2142
 1783SOL     OW16810   0.501   3.808   2.392 -0.5192  0.8937 -0.6360
 1783SOL    HW116811   0.505   3.853   2.476 -1.7265 -0.4682  0.1531
 1783SOL    HW216812   0.411   3.776   2.392  0.3059 -1.4875  0.0849
 1784SOL     OW16813   4.396   1.425   0.232 -0.2248 -0.4385  0.2491
 1784SOL    HW116814   4.483   1.463   0.224 -1.0827  1.5504  0.4889
 1784SOL    HW216815   4.384   1.397   0.141 -1.2531  0.3244  0.1391
 1785SOL     OW16816   3.010   0.544  12.074  0.3232  0.0924  0.0100
 1785SOL    HW116817   3.077   0.559  12.141  0.8601 -0.6938 -0.3490
 1785SOL    HW216818   3.038   0.609  12.010  1.4328  1.2913  1.7023
 1786SOL     OW16819   2.529   3.761   8.431 -0.0021  0.0893  0.1819
 1786SOL    HW116820   2.579   3.826   8.481  1.1036  0.7319 -1.7828
 1786SOL    HW216821   2.445   3.801   8.456  1.7481  3.0228  1.3456
 1787SOL     OW16822   4.517   0.126   0.048  0.1265  0.1802 -0.0948
 1787SOL    HW116823   4.427   0.093   0.053 -0.6091  2.1962  0.0243
 1787SOL    HW216824   4.560   0.081   0.120  1.0826  0.3817 -0.5346
 1788SOL     OW16825   2.667   1.404   0.429  0.0178  0.0984  0.2396
 1788SOL    HW116826   2.590   1.451   0.462 -0.2199  0.1242 -0.3623
 1788SOL    HW216827   2.735   1.461   0.466  0.4897  1.0547 -2.1246
 1789SOL     OW16828   4.469   3.031   7.868 -0.0615  0.3787 -0.0444
 1789SOL    HW116829   4.562   3.040   7.886 -0.0075 -0.4974  0.1185
 1789SOL    HW216830   4.466   2.980   7.787  1.0378 -0.9919  0.7697
 1790SOL     OW16831   3.909   2.964   9.114  0.1035  0.4026  0.2635
 1790SOL    HW116832   3.854   3.042   9.118  1.2021  1.3320 -2.4911
 1790SOL    HW216833   3.839   2.900   9.106  1.9358 -1.5407 -0.4737
 1791SOL     OW16834   2.631   2.090   7.926  0.0924 -0.9869 -0.0928
 1791SOL    HW116835   2.638   2.039   7.845 -2.4000  0.2628 -1.0855
 1791SOL    HW216836   2.536   2.086   7.932 -0.0240  2.0650  0.1631
 1792SOL     OW16837   3.601   3.657   2.954 -0.1063  1.1896 -0.3590
 1792SOL    HW116838   3.627   3.681   3.043 -1.2047 -0.0997  0.3165
 1792SOL    HW216839   3.510   3.637   2.978 -0.4103 -0.2478 -2.7305
 1793SOL     OW16840   0.050   3.978   6.241  0.4702 -0.3492 -0.0034
 1793SOL    HW116841   0.058   4.066   6.204  1.8900 -0.2977  0.3896
 1793SOL    HW216842   0.028   3.928   6.163 -1.7825  0.3194  0.2115
 1794SOL     OW16843   1.788   0.615   8.805 -0.3190  0.2711 -0.3171
 1794SOL    HW116844   1.724   0.552   8.773  0.4698 -0.5540 -0.2475
 1794SOL    HW216845   1.757   0.691   8.755 -0.1900 -0.4208 -1.4416
 1795SOL     OW16846   0.274   1.743  12.288  0.2136 -0.3390 -0.0776
 1795SOL    HW116847   0.317   1.681  12.230  1.2024 -0.5780  0.9127
 1795SOL    HW216848   0.222   1.789  12.222 -1.4954 -2.0983  0.0207
 1796SOL     OW16849   0.726   1.146   5.825 -0.2105  0.2082 -0.9322
 1796SOL    HW116850   0.726   1.057   5.790 -0.1604 -0.3840  0.5747
 1796SOL    HW216851   0.688   1.135   5.912  0.3249  0.8495 -0.6194
 1797SOL     OW16852   0.185   0.875  17.154 -0.0809  0.3556  0.0699
 1797SOL    HW116853   0.121   0.805  17.168 -0.0029 -0.1856 -2.3400
 1797SOL    HW216854   0.269   0.831  17.143 -0.4696  0.0855 -1.7143
 1798SOL     OW16855   0.549   2.604  17.357 -0.4601  0.0236  0.5490
 1798SOL    HW116856   0.525   2.685  17.311  1.3399  0.0104 -0.4157
 1798SOL    HW216857   0.622   2.639  17.408  1.1223 -1.5711 -0.6369
 1799SOL     OW16858   1.181   4.667   2.014  0.5437 -0.1619 -0.2062
 1799SOL    HW116859   1.160   0.035   2.012  1.0262 -0.0577 -0.3362
 1799SOL    HW216860   1.266   4.669   2.058 -0.1629  0.7719  1.1283
 1800SOL     OW16861   4.019   2.815   6.947 -0.2709  0.3211  0.1265
 1800SOL    HW116862   4.026   2.744   7.011 -2.1598 -1.2250 -1.3899
 1800SOL    HW216863   4.103   2.858   6.961  1.0562 -2.0248 -0.7441
 1801SOL     OW16864   4.691   0.193  15.131 -0.0938  0.1429 -0.3972
 1801SOL    HW116865   4.711   0.271  15.079 -0.5477  0.8524  0.4783
 1801SOL    HW216866   0.041   0.137  15.111 -1.5775 -1.5347 -1.2125
 1802SOL     OW16867   4.622   0.601   4.174  0.6560 -0.5206 -0.0998
 1802SOL    HW116868   4.533   0.631   4.156  1.6376  2.9062  0.7861
 1802SOL    HW216869   4.601   0.508   4.171 -0.6394 -0.0611 -4.8043
 1803SOL     OW16870   0.178   2.763   7.480 -0.0034 -0.7304  0.5836
 1803SOL    HW116871   0.209   2.675   7.501  0.7148 -0.7837 -0.7397
 1803SOL    HW216872   0.106   2.775   7.542  0.3230  0.8135  0.6676
 1804SOL     OW16873   2.878   1.570   2.045  0.1592 -0.1143  0.0334
 1804SOL    HW116874   2.792   1.611   2.046  0.0157 -0.4014 -0.8003
 1804SOL    HW216875   2.860   1.484   2.006  0.1331  1.1903 -2.8317
 1805SOL     OW16876   0.025   3.268   2.977  0.0934  0.1992  0.0204
 1805SOL    HW116877   0.028   3.218   2.896 -0.0468 -0.6839  0.5547
 1805SOL    HW216878   0.114   3.268   3.012  0.6318  0.6329 -1.3513
 1806SOL     OW16879   2.283   1.984   7.589  0.5721  0.4060 -0.4045
 1806SOL    HW116880   2.227   1.953   7.660  0.4649 -1.4242 -1.3084
 1806SOL    HW216881   2.233   2.062   7.564 -1.7503 -1.6322 -2.0052
 1807SOL     OW16882   2.216   2.824  11.470 -0.1038 -0.1348 -0.5772
 1807SOL    HW116883   2.294   2.878  11.454  0.6358 -0.8292  0.6927
 1807SOL    HW216884   2.263   2.749  11.506  0.6389  0.1994 -0.8518
 1808SOL     OW16885   0.202   3.301   6.726 -0.1664 -0.0705  0.1596
 1808SOL    HW116886   0.190   3.389   6.761 -1.6932  0.5796 -2.0403
 1808SOL    HW216887   0.252   3.252   6.791 -0.8051 -1.1840 -0.1835
 1809SOL     OW16888   0.445   3.464   2.403 -0.0797 -0.4690 -0.3630
 1809SOL    HW116889   0.485   3.432   2.483 -0.2241 -1.2224 -0.5892
 1809SOL    HW216890   0.491   3.394   2.356 -0.7166 -1.7171  0.8690
 1810SOL     OW16891   1.625   0.113  12.695  0.2323  0.2090 -0.2024
 1810SOL    HW116892   1.678   0.147  12.767 -1.0125 -0.4509  1.0231
 1810SOL    HW216893   1.654   0.156  12.615 -1.2446 -0.1884 -0.9426
 1811SOL     OW16894   0.261   3.700   5.269  0.2914  0.4107 -0.6411
 1811SOL    HW116895   0.220   3.786   5.283 -1.1523 -0.3287 -0.3109
 1811SOL    HW216896   0.174   3.666   5.246  0.1840  0.5002 -0.3680
 1812SOL     OW16897   2.817   4.501   8.972 -0.2954 -0.2336 -0.5749
 1812SOL    HW116898   2.728   4.503   8.936  0.0880  1.0628 -1.4490
 1812SOL    HW216899   2.885   4.519   8.908  0.5252  0.5238  0.5030
 1813SOL     OW16900   3.441   0.513   7.418 -0.4005  0.5821 -0.1303
 1813SOL    HW116901   3.434   0.607   7.397  0.6039  0.4143 -1.2536
 1813SOL    HW216902   3.417   0.473   7.334  0.2353 -1.9208  0.8882
 1814SOL     OW16903   2.319   1.479   2.070  0.0837 -0.5227 -0.3780
 1814SOL    HW116904   2.299   1.482   1.976  2.7686  0.2376 -0.9420
 1814SOL    HW216905   2.388   1.414   2.074 -0.9402 -1.4931  1.4435
 1815SOL     OW16906   3.268   2.925   3.403  0.5721 -0.0537  0.3991
 1815SOL    HW116907   3.361   2.933   3.423  0.5557 -0.2360  0.5494
 1815SOL    HW216908   3.248   3.018   3.411 -3.4155 -0.8511 -0.0098
 1816SOL     OW16909   1.575   2.051   6.063 -0.2531  0.5790 -0.3915
 1816SOL    HW116910   1.593   2.093   5.979 -3.7504 -0.1278 -1.5165
 1816SOL    HW216911   1.641   2.103   6.110 -0.8164  0.2189  0.7899
 1817SOL     OW16912   2.203   2.735   8.304  0.1337 -0.1259 -1.1165
 1817SOL    HW116913   2.190   2.698   8.216  1.4852  2.1015 -2.2582
 1817SOL    HW216914   2.118   2.728   8.348 -0.0711  2.1208 -1.1338
 1818SOL     OW16915   2.962   2.251   1.640 -0.4276  0.3205  0.1291
 1818SOL    HW116916   2.963   2.172   1.694 -2.2225  1.8959  2.4812
 1818SOL    HW216917   3.025   2.304   1.688  0.0892  0.0237 -0.2296
 1819SOL     OW16918   0.111   0.722   3.120 -0.2076 -0.4226  0.4580
 1819SOL    HW116919   0.033   0.695   3.168 -1.5418  0.5911 -1.1721
 1819SOL    HW216920   0.068   0.773   3.052  1.8127  0.4170 -0.2099
 1820SOL     OW16921   2.339   4.336   0.914  0.1895  0.7979 -0.3210
 1820SOL    HW116922   2.282   4.383   0.853 -0.0892 -0.8942 -1.3473
 1820SOL    HW216923   2.387   4.409   0.954 -0.4257 -0.6499  3.0475
 1821SOL     OW16924   3.228   4.097   1.349  0.9764 -0.3063  0.4114
 1821SOL    HW116925   3.306   4.055   1.313  1.7037 -0.1882  1.8542
 1821SOL    HW216926   3.241   4.187   1.318 -2.3330  0.0746  0.0901
 1822SOL     OW16927   2.030   1.273  15.198  0.3208  0.6774  0.1631
 1822SOL    HW116928   2.009   1.259  15.291  0.1657  1.4800  0.2455
 1822SOL    HW216929   2.022   1.368  15.191  1.2753  0.6480 -1.2563
 1823SOL     OW16930   2.694   0.381   2.612 -0.2956  0.5784 -0.0361
 1823SOL    HW116931   2.779   0.375   2.570 -0.1152  0.6192  0.3290
 1823SOL    HW216932   2.654   0.449   2.557  0.1494  0.7046 -0.2000
 1824SOL     OW16933   4.341   1.709   7.561 -0.3344  0.3593  0.4155
 1824SOL    HW116934   4.364   1.778   7.499  2.8228 -0.8439  0.2521
 1824SOL    HW216935   4.397   1.636   7.536 -0.7256  0.5256 -0.9325
 1825SOL     OW16936   1.161   3.292   9.303 -0.5801  0.3284  0.5254
 1825SOL    HW116937   1.120   3.351   9.366 -3.2122 -1.0960  0.1456
 1825SOL    HW216938   1.230   3.267   9.365  1.0851  2.5034 -0.4603
 1826SOL     OW16939   0.781   0.309   9.204  0.1052  0.2884 -0.2364
 1826SOL    HW116940   0.782   0.405   9.205 -1.9997  0.2965  0.0619
 1826SOL    HW216941   0.726   0.283   9.130 -1.2921  1.0221  0.5446
 1827SOL     OW16942   2.207   3.999  17.316 -0.0794 -0.2461  0.2203
 1827SOL    HW116943   2.222   4.090  17.341  0.4260 -0.1215 -0.5450
 1827SOL    HW216944   2.164   4.019  17.233  0.3125  2.0051  0.5470
 1828SOL     OW16945   4.157   2.083   3.694  0.3405 -0.3799 -0.1910
 1828SOL    HW116946   4.246   2.104   3.722 -0.1361 -0.7975  1.6684
 1828SOL    HW216947   4.167   2.063   3.601 -0.8265  0.7629 -0.5614
 1829SOL     OW16948   4.115   3.069   5.237  0.1087 -0.2015  0.2033
 1829SOL    HW116949   4.122   2.975   5.219  1.2027 -0.4193  1.7714
 1829SOL    HW216950   4.122   3.109   5.151 -1.8379  2.2983  1.2247
 1830SOL     OW16951   0.201   4.361  15.716 -0.0236 -0.4103 -0.9457
 1830SOL    HW116952   0.118   4.401  15.742  1.4494  1.5046  0.8359
 1830SOL    HW216953   0.250   4.381  15.795  0.4790  0.9794 -1.6090
 1831SOL     OW16954   3.067   0.039   2.489 -0.2301 -0.3041 -0.2323
 1831SOL    HW116955   3.040   4.709   2.414  2.2391 -1.3651 -0.3520
 1831SOL    HW216956   2.997   0.104   2.486 -0.6619 -0.7972 -1.1721
 1832SOL     OW16957   3.434   2.091   1.486  0.3105  0.2272  0.2348
 1832SOL    HW116958   3.415   2.132   1.402 -1.9738 -1.3428 -0.0298
 1832SOL    HW216959   3.385   2.149   1.544  2.9329  1.7480  0.8885
 1833SOL     OW16960   1.517   0.128   6.108 -0.2630 -0.3216  0.2797
 1833SOL    HW116961   1.566   0.208   6.124 -0.3655  0.2990 -2.6011
 1833SOL    HW216962   1.431   0.168   6.096  0.3050  0.0666 -2.3004
 1834SOL     OW16963   2.464   3.656   7.589 -0.0275  0.6372 -0.4634
 1834SOL    HW116964   2.430   3.735   7.630  1.6714  1.3147 -0.3684
 1834SOL    HW216965   2.396   3.615   7.535  1.3391 -1.0511 -0.8979
 1835SOL     OW16966   0.256   3.938   0.097  0.2156 -0.1158 -0.1205
 1835SOL    HW116967   0.212   3.857   0.072  0.8748 -0.6778  0.5563
 1835SOL    HW216968   0.338   3.929   0.048  1.2617 -2.5823  2.1177
 1836SOL     OW16969   1.992   1.321   1.806 -0.3043  0.7466  0.9130
 1836SOL    HW116970   1.924   1.337   1.741  1.3643  2.1970 -0.4821
 1836SOL    HW216971   2.008   1.408   1.843 -2.5297  1.4291  0.2320
 1837SOL     OW16972   2.655   0.959  14.935 -0.8133 -0.0851 -0.5196
 1837SOL    HW116973   2.740   0.947  14.977 -0.2743  0.8799 -1.3641
 1837SOL    HW216974   2.600   0.922  15.005 -0.7662 -1.9837 -1.4735
 1838SOL     OW16975   4.622   2.350   4.304 -0.3328  0.1684 -0.2010
 1838SOL    HW116976   4.614   2.260   4.335 -0.0390  1.0671  2.4557
 1838SOL    HW216977   4.536   2.378   4.272 -0.9002 -0.1782  1.0276
 1839SOL     OW16978   2.936   4.565   1.886 -0.2788 -0.0833 -0.2545
 1839SOL    HW116979   2.975   4.537   1.803  0.0544  0.7128 -0.3771
 1839SOL    HW216980   2.882   4.488   1.903 -0.8535  0.1304 -1.0866
 1840SOL     OW16981   3.923   2.200   2.190 -0.5028  0.1624 -0.1431
 1840SOL    HW116982   3.903   2.247   2.110 -3.0432  0.4237  0.6553
 1840SOL    HW216983   3.843   2.148   2.196  0.2956 -1.0230  0.2412
 1841SOL     OW16984   3.677   2.635   1.810  0.3520  0.4276 -0.5925
 1841SOL    HW116985   3.719   2.571   1.752 -0.0445  0.6048 -1.0692
 1841SOL    HW216986   3.741   2.702   1.789 -0.1768  1.1215  0.0302
 1842SOL     OW16987   1.158   3.244   5.608 -0.2959  0.3957 -0.1509
 1842SOL    HW116988   1.195   3.161   5.637 -0.7710 -0.3408 -1.6494
 1842SOL    HW216989   1.110   3.226   5.527 -1.3630 -2.0437  1.0439
 1843SOL     OW16990   3.014   2.039  11.574  0.0705  0.1055 -0.2318
 1843SOL    HW116991   2.934   2.091  11.574 -0.4500 -0.6839  1.8464
 1843SOL    HW216992   3.083   2.102  11.592  0.8124 -0.8018  0.1205
 1844SOL     OW16993   3.075   4.458   6.318  0.1883  0.0177 -0.0052
 1844SOL    HW116994   3.022   4.487   6.393  0.8144 -0.0276  0.4544
 1844SOL    HW216995   3.083   4.364   6.335  1.1311  0.0900 -0.0802
 1845SOL     OW16996   2.511   0.781   7.421 -0.2376 -0.2457 -0.1253
 1845SOL    HW116997   2.563   0.726   7.479 -0.6153  2.1733  2.5677
 1845SOL    HW216998   2.420   0.755   7.439 -0.9439  1.7724 -0.7819
 1846SOL     OW16999   4.204   1.562   6.155 -0.3397 -0.4810 -0.5646
 1846SOL    HW117000   4.143   1.593   6.088 -0.8762 -1.6719 -0.6317
 1846SOL    HW217001   4.243   1.643   6.189 -0.0263 -1.5717  1.7109
 1847SOL     OW17002   2.974   4.416   3.151  0.4193  0.4974  0.3704
 1847SOL    HW117003   2.898   4.367   3.120  1.0100  1.5498 -2.7320
 1847SOL    HW217004   3.000   4.361   3.224 -0.7447 -0.5610 -0.0267
 1848SOL     OW17005   3.202   1.566   8.268 -0.3137  0.3096  0.2181
 1848SOL    HW117006   3.228   1.490   8.216  1.8798  1.6742 -0.6875
 1848SOL    HW217007   3.119   1.592   8.229  0.3887 -1.8732 -2.7075
 1849SOL     OW17008   3.711   2.294  15.185  0.1508 -0.5488  0.5424
 1849SOL    HW117009   3.755   2.378  15.169  1.0293 -1.4625 -1.7201
 1849SOL    HW217010   3.694   2.269  15.095  0.7563  0.1509  0.2336
 1850SOL     OW17011   2.355   4.305   0.319  0.3860 -0.5370  0.1839
 1850SOL    HW117012   2.333   4.386   0.364 -0.7057  0.5103 -2.2550
 1850SOL    HW217013   2.444   4.318   0.286 -0.5863  1.1108 -1.7780
 1851SOL     OW17014   3.123   3.031  17.390  0.4842  0.4305 -0.1127
 1851SOL    HW117015   3.111   2.949  17.342  0.8420  0.7508 -0.7449
 1851SOL    HW217016   3.062   3.088  17.344  0.5851  0.2750 -0.4417
 1852SOL     OW17017   0.022   0.908   7.641  0.2824 -0.1863  0.4862
 1852SOL    HW117018   0.112   0.876   7.649  0.4145 -0.2250 -1.1896
 1852SOL    HW217019   0.006   0.948   7.727 -0.7351 -0.3782  0.3855
 1853SOL     OW17020   2.837   0.902   9.056  0.1813 -0.2017 -0.0459
 1853SOL    HW117021   2.920   0.947   9.070 -0.3168  0.4862  0.6721
 1853SOL    HW217022   2.841   0.813   9.091 -1.9453  0.4325  1.8086
 1854SOL     OW17023   1.507   0.964   0.534  0.3248 -0.2126  0.0616
 1854SOL    HW117024   1.522   0.886   0.588 -0.7932 -0.1554  0.4453
 1854SOL    HW217025   1.594   1.005   0.536 -0.3945  1.2897  0.0082
 1855SOL     OW17026   1.976   4.648  11.766 -0.0534 -0.1431 -0.1266
 1855SOL    HW117027   1.882   4.641  11.783 -0.0344  0.3905  0.2027
 1855SOL    HW217028   1.982   4.612  11.678 -0.3128 -0.6689  0.0675
 1856SOL     OW17029   0.706   0.908  11.259  0.1372  0.1383  0.2821
 1856SOL    HW117030   0.631   0.869  11.213 -0.9432  2.3736  0.1848
 1856SOL    HW217031   0.727   0.979  11.199  0.7043  0.2797  0.6493
 1857SOL     OW17032   2.667   2.302   2.115  0.0045 -0.0891  0.2027
 1857SOL    HW117033   2.601   2.364   2.146 -0.5489 -0.9420  0.7046
 1857SOL    HW217034   2.685   2.252   2.195 -0.4155  0.2278  0.4981
 1858SOL     OW17035   0.404   3.599   6.406 -0.4941 -0.1446 -0.3416
 1858SOL    HW117036   0.322   3.609   6.359 -0.7005 -0.7218 -0.0960
 1858SOL    HW217037   0.359   3.605   6.490 -0.6157 -2.7253 -0.2360
 1859SOL     OW17038   1.019   0.762   7.520 -0.0652 -0.2809 -0.7947
 1859SOL    HW117039   1.011   0.697   7.589  2.1594 -1.2498 -1.4395
 1859SOL    HW217040   0.934   0.802   7.538 -0.3359 -0.2819 -2.0602
 1860SOL     OW17041   3.577   2.322   5.292 -0.6059 -0.4007 -0.5669
 1860SOL    HW117042   3.513   2.314   5.363  0.6181  4.4582  1.0652
 1860SOL    HW217043   3.524   2.365   5.225 -0.5045 -1.2501 -1.1985
 1861SOL     OW17044   4.042   4.487   2.809  0.1898  0.9350  0.7842
 1861SOL    HW117045   4.037   4.560   2.747  0.8897  1.0999  0.9279
 1861SOL    HW217046   3.998   4.418   2.758  1.6960  1.5505 -1.3430
 1862SOL     OW17047   3.184   0.172  13.322  0.5225  0.1662  0.0991
 1862SOL    HW117048   3.108   0.136  13.276  1.3362 -0.1634 -0.9794
 1862SOL    HW217049   3.148   0.260  13.330 -0.9864 -0.8150  4.6613
 1863SOL     OW17050   4.618   4.163   6.972 -0.8404  0.0669 -0.4233
 1863SOL    HW117051   4.659   4.132   6.891  2.8011 -1.9338  2.1678
 1863SOL    HW217052   4.530   4.125   6.965 -1.1129  0.3245  1.4765
 1864SOL     OW17053   0.743   1.430  11.281 -0.3255  0.3145 -0.0832
 1864SOL    HW117054   0.835   1.445  11.260 -0.0009  0.8965  1.7806
 1864SOL    HW217055   0.725   1.341  11.249  1.8171  0.2601 -1.1369
 1865SOL     OW17056   3.882   1.719   3.571 -0.0116 -0.0501 -0.2624
 1865SOL    HW117057   3.909   1.749   3.484  0.0289  1.0628  0.1290
 1865SOL    HW217058   3.918   1.792   3.621 -1.2308  0.6996 -0.4850
 1866SOL     OW17059   1.418   1.096   2.597 -0.1313 -0.5361 -0.5598
 1866SOL    HW117060   1.504   1.121   2.629 -0.7595  0.4364  0.3780
 1866SOL    HW217061   1.448   1.043   2.523  0.9417 -0.3020 -0.2862
 1867SOL     OW17062   3.619   2.103   5.044 -0.2809  0.4955 -0.2323
 1867SOL    HW117063   3.645   2.078   5.132 -0.5717  1.9361  0.2521
 1867SOL    HW217064   3.523   2.105   5.049 -0.2484 -1.0834  1.0361
 1868SOL     OW17065   3.378   0.993  15.782  0.7655  0.4050 -0.2571
 1868SOL    HW117066   3.363   0.899  15.766 -3.4622  0.8829  0.8315
 1868SOL    HW217067   3.286   1.019  15.781  0.4805 -0.6286 -0.9382
 1869SOL     OW17068   2.301   2.184   0.992  0.8130 -0.0070  0.2283
 1869SOL    HW117069   2.225   2.167   1.047 -0.6561  0.1849 -1.7479
 1869SOL    HW217070   2.302   2.277   1.016  2.3744 -0.6254  2.5582
 1870SOL     OW17071   2.421   1.485   2.424 -0.5930  0.4314 -0.4203
 1870SOL    HW117072   2.380   1.479   2.338 -0.2911  2.5058 -0.7113
 1870SOL    HW217073   2.514   1.486   2.404 -0.2937 -1.7642  0.9474
 1871SOL     OW17074   0.319   3.374   4.708  0.6405 -0.5521 -0.4488
 1871SOL    HW117075   0.377   3.441   4.743 -1.9323  0.6340  1.5816
 1871SOL    HW217076   0.307   3.393   4.615 -0.0980  3.3754  0.4750
 1872SOL     OW17077   3.006   2.421   4.486  0.0561  0.7856 -0.1811
 1872SOL    HW117078   3.076   2.410   4.421 -0.7005 -0.4818 -0.7738
 1872SOL    HW217079   2.959   2.502   4.465  0.8098  0.8594 -1.6392
 1873SOL     OW17080   2.714   0.157   2.410  0.2582  0.1828  0.0380
 1873SOL    HW117081   2.716   0.064   2.387 -1.3027  0.7046 -2.1263
 1873SOL    HW217082   2.653   0.169   2.483  2.0871  2.2448  1.2405
 1874SOL     OW17083   1.935   2.295   7.308  0.3340 -0.6576 -0.1537
 1874SOL    HW117084   1.938   2.288   7.213 -1.7529  0.9054 -0.3351
 1874SOL    HW217085   1.842   2.276   7.322 -0.4522  2.8277 -0.7736
 1875SOL     OW17086   0.076   1.236   2.433 -0.7243  0.0710  0.1741
 1875SOL    HW117087   0.138   1.291   2.385  0.0973 -0.3994  0.6996
 1875SOL    HW217088   4.710   1.266   2.421 -0.8887 -0.8084 -0.8440
 1876SOL     OW17089   0.472   2.702   6.788  0.8765 -0.0204 -0.2195
 1876SOL    HW117090   0.444   2.776   6.734 -2.7789 -1.3340 -0.1331
 1876SOL    HW217091   0.444   2.743   6.870 -1.9215 -2.9638  0.2687
 1877SOL     OW17092   0.568   4.353  14.545 -0.3436  0.0259 -0.2413
 1877SOL    HW117093   0.582   4.327  14.636  0.3709  2.4116  0.3252
 1877SOL    HW217094   0.473   4.347  14.550 -0.3109 -1.1850 -1.0198
 1878SOL     OW17095   2.798   2.610   3.720  0.1524 -0.1670  0.3547
 1878SOL    HW117096   2.858   2.547   3.679  0.2200  1.0746 -1.4691
 1878SOL    HW217097   2.717   2.577   3.680  1.3102 -0.6210 -1.6036
 1879SOL     OW17098   1.541   3.320   6.851  0.0801  0.2649 -0.0982
 1879SOL    HW117099   1.527   3.226   6.866  0.5714 -0.0278 -1.4454
 1879SOL    HW217100   1.456   3.347   6.886 -0.8258 -1.3477 -1.0287
 1880SOL     OW17101   1.722   1.726   3.133  0.3287 -0.3121  0.3217
 1880SOL    HW117102   1.642   1.763   3.096  0.2208 -1.7495 -0.8710
 1880SOL    HW217103   1.786   1.760   3.071 -0.0368 -1.8962 -0.9237
 1881SOL     OW17104   0.526   3.254   6.034 -0.2242 -0.2172  0.3452
 1881SOL    HW117105   0.452   3.292   6.080 -1.3646 -0.8981 -0.9267
 1881SOL    HW217106   0.494   3.220   5.950 -2.2559  1.4989  0.4477
 1882SOL     OW17107   2.479   1.670   3.253 -0.6393  0.0878 -0.6991
 1882SOL    HW117108   2.522   1.636   3.332 -0.8682  0.5887 -0.3596
 1882SOL    HW217109   2.546   1.738   3.243  0.7554 -1.2332 -0.3703
 1883SOL     OW17110   2.997   4.489   4.746 -0.5067 -0.4682 -0.1798
 1883SOL    HW117111   2.902   4.485   4.737 -0.3998  0.0498 -1.5789
 1883SOL    HW217112   3.025   4.528   4.663  0.7389 -1.3378 -0.1552
 1884SOL     OW17113   1.744   0.415  12.445 -0.0711 -0.3841  0.2789
 1884SOL    HW117114   1.834   0.448  12.450 -0.1541  0.2564 -2.5358
 1884SOL    HW217115   1.754   0.336  12.392  1.0305 -0.0677  0.0112
 1885SOL     OW17116   2.115   3.708   8.522 -0.0348 -0.1550  0.0879
 1885SOL    HW117117   2.152   3.741   8.441  2.3542 -0.0440  1.2401
 1885SOL    HW217118   2.121   3.780   8.585 -2.1820  1.5886 -1.7090
 1886SOL     OW17119   0.155   2.456   4.272 -0.1717  0.0740  0.6380
 1886SOL    HW117120   0.070   2.412   4.275  0.7276 -1.8644 -1.6332
 1886SOL    HW217121   0.161   2.467   4.177 -0.5454 -0.9789  0.4938
 1887SOL     OW17122   4.524   1.274   7.906 -0.1679  0.0953  0.3873
 1887SOL    HW117123   4.605   1.325   7.913  2.3103 -3.8630  0.2666
 1887SOL    HW217124   4.543   1.237   7.820  2.0404 -0.1591  0.9836
 1888SOL     OW17125   3.513   4.164   5.979  0.2986  0.4034 -0.2289
 1888SOL    HW117126   3.499   4.101   5.909  0.2219 -0.5764  0.6612
 1888SOL    HW217127   3.564   4.230   5.933  2.1422 -2.8244 -2.7562
 1889SOL     OW17128   0.798   2.343   2.857 -0.0334  0.5153  0.0455
 1889SOL    HW117129   0.732   2.285   2.818  0.2743  0.6638 -0.7047
 1889SOL    HW217130   0.768   2.426   2.820  2.4267  1.6298  0.5670
 1890SOL     OW17131   2.482   1.458   4.346  0.1714  0.1059 -0.4568
 1890SOL    HW117132   2.405   1.400   4.347 -1.0179  1.7222  1.0071
 1890SOL    HW217133   2.480   1.494   4.434 -0.2384  0.2232 -0.5127
 1891SOL     OW17134   1.427   1.133   4.388  0.4315  0.3046  0.8798
 1891SOL    HW117135   1.451   1.071   4.320 -0.8725 -1.4177  1.9864
 1891SOL    HW217136   1.441   1.219   4.349 -1.2674  0.6970  1.1221
 1892SOL     OW17137   0.759   1.621   1.508  0.1472 -0.5099  0.4667
 1892SOL    HW117138   0.703   1.626   1.430  0.7602 -1.9677 -0.0759
 1892SOL    HW217139   0.750   1.709   1.542  1.4253 -0.6418  1.1410
 1893SOL     OW17140   1.754   0.004   1.783 -0.1905 -0.2157  0.1513
 1893SOL    HW117141   1.684   0.051   1.829 -0.1709 -0.9004  0.8761
 1893SOL    HW217142   1.819   0.072   1.769 -0.5506 -0.3047 -1.9373
 1894SOL     OW17143   3.781   0.789   8.933 -0.2748  0.1104 -0.2817
 1894SOL    HW117144   3.775   0.850   8.860 -1.8284 -0.9175 -1.0120
 1894SOL    HW217145   3.698   0.794   8.981 -0.1463 -2.0504  0.1444
 1895SOL     OW17146   2.262   3.116   7.590 -0.0314 -0.3669  0.5502
 1895SOL    HW117147   2.309   3.033   7.592  2.2716  0.9140 -1.0984
 1895SOL    HW217148   2.254   3.135   7.684  1.3456  0.8497  0.4099
 1896SOL     OW17149   1.225   2.338   4.786 -0.1392  0.4393 -0.4480
 1896SOL    HW117150   1.134   2.311   4.772 -0.4936  1.5675 -0.3305
 1896SOL    HW217151   1.251   2.266   4.844  1.3099 -0.5406 -2.3190
 1897SOL     OW17152   4.007   0.985   3.087  0.0218 -0.1516  0.2656
 1897SOL    HW117153   4.057   1.060   3.053 -1.5021  1.5763  1.8101
 1897SOL    HW217154   3.964   1.038   3.154  1.7093 -2.0539  2.8392
 1898SOL     OW17155   0.572   1.713   1.296  0.0335 -0.2972 -0.5112
 1898SOL    HW117156   0.552   1.807   1.296  0.1428 -0.2733 -0.8930
 1898SOL    HW217157   0.501   1.691   1.357  0.7106  2.7405  1.3736
 1899SOL     OW17158   0.340   2.092   3.340  0.3941  0.1389 -0.0071
 1899SOL    HW117159   0.298   2.026   3.394 -1.2280  1.2510  0.1018
 1899SOL    HW217160   0.304   2.066   3.255  0.6478 -2.6551  0.7499
 1900SOL     OW17161   0.025   0.013   1.671  0.0286 -0.1690  0.3779
 1900SOL    HW117162   0.114   4.722   1.639 -0.2830 -0.7258 -0.2288
 1900SOL    HW217163   0.000   0.100   1.638 -0.4697 -0.9935 -1.4179
 1901SOL     OW17164   0.056   0.536   2.577  0.0841 -0.6991  0.2464
 1901SOL    HW117165   0.060   0.602   2.507 -2.1023 -1.6646 -0.7954
 1901SOL    HW217166   4.703   0.495   2.540 -0.2717 -0.3910  0.6557
 1902SOL     OW17167   2.025   3.452   4.128 -0.0800 -0.2448  0.0067
 1902SOL    HW117168   1.996   3.530   4.081 -1.6606 -0.2945  0.9243
 1902SOL    HW217169   1.939   3.438   4.166  0.7148 -2.0458  1.1746
 1903SOL     OW17170   2.042   3.917   4.683  0.3518  0.2529  0.0543
 1903SOL    HW117171   1.973   3.856   4.709  2.7552 -1.7462  1.7250
 1903SOL    HW217172   1.998   3.987   4.633  1.4786  1.6396  0.9972
 1904SOL     OW17173   3.525   1.337   2.343  0.6842  0.5439 -0.5199
 1904SOL    HW117174   3.541   1.417   2.295  1.5088  1.7247  1.7100
 1904SOL    HW217175   3.432   1.356   2.355  1.3181  1.1621  3.5583
 1905SOL     OW17176   1.428   1.125  16.387 -0.4126  0.2958  0.2369
 1905SOL    HW117177   1.417   1.183  16.462  0.2781  1.5806 -0.6508
 1905SOL    HW217178   1.519   1.097  16.403 -0.9884  1.1310  4.8890
 1906SOL     OW17179   2.731   1.990   2.961 -0.0252  0.0144 -0.4021
 1906SOL    HW117180   2.699   2.080   2.953  1.2846  0.3072 -2.4853
 1906SOL    HW217181   2.676   1.940   2.901  2.3752 -0.8055 -1.9497
 1907SOL     OW17182   2.610   1.984   4.262  0.7466 -0.2730 -0.4970
 1907SOL    HW117183   2.615   1.950   4.173  0.7783 -0.5725 -0.3811
 1907SOL    HW217184   2.685   1.933   4.292  1.4424  0.2504 -1.3510
 1908SOL     OW17185   2.092   3.827  15.990  0.1361  0.1264 -0.2392
 1908SOL    HW117186   2.109   3.906  16.041 -2.7898  1.4774 -1.3528
 1908SOL    HW217187   2.156   3.764  16.025 -1.2861 -0.8902  0.5396
 1909SOL     OW17188   0.542   1.877   3.616 -0.0213 -0.4353 -0.1480
 1909SOL    HW117189   0.633   1.903   3.630 -0.8124  1.3466  1.6676
 1909SOL    HW217190   0.521   1.863   3.709 -2.0308 -1.0133 -0.7025
 1910SOL     OW17191   0.964   2.934   2.049  0.5148  0.1705  0.2792
 1910SOL    HW117192   0.944   2.954   1.958 -1.6095  0.2950  0.7811
 1910SOL    HW217193   0.994   2.844   2.040 -1.3712 -0.1923 -2.0459
 1911SOL     OW17194   1.907   4.718   3.078  0.2962  0.4123  0.7100
 1911SOL    HW117195   1.845   4.700   3.008 -0.8300 -1.6192  2.2143
 1911SOL    HW217196   1.987   0.013   3.030 -0.3940 -1.8964 -1.3695
 1912SOL     OW17197   3.391   0.781  14.155 -0.1102 -0.2991  0.3598
 1912SOL    HW117198   3.383   0.728  14.076 -0.5623  2.7120 -1.5736
 1912SOL    HW217199   3.474   0.829  14.158 -0.3452  0.1870 -1.4175
 1913SOL     OW17200   2.410   0.195   6.204 -0.4866  0.2236  0.0834
 1913SOL    HW117201   2.370   0.234   6.282  1.3756 -1.2057  1.7557
 1913SOL    HW217202   2.396   0.267   6.143 -0.3371  0.2872  0.1235
 1914SOL     OW17203   2.865   1.385   3.565 -0.0847 -0.0220  0.1917
 1914SOL    HW117204   2.804   1.315   3.544  3.0174 -3.4309  2.4669
 1914SOL    HW217205   2.952   1.351   3.547  0.4246  1.5360 -0.2542
 1915SOL     OW17206   1.014   3.360   6.942 -0.6336 -0.1702  0.4430
 1915SOL    HW117207   0.960   3.383   7.017 -0.9652  0.7106 -0.0669
 1915SOL    HW217208   0.953   3.352   6.869 -0.4981 -0.8600  0.4036
 1916SOL     OW17209   2.395   3.844   7.194 -0.0960  0.2827 -0.0930
 1916SOL    HW117210   2.343   3.764   7.192 -0.0211  0.2355 -0.1924
 1916SOL    HW217211   2.330   3.913   7.179 -0.1752 -0.0260 -1.1884
 1917SOL     OW17212   4.473   0.174   5.185 -0.1568 -0.0313 -0.5549
 1917SOL    HW117213   4.482   0.095   5.132 -0.4896  1.0582 -2.2451
 1917SOL    HW217214   4.396   0.146   5.234  0.7388 -2.3261 -0.4598
 1918SOL     OW17215   2.630   3.621  14.832  0.3173  0.3716  0.6383
 1918SOL    HW117216   2.717   3.584  14.845 -0.3143 -1.0513  0.8410
 1918SOL    HW217217   2.646   3.710  14.862  0.7417  0.8120 -0.8837
 1919SOL     OW17218   1.183   2.722   6.352  0.0842  0.2769 -0.4211
 1919SOL    HW117219   1.168   2.784   6.424  1.1360  0.2917 -0.2186
 1919SOL    HW217220   1.269   2.760   6.338  0.4410 -1.0994 -1.9302
 1920SOL     OW17221   4.494   1.402   5.362  0.1002  0.0788  0.5857
 1920SOL    HW117222   4.491   1.327   5.421  1.1511 -0.0956  0.4099
 1920SOL    HW217223   4.411   1.406   5.315 -0.3657  0.0481  1.4027
 1921SOL     OW17224   1.915   2.916   8.615 -0.5069 -0.1762  0.3951
 1921SOL    HW117225   1.843   2.883   8.669 -1.0172  0.6025  0.1945
 1921SOL    HW217226   1.892   3.009   8.602 -0.2816 -0.1641  0.0852
 1922SOL     OW17227   2.458   4.577  10.803  0.1768  0.1266 -0.3070
 1922SOL    HW117228   2.504   4.494  10.786 -0.4130 -0.2330 -0.1465
 1922SOL    HW217229   2.537   4.630  10.810  0.6010 -0.5969  0.4950
 1923SOL     OW17230   3.907   0.776  14.450  0.1544  0.2604  0.1474
 1923SOL    HW117231   3.816   0.803  14.442 -0.1100 -0.5512  0.3631
 1923SOL    HW217232   3.907   0.732  14.365  0.2215  1.5227 -0.4984
 1924SOL     OW17233   2.311   2.714  16.879  0.1527 -0.2126  0.2473
 1924SOL    HW117234   2.218   2.736  16.885 -0.4409 -2.6655 -0.1544
 1924SOL    HW217235   2.351   2.790  16.923 -1.7757  0.3713  1.0112
 1925SOL     OW17236   4.686   4.318   5.567  0.1437 -0.3725 -0.2874
 1925SOL    HW117237   4.595   4.326   5.537 -0.3273 -2.4967  0.5698
 1925SOL    HW217238   4.708   4.227   5.547  0.5257 -0.3127 -0.1373
 1926SOL     OW17239   1.684   3.500   0.770 -0.9359 -0.2293 -0.4672
 1926SOL    HW117240   1.742   3.561   0.815  0.9387 -1.8727 -0.6619
 1926SOL    HW217241   1.598   3.528   0.801 -1.2016 -0.3397 -1.1087
 1927SOL     OW17242   2.088   2.028   9.283  0.1939  0.1014  0.3007
 1927SOL    HW117243   2.157   2.052   9.222  0.0363 -4.2554 -1.5491
 1927SOL    HW217244   2.016   2.082   9.250  2.1918  2.3649 -0.3960
 1928SOL     OW17245   2.754   1.791   9.481 -0.2803 -0.3597 -0.1481
 1928SOL    HW117246   2.710   1.876   9.480 -0.8538 -0.6258  2.2032
 1928SOL    HW217247   2.700   1.746   9.415 -0.5756 -1.2231  0.6776
 1929SOL     OW17248   3.030   1.011  10.782  0.3955  0.0199  0.9599
 1929SOL    HW117249   3.019   0.974  10.694  0.3308  0.4498  0.7872
 1929SOL    HW217250   3.003   1.098  10.753  2.0710  0.3465  0.3443
 1930SOL     OW17251   0.540   0.873   6.910 -0.3958  0.7430 -0.5763
 1930SOL    HW117252   0.466   0.931   6.929 -0.5416 -0.2307  1.8298
 1930SOL    HW217253   0.548   0.819   6.988 -0.0662  1.6719  0.0362
 1931SOL     OW17254   0.004   0.942   4.981  0.0261 -0.4643 -0.1072
 1931SOL    HW117255   0.063   1.015   4.964  0.0407 -0.4629 -0.0499
 1931SOL    HW217256   4.655   0.982   5.028 -1.4933 -0.7140 -2.2513
 1932SOL     OW17257   4.621   2.905   1.010 -0.1608 -0.5239  0.2902
 1932SOL    HW117258   4.571   2.921   1.090  1.4103  1.5269  0.8615
 1932SOL    HW217259   4.675   2.984   1.013  0.6584 -1.2150  3.1210
 1933SOL     OW17260   3.257   3.620   4.617  0.2752 -0.1608  0.4212
 1933SOL    HW117261   3.270   3.655   4.705 -1.7986  3.4512 -0.6992
 1933SOL    HW217262   3.298   3.533   4.617  3.0067  1.1189 -1.3387
 1934SOL     OW17263   1.734   4.404   1.828  0.2077  0.5188 -0.2507
 1934SOL    HW117264   1.818   4.359   1.826 -0.1796 -0.1988 -0.3731
 1934SOL    HW217265   1.758   4.454   1.906  0.2052  1.1211 -0.6391
 1935SOL     OW17266   3.474   1.341   0.930 -0.1353  0.1743  0.3656
 1935SOL    HW117267   3.505   1.351   1.019  0.5634 -0.4091  0.1837
 1935SOL    HW217268   3.382   1.327   0.954  1.0550 -1.9928  3.5224
 1936SOL     OW17269   0.394   0.444   8.482 -0.2350  0.1852 -0.0899
 1936SOL    HW117270   0.336   0.480   8.550 -0.1015 -1.0836  0.6865
 1936SOL    HW217271   0.462   0.511   8.477  0.6472 -0.6682  0.6180
 1937SOL     OW17272   1.574   3.037   2.998 -0.6080 -0.0628 -0.0797
 1937SOL    HW117273   1.553   3.128   3.018 -1.0467 -0.2579  0.3320
 1937SOL    HW217274   1.558   2.998   3.084 -0.2819 -1.9689 -0.8805
 1938SOL     OW17275   4.083   3.153   5.703 -0.6291 -0.1986 -0.5723
 1938SOL    HW117276   4.106   3.235   5.746 -0.1294  0.3805 -1.9501
 1938SOL    HW217277   3.995   3.181   5.678 -0.4567  0.6461 -0.2147
 1939SOL     OW17278   2.490   3.810  16.654  0.2924  0.0109 -0.1318
 1939SOL    HW117279   2.529   3.723  16.647  1.4996  0.6280 -1.0347
 1939SOL    HW217280   2.479   3.838  16.563  1.9099 -2.1001 -0.9805
 1940SOL     OW17281   3.670   4.320   9.662 -0.3815 -0.1077 -0.1231
 1940SOL    HW117282   3.591   4.300   9.713  0.9024 -0.9178  1.5610
 1940SOL    HW217283   3.654   4.281   9.576  0.1953 -2.3954  0.7969
 1941SOL     OW17284   1.918   3.726   5.535 -0.3244  0.2913 -0.4149
 1941SOL    HW117285   1.985   3.660   5.556 -0.1938  0.3362 -0.6922
 1941SOL    HW217286   1.870   3.728   5.618  1.4298  0.1012  0.5958
 1942SOL     OW17287   1.710   3.584   8.634 -0.4705  0.5439  0.2018
 1942SOL    HW117288   1.630   3.531   8.631  1.3929 -2.2230 -1.4241
 1942SOL    HW217289   1.777   3.517   8.649  1.1343  2.4647  1.6057
 1943SOL     OW17290   2.784   1.396   6.445 -0.2721 -0.2163  0.1818
 1943SOL    HW117291   2.777   1.406   6.350  0.2897 -0.2026  0.1388
 1943SOL    HW217292   2.878   1.414   6.454 -0.3525  0.0057  0.5518
 1944SOL     OW17293   2.631   1.064   9.682 -0.1620  0.2844 -0.1474
 1944SOL    HW117294   2.701   1.114   9.723 -1.1558  1.0670  0.6031
 1944SOL    HW217295   2.572   1.055   9.757  1.3414 -0.5025  0.9279
 1945SOL     OW17296   2.777   4.299   2.985  0.8681  0.2053  0.0972
 1945SOL    HW117297   2.808   4.272   2.898 -2.7488  1.7329 -1.6804
 1945SOL    HW217298   2.784   4.392   2.965 -0.2407  0.5441  1.3477
 1946SOL     OW17299   1.381   0.332   7.298  0.3857  0.4594  0.1914
 1946SOL    HW117300   1.387   0.304   7.389  0.2689 -0.5666 -0.1182
 1946SOL    HW217301   1.406   0.423   7.313  0.1958  0.7066 -0.9114
 1947SOL     OW17302   1.944   2.770   5.335  0.6214 -0.3290 -0.1823
 1947SOL    HW117303   1.913   2.810   5.416  0.9136 -0.5143  0.0214
 1947SOL    HW217304   1.935   2.675   5.347  1.2235 -0.2852  0.6570
 1948SOL     OW17305   2.550   4.036   7.572 -0.2879 -1.0369 -0.6848
 1948SOL    HW117306   2.476   4.091   7.545 -1.9864 -1.8346  2.3614
 1948SOL    HW217307   2.503   3.974   7.628 -1.3152 -0.3165 -0.7504
 1949SOL     OW17308   0.393   1.711   1.501  0.0671 -0.0354  0.1597
 1949SOL    HW117309   0.303   1.741   1.513 -0.3427 -0.8018 -0.9404
 1949SOL    HW217310   0.422   1.716   1.592 -1.1900 -0.6342  0.5994
 1950SOL     OW17311   4.334   4.609   8.006  0.1331  0.1869  0.5761
 1950SOL    HW117312   4.402   4.663   7.965  1.4656 -2.8643 -1.2294
 1950SOL    HW217313   4.389   4.551   8.059 -0.7226 -1.2442 -0.0945
 1951SOL     OW17314   4.119   1.216   3.020  0.7322  0.4831  0.1365
 1951SOL    HW117315   4.161   1.241   2.938 -0.2768 -1.3856 -0.9568
 1951SOL    HW217316   4.030   1.247   3.009 -0.0532 -1.7378  0.1837
 1952SOL     OW17317   0.370   2.856  11.335 -0.0363 -0.5683  0.2689
 1952SOL    HW117318   0.365   2.765  11.362 -0.9001 -0.0279  1.9007
 1952SOL    HW217319   0.304   2.895  11.392 -1.4083 -0.1402 -1.6293
 1953SOL     OW17320   2.280   0.025   5.918 -0.1451  0.0003 -0.2163
 1953SOL    HW117321   2.295   4.714   6.006  0.0563 -1.1875 -0.7376
 1953SOL    HW217322   2.373   0.039   5.898 -0.4111  4.4970  1.7207
 1954SOL     OW17323   0.081   1.781  14.599  0.8206 -0.0266 -0.5885
 1954SOL    HW117324   0.118   1.850  14.543 -0.1087  1.7053  0.9547
 1954SOL    HW217325   4.722   1.818  14.623  0.8704  1.0674 -2.0809
 1955SOL     OW17326   4.072   3.882   1.655  0.1780 -0.1720 -0.2342
 1955SOL    HW117327   4.026   3.878   1.739  0.6403  1.7133  0.0863
 1955SOL    HW217328   3.995   3.896   1.599 -0.5278 -0.1190  0.7411
 1956SOL     OW17329   2.189   3.370   5.987  0.6511 -0.2726 -0.0183
 1956SOL    HW117330   2.136   3.395   6.062  0.3864  0.2735 -0.3826
 1956SOL    HW217331   2.253   3.441   5.975  0.3503  0.4817  2.9206
 1957SOL     OW17332   1.944   0.670   1.265  0.1603 -0.9663 -0.4058
 1957SOL    HW117333   1.906   0.757   1.256 -0.4465 -0.9359  2.4284
 1957SOL    HW217334   2.036   0.684   1.242 -0.3940  0.9318 -1.4786
 1958SOL     OW17335   3.602   1.475   9.096  0.1252 -0.0912 -0.2042
 1958SOL    HW117336   3.632   1.564   9.112  0.3215  0.2707 -2.5581
 1958SOL    HW217337   3.543   1.464   9.171 -3.3451 -1.9834 -3.1839
 1959SOL     OW17338   2.121   0.742   5.290 -0.5562  0.2429  0.6462
 1959SOL    HW117339   2.095   0.738   5.198 -1.5272 -0.2377  0.9359
 1959SOL    HW217340   2.201   0.689   5.293  0.6444  1.9506 -1.5251
 1960SOL     OW17341   3.506   2.461   7.700 -0.7185  0.0245  0.6295
 1960SOL    HW117342   3.476   2.509   7.777  0.0704  1.1718  0.2077
 1960SOL    HW217343   3.420   2.457   7.657 -0.2477 -0.6136 -0.2573
 1961SOL     OW17344   1.752   3.372   8.337  0.4397  0.0143  0.3921
 1961SOL    HW117345   1.740   3.292   8.388  1.4961 -0.2576  0.2161
 1961SOL    HW217346   1.666   3.397   8.304  0.8977  0.3133 -0.5625
 1962SOL     OW17347   1.524   0.514   6.488 -0.1181  0.1727  0.4548
 1962SOL    HW117348   1.557   0.424   6.498 -0.7169  0.0124  1.0793
 1962SOL    HW217349   1.461   0.500   6.417  1.7933  2.1462 -1.5927
 1963SOL     OW17350   0.630   4.376  15.303 -0.0979  0.0617  0.6063
 1963SOL    HW117351   0.565   4.400  15.369 -0.4399  0.6299  0.0664
 1963SOL    HW217352   0.582   4.334  15.231 -2.1905  0.3415  1.8157
 1964SOL     OW17353   2.925   3.982  13.158  0.4419 -0.5283  0.2935
 1964SOL    HW117354   2.859   4.044  13.128  0.8002 -0.4985 -0.4224
 1964SOL    HW217355   2.912   3.909  13.097  2.9629 -1.9117  1.3901
 1965SOL     OW17356   0.291   0.186  13.904  0.7528  0.2068  0.0664
 1965SOL    HW117357   0.364   0.126  13.912  1.2342  0.9252  1.0206
 1965SOL    HW217358   0.217   0.131  13.930  0.1988  1.8496  1.9249
 1966SOL     OW17359   4.245   1.246   8.462 -0.2127  0.3006 -0.0878
 1966SOL    HW117360   4.180   1.305   8.426 -0.4878  0.0598  0.0194
 1966SOL    HW217361   4.259   1.175   8.400 -0.4936 -0.0500  0.2526
 1967SOL     OW17362   1.856   4.106  16.722  0.4489  0.5668  0.2645
 1967SOL    HW117363   1.809   4.028  16.693  0.2683 -0.0885  2.2890
 1967SOL    HW217364   1.918   4.068  16.784 -0.4457 -0.9524  0.2137
 1968SOL     OW17365   2.437   3.078  11.540  0.2999  0.2716 -0.9761
 1968SOL    HW117366   2.430   3.142  11.468 -2.7708  1.9464  0.8422
 1968SOL    HW217367   2.521   3.095  11.583 -0.5356  0.6563  0.4907
 1969SOL     OW17368   4.494   2.740   3.670 -0.9268 -0.1752  0.6507
 1969SOL    HW117369   4.544   2.683   3.729  1.1704  1.1688  0.1546
 1969SOL    HW217370   4.414   2.758   3.720 -1.4324 -0.6057 -0.0026
 1970SOL     OW17371   2.902   4.477   3.831  0.4168 -0.5679  0.2170
 1970SOL    HW117372   2.814   4.442   3.840 -1.1276  2.4886 -3.1624
 1970SOL    HW217373   2.952   4.403   3.864 -1.3052 -1.1237  1.5631
 1971SOL     OW17374   0.251   2.189   3.992  0.0319 -0.1277  0.0543
 1971SOL    HW117375   0.274   2.155   3.905  1.1612 -1.7386  0.9869
 1971SOL    HW217376   0.165   2.228   3.978 -0.4559 -2.3673 -3.2092
 1972SOL     OW17377   1.631   4.053  10.920 -0.2259  0.5755  0.5636
 1972SOL    HW117378   1.665   4.067  11.008  1.1671  0.0246  0.1134
 1972SOL    HW217379   1.541   4.037  10.947 -0.1381  1.3207  1.2763
 1973SOL     OW17380   4.109   3.112   8.127  0.1324  0.0342  0.5082
 1973SOL    HW117381   4.105   3.206   8.149  0.3838 -0.2408  1.7532
 1973SOL    HW217382   4.091   3.072   8.213 -0.9998  0.5823  0.5316
 1974SOL     OW17383   0.202   0.437  14.567 -0.0891 -0.2971  0.4154
 1974SOL    HW117384   0.237   0.521  14.541  1.1897 -1.4430 -1.5408
 1974SOL    HW217385   0.268   0.378  14.530  0.4595  0.1690  0.6519
 1975SOL     OW17386   3.959   1.833   3.298  0.1200  0.1921  0.0416
 1975SOL    HW117387   3.998   1.816   3.213 -1.0265  0.1148 -0.4724
 1975SOL    HW217388   3.875   1.870   3.269  0.0706 -1.7304 -2.2256
 1976SOL     OW17389   1.951   0.920   5.422  0.0025 -0.3749 -0.6581
 1976SOL    HW117390   2.021   0.856   5.408  0.2340 -0.4579  0.8868
 1976SOL    HW217391   1.875   0.863   5.411  1.0858 -1.9315 -0.2201
 1977SOL     OW17392   1.936   1.528   5.264 -0.8025  0.2455  0.0578
 1977SOL    HW117393   1.993   1.455   5.286 -2.3615 -1.5838 -1.9733
 1977SOL    HW217394   1.909   1.559   5.351 -1.3572 -1.2268  0.4024
 1978SOL     OW17395   0.098   2.291  11.570  0.1812 -0.5509  0.2654
 1978SOL    HW117396   0.102   2.379  11.609  1.4036 -0.7395  0.5419
 1978SOL    HW217397   0.031   2.307  11.504 -0.3875 -1.5730  0.5959
 1979SOL     OW17398   3.255   1.377   4.346  0.8196 -0.8342  0.2353
 1979SOL    HW117399   3.276   1.391   4.439 -2.6629  0.5743  0.7847
 1979SOL    HW217400   3.193   1.305   4.354  0.5654 -0.4397  1.8820
 1980SOL     OW17401   1.022   4.483   8.589 -0.2494 -0.1988 -0.0189
 1980SOL    HW117402   1.084   4.411   8.577  0.4102  0.6234 -1.5661
 1980SOL    HW217403   0.985   4.484   8.500  1.2987 -0.7914 -0.6699
 1981SOL     OW17404   3.262   3.441   5.921  0.2803 -0.5497 -0.5068
 1981SOL    HW117405   3.229   3.461   5.833 -0.1426  0.9107 -0.0200
 1981SOL    HW217406   3.214   3.504   5.974  1.7458  1.9747 -2.1771
 1982SOL     OW17407   2.082   4.327   8.189 -0.3615 -0.4023 -0.3872
 1982SOL    HW117408   2.048   4.395   8.248 -1.2865 -1.3396  0.1514
 1982SOL    HW217409   2.017   4.352   8.123 -0.8454  0.0321  0.2539
 1983SOL     OW17410   4.637   4.544  16.566 -0.6100 -0.2337  0.1340
 1983SOL    HW117411   4.657   4.638  16.562 -0.0034 -0.3188  1.2625
 1983SOL    HW217412   4.603   4.535  16.477 -4.2710  0.8903  1.3991
 1984SOL     OW17413   4.607   1.259  12.128 -0.3744  0.5292 -0.0861
 1984SOL    HW117414   4.531   1.272  12.185 -1.3549  1.2481 -1.5727
 1984SOL    HW217415   4.625   1.352  12.138 -3.3958  1.3200 -1.9817
 1985SOL     OW17416   2.509   1.060   2.031 -0.5356 -0.3326  0.0505
 1985SOL    HW117417   2.544   0.983   2.076  0.5594 -0.1659 -0.5196
 1985SOL    HW217418   2.414   1.053   2.045 -0.6987 -0.9344 -1.3367
 1986SOL     OW17419   1.760   0.294  13.715 -0.5388  0.3437  0.5462
 1986SOL    HW117420   1.694   0.354  13.748 -0.9973  0.4229 -0.5188
 1986SOL    HW217421   1.842   0.338  13.737 -0.5866  0.3566  0.7017
 1987SOL     OW17422   0.626   3.774  15.675  0.2823 -0.7725  0.1960
 1987SOL    HW117423   0.709   3.728  15.687 -0.1123 -1.0253  1.8991
 1987SOL    HW217424   0.623   3.811  15.763  0.5168 -1.2914  0.4203
 1988SOL     OW17425   2.657   2.958   4.886  0.7731  0.3137 -0.7996
 1988SOL    HW117426   2.601   2.881   4.884  0.7848  0.2735  0.3206
 1988SOL    HW217427   2.593   3.027   4.867 -0.5359 -1.8004 -4.1496
 1989SOL     OW17428   0.207   2.190   4.458  0.3248  0.0475 -0.7587
 1989SOL    HW117429   0.251   2.217   4.378 -3.3989  2.5685 -1.9672
 1989SOL    HW217430   0.153   2.117   4.429  1.1102 -0.5501 -0.7177
 1990SOL     OW17431   4.139   4.128   5.992  0.4611 -0.1537  0.1862
 1990SOL    HW117432   4.169   4.068   6.060 -4.4173 -0.1809  2.2989
 1990SOL    HW217433   4.107   4.207   6.036  0.8035 -0.1426  0.4148
 1991SOL     OW17434   3.644   0.916   4.191  0.1259  0.1508 -0.5028
 1991SOL    HW117435   3.554   0.912   4.222  0.3915 -1.8362  0.0163
 1991SOL    HW217436   3.690   0.936   4.272  0.3373  0.0187 -0.5905
 1992SOL     OW17437   2.294   0.389   6.372 -0.1415  0.1790  0.3033
 1992SOL    HW117438   2.380   0.430   6.376 -0.9309  1.9979 -1.3727
 1992SOL    HW217439   2.248   0.467   6.402 -0.3153  0.6634 -1.2159
 1993SOL     OW17440   2.730   1.903   3.598 -0.4882 -0.1240  0.2813
 1993SOL    HW117441   2.783   1.871   3.671 -1.1352 -0.6423  0.5226
 1993SOL    HW217442   2.781   1.847   3.540  2.5835  0.7535  2.1439
 1994SOL     OW17443   2.507   1.756   7.149  0.6102 -0.3422  0.4825
 1994SOL    HW117444   2.462   1.808   7.082  0.3752 -1.5709 -0.2990
 1994SOL    HW217445   2.513   1.821   7.219 -0.5358  1.8578 -1.4546
 1995SOL     OW17446   1.138   1.165  16.746  0.2580 -0.2227  0.3608
 1995SOL    HW117447   1.070   1.126  16.802  0.1964  1.2108  1.2877
 1995SOL    HW217448   1.218   1.150  16.797  0.7355 -2.9800 -1.2060
 1996SOL     OW17449   4.084   4.607   3.280  0.3391 -0.7689 -0.3475
 1996SOL    HW117450   4.086   4.616   3.185  1.3510  1.5772 -0.0906
 1996SOL    HW217451   4.032   4.683   3.303  1.4217  0.0417 -0.5966
 1997SOL     OW17452   2.457   0.492   1.994 -0.1079 -0.0063 -0.1378
 1997SOL    HW117453   2.387   0.434   1.964 -0.1921 -1.2213  2.4201
 1997SOL    HW217454   2.483   0.449   2.075  2.6931  0.2337 -0.9345
 1998SOL     OW17455   0.719   0.632   8.876  0.6565 -0.4811  0.0627
 1998SOL    HW117456   0.707   0.584   8.958  1.4588 -0.3716  0.2453
 1998SOL    HW217457   0.780   0.700   8.902 -1.0714  1.1292 -0.0672
 1999SOL     OW17458   0.882   3.267  10.105  0.0560  0.0431 -0.0267
 1999SOL    HW117459   0.847   3.195  10.052 -1.5343  0.1592  0.8357
 1999SOL    HW217460   0.803   3.308  10.143 -1.0540 -1.2880 -0.8948
 2000SOL     OW17461   4.150   2.420   1.094 -0.1227 -0.0887 -0.3761
 2000SOL    HW117462   4.153   2.512   1.068  0.2245 -0.3985 -1.4178
 2000SOL    HW217463   4.241   2.399   1.115 -0.3308  0.3414  0.9780
 2001SOL     OW17464   0.816   3.797  17.371  0.0705 -0.3619 -0.1054
 2001SOL    HW117465   0.804   3.744  17.449 -1.0120 -0.3376 -0.2595
 2001SOL    HW217466   0.895   3.849  17.387 -0.4699 -0.0488  1.4890
 2002SOL     OW17467   0.617   1.960   8.230  0.1809  0.2819  0.1488
 2002SOL    HW117468   0.556   1.929   8.297 -0.1613  2.5196  0.8773
 2002SOL    HW217469   0.684   1.997   8.287  0.2817 -0.4903  0.5323
 2003SOL     OW17470   2.697   3.001  12.919 -0.4387 -0.1385  0.4086
 2003SOL    HW117471   2.758   3.069  12.946  2.2206 -1.8009 -1.3774
 2003SOL    HW217472   2.713   3.021  12.826  0.8231 -2.6496  0.0797
 2004SOL     OW17473   3.954   4.450   7.606  0.1952 -0.3321  0.0247
 2004SOL    HW117474   3.885   4.469   7.542  0.7819 -0.3015 -0.5943
 2004SOL    HW217475   4.015   4.404   7.548 -1.3917  1.3375 -3.0051
 2005SOL     OW17476   0.636   3.386   5.550 -0.9192 -0.1644 -0.5534
 2005SOL    HW117477   0.723   3.372   5.511 -0.5896 -0.8651  0.4419
 2005SOL    HW217478   0.586   3.324   5.496  0.2829 -0.6299 -1.1333
 2006SOL     OW17479   1.257   0.232   6.065  0.0772 -0.2538  0.5897
 2006SOL    HW117480   1.192   0.206   6.130 -1.9018  0.4412 -1.1087
 2006SOL    HW217481   1.195   0.259   5.997  1.8107  1.0837 -0.4547
 2007SOL     OW17482   2.973   1.280   0.030  0.1342  0.2447  0.2650
 2007SOL    HW117483   2.974   1.283   0.125 -1.5797  2.4755  0.2036
 2007SOL    HW217484   3.004   1.192   0.008 -1.7760 -0.4800  0.4902
 2008SOL     OW17485   2.529   4.108   4.162  0.1167 -0.1410 -0.2200
 2008SOL    HW117486   2.595   4.172   4.189 -2.4321  2.4087  0.0087
 2008SOL    HW217487   2.575   4.047   4.105 -0.9501 -1.4746  0.3401
 2009SOL     OW17488   2.018   4.162  12.238 -0.1881 -0.1610  0.5068
 2009SOL    HW117489   2.107   4.177  12.272  0.0280 -0.0554 -0.0931
 2009SOL    HW217490   1.970   4.204  12.309  0.4891  0.9926  0.2816
 2010SOL     OW17491   0.432   0.394   1.936  0.2968  0.2279 -0.3333
 2010SOL    HW117492   0.341   0.372   1.916 -0.2726  0.8564  1.5927
 2010SOL    HW217493   0.447   0.315   1.989 -1.3848  1.0110  1.3137
 2011SOL     OW17494   1.676   1.228   6.507  0.0406  0.0933 -0.4952
 2011SOL    HW117495   1.756   1.177   6.516 -0.5610 -0.9010 -0.8282
 2011SOL    HW217496   1.693   1.287   6.434  1.6502 -0.4693 -0.5840
 2012SOL     OW17497   2.411   3.595   3.075 -0.4269  0.5407 -0.5570
 2012SOL    HW117498   2.471   3.626   3.142  0.7482  1.2970 -1.9538
 2012SOL    HW217499   2.392   3.507   3.109 -2.0392  0.8987 -0.5399
 2013SOL     OW17500   0.245   2.946   5.924  0.3564 -0.4596 -0.2472
 2013SOL    HW117501   0.279   2.947   6.013  0.0668  1.8367 -0.1665
 2013SOL    HW217502   0.194   3.026   5.918  0.8241 -0.0694  1.0263
 2014SOL     OW17503   1.177   2.352   8.645  0.7211  0.0156 -0.0354
 2014SOL    HW117504   1.091   2.341   8.686  1.0685  1.2139  0.9999
 2014SOL    HW217505   1.199   2.441   8.670  0.5051 -0.0129  0.2628
 2015SOL     OW17506   2.580   3.500   9.899 -0.2530 -0.6885  0.3707
 2015SOL    HW117507   2.489   3.523   9.919 -0.1037  1.5468 -1.5076
 2015SOL    HW217508   2.617   3.494   9.986  0.5800  1.3465  0.1604
 2016SOL     OW17509   0.458   4.225  13.486 -0.0492  0.5938  0.1509
 2016SOL    HW117510   0.425   4.219  13.576  0.1652  1.7720  0.3073
 2016SOL    HW217511   0.376   4.226  13.436  0.4610 -1.6080 -0.7052
 2017SOL     OW17512   4.621   3.842  14.754 -0.1532 -0.1279  0.3616
 2017SOL    HW117513   4.540   3.871  14.713  0.6452 -0.7642 -1.6388
 2017SOL    HW217514   4.592   3.845  14.845 -1.3866 -1.0652  0.0038
 2018SOL     OW17515   1.989   0.175   9.172  0.5987 -0.5309  0.1198
 2018SOL    HW117516   2.012   0.115   9.243  0.3705 -0.9850 -0.1839
 2018SOL    HW217517   2.067   0.174   9.116  0.2679  0.1112 -0.3422
 2019SOL     OW17518   2.408   4.154   1.385 -0.0317 -0.3590  0.0085
 2019SOL    HW117519   2.399   4.179   1.293  0.6866  3.4157  0.9639
 2019SOL    HW217520   2.330   4.196   1.420 -0.9935 -1.5419 -0.7217
 2020SOL     OW17521   3.317   1.138  11.197  0.1161 -0.0879  0.1690
 2020SOL    HW117522   3.246   1.085  11.161 -0.9997  0.4772  1.5447
 2020SOL    HW217523   3.336   1.182  11.114 -0.3599 -1.9388 -0.9140
 2021SOL     OW17524   1.642   4.630   5.075 -0.1020 -0.0920  0.0642
 2021SOL    HW117525   1.667   4.701   5.135  0.8917  1.0447 -1.7127
 2021SOL    HW217526   1.596   4.578   5.141 -0.4250  2.1027  1.5945
 2022SOL     OW17527   0.833   0.868   8.944  0.3624 -0.2915 -0.3098
 2022SOL    HW117528   0.805   0.956   8.917 -0.5764 -1.0570 -1.8132
 2022SOL    HW217529   0.885   0.894   9.020  0.4163 -1.8568  0.1853
 2023SOL     OW17530   2.774   0.739   3.264  0.2334 -0.9161  0.3323
 2023SOL    HW117531   2.728   0.655   3.272 -1.1192 -0.1989 -0.0079
 2023SOL    HW217532   2.804   0.718   3.175  1.2833 -0.1684  0.5009
 2024SOL     OW17533   2.322   0.242  17.647 -0.6178  0.3385  0.0331
 2024SOL    HW117534   2.231   0.270  17.645 -0.2191  1.4383 -3.1308
 2024SOL    HW217535   2.370   0.325  17.641 -0.0242 -0.0610 -0.9177
 2025SOL     OW17536   2.658   1.336   8.888 -0.4705  0.2988  0.4979
 2025SOL    HW117537   2.565   1.316   8.900 -0.0861 -1.3802  0.5856
 2025SOL    HW217538   2.706   1.312   8.967 -0.9978  0.4767  0.8772
 2026SOL     OW17539   0.240   3.177  13.895 -0.2321 -0.0688 -0.1057
 2026SOL    HW117540   0.303   3.239  13.933 -0.2450  0.3530 -0.7667
 2026SOL    HW217541   0.239   3.196  13.801  0.9803 -1.0163 -0.3030
 2027SOL     OW17542   2.641   4.243   6.235 -0.1778  0.6402  0.3548
 2027SOL    HW117543   2.664   4.151   6.221  0.3689  0.9392 -0.7011
 2027SOL    HW217544   2.669   4.285   6.153  0.8358 -1.3859 -0.3334
 2028SOL     OW17545   3.901   3.805   4.067 -0.5441 -0.1443  0.1288
 2028SOL    HW117546   3.895   3.813   4.162 -1.0777 -0.2651  0.1066
 2028SOL    HW217547   3.994   3.786   4.060 -0.3729  1.7906 -3.0746
 2029SOL     OW17548   1.202   1.307   3.441 -0.4778  0.1982  0.3199
 2029SOL    HW117549   1.156   1.350   3.513  1.4060  1.3360  0.8356
 2029SOL    HW217550   1.215   1.386   3.389  0.5446 -0.3275 -0.2134
 2030SOL     OW17551   4.014   0.375   7.355 -0.0077 -0.2300  0.1184
 2030SOL    HW117552   4.109   0.381   7.348  0.0258  0.4332  1.1483
 2030SOL    HW217553   3.992   0.327   7.275  3.4685 -1.4898 -0.0909
 2031SOL     OW17554   0.396   4.429   3.999 -0.3869 -0.2220 -0.4397
 2031SOL    HW117555   0.399   4.377   3.919 -1.3496 -0.9620  0.0203
 2031SOL    HW217556   0.440   4.509   3.968 -1.1855  1.0883  1.8438
 2032SOL     OW17557   2.107   0.334  17.248  0.1807  0.5685 -0.2032
 2032SOL    HW117558   2.038   0.268  17.249  1.2283 -0.5622 -1.9180
 2032SOL    HW217559   2.101   0.347  17.153  1.6899  0.2512 -0.3407
 2033SOL     OW17560   3.006   1.993  10.921 -0.3718  0.1567 -0.2334
 2033SOL    HW117561   2.942   2.063  10.906 -0.9905 -0.6891 -1.4626
 2033SOL    HW217562   3.010   1.961  10.831 -0.4061  2.6335 -1.1067
 2034SOL     OW17563   1.501   0.627  10.045 -0.3964  0.0952 -0.4822
 2034SOL    HW117564   1.554   0.693  10.088 -0.6131  0.6924 -1.1328
 2034SOL    HW217565   1.417   0.647  10.086  0.4636  1.8216  0.4220
 2035SOL     OW17566   2.338   3.916   4.667 -0.1791  0.3929 -0.2316
 2035SOL    HW117567   2.353   3.915   4.762  0.3472  1.3951 -0.3099
 2035SOL    HW217568   2.242   3.918   4.663 -0.2076 -0.0990  0.1794
 2036SOL     OW17569   4.554   4.600  13.443 -0.6183  0.2733  0.4355
 2036SOL    HW117570   4.530   4.590  13.535  0.5205 -2.2879  0.4550
 2036SOL    HW217571   4.611   4.526  13.423  0.1702  0.9321  0.2923
 2037SOL     OW17572   4.066   0.312  10.106 -0.1821  0.6304 -0.1714
 2037SOL    HW117573   4.018   0.286  10.185 -0.4198  1.7633  0.0498
 2037SOL    HW217574   3.989   0.313  10.049 -2.1133  3.0524  2.4580
 2038SOL     OW17575   2.747   2.697   8.033 -0.0590  0.7108 -0.0213
 2038SOL    HW117576   2.768   2.652   7.951 -2.6415  1.4814 -1.1355
 2038SOL    HW217577   2.775   2.640   8.104 -1.4893  0.4373  0.3306
 2039SOL     OW17578   1.557   2.402   3.551 -0.5053 -0.4647  0.0867
 2039SOL    HW117579   1.574   2.491   3.580 -0.2770 -0.8694  1.1718
 2039SOL    HW217580   1.640   2.354   3.541 -0.3000 -0.2672  0.8419
 2040SOL     OW17581   3.919   0.562  12.080  0.1350  0.0626  0.2725
 2040SOL    HW117582   3.963   0.491  12.034 -0.3709 -0.8169  1.1414
 2040SOL    HW217583   3.919   0.525  12.169  0.4588 -0.4333  0.0680
 2041SOL     OW17584   2.456   1.773  11.689 -0.3121 -0.7750 -0.0428
 2041SOL    HW117585   2.482   1.865  11.683  1.6447 -1.2329  1.4443
 2041SOL    HW217586   2.431   1.768  11.782 -0.2910  1.0269  0.0637
 2042SOL     OW17587   3.672   4.357  10.055  0.6652 -0.5163  0.5407
 2042SOL    HW117588   3.737   4.298  10.017 -0.3338 -1.0208 -0.3850
 2042SOL    HW217589   3.601   4.292  10.058 -1.5747  1.9610  1.8466
 2043SOL     OW17590   4.596   1.937   5.226 -0.1721 -0.2670  0.0118
 2043SOL    HW117591   4.682   1.902   5.201 -0.4657 -2.0273  1.4312
 2043SOL    HW217592   4.548   1.872   5.174  1.7522 -0.8613 -1.0332
 2044SOL     OW17593   3.429   1.051  11.538 -0.2080 -0.5513 -0.0235
 2044SOL    HW117594   3.392   1.064  11.625  2.8903  0.6507  1.1358
 2044SOL    HW217595   3.523   1.061  11.555 -0.7063  0.4265  2.1803
 2045SOL     OW17596   2.273   0.612  15.232 -0.1826  0.1061 -0.2821
 2045SOL    HW117597   2.299   0.642  15.320 -1.7027  2.7378 -0.7193
 2045SOL    HW217598   2.191   0.569  15.255 -0.5023  1.8186  1.8020
 2046SOL     OW17599   3.681   1.460   8.173 -0.8865 -0.2430 -0.1179
 2046SOL    HW117600   3.724   1.480   8.256 -2.2357  0.9646  0.2965
 2046SOL    HW217601   3.723   1.375   8.158  0.1524  0.0740  1.0142
 2047SOL     OW17602   3.194   3.895   4.478  0.4349  0.3700  0.0793
 2047SOL    HW117603   3.136   3.838   4.427  0.0806  0.6726  0.1454
 2047SOL    HW217604   3.280   3.862   4.450  0.5904  2.0538 -1.4530
 2048SOL     OW17605   3.004   4.239   3.912  0.0130 -0.0827  0.2761
 2048SOL    HW117606   3.026   4.146   3.910  1.1524  0.2378 -2.2414
 2048SOL    HW217607   3.090   4.271   3.885  0.4479 -2.6415 -1.4083
 2049SOL     OW17608   1.896   2.861   9.034  0.0945  0.2983 -0.0138
 2049SOL    HW117609   1.812   2.892   9.069  0.5278  1.2583  0.1784
 2049SOL    HW217610   1.913   2.790   9.095 -2.1700 -1.7494 -1.7738
 2050SOL     OW17611   1.536   0.948   9.181 -0.1496 -0.0248 -0.4667
 2050SOL    HW117612   1.489   0.979   9.258  0.4718  2.2608 -0.9964
 2050SOL    HW217613   1.590   1.026   9.168 -0.2572 -0.0599 -1.1005
 2051SOL     OW17614   1.735   4.110   4.211 -0.2615  0.2223  0.3675
 2051SOL    HW117615   1.701   4.157   4.135 -1.9932 -1.1320  0.2969
 2051SOL    HW217616   1.656   4.113   4.265 -2.1563 -0.1616 -2.3527
 2052SOL     OW17617   0.165   0.377   3.651  0.2649 -0.2360  0.7708
 2052SOL    HW117618   0.165   0.390   3.746  0.0237  0.4316  0.6814
 2052SOL    HW217619   0.214   0.453   3.617 -1.6376  0.9755  0.7339
 2053SOL     OW17620   0.054   2.961   5.594 -0.3894 -0.2603 -0.2435
 2053SOL    HW117621   0.032   3.052   5.576  2.1808  0.8784  2.3015
 2053SOL    HW217622   4.690   2.924   5.600 -0.8421  1.0813  1.7029
 2054SOL     OW17623   0.266   3.663   2.427  0.2439 -0.4354  0.3398
 2054SOL    HW117624   0.230   3.659   2.338  0.2441 -2.0968  0.4067
 2054SOL    HW217625   0.311   3.579   2.435 -0.0893 -0.9240 -3.0369
 2055SOL     OW17626   0.902   0.815   3.133  0.0972 -0.5488  0.1526
 2055SOL    HW117627   0.844   0.814   3.058  0.3756 -0.8251 -0.0565
 2055SOL    HW217628   0.987   0.793   3.095  1.3865  1.2935  1.8936
 2056SOL     OW17629   2.560   3.778   3.762 -0.3126  1.3974 -0.1822
 2056SOL    HW117630   2.652   3.795   3.781 -0.6502 -0.5266  3.2294
 2056SOL    HW217631   2.549   3.806   3.671 -2.7301 -0.5044 -0.4884
 2057SOL     OW17632   1.286   2.405   0.917  0.1802 -0.8378 -0.5712
 2057SOL    HW117633   1.280   2.377   0.826  0.5813 -0.5436 -0.6898
 2057SOL    HW217634   1.195   2.392   0.945  0.1994 -1.3073 -0.7229
 2058SOL     OW17635   3.205   1.254   5.424 -0.6913  0.3661 -0.2165
 2058SOL    HW117636   3.284   1.231   5.376 -2.0116 -1.2238 -1.6426
 2058SOL    HW217637   3.193   1.341   5.384  0.0813  1.3206  1.6329
 2059SOL     OW17638   1.417   0.062   3.622  0.2487 -0.5369 -0.0479
 2059SOL    HW117639   1.371   0.125   3.677 -1.4454  0.4913 -2.6719
 2059SOL    HW217640   1.467   0.008   3.684 -3.8487 -0.9731  2.9228
 2060SOL     OW17641   2.206   4.479  12.140  0.6377 -0.7824 -0.5424
 2060SOL    HW117642   2.235   4.432  12.061 -2.1096 -3.1146 -0.1499
 2060SOL    HW217643   2.169   4.411  12.196  0.9364  0.6610  1.3662
 2061SOL     OW17644   3.493   0.752   6.608  0.2236  0.0236 -0.0994
 2061SOL    HW117645   3.472   0.822   6.670 -0.2427 -1.4960  1.4610
 2061SOL    HW217646   3.472   0.792   6.524  0.6470  1.5564  0.5255
 2062SOL     OW17647   4.093   4.609   9.338 -0.9302 -0.5830  0.4358
 2062SOL    HW117648   4.016   4.618   9.394 -0.2920 -2.3874  1.5841
 2062SOL    HW217649   4.164   4.585   9.397  0.2729  1.4856 -0.1429
 2063SOL     OW17650   3.976   0.012   9.768  0.0388  0.4282 -0.0621
 2063SOL    HW117651   3.923   4.687   9.705  0.8438  0.9372 -1.1423
 2063SOL    HW217652   4.060   4.708   9.734 -1.1605 -0.8691 -1.9516
 2064SOL     OW17653   3.228   2.295   8.471 -0.4787  0.8928  0.1060
 2064SOL    HW117654   3.297   2.306   8.405 -1.0317  0.4060 -0.5557
 2064SOL    HW217655   3.147   2.317   8.425 -0.8779  0.1210  0.4287
 2065SOL     OW17656   3.747   1.120  15.416  0.1185 -0.1758  0.0977
 2065SOL    HW117657   3.776   1.188  15.477  0.0326 -0.2264  0.1938
 2065SOL    HW217658   3.668   1.096  15.464  0.5495  1.7501  1.7627
 2066SOL     OW17659   1.984   0.283  11.371  0.2276  0.0724  0.2126
 2066SOL    HW117660   1.892   0.306  11.368  0.7735  2.4959  2.1248
 2066SOL    HW217661   1.988   0.250  11.461  2.0970  0.4568  0.2832
 2067SOL     OW17662   0.320   3.883   6.006 -0.3725  0.6337  0.6075
 2067SOL    HW117663   0.340   3.953   6.067  0.6209  0.3220  0.6302
 2067SOL    HW217664   0.379   3.816   6.041  1.3078  1.6392 -0.3468
 2068SOL     OW17665   4.401   0.141   6.476 -0.1109  0.5327 -0.1040
 2068SOL    HW117666   4.387   0.187   6.558  0.3072  0.9319 -0.2574
 2068SOL    HW217667   4.322   0.087   6.470  2.0653 -2.8103  1.5217
 2069SOL     OW17668   4.462   0.883  15.506  0.0774 -0.3722 -0.3807
 2069SOL    HW117669   4.545   0.834  15.509  0.0408 -0.3322  1.2746
 2069SOL    HW217670   4.446   0.898  15.599 -0.1234  2.0840 -0.8025
 2070SOL     OW17671   1.381   0.179  15.829  0.3701  0.1070 -0.1018
 2070SOL    HW117672   1.378   0.096  15.877 -1.0585 -0.1778 -0.6979
 2070SOL    HW217673   1.322   0.235  15.878 -0.4108  1.0464 -2.1428
 2071SOL     OW17674   1.521   3.819  13.950  0.4562 -0.0125  0.3199
 2071SOL    HW117675   1.580   3.860  14.013 -0.9549  0.0027  1.6420
 2071SOL    HW217676   1.583   3.787  13.884  0.8953  0.3979  0.5313
 2072SOL     OW17677   4.493   4.300   3.315 -0.0630  0.0567  0.0828
 2072SOL    HW117678   4.423   4.237   3.296  1.0737 -1.4616  0.9117
 2072SOL    HW217679   4.457   4.368   3.258  2.7971  1.8220  0.3809
 2073SOL     OW17680   1.014   3.265   4.737  0.1828  0.7748 -0.3200
 2073SOL    HW117681   1.043   3.350   4.769 -0.7396  1.3572 -1.0066
 2073SOL    HW217682   0.938   3.263   4.795  0.4151 -0.7088 -0.0647
 2074SOL     OW17683   3.942   1.447   3.639  0.1190 -0.1979  0.2433
 2074SOL    HW117684   3.989   1.504   3.701 -0.6175  1.4769 -0.7631
 2074SOL    HW217685   3.913   1.522   3.588  3.1498  0.3604 -0.6970
 2075SOL     OW17686   0.831   0.442   9.978 -0.3396 -0.2778  0.0846
 2075SOL    HW117687   0.912   0.391   9.974  0.3037  0.6133  2.0648
 2075SOL    HW217688   0.865   0.525   9.944 -1.5825 -0.2797 -1.1585
 2076SOL     OW17689   1.423   3.865   8.360  0.6665  0.2655 -0.6739
 2076SOL    HW117690   1.458   3.786   8.401  0.9862  0.7972  0.0839
 2076SOL    HW217691   1.371   3.831   8.287 -2.9907 -0.2086  2.1479
 2077SOL     OW17692   2.095   3.375   5.291  0.8428 -0.0107  0.3950
 2077SOL    HW117693   2.143   3.455   5.271  0.1028  0.4865  0.6160
 2077SOL    HW217694   2.118   3.336   5.206 -0.2350  0.8267 -0.2813
 2078SOL     OW17695   4.011   1.688   3.043 -0.4238  0.0756  0.0206
 2078SOL    HW117696   4.049   1.619   3.096  0.2568 -1.8301 -2.9544
 2078SOL    HW217697   4.060   1.689   2.961 -1.0310 -0.5436 -0.3532
 2079SOL     OW17698   3.951   2.844   0.236 -0.0032  0.1200  0.1047
 2079SOL    HW117699   4.003   2.880   0.308  0.8227  0.1641 -0.5176
 2079SOL    HW217700   3.953   2.918   0.176 -1.8544 -0.1073 -0.2276
 2080SOL     OW17701   0.058   2.724  12.394  0.1936  0.0899 -0.0427
 2080SOL    HW117702   0.073   2.809  12.436 -0.3761  0.7108 -1.1277
 2080SOL    HW217703   0.140   2.710  12.346  0.3817 -0.3899  0.4235
 2081SOL     OW17704   2.181   0.664   5.564  0.4188 -0.0055  0.0967
 2081SOL    HW117705   2.215   0.622   5.643 -0.9583 -0.4620  0.4372
 2081SOL    HW217706   2.134   0.596   5.515 -0.9467  0.0803  1.2686
 2082SOL     OW17707   1.133   3.337  13.625  0.7965 -0.1727 -0.3287
 2082SOL    HW117708   1.214   3.366  13.583  1.9647 -1.3398  1.1022
 2082SOL    HW217709   1.121   3.410  13.687 -2.5514 -0.1084 -1.0769
 2083SOL     OW17710   2.721   1.753   7.932  0.4059  0.1340  0.2977
 2083SOL    HW117711   2.705   1.805   7.854 -0.2616 -0.2439  0.1836
 2083SOL    HW217712   2.642   1.698   7.933 -1.0816  2.3319  4.2626
 2084SOL     OW17713   3.900   0.626   9.951  0.2923 -0.0594 -0.4032
 2084SOL    HW117714   3.913   0.543   9.906 -0.4502 -0.9731  1.0472
 2084SOL    HW217715   3.881   0.610  10.043  0.4901  0.3479 -0.2908
 2085SOL     OW17716   3.354   1.782   4.943 -0.2756 -0.1750  0.2548
 2085SOL    HW117717   3.433   1.728   4.946  0.0679  0.1691 -2.2433
 2085SOL    HW217718   3.321   1.788   5.033 -1.9239 -0.2133 -0.3477
 2086SOL     OW17719   4.337   1.942  11.759 -0.2178  0.2101 -0.0574
 2086SOL    HW117720   4.285   2.022  11.753 -0.4346  0.0190 -0.7844
 2086SOL    HW217721   4.285   1.886  11.702  1.4767 -2.1784  0.7742
 2087SOL     OW17722   4.212   0.723   1.932 -0.6485  0.0838 -1.0335
 2087SOL    HW117723   4.164   0.783   1.874  2.3333  1.8124 -1.6763
 2087SOL    HW217724   4.150   0.719   2.006  0.9568 -0.3032  0.2864
 2088SOL     OW17725   2.127   0.886   1.901  0.4492  0.3542 -0.2950
 2088SOL    HW117726   2.186   0.846   1.965 -2.0483 -1.6971  0.7490
 2088SOL    HW217727   2.146   0.977   1.921 -1.3783  0.2729  1.7532
 2089SOL     OW17728   3.091   4.400  10.831 -0.1038 -0.3722  0.2506
 2089SOL    HW117729   3.117   4.309  10.847  0.0868 -0.3135  0.2821
 2089SOL    HW217730   2.997   4.384  10.830 -0.2650  0.6930 -0.5490
 2090SOL     OW17731   2.960   2.339   8.879 -0.1814 -0.0681  0.1613
 2090SOL    HW117732   2.928   2.314   8.792 -3.6301  0.0409  1.3972
 2090SOL    HW217733   2.878   2.329   8.928 -1.1254  2.1029 -1.0181
 2091SOL     OW17734   4.101   3.212   2.269  0.0344  0.2029 -0.3615
 2091SOL    HW117735   4.101   3.218   2.365  1.9457 -2.2792 -0.2057
 2091SOL    HW217736   4.131   3.299   2.240 -1.2481  0.8047  0.1263
 2092SOL     OW17737   1.289   1.920   6.916 -0.4719 -0.2494  0.0697
 2092SOL    HW117738   1.383   1.920   6.936 -0.5028 -0.1041  0.2134
 2092SOL    HW217739   1.260   2.009   6.937  1.1493 -0.0282  1.3911
 2093SOL     OW17740   3.763   0.144  16.905  0.0296 -0.5288 -0.5870
 2093SOL    HW117741   3.698   0.130  16.836  1.7184  1.6728 -2.6263
 2093SOL    HW217742   3.733   0.104  16.987  1.1707  2.8094  1.4316
 2094SOL     OW17743   0.945   1.559   2.510  0.0290 -0.5525  0.1241
 2094SOL    HW117744   0.973   1.558   2.419 -1.8660  1.1300 -0.4732
 2094SOL    HW217745   1.029   1.571   2.554  0.9673  1.3761 -2.2467
 2095SOL     OW17746   2.883   3.630   9.406 -0.3405  0.3088  0.4269
 2095SOL    HW117747   2.847   3.546   9.380  1.4842 -0.2606 -0.2270
 2095SOL    HW217748   2.800   3.675   9.421 -0.6863  0.6863 -2.7311
 2096SOL     OW17749   0.672   4.128   4.667  0.0735 -0.1752 -0.3226
 2096SOL    HW117750   0.636   4.042   4.643  0.4600  0.2136 -2.3008
 2096SOL    HW217751   0.708   4.111   4.754  0.0803  1.4397 -0.0227
 2097SOL     OW17752   0.042   2.600   3.354 -0.1487 -0.1419  0.0041
 2097SOL    HW117753   0.013   2.673   3.299  0.3029  0.9854  1.2607
 2097SOL    HW217754   0.098   2.636   3.422 -0.5196 -0.1186  0.2986
 2098SOL     OW17755   0.952   0.102  14.943 -0.0617  0.4135  0.5092
 2098SOL    HW117756   1.012   0.165  14.903 -0.0743  0.1386  0.0700
 2098SOL    HW217757   0.988   0.014  14.934  0.3109  0.6839 -0.5642
 2099SOL     OW17758   2.187   0.439   7.710 -0.0584 -0.3189  0.0192
 2099SOL    HW117759   2.167   0.514   7.766  2.9338 -0.4689  1.2845
 2099SOL    HW217760   2.220   0.367   7.764  0.1904 -0.0569  0.2122
 2100SOL     OW17761   2.876   1.952   1.493  0.1898  0.8136 -0.1644
 2100SOL    HW117762   2.815   1.913   1.431  1.8278 -1.0340 -0.5886
 2100SOL    HW217763   2.937   2.001   1.440  0.0913  0.5547 -0.5148
 2101SOL     OW17764   3.938   4.143  12.700 -0.2588 -0.1927 -0.2016
 2101SOL    HW117765   3.896   4.214  12.749  1.0748 -0.1531  0.8836
 2101SOL    HW217766   4.024   4.180  12.677 -0.0969 -1.1687 -1.1990
 2102SOL     OW17767   0.769   0.657   6.217  0.7383  0.2010  0.0457
 2102SOL    HW117768   0.768   0.649   6.313  0.5535  1.0023  0.1151
 2102SOL    HW217769   0.815   0.577   6.194  0.7904  0.3950 -0.5286
 2103SOL     OW17770   3.881   3.750   3.092 -0.0072  0.7316  0.1576
 2103SOL    HW117771   3.957   3.710   3.135  0.4170  0.5002 -0.8097
 2103SOL    HW217772   3.804   3.710   3.134  0.4050  1.1557  1.3210
 2104SOL     OW17773   4.058   0.230  11.662 -0.5789 -0.1099  0.2586
 2104SOL    HW117774   3.970   0.209  11.692 -0.6090  0.9489  0.9192
 2104SOL    HW217775   4.084   0.154  11.610  0.3333 -0.2025  0.8531
 2105SOL     OW17776   1.906   1.004  15.597 -0.2443 -0.5829  0.2058
 2105SOL    HW117777   1.913   0.958  15.681  2.3223  0.5561  0.6011
 2105SOL    HW217778   1.814   0.991  15.575 -0.2502 -1.7826  0.9151
 2106SOL     OW17779   3.288   0.207   6.253 -0.1925 -0.2716  0.7746
 2106SOL    HW117780   3.280   0.135   6.315  1.3162 -0.2682  0.9793
 2106SOL    HW217781   3.279   0.156   6.173  0.8008 -0.0683  0.5255
 2107SOL     OW17782   2.103   4.336   6.442  0.1438  0.2115  0.4617
 2107SOL    HW117783   2.053   4.408   6.402  0.3437  0.9974  1.6416
 2107SOL    HW217784   2.117   4.377   6.527  1.9100 -3.1352  1.7473
 2108SOL     OW17785   4.101   1.526  13.337 -0.1913 -0.1687 -0.0725
 2108SOL    HW117786   4.070   1.462  13.400 -0.0486  1.5446  1.7123
 2108SOL    HW217787   4.170   1.477  13.292  0.0488  0.2806 -0.1950
 2109SOL     OW17788   2.822   2.408   5.462  0.3808 -0.1465 -0.7109
 2109SOL    HW117789   2.747   2.441   5.412  0.7790  0.2734 -1.0300
 2109SOL    HW217790   2.807   2.316   5.485  1.8776 -1.0401 -3.2633
 2110SOL     OW17791   1.776   0.052   3.297 -0.5700  0.4993  0.0100
 2110SOL    HW117792   1.690   0.026   3.266 -0.8405  1.7576 -0.2995
 2110SOL    HW217793   1.834   0.043   3.221 -1.5465 -1.0428 -0.5402
 2111SOL     OW17794   2.177   3.800   2.939 -0.1482  0.3910 -0.4772
 2111SOL    HW117795   2.173   3.707   2.963  0.4907  0.2035 -1.1230
 2111SOL    HW217796   2.178   3.789   2.844 -1.7665  0.2241 -0.4818
 2112SOL     OW17797   0.846   1.712   4.327 -0.3137 -1.1760 -0.0569
 2112SOL    HW117798   0.825   1.796   4.286 -1.2122 -2.6896 -2.7197
 2112SOL    HW217799   0.765   1.699   4.377 -1.2514  1.3141 -0.9305
 2113SOL     OW17800   1.392   3.577   6.409 -0.8178 -0.2732 -0.2648
 2113SOL    HW117801   1.326   3.511   6.387 -0.3794 -0.1885 -1.8324
 2113SOL    HW217802   1.370   3.614   6.494 -0.5339 -1.3243  0.2702
 2114SOL     OW17803   3.202   1.398   2.064  0.2548 -0.2631  0.1033
 2114SOL    HW117804   3.220   1.392   2.158  2.0504  1.3476 -0.1388
 2114SOL    HW217805   3.204   1.305   2.040 -0.4059  0.0684 -1.2315
 2115SOL     OW17806   3.747   3.672  11.858 -0.1547  0.5888  0.0309
 2115SOL    HW117807   3.757   3.739  11.790 -1.6269  3.0177  2.2244
 2115SOL    HW217808   3.760   3.730  11.933 -0.7803  0.1574  0.4800
 2116SOL     OW17809   0.872   4.545   8.381 -0.0328 -0.3890 -0.6306
 2116SOL    HW117810   0.840   4.632   8.405 -3.6976 -2.1084  0.7461
 2116SOL    HW217811   0.799   4.502   8.337 -2.0561  2.6262 -0.2376
 2117SOL     OW17812   1.824   1.237   8.942 -0.1112  0.1015  0.3911
 2117SOL    HW117813   1.914   1.228   8.909 -1.2636 -1.8243 -2.2454
 2117SOL    HW217814   1.782   1.228   8.856 -1.2117  0.8262  0.8548
 2118SOL     OW17815   2.242   0.079  17.049  0.0005  0.6149 -0.0657
 2118SOL    HW117816   2.152   0.046  17.052  0.9344 -1.9984 -0.9018
 2118SOL    HW217817   2.276   0.020  17.115 -0.5821 -1.4056 -1.5624
 2119SOL     OW17818   2.939   2.087   2.625  0.2869 -0.3762  0.4892
 2119SOL    HW117819   2.962   2.011   2.571  3.6294  0.7431  0.3790
 2119SOL    HW217820   2.843   2.082   2.621  0.2151  1.6761 -0.2541
 2120SOL     OW17821   4.181   0.242   4.317  0.7640 -0.1238 -0.1201
 2120SOL    HW117822   4.140   0.232   4.403 -0.9103 -0.4888 -0.9733
 2120SOL    HW217823   4.151   0.164   4.271 -0.0382  0.5658 -0.7429
 2121SOL     OW17824   0.953   3.476   5.503  0.1077 -0.1286 -0.3331
 2121SOL    HW117825   0.974   3.486   5.596 -0.2930  0.1677 -0.2718
 2121SOL    HW217826   0.922   3.564   5.480  1.8099  0.7540  0.8265
 2122SOL     OW17827   0.392   4.671   4.590 -0.2631  0.2941  0.1042
 2122SOL    HW117828   0.395   0.031   4.634 -0.2445  0.0418  0.5886
 2122SOL    HW217829   0.316   4.689   4.536  0.6321 -2.1352 -1.9793
 2123SOL     OW17830   1.684   3.890   8.143  0.3014 -0.2326 -0.0848
 2123SOL    HW117831   1.631   3.812   8.125  1.3604 -0.6292 -1.5105
 2123SOL    HW217832   1.640   3.937   8.214 -0.1571 -0.9997  0.1341
 2124SOL     OW17833   1.140   4.050   0.947  0.5247  0.0872  0.0471
 2124SOL    HW117834   1.115   4.117   0.883  0.0240 -0.3661 -0.2368
 2124SOL    HW217835   1.068   4.056   1.010 -1.3614 -0.8711 -1.9832
 2125SOL     OW17836   1.631   0.443   2.020  0.1709 -0.3982  0.0335
 2125SOL    HW117837   1.586   0.508   1.965 -0.5454 -1.6343 -0.8691
 2125SOL    HW217838   1.709   0.430   1.966  0.6281 -0.8128  0.8020
 2126SOL     OW17839   1.635   2.159  13.045  0.1962 -0.3521 -0.0704
 2126SOL    HW117840   1.582   2.199  12.976  0.7296  0.4428 -0.0189
 2126SOL    HW217841   1.717   2.200  13.019 -0.0521 -1.2580 -2.3592
 2127SOL     OW17842   4.627   0.322  13.705  0.1009 -0.2876  0.7614
 2127SOL    HW117843   4.705   0.324  13.760  0.4897  0.3004  0.1927
 2127SOL    HW217844   4.661   0.347  13.619 -3.0291  1.0503 -0.1145
 2128SOL     OW17845   3.906   2.623  16.911 -0.3607  0.0649 -0.2251
 2128SOL    HW117846   3.817   2.653  16.926  0.1486  1.9665 -1.0659
 2128SOL    HW217847   3.906   2.528  16.896 -2.1490 -0.4446  3.1662
 2129SOL     OW17848   2.405   1.254   7.027  0.0958  0.0822  0.2568
 2129SOL    HW117849   2.445   1.337   7.051  0.8519 -0.0221 -0.6256
 2129SOL    HW217850   2.314   1.275   7.050 -1.0785 -3.9522 -0.6262
 2130SOL     OW17851   1.610   3.379   3.631  0.0185 -0.5193  0.1366
 2130SOL    HW117852   1.587   3.458   3.583  1.3758  0.3612  0.9278
 2130SOL    HW217853   1.553   3.376   3.708 -0.2944 -0.1522 -0.0815
 2131SOL     OW17854   3.462   3.939   9.705  0.2392  0.0081  0.3336
 2131SOL    HW117855   3.377   3.950   9.747  0.0241  1.0662 -0.3765
 2131SOL    HW217856   3.466   3.846   9.682  2.4137  0.9509 -3.1511
 2132SOL     OW17857   1.902   2.567  11.391  0.1704 -0.6414 -0.4668
 2132SOL    HW117858   1.899   2.601  11.481 -2.7827  1.0164 -1.1972
 2132SOL    HW217859   1.919   2.473  11.395 -1.2026 -0.9487 -1.8533
 2133SOL     OW17860   3.583   3.580   6.629 -0.3060  0.3201  0.1503
 2133SOL    HW117861   3.532   3.630   6.694  0.4201  1.1559  0.0687
 2133SOL    HW217862   3.617   3.511   6.686 -1.4852  0.0022  0.4919
 2134SOL     OW17863   4.382   2.018   2.365  0.1554  0.5916 -0.1340
 2134SOL    HW117864   4.328   1.980   2.296 -1.2204 -1.6784  2.1451
 2134SOL    HW217865   4.353   2.109   2.369 -0.0000  0.4831  1.2568
 2135SOL     OW17866   4.593   3.642   2.087  0.2367 -0.5720 -0.7574
 2135SOL    HW117867   4.640   3.607   2.163 -2.1357 -2.8616 -0.3246
 2135SOL    HW217868   4.506   3.647   2.127  0.7296  2.3674 -0.0527
 2136SOL     OW17869   3.242   2.351   3.782 -0.0039 -0.0634  0.1392
 2136SOL    HW117870   3.324   2.302   3.782  0.2781  0.4055 -0.6663
 2136SOL    HW217871   3.181   2.283   3.810 -0.5867  0.2632 -0.3449
 2137SOL     OW17872   1.978   0.023  12.009 -0.4465 -0.0532  0.1924
 2137SOL    HW117873   1.992   4.706  11.924 -0.7578  0.4387 -0.0936
 2137SOL    HW217874   1.922   4.684  12.055  1.2751 -0.5829  1.5466
 2138SOL     OW17875   2.538   1.696   3.809 -0.0412 -0.3524  0.0668
 2138SOL    HW117876   2.604   1.765   3.807 -0.0266 -0.3968 -0.9339
 2138SOL    HW217877   2.588   1.646   3.874  0.4075 -1.0189 -0.8014
 2139SOL     OW17878   0.172   4.218  12.062 -0.1024  0.2075 -0.3966
 2139SOL    HW117879   0.228   4.271  12.119 -1.8736  2.2043 -0.5487
 2139SOL    HW217880   0.228   4.188  11.990 -0.3089 -2.4404  0.5151
 2140SOL     OW17881   0.617   3.871  15.916  0.2306 -0.4888  0.4538
 2140SOL    HW117882   0.691   3.932  15.912 -0.4109  0.2993  0.7203
 2140SOL    HW217883   0.594   3.860  16.008 -1.9779 -0.5039 -0.0897
 2141SOL     OW17884   2.186   3.924   6.759  0.3633  0.0243 -0.1155
 2141SOL    HW117885   2.175   3.876   6.841  0.9874 -2.2504 -1.3686
 2141SOL    HW217886   2.230   3.857   6.707  0.2844  0.9292 -1.3419
 2142SOL     OW17887   4.494   1.792  10.792  0.3150 -0.4266 -0.7029
 2142SOL    HW117888   4.499   1.804  10.887  2.8598 -0.8323 -0.7648
 2142SOL    HW217889   4.586   1.774  10.774  0.6446  0.5161  0.0184
 2143SOL     OW17890   0.695   4.479   2.525  0.2252  0.0205 -0.3433
 2143SOL    HW117891   0.631   4.517   2.586  0.6427  0.3117 -0.0810
 2143SOL    HW217892   0.775   4.460   2.575 -1.2433  0.8919  2.3696
 2144SOL     OW17893   0.201   1.951   3.737 -0.1346  0.6674  0.1696
 2144SOL    HW117894   0.242   1.876   3.781 -1.4969  1.0498  2.1194
 2144SOL    HW217895   0.271   2.011   3.715  0.0642  0.4631  0.2466
 2145SOL     OW17896   4.086   0.964  15.657  1.3458  1.0095 -0.0639
 2145SOL    HW117897   4.074   1.011  15.740  1.8797 -0.1506  0.6797
 2145SOL    HW217898   4.083   1.037  15.596 -1.6772  0.5232 -0.4635
 2146SOL     OW17899   2.935   3.002   9.847 -0.0035 -0.3806  0.0519
 2146SOL    HW117900   2.925   3.094   9.826 -0.7392 -0.4363  0.1543
 2146SOL    HW217901   2.955   3.005   9.941 -1.6272  1.2438  0.3298
 2147SOL     OW17902   1.537   3.125   4.343  0.2975 -0.4510  0.0492
 2147SOL    HW117903   1.492   3.209   4.330  0.5531 -0.4417 -0.7893
 2147SOL    HW217904   1.511   3.071   4.268  0.4520  0.2945 -0.5517
 2148SOL     OW17905   4.591   4.464  16.312  0.3864  0.1304  0.6304
 2148SOL    HW117906   4.554   4.546  16.280 -0.3506 -0.4942 -0.1061
 2148SOL    HW217907   4.563   4.406  16.241 -1.2564  0.1517  1.2386
 2149SOL     OW17908   0.303   1.517  12.717  0.4477  0.1535  0.5388
 2149SOL    HW117909   0.256   1.568  12.651 -3.0095 -4.0085 -0.2093
 2149SOL    HW217910   0.289   1.426  12.694 -0.7636  0.7057 -0.9017
 2150SOL     OW17911   0.330   3.032   4.087  0.2087  0.5221 -0.0439
 2150SOL    HW117912   0.396   3.007   4.152 -0.5548 -3.2721 -0.7722
 2150SOL    HW217913   0.395   3.082   4.038  1.4317 -2.4062 -1.3743
 2151SOL     OW17914   2.797   4.220   1.695  0.4029 -0.0361  0.1143
 2151SOL    HW117915   2.801   4.137   1.742 -0.7797  0.8657  1.8065
 2151SOL    HW217916   2.715   4.206   1.648 -1.2757  0.5002  2.8932
 2152SOL     OW17917   0.397   2.457   3.823 -0.3759 -0.5616 -0.2100
 2152SOL    HW117918   0.404   2.364   3.805 -1.3832 -0.5265 -0.7455
 2152SOL    HW217919   0.338   2.455   3.899  2.3101 -0.1131  1.9166
 2153SOL     OW17920   0.791   4.080   4.912  0.1657  0.0171  0.3181
 2153SOL    HW117921   0.833   3.995   4.924 -0.6510 -0.2177  1.6128
 2153SOL    HW217922   0.786   4.115   5.001 -0.0201 -1.1293  0.7662
 2154SOL     OW17923   3.871   1.298   9.010  0.2381  0.7015 -0.2433
 2154SOL    HW117924   3.918   1.320   9.090 -0.0938 -2.1046  0.7101
 2154SOL    HW217925   3.803   1.365   8.996 -1.7536 -1.2034  0.2372
 2155SOL     OW17926   0.930   1.607   1.804  0.3058 -0.3943  0.3722
 2155SOL    HW117927   0.858   1.579   1.748  0.6838 -0.8797  0.1256
 2155SOL    HW217928   0.921   1.701   1.786 -0.2807 -0.0729  2.3905
 2156SOL     OW17929   1.783   1.148   6.141 -0.2465  0.1000  0.4046
 2156SOL    HW117930   1.785   1.061   6.101 -0.6164  0.5043 -0.5138
 2156SOL    HW217931   1.842   1.136   6.215  2.7042 -0.0574 -1.9405
 2157SOL     OW17932   4.060   0.728   0.543 -0.0907 -0.3444  0.4407
 2157SOL    HW117933   4.131   0.684   0.497 -1.2687 -0.6838 -1.0482
 2157SOL    HW217934   3.989   0.681   0.500 -0.5328 -0.0078  0.8008
 2158SOL     OW17935   2.583   2.194   6.117  0.9079 -0.3569  0.0210
 2158SOL    HW117936   2.625   2.212   6.033 -1.4809 -0.0335 -1.1106
 2158SOL    HW217937   2.524   2.128   6.080  0.0489  1.1528 -1.2828
 2159SOL     OW17938   1.335   2.051   3.520 -0.6295 -0.2518  0.2465
 2159SOL    HW117939   1.411   2.063   3.463 -0.6271 -3.5337 -0.4382
 2159SOL    HW217940   1.342   1.955   3.521 -0.3116 -0.2177  1.1575
 2160SOL     OW17941   0.075   4.615   9.910 -0.0881 -0.2058 -0.1495
 2160SOL    HW117942   0.018   4.592   9.984 -1.7748  0.1303 -1.3408
 2160SOL    HW217943   0.017   4.668   9.856 -1.6630 -1.3026  0.4758
 2161SOL     OW17944   1.788   4.719   5.652 -0.0812 -0.5640 -0.2843
 2161SOL    HW117945   1.838   4.692   5.729 -1.7446  1.4600  1.5004
 2161SOL    HW217946   1.846   4.695   5.580  1.4318  1.5998  0.2239
 2162SOL     OW17947   4.319   2.179   2.812  0.1907  0.5135  0.1587
 2162SOL    HW117948   4.267   2.201   2.889 -1.6955 -3.5778  0.0611
 2162SOL    HW217949   4.255   2.164   2.743 -0.6703  0.6490  0.9326
 2163SOL     OW17950   3.756   1.389   2.521  0.8127 -0.4750 -0.1245
 2163SOL    HW117951   3.821   1.346   2.466  0.3540 -0.4201 -0.7099
 2163SOL    HW217952   3.687   1.414   2.459  1.8483  0.0762 -1.0444
 2164SOL     OW17953   1.238   1.850   5.269  0.3076  0.6539  0.4798
 2164SOL    HW117954   1.237   1.937   5.229 -0.8310 -0.0189 -0.9685
 2164SOL    HW217955   1.324   1.858   5.312  0.8961  1.5813 -0.8836
 2165SOL     OW17956   3.251   1.084   7.770  0.7384 -0.6218 -0.4939
 2165SOL    HW117957   3.179   1.120   7.717  0.5247  0.5124  0.5792
 2165SOL    HW217958   3.311   1.156   7.755 -0.1862  0.0002 -1.2331
 2166SOL     OW17959   2.991   1.682   7.787  0.1955 -0.3500 -0.1127
 2166SOL    HW117960   2.998   1.729   7.870  3.0956  0.0740 -0.6012
 2166SOL    HW217961   3.059   1.615   7.796 -0.3834 -0.5548  2.7156
 2167SOL     OW17962   0.868   2.566   0.864  0.0953  1.0034 -0.3356
 2167SOL    HW117963   0.797   2.502   0.863 -0.1390  1.2481  0.3842
 2167SOL    HW217964   0.943   2.511   0.843 -0.3911 -0.0416  0.6297
 2168SOL     OW17965   1.223   0.406  12.157  0.0700 -0.0688 -0.0779
 2168SOL    HW117966   1.284   0.461  12.108  0.2066  0.5129  0.7455
 2168SOL    HW217967   1.170   0.471  12.202 -0.2117 -0.4150  0.0907
 2169SOL     OW17968   4.601   4.058   5.011 -0.6945  0.9863 -0.4127
 2169SOL    HW117969   4.660   3.984   4.999 -2.2715 -0.7960  2.8100
 2169SOL    HW217970   4.553   4.058   4.928  0.7174  2.4553 -1.2395
 2170SOL     OW17971   1.115   1.902  13.969  0.0299  0.0434  0.0947
 2170SOL    HW117972   1.194   1.913  13.916 -0.6213 -0.1898 -0.9233
 2170SOL    HW217973   1.120   1.807  13.963 -2.1025 -0.0432 -0.0371
 2171SOL     OW17974   1.201   0.285   1.025 -0.4638  0.3653 -0.0437
 2171SOL    HW117975   1.132   0.222   1.003 -1.3932  1.8127 -1.2956
 2171SOL    HW217976   1.262   0.268   0.953  1.5028 -1.1383  1.9952
 2172SOL     OW17977   2.764   2.770   6.356 -0.3873  0.5999  0.1188
 2172SOL    HW117978   2.821   2.812   6.421  1.3248  1.4770 -1.9799
 2172SOL    HW217979   2.812   2.791   6.276  0.4363 -0.4802  0.3358
 2173SOL     OW17980   0.781   4.029   2.732 -1.0645 -0.7108 -0.0374
 2173SOL    HW117981   0.776   3.938   2.702 -0.7342 -1.2708  1.5827
 2173SOL    HW217982   0.868   4.025   2.772 -0.1840  2.2568 -1.6146
 2174SOL     OW17983   2.012   3.450   6.239  0.2530  0.4364  0.3908
 2174SOL    HW117984   1.956   3.383   6.277 -0.0854 -0.2234 -1.2900
 2174SOL    HW217985   2.073   3.470   6.310 -0.7753  1.3915  1.0156
 2175SOL     OW17986   0.290   3.654  17.052 -0.5483  0.5989 -0.2040
 2175SOL    HW117987   0.197   3.668  17.034 -1.1634 -2.4470  0.5932
 2175SOL    HW217988   0.313   3.624  16.964 -0.6133  0.5416 -0.2016
 2176SOL     OW17989   4.066   3.608   1.585 -0.1597 -0.0065 -0.1661
 2176SOL    HW117990   4.027   3.689   1.618  2.0471  0.6590  0.8738
 2176SOL    HW217991   4.127   3.592   1.658  1.3325  2.4994 -0.8466
 2177SOL     OW17992   4.552   0.501   2.121 -0.6826 -0.2134 -0.3528
 2177SOL    HW117993   4.457   0.489   2.124 -0.6429  0.3758  3.2292
 2177SOL    HW217994   4.581   0.414   2.093  0.5574  0.8005 -2.2499
 2178SOL     OW17995   3.540   2.458   6.739  0.0051 -0.0215 -0.2410
 2178SOL    HW117996   3.610   2.490   6.795 -1.0782  0.7323  0.6851
 2178SOL    HW217997   3.595   2.417   6.672  1.5306  1.8888 -0.1446
 2179SOL     OW17998   3.848   1.602   9.293  0.9374  0.3217 -0.0246
 2179SOL    HW117999   3.894   1.518   9.302  0.8111  0.3838  1.1655
 2179SOL    HW218000   3.918   1.665   9.277  0.6703  0.8867  1.0161
 2180SOL     OW18001   1.299   3.722   2.123 -0.2353  0.0645  0.1494
 2180SOL    HW118002   1.307   3.804   2.172  1.6974 -0.5047  0.7581
 2180SOL    HW218003   1.368   3.728   2.057 -1.1230  1.8043 -0.6171
 2181SOL     OW18004   2.974   2.046  10.023 -0.4855 -0.1466  0.0547
 2181SOL    HW118005   2.993   2.099   9.946 -1.9162  0.2787 -0.0059
 2181SOL    HW218006   2.988   1.957   9.993 -3.7818 -0.8604  0.6273
 2182SOL     OW18007   2.277   0.996  13.485 -0.3067 -0.0182 -0.0367
 2182SOL    HW118008   2.358   0.946  13.482 -0.5000 -0.2313 -1.8187
 2182SOL    HW218009   2.238   0.945  13.413  2.3531 -1.2597 -0.5806
 2183SOL     OW18010   3.678   0.658   9.794 -0.2821 -0.1364 -0.0970
 2183SOL    HW118011   3.762   0.635   9.835 -0.9559 -1.1469  0.6910
 2183SOL    HW218012   3.718   0.668   9.707 -0.6042  1.7697 -0.0255
 2184SOL     OW18013   3.294   1.083   9.176  0.1486  0.4429 -0.3604
 2184SOL    HW118014   3.354   1.125   9.113  0.4147  0.8704  0.1810
 2184SOL    HW218015   3.221   1.144   9.185  0.5615  0.5184  2.3047
 2185SOL     OW18016   4.235   0.627   3.031 -0.0943  0.2901  0.2229
 2185SOL    HW118017   4.152   0.601   3.070 -0.5896 -0.2664 -1.1949
 2185SOL    HW218018   4.204   0.706   2.988 -2.2048 -0.1657  0.9459
 2186SOL     OW18019   4.160   2.220   2.307 -0.0691  0.2616 -0.4175
 2186SOL    HW118020   4.076   2.215   2.262  0.3469 -2.0051 -0.9285
 2186SOL    HW218021   4.216   2.205   2.231  0.8973  0.2493  0.3015
 2187SOL     OW18022   1.135   4.487   8.191 -0.2631  0.0543  0.6519
 2187SOL    HW118023   1.100   4.519   8.274  1.3689  1.5565  0.7526
 2187SOL    HW218024   1.208   4.433   8.221  0.0325  0.1945  0.1723
 2188SOL     OW18025   0.635   3.968  17.221 -0.0238 -0.3778  0.3447
 2188SOL    HW118026   0.560   3.983  17.277  1.2390  1.4683  1.5579
 2188SOL    HW218027   0.697   3.923  17.279 -0.2634 -1.1064  0.0374
 2189SOL     OW18028   4.546   3.942   2.503  0.0901  0.3299  0.3807
 2189SOL    HW118029   4.609   3.996   2.551 -1.0125  0.7950  1.3157
 2189SOL    HW218030   4.566   3.982   2.418  1.4934 -0.0356  0.5489
 2190SOL     OW18031   0.994   4.426   0.891 -0.1901  0.4466  0.3263
 2190SOL    HW118032   1.041   4.449   0.971  0.7676 -0.4087  0.0100
 2190SOL    HW218033   0.921   4.370   0.917  2.6991 -2.8615  1.3246
 2191SOL     OW18034   0.925   0.198  13.941 -0.0133  0.0821 -0.2922
 2191SOL    HW118035   0.929   0.105  13.962 -2.0469 -0.0067 -0.2778
 2191SOL    HW218036   1.017   0.223  13.947  0.6162 -1.8145 -1.9232
 2192SOL     OW18037   1.558   2.049  14.627  0.2224  0.2668  0.0816
 2192SOL    HW118038   1.514   2.122  14.671 -0.5771 -0.7637  0.9712
 2192SOL    HW218039   1.651   2.040  14.647 -0.0253 -1.1014  0.5853
 2193SOL     OW18040   4.114   2.960   4.922  0.4165  0.9000 -0.3728
 2193SOL    HW118041   4.128   2.895   4.991  0.3910 -1.7652 -2.9017
 2193SOL    HW218042   4.019   2.957   4.913  0.2067  2.5209  1.3189
 2194SOL     OW18043   3.189   3.535   5.005  0.0529  0.3056 -0.7008
 2194SOL    HW118044   3.176   3.582   5.087 -0.8778  0.2024 -0.7855
 2194SOL    HW218045   3.282   3.543   4.982  0.7437 -0.7974  1.7494
 2195SOL     OW18046   0.769   0.018  16.084 -0.4570 -0.3883 -0.4698
 2195SOL    HW118047   0.747   0.100  16.129 -2.3505 -1.1968  0.0633
 2195SOL    HW218048   0.864   0.029  16.080 -0.3542 -1.5261 -1.3228
 2196SOL     OW18049   3.082   1.807   8.016  0.4455 -0.4847 -0.8140
 2196SOL    HW118050   3.018   1.878   8.023  1.5355  0.3903  0.3184
 2196SOL    HW218051   3.049   1.749   8.085 -0.3580  1.0511  0.1066
 2197SOL     OW18052   0.849   0.565   9.169 -0.4646  0.1234 -0.4408
 2197SOL    HW118053   0.883   0.624   9.236 -1.8006  0.8166 -0.3508
 2197SOL    HW218054   0.921   0.558   9.107  0.0576  0.1594  0.1726
 2198SOL     OW18055   1.938   1.633   5.523  0.1440  0.0794 -0.2283
 2198SOL    HW118056   1.921   1.716   5.567 -2.2483 -0.5143 -0.0454
 2198SOL    HW218057   1.907   1.580   5.596 -0.4300  0.6846 -0.0386
 2199SOL     OW18058   0.149   4.723  10.314  0.0543 -0.0280 -0.4814
 2199SOL    HW118059   0.127   4.644  10.363  0.5381  0.9457  1.3333
 2199SOL    HW218060   0.093   0.064  10.356 -2.1238 -2.6951  0.7839
 2200SOL     OW18061   3.568   4.645   1.552  0.3675  0.2881 -0.1554
 2200SOL    HW118062   3.473   4.654   1.546  0.3317 -0.2156 -0.3388
 2200SOL    HW218063   3.578   4.602   1.637  3.8755 -1.4259 -1.4385
 2201SOL     OW18064   3.122   1.041   6.664  0.5200  0.2353 -0.1691
 2201SOL    HW118065   3.170   0.959   6.678  1.4728  1.2970  2.9622
 2201SOL    HW218066   3.037   1.008   6.634 -0.1152  1.0565  0.7162
 2202SOL     OW18067   0.359   2.943   6.654  0.0132  0.1416 -0.4773
 2202SOL    HW118068   0.393   3.028   6.627 -0.6673  0.3643 -0.6449
 2202SOL    HW218069   0.266   2.967   6.657 -0.5480 -2.2785  1.3336
 2203SOL     OW18070   2.706   2.773   7.123  0.1754  0.2728  0.1589
 2203SOL    HW118071   2.763   2.740   7.053  2.0265 -0.8405  2.1922
 2203SOL    HW218072   2.742   2.741   7.205  0.8482 -1.4074 -0.7811
 2204SOL     OW18073   3.699   1.255   6.083 -0.7877 -0.6737  0.0981
 2204SOL    HW118074   3.689   1.330   6.141 -0.8502 -0.3151 -0.3768
 2204SOL    HW218075   3.745   1.196   6.142  0.7857  0.4144 -0.0374
 2205SOL     OW18076   2.151   3.306   3.099 -0.0639  0.1478 -0.1445
 2205SOL    HW118077   2.085   3.237   3.094 -2.8857  2.8789 -0.5382
 2205SOL    HW218078   2.228   3.259   3.069 -1.0829 -1.8477  0.3382
 2206SOL     OW18079   2.343   3.123  15.336  0.0826  0.3126  0.1531
 2206SOL    HW118080   2.406   3.192  15.354  0.0798  0.8631 -1.9309
 2206SOL    HW218081   2.292   3.159  15.264  0.8006 -0.4329 -0.7241
 2207SOL     OW18082   0.614   0.302   3.351  0.5957  0.4341 -0.4304
 2207SOL    HW118083   0.614   0.369   3.282 -1.1982 -0.0744 -0.9331
 2207SOL    HW218084   0.707   0.291   3.367  0.1137 -1.5986  1.0381
 2208SOL     OW18085   0.101   2.334   4.929  1.0351  0.7628  0.3690
 2208SOL    HW118086   0.104   2.348   4.834  0.9401 -2.0720 -0.0294
 2208SOL    HW218087   0.139   2.415   4.963  2.6330 -0.1664  0.7831
 2209SOL     OW18088   2.171   1.545   5.026 -0.7317 -0.2657 -0.4126
 2209SOL    HW118089   2.148   1.635   5.004  1.4710  0.2286 -0.6891
 2209SOL    HW218090   2.130   1.534   5.111  0.9719  0.8167  0.5543
 2210SOL     OW18091   2.641   3.363   7.882 -0.3967 -0.3519 -0.4922
 2210SOL    HW118092   2.555   3.403   7.874 -0.7993 -1.4637 -1.7093
 2210SOL    HW218093   2.669   3.385   7.793  1.1238  0.9844  0.3210
 2211SOL     OW18094   4.543   3.920   4.308  0.2329  0.1006  0.9745
 2211SOL    HW118095   4.521   3.977   4.234  2.5334  1.5839  1.4377
 2211SOL    HW218096   4.465   3.917   4.364 -1.4804 -0.3569 -1.4185
 2212SOL     OW18097   2.198   1.565   4.136  0.3461  0.1298  0.4202
 2212SOL    HW118098   2.152   1.504   4.194 -2.2494 -0.2484 -2.0235
 2212SOL    HW218099   2.274   1.594   4.187  1.4952 -1.4297 -0.4044
 2213SOL     OW18100   0.680   3.651   3.515  0.0953  0.1036 -0.3230
 2213SOL    HW118101   0.636   3.638   3.431 -3.1004 -0.4151  1.4164
 2213SOL    HW218102   0.769   3.626   3.490 -1.1081 -2.4750 -1.9879
 2214SOL     OW18103   4.116   2.035   3.426  0.1787 -0.1923 -0.0794
 2214SOL    HW118104   4.041   2.093   3.438  0.5089  0.5396 -1.5469
 2214SOL    HW218105   4.068   1.963   3.383  1.7720 -0.8754 -0.7138
 2215SOL     OW18106   2.406   1.469   7.657 -0.1424 -0.1132  0.0468
 2215SOL    HW118107   2.463   1.394   7.672 -0.5489 -0.7736 -1.7260
 2215SOL    HW218108   2.325   1.440   7.698  0.4121 -1.2161  0.3575
 2216SOL     OW18109   2.048   0.000   6.712 -0.2308  0.4119  0.0997
 2216SOL    HW118110   2.056   0.074   6.651 -1.8853  0.4650 -0.0446
 2216SOL    HW218111   2.083   0.039   6.792 -1.0590  0.9008  0.2199
 2217SOL     OW18112   0.900   3.771   5.584  0.2091 -0.2039  0.6179
 2217SOL    HW118113   0.809   3.743   5.585 -0.0716  0.7076  1.3608
 2217SOL    HW218114   0.912   3.791   5.677  0.9679 -1.2702  0.7436
 2218SOL     OW18115   2.702   4.323   4.529  0.1709 -0.6282  0.3796
 2218SOL    HW118116   2.635   4.254   4.525  0.4213 -0.7599 -1.4207
 2218SOL    HW218117   2.724   4.322   4.623  1.3916 -1.7043  0.0874
 2219SOL     OW18118   4.039   2.320   3.759  0.1107 -0.4082  0.2392
 2219SOL    HW118119   4.101   2.251   3.736 -0.9754 -1.1044 -0.5584
 2219SOL    HW218120   4.010   2.289   3.845  0.8921  1.5643  1.2284
 2220SOL     OW18121   3.038   3.339   3.512 -0.1631 -0.0654  0.2261
 2220SOL    HW118122   3.012   3.339   3.604  1.5847  0.8215  0.7121
 2220SOL    HW218123   2.966   3.378   3.464  0.1633  1.3781  0.9230
 2221SOL     OW18124   1.442   3.217   2.044 -0.5547 -0.1367  0.5012
 2221SOL    HW118125   1.351   3.232   2.017 -0.7661  1.2647  2.0218
 2221SOL    HW218126   1.433   3.219   2.139  0.7720  0.9077  0.6126
 2222SOL     OW18127   4.159   0.702  15.620  0.8192  0.4225 -0.1702
 2222SOL    HW118128   4.099   0.637  15.658  0.3367 -0.3275 -2.2146
 2222SOL    HW218129   4.140   0.778  15.675  1.3698  0.8374 -0.5554
 2223SOL     OW18130   3.333   4.025   8.889  0.2145  0.3598 -0.1171
 2223SOL    HW118131   3.324   4.050   8.981 -1.5979 -0.4494 -0.0812
 2223SOL    HW218132   3.274   4.083   8.840  1.0470  0.7495 -0.6568
 2224SOL     OW18133   0.878   3.353   3.263  0.2631 -0.9251 -0.0448
 2224SOL    HW118134   0.831   3.357   3.180  2.3516  1.6682 -1.1104
 2224SOL    HW218135   0.965   3.325   3.234  1.2408  1.2754  0.7612
 2225SOL     OW18136   0.220   1.181  14.591 -0.6800 -0.4974 -0.1214
 2225SOL    HW118137   0.177   1.188  14.676  1.3487  1.7164  0.7187
 2225SOL    HW218138   0.178   1.254  14.546  1.4624 -0.7387 -2.5371
 2226SOL     OW18139   2.020   0.979   6.435 -0.1567  0.0466  0.2173
 2226SOL    HW118140   2.052   0.986   6.345  0.3469  2.4393  0.5854
 2226SOL    HW218141   1.932   0.952   6.407 -1.2045  1.3118  2.3202
 2227SOL     OW18142   1.742   2.140   0.360  0.0120 -0.1385  0.3729
 2227SOL    HW118143   1.796   2.134   0.439 -1.1872  2.5349  1.4246
 2227SOL    HW218144   1.709   2.050   0.357  1.1849 -0.6004  1.3896
 2228SOL     OW18145   0.102   2.854   2.538  0.2610  0.0344  0.4398
 2228SOL    HW118146   0.013   2.820   2.541  1.1565 -2.1662  1.8583
 2228SOL    HW218147   0.148   2.803   2.604  0.6987 -0.7634 -0.4952
 2229SOL     OW18148   2.210   0.910   2.364 -0.2832 -0.3909  0.0254
 2229SOL    HW118149   2.234   0.825   2.327  1.0656  0.5635 -1.3242
 2229SOL    HW218150   2.205   0.953   2.278  1.9379  0.3813  0.2903
 2230SOL     OW18151   4.547   1.805   2.336  0.2380  0.2223 -0.5750
 2230SOL    HW118152   4.505   1.891   2.337  1.5939  0.9327 -2.6459
 2230SOL    HW218153   4.580   1.800   2.426 -0.7296  0.5971 -0.1983
 2231SOL     OW18154   0.501   4.167  12.070 -0.2015 -0.1288  0.3198
 2231SOL    HW118155   0.449   4.109  12.014  1.3588  0.5772 -1.8582
 2231SOL    HW218156   0.460   4.154  12.155 -1.0246 -1.4660 -0.2622
 2232SOL     OW18157   4.123   1.870   6.400  0.0655 -0.1162 -0.0749
 2232SOL    HW118158   4.177   1.868   6.479 -1.8344 -0.9473  1.2021
 2232SOL    HW218159   4.089   1.959   6.396 -0.2891 -0.2627 -0.3888
 2233SOL     OW18160   0.810   0.957  15.414 -0.5321  0.1341 -0.5709
 2233SOL    HW118161   0.830   0.934  15.505  0.6663 -0.6621 -1.0319
 2233SOL    HW218162   0.897   0.973  15.377  1.1052 -0.3626  3.0625
 2234SOL     OW18163   2.981   4.723  10.559  0.4587  0.4909 -0.2128
 2234SOL    HW118164   3.052   4.693  10.615 -1.3465 -1.2567  1.1452
 2234SOL    HW218165   2.907   4.667  10.584  1.2840 -1.3967 -1.9277
 2235SOL     OW18166   0.038   0.745   8.595  0.1237 -0.3662  0.1443
 2235SOL    HW118167   0.090   0.808   8.645  2.0384 -0.6604 -1.4543
 2235SOL    HW218168   4.674   0.780   8.605  1.1216  1.6197  2.1807
 2236SOL     OW18169   0.088   2.716   1.920  0.8973  0.5484 -0.5443
 2236SOL    HW118170   0.004   2.734   1.877  1.8980 -0.4324 -2.9179
 2236SOL    HW218171   0.117   2.633   1.883  1.2175  0.0869  0.7599
 2237SOL     OW18172   3.129   2.205   7.347 -0.0764  0.1001  0.1106
 2237SOL    HW118173   3.215   2.189   7.385  0.0414  1.6727  0.5020
 2237SOL    HW218174   3.143   2.260   7.270 -0.6698  1.0514  0.6792
 2238SOL     OW18175   4.667   2.985   8.424 -0.0920  0.1918 -0.2505
 2238SOL    HW118176   4.703   3.073   8.411 -0.4198  0.4444  0.5642
 2238SOL    HW218177   4.660   2.989   8.519  0.2455 -0.3249 -0.1991
 2239SOL     OW18178   3.527   3.522   0.379  0.4214 -0.0348  0.0328
 2239SOL    HW118179   3.447   3.532   0.328  0.2973 -1.2924 -0.0151
 2239SOL    HW218180   3.565   3.443   0.340 -2.9193 -2.1593  1.1062
 2240SOL     OW18181   4.510   1.934   6.891  0.0862 -0.0507  0.2159
 2240SOL    HW118182   4.561   1.856   6.912  1.8331  0.7873 -0.8917
 2240SOL    HW218183   4.575   2.005   6.894 -0.2633  0.2690  0.3077
 2241SOL     OW18184   4.620   1.730   9.383 -0.1261  0.4414  0.2698
 2241SOL    HW118185   4.581   1.776   9.309 -0.1527  0.5233  0.3351
 2241SOL    HW218186   4.566   1.651   9.389 -2.2631  1.6646 -3.1094
 2242SOL     OW18187   0.737   3.386   1.483  0.0246  0.1150 -0.4665
 2242SOL    HW118188   0.664   3.357   1.428  2.1266 -2.2031 -2.0136
 2242SOL    HW218189   0.761   3.298   1.514  0.4660  0.0509 -0.9871
 2243SOL     OW18190   3.346   0.984   2.676 -0.2770 -0.2460  0.2290
 2243SOL    HW118191   3.358   1.028   2.760  0.4985 -2.2467  1.1535
 2243SOL    HW218192   3.253   1.006   2.670 -0.3424 -0.1272  1.5926
 2244SOL     OW18193   4.685   1.140   2.036  0.6156  0.1728 -0.5326
 2244SOL    HW118194   4.702   1.050   2.007 -0.1790 -0.1119 -0.1396
 2244SOL    HW218195   4.589   1.149   2.037  0.7778  1.9401 -1.3161
 2245SOL     OW18196   1.548   1.555   6.197  0.2332  0.8331 -0.0839
 2245SOL    HW118197   1.488   1.597   6.259 -1.0396 -2.5138  0.9579
 2245SOL    HW218198   1.597   1.503   6.261  1.1813  1.5755 -0.2078
 2246SOL     OW18199   0.197   0.317   4.891  0.1285  0.2224  0.2978
 2246SOL    HW118200   0.145   0.238   4.877 -0.4863  0.2664  2.3014
 2246SOL    HW218201   0.181   0.335   4.983 -0.4908 -0.8699  0.4001
 2247SOL     OW18202   0.633   2.752   2.553  0.2630  0.2062 -0.1254
 2247SOL    HW118203   0.628   2.811   2.628 -0.1102  0.3975 -0.3010
 2247SOL    HW218204   0.620   2.820   2.487  0.4752 -2.8530 -3.3194
 2248SOL     OW18205   4.076   4.462   8.793  0.1180  0.5875 -0.6870
 2248SOL    HW118206   4.063   4.525   8.723 -0.0336  1.1125 -0.1932
 2248SOL    HW218207   4.066   4.512   8.874 -0.3082  0.0632 -0.4133
 2249SOL     OW18208   0.872   4.335   4.754  0.2173  0.0491  0.3193
 2249SOL    HW118209   0.790   4.333   4.707  1.6529 -0.1786 -2.1551
 2249SOL    HW218210   0.856   4.253   4.801 -1.0646 -0.1259 -0.4468
 2250SOL     OW18211   2.501   0.040   5.081  0.0376 -0.4544  0.1543
 2250SOL    HW118212   2.480   0.118   5.029  0.9904 -1.9868 -2.5252
 2250SOL    HW218213   2.538   4.710   5.012 -0.7095  1.1337 -1.4901
 2251SOL     OW18214   1.993   2.385   3.803  0.3689  0.2694 -0.1680
 2251SOL    HW118215   1.929   2.317   3.781 -0.5587  1.1651 -0.2800
 2251SOL    HW218216   2.066   2.324   3.808 -0.1056 -0.3323 -0.6305
 2252SOL     OW18217   3.889   0.904   5.712  0.0971  0.1483  0.0462
 2252SOL    HW118218   3.931   0.972   5.764  1.0904 -0.6523  0.2988
 2252SOL    HW218219   3.923   0.833   5.768  1.2605  0.1975 -0.5939
 2253SOL     OW18220   4.099   3.579   2.123 -0.2721 -0.1218 -0.1059
 2253SOL    HW118221   4.043   3.551   2.194  0.4182 -0.5173  0.2812
 2253SOL    HW218222   4.035   3.598   2.054 -1.7922 -0.4293  1.2501
 2254SOL     OW18223   4.663   2.507   4.551  0.0313 -0.2486 -0.0273
 2254SOL    HW118224   4.667   2.491   4.457  0.7664 -0.0073 -0.0386
 2254SOL    HW218225   4.586   2.453   4.570  0.4388 -1.4365 -1.7209
 2255SOL     OW18226   0.914   2.336   8.732  0.3542  0.7297  0.1502
 2255SOL    HW118227   0.916   2.248   8.770 -0.5425  0.2186 -1.0151
 2255SOL    HW218228   0.827   2.371   8.756 -0.8149 -0.8285 -1.8400
 2256SOL     OW18229   3.237   1.910   6.780  0.4503  0.0685  0.3057
 2256SOL    HW118230   3.271   1.823   6.761 -0.5541  0.0301 -1.2284
 2256SOL    HW218231   3.143   1.898   6.770  0.4974 -1.1944  1.3387
 2257SOL     OW18232   4.075   0.446   1.905 -0.1137  0.2029  0.0878
 2257SOL    HW118233   4.099   0.527   1.860  1.8999  0.1638  1.1450
 2257SOL    HW218234   3.979   0.448   1.896 -0.1246 -1.3945 -0.0279
 2258SOL     OW18235   0.565   3.501   4.304 -0.5567  0.1588 -0.8525
 2258SOL    HW118236   0.564   3.462   4.391 -0.9977 -2.4480 -2.0070
 2258SOL    HW218237   0.566   3.424   4.246  0.3054 -0.4130 -0.0729
 2259SOL     OW18238   3.331   1.001   8.511  0.1847  0.4033 -0.3674
 2259SOL    HW118239   3.423   1.027   8.517  0.8161 -2.1641  1.0232
 2259SOL    HW218240   3.303   1.074   8.567  1.2366  0.4348  0.1038
 2260SOL     OW18241   0.563   1.313   3.395  0.5503  0.1140  0.2613
 2260SOL    HW118242   0.491   1.264   3.436  1.2078 -0.2185  1.0138
 2260SOL    HW218243   0.620   1.251   3.350 -1.0532 -1.9569  1.0374
 2261SOL     OW18244   0.333   0.699   6.376  0.2594  0.4916  0.4630
 2261SOL    HW118245   0.383   0.647   6.439  0.3547  0.8456  0.6765
 2261SOL    HW218246   0.253   0.645   6.376 -0.1908  1.1562  0.4342
 2262SOL     OW18247   2.934   2.373   2.033 -0.3440 -0.3588  0.2652
 2262SOL    HW118248   2.932   2.277   2.025 -0.4828 -0.3419  0.0953
 2262SOL    HW218249   2.858   2.389   2.089  1.6795  3.9940  1.7569
 2263SOL     OW18250   1.891   1.905   0.987  0.5583  0.0166  0.0887
 2263SOL    HW118251   1.936   1.958   0.922 -1.7603  2.6301  0.6263
 2263SOL    HW218252   1.913   1.820   0.949  0.6411 -0.6411  1.5775
 2264SOL     OW18253   3.588   4.356  14.545  0.1380 -0.1852 -0.4550
 2264SOL    HW118254   3.661   4.396  14.591 -0.9489  0.4768  0.7066
 2264SOL    HW218255   3.634   4.299  14.483  0.3544 -1.6081  1.0525
 2265SOL     OW18256   0.451   0.684   5.453  0.3165  0.0447  0.1830
 2265SOL    HW118257   0.461   0.604   5.506 -1.9008  1.1226  2.2542
 2265SOL    HW218258   0.532   0.696   5.404  1.0180  2.2057  1.8744
 2266SOL     OW18259   3.900   0.626   7.372 -0.3209 -0.0792 -0.4075
 2266SOL    HW118260   3.934   0.537   7.382  0.5632  0.2586 -0.3637
 2266SOL    HW218261   3.977   0.656   7.324 -0.4757 -1.0227 -1.2431
 2267SOL     OW18262   0.465   3.881   5.175  0.6663 -0.7656 -0.6993
 2267SOL    HW118263   0.426   3.795   5.193  0.3218 -0.0985  1.6434
 2267SOL    HW218264   0.550   3.849   5.143  1.7133  0.8722  0.4053
 2268SOL     OW18265   0.497   4.203   5.930 -0.2007  0.2108  0.4930
 2268SOL    HW118266   0.449   4.199   6.013 -2.4166  1.9652 -0.6814
 2268SOL    HW218267   0.428   4.201   5.864 -1.0231 -2.3414  1.4261
 2269SOL     OW18268   4.292   0.464   2.117 -0.2958  0.3034  0.9699
 2269SOL    HW118269   4.246   0.531   2.168 -3.0113 -2.1353  1.7381
 2269SOL    HW218270   4.226   0.422   2.063  1.5660  1.1596 -1.9676
 2270SOL     OW18271   3.078   0.943   0.086  0.2592 -0.4724  0.4841
 2270SOL    HW118272   3.043   0.979   0.167 -0.4839 -2.1915  0.9317
 2270SOL    HW218273   3.013   0.877   0.062  1.0948 -0.9362 -0.5487
 2271SOL     OW18274   2.908   4.148  12.613  0.3501 -0.1554  0.2958
 2271SOL    HW118275   2.969   4.180  12.680 -0.1791  0.5105  0.4587
 2271SOL    HW218276   2.971   4.092  12.568  1.4977  0.1358  1.5358
 2272SOL     OW18277   3.411   1.602   1.995  0.4754  0.3419  0.6345
 2272SOL    HW118278   3.458   1.550   1.930 -2.1880 -2.2590  0.7681
 2272SOL    HW218279   3.324   1.561   1.991 -0.9624  3.1794  2.4890
 2273SOL     OW18280   1.967   4.119   6.358  0.4391 -0.3584  0.8899
 2273SOL    HW118281   2.023   4.193   6.381 -1.4478  1.1433  0.6700
 2273SOL    HW218282   1.885   4.138   6.404 -0.3754  1.7148 -1.4078
 2274SOL     OW18283   3.201   1.650   5.536 -0.6032 -0.3217 -0.4961
 2274SOL    HW118284   3.174   1.738   5.511  4.4223  0.3402 -3.7340
 2274SOL    HW218285   3.197   1.606   5.451  1.3028 -2.1669  0.3746
 2275SOL     OW18286   1.299   3.988   6.428  0.5062  0.0268  0.1382
 2275SOL    HW118287   1.325   3.943   6.347 -2.6793 -1.0062 -0.2997
 2275SOL    HW218288   1.213   3.949   6.442 -0.2635  1.3028 -1.0631
 2276SOL     OW18289   4.080   3.604   6.077  0.0260  0.1429  0.0566
 2276SOL    HW118290   4.062   3.628   6.168 -0.5120  0.5604 -0.1632
 2276SOL    HW218291   4.012   3.656   6.035 -2.4622 -0.9905  2.7039
 2277SOL     OW18292   0.727   3.663   7.229 -0.7364  0.5498 -0.5641
 2277SOL    HW118293   0.647   3.706   7.260 -0.9552 -0.2065 -0.0938
 2277SOL    HW218294   0.793   3.696   7.289  1.6207 -2.0239 -1.7206
 2278SOL     OW18295   0.506   2.157   4.089  0.0639  0.5305 -0.2336
 2278SOL    HW118296   0.504   2.072   4.133 -1.5920  0.8062  0.2242
 2278SOL    HW218297   0.418   2.173   4.056 -0.7771  0.5811  2.0207
 2279SOL     OW18298   3.720   4.193   2.416 -0.5404  0.3837 -0.4216
 2279SOL    HW118299   3.746   4.213   2.326  0.3681 -2.0925 -0.6769
 2279SOL    HW218300   3.788   4.128   2.430  0.7536  1.5862 -1.0870
 2280SOL     OW18301   3.425   1.834  15.691  1.2571 -0.3427 -0.2833
 2280SOL    HW118302   3.347   1.841  15.747  2.5775  1.1716  1.3423
 2280SOL    HW218303   3.377   1.838  15.608 -0.0813 -0.9332  0.4505
 2281SOL     OW18304   3.627   2.313   2.647 -0.0209  0.1967  0.0465
 2281SOL    HW118305   3.642   2.221   2.668 -0.9771  0.3532  1.3738
 2281SOL    HW218306   3.713   2.328   2.609 -1.0141  2.4219 -1.3542
 2282SOL     OW18307   2.608   2.255  13.952 -0.1876 -0.5910  0.3084
 2282SOL    HW118308   2.561   2.305  14.018 -0.2345 -0.0651 -0.1251
 2282SOL    HW218309   2.699   2.256  13.981  0.4884  0.7167 -1.8453
 2283SOL     OW18310   2.388   4.123   6.060 -0.2926 -0.2699  0.2654
 2283SOL    HW118311   2.388   4.211   6.098  0.1989 -0.2228  0.1496
 2283SOL    HW218312   2.298   4.097   6.081  0.1054 -0.5899  1.5614
 2284SOL     OW18313   1.616   1.262  11.354  0.0652  0.3826  0.1222
 2284SOL    HW118314   1.709   1.242  11.369  0.3256  1.3831 -0.1794
 2284SOL    HW218315   1.626   1.350  11.388 -2.9828  1.2215 -1.1721
 2285SOL     OW18316   2.961   1.621   1.718  0.0475 -0.2341 -0.6153
 2285SOL    HW118317   2.903   1.693   1.744  1.2586  0.4139  0.3002
 2285SOL    HW218318   2.896   1.582   1.660 -1.8709  0.6416  0.9366
 2286SOL     OW18319   1.357   4.461  14.808  0.1337 -0.3255 -0.1850
 2286SOL    HW118320   1.412   4.408  14.866 -0.2052 -0.0581  0.3868
 2286SOL    HW218321   1.392   4.457  14.719  1.6695 -1.4962  0.4814
 2287SOL     OW18322   1.302   1.578   2.437  0.2869  0.3047  0.1704
 2287SOL    HW118323   1.272   1.571   2.346  0.0574 -0.5545  0.3145
 2287SOL    HW218324   1.303   1.487   2.466  0.1194 -0.3105 -1.7059
 2288SOL     OW18325   4.172   0.995   3.694  0.4514  0.2809 -0.6035
 2288SOL    HW118326   4.142   1.057   3.627  0.6830  0.1690 -0.8083
 2288SOL    HW218327   4.214   0.922   3.649  0.7987 -0.1556  0.4256
 2289SOL     OW18328   1.979   4.189   5.457 -0.0950  0.3812 -0.1942
 2289SOL    HW118329   2.020   4.135   5.525  3.0591 -0.0646 -2.4126
 2289SOL    HW218330   2.041   4.260   5.441  0.3474  0.5361  2.1633
 2290SOL     OW18331   4.317   1.205   4.047 -0.0675 -0.1397 -0.0836
 2290SOL    HW118332   4.384   1.187   4.114  1.2314  0.8613 -1.1035
 2290SOL    HW218333   4.245   1.246   4.094  1.6127  0.9472  1.5587
 2291SOL     OW18334   1.398   3.404  11.832  0.0016 -0.3086 -0.0469
 2291SOL    HW118335   1.458   3.333  11.858  0.1086  0.0922  0.8128
 2291SOL    HW218336   1.461   3.471  11.856 -0.1648  0.3499 -1.4762
 2292SOL     OW18337   3.186   4.084   7.629 -0.0048  0.5317 -0.0720
 2292SOL    HW118338   3.159   4.059   7.541 -0.5220  1.5113 -0.1916
 2292SOL    HW218339   3.132   4.163   7.635  1.1717  1.4380 -1.3046
 2293SOL     OW18340   1.559   2.742  15.058 -0.6941  0.1529  0.4447
 2293SOL    HW118341   1.597   2.830  15.062 -0.8255  0.1783  1.0771
 2293SOL    HW218342   1.466   2.753  15.039 -0.6558 -2.5229 -1.2291
 2294SOL     OW18343   2.492   0.968  15.179  0.3394 -0.3570  0.0506
 2294SOL    HW118344   2.429   1.037  15.201 -0.0805 -0.5282 -0.6206
 2294SOL    HW218345   2.453   0.918  15.108  0.1631 -2.5742  1.7042
 2295SOL     OW18346   4.015   4.256   9.445 -0.0374  0.6890  0.4936
 2295SOL    HW118347   4.021   4.161   9.439 -0.4887  0.7498 -0.7607
 2295SOL    HW218348   3.933   4.268   9.399  1.5724 -0.3246 -2.6091
 2296SOL     OW18349   2.501   3.573   8.685  0.4197 -0.5221 -0.1868
 2296SOL    HW118350   2.422   3.612   8.721  1.9677  2.1378  0.2774
 2296SOL    HW218351   2.520   3.637   8.616  0.3250 -1.0984 -0.7537
 2297SOL     OW18352   0.742   0.278  13.754 -0.3812 -0.0800 -0.2748
 2297SOL    HW118353   0.799   0.258  13.829 -0.6225 -0.4053 -0.1784
 2297SOL    HW218354   0.796   0.245  13.682 -0.8355 -0.9178 -0.2331
 2298SOL     OW18355   4.139   0.824   5.921 -0.5730  0.6123  0.0311
 2298SOL    HW118356   4.218   0.783   5.955 -0.3269  1.3436  0.3402
 2298SOL    HW218357   4.077   0.752   5.917  0.1244  0.0501 -0.4981
 2299SOL     OW18358   2.476   0.143   3.141 -0.0914  0.2588 -0.0054
 2299SOL    HW118359   2.389   0.170   3.169  0.8182 -0.4399  3.4592
 2299SOL    HW218360   2.464   0.058   3.098 -2.0879  1.8198 -2.5424
 2300SOL     OW18361   3.780   0.059  12.964 -0.9520 -0.0905 -0.0174
 2300SOL    HW118362   3.704   0.071  13.021 -1.6293 -1.8901 -0.5323
 2300SOL    HW218363   3.830   0.002  13.022 -2.2281 -0.7187  0.4653
 2301SOL     OW18364   4.258   4.698  16.741  0.0004 -0.2392 -0.3469
 2301SOL    HW118365   4.196   4.638  16.698  2.1907 -0.9353 -2.4947
 2301SOL    HW218366   4.205   0.016  16.808  1.2928  1.2179 -0.2660
 2302SOL     OW18367   4.602   2.599   7.498 -0.1571  0.0293 -0.7251
 2302SOL    HW118368   4.653   2.558   7.429  1.6297 -0.5993  0.9598
 2302SOL    HW218369   4.524   2.543   7.501 -0.0242 -0.0854  0.9739
 2303SOL     OW18370   1.926   4.455   0.138  0.3241 -0.3668 -0.2033
 2303SOL    HW118371   1.991   4.411   0.083 -0.6784 -1.6944 -0.3079
 2303SOL    HW218372   1.948   4.545   0.115  0.7163 -0.4701 -0.2406
 2304SOL     OW18373   1.355   1.994   2.574  0.0126 -0.0449 -0.0922
 2304SOL    HW118374   1.298   2.071   2.564 -2.7032 -2.0405 -0.1847
 2304SOL    HW218375   1.397   1.986   2.488 -2.4966 -0.9399 -1.2652
 2305SOL     OW18376   4.671   4.342  13.713  0.3568 -0.1367  0.2458
 2305SOL    HW118377   4.719   4.369  13.634  0.5825  0.3521  0.5479
 2305SOL    HW218378   4.613   4.417  13.726  0.1099 -0.5128  1.3332
 2306SOL     OW18379   2.985   4.175  16.107 -0.0479  0.1328 -0.3173
 2306SOL    HW118380   2.904   4.150  16.153 -0.7388  1.5624 -0.7335
 2306SOL    HW218381   2.973   4.129  16.024 -0.7428 -0.5916  0.1770
 2307SOL     OW18382   0.090   0.967  15.871  0.1912  0.3504  0.4036
 2307SOL    HW118383   0.087   0.872  15.862  1.7888  0.4773 -1.2232
 2307SOL    HW218384   0.164   0.969  15.932 -1.4240 -2.2714  2.5023
 2308SOL     OW18385   3.580   3.425   6.863 -0.4416 -0.1226  0.6411
 2308SOL    HW118386   3.607   3.347   6.813 -0.3779 -0.3387  1.0142
 2308SOL    HW218387   3.648   3.427   6.930 -0.5835  0.2130  0.7715
 2309SOL     OW18388   1.277   3.478   6.693  0.4161  0.3442 -0.3632
 2309SOL    HW118389   1.289   3.433   6.777 -1.8039 -1.5255 -1.0416
 2309SOL    HW218390   1.342   3.545   6.715 -0.9852  1.9819 -1.2436
 2310SOL     OW18391   2.910   3.049   8.220  0.3131  0.2356  0.4997
 2310SOL    HW118392   2.848   3.084   8.157  1.0886  1.4108  0.3934
 2310SOL    HW218393   2.984   3.109   8.224 -0.3520  0.9280  2.2283
 2311SOL     OW18394   3.848   0.358  11.092  0.3216  0.3159 -0.3864
 2311SOL    HW118395   3.809   0.407  11.019 -1.0727 -0.7002 -0.3210
 2311SOL    HW218396   3.892   0.429  11.140  0.7516 -1.2186  1.4645
 2312SOL     OW18397   1.848   0.285   6.352 -0.0563 -0.8250  0.6241
 2312SOL    HW118398   1.858   0.358   6.414 -0.9090  1.1596 -1.5377
 2312SOL    HW218399   1.855   0.334   6.270 -0.0673 -0.7204  0.6848
 2313SOL     OW18400   3.503   2.981   7.057  0.5886 -0.1382 -0.1463
 2313SOL    HW118401   3.450   3.054   7.088  0.4903 -0.2308 -0.0951
 2313SOL    HW218402   3.476   2.922   7.127  1.8530  0.7880  1.1072
 2314SOL     OW18403   3.808   1.419  15.395  0.3663  0.1247  0.3022
 2314SOL    HW118404   3.863   1.496  15.407 -1.1543  0.6719  3.7486
 2314SOL    HW218405   3.809   1.378  15.482 -1.7083  2.6143  1.4885
 2315SOL     OW18406   4.473   1.448  12.318  0.6087  0.2233 -0.2141
 2315SOL    HW118407   4.486   1.508  12.245 -1.1092 -0.8350 -1.3851
 2315SOL    HW218408   4.506   1.503  12.389 -0.6622  1.2006 -0.3874
 2316SOL     OW18409   3.277   2.400  16.271 -0.1504  0.6945 -0.3954
 2316SOL    HW118410   3.236   2.481  16.302 -0.1973  0.8057 -0.7563
 2316SOL    HW218411   3.333   2.435  16.202 -0.3574 -1.1951 -1.5014
 2317SOL     OW18412   3.917   3.245   8.863  0.0607  0.1010 -0.5719
 2317SOL    HW118413   3.899   3.272   8.953 -0.2017 -0.4473 -0.4602
 2317SOL    HW218414   4.005   3.282   8.856 -0.1279  0.8621  1.1291
 2318SOL     OW18415   1.291   0.522   8.585 -0.1749 -0.7600  0.2975
 2318SOL    HW118416   1.216   0.560   8.541  1.4132  1.1139 -0.7990
 2318SOL    HW218417   1.249   0.518   8.671 -1.2643  0.8233 -0.1750
 2319SOL     OW18418   0.780   3.465   8.714  0.1207  0.1634  0.1293
 2319SOL    HW118419   0.814   3.433   8.798  2.0029  0.1052 -0.6589
 2319SOL    HW218420   0.844   3.535   8.698 -2.3677  2.2309 -0.6272
 2320SOL     OW18421   4.494   4.011   3.472  0.5585  0.2804  0.6466
 2320SOL    HW118422   4.488   3.994   3.378 -1.3133 -2.9894  1.3569
 2320SOL    HW218423   4.554   3.940   3.496 -1.5949 -1.9804 -0.5866
 2321SOL     OW18424   3.250   3.183   3.453 -0.1284  0.0331  0.3687
 2321SOL    HW118425   3.302   3.257   3.482  0.0977 -0.1314  0.3806
 2321SOL    HW218426   3.165   3.209   3.489 -1.0748 -1.5699 -0.6805
 2322SOL     OW18427   0.371   1.623   6.818  0.4815  0.0257  0.4184
 2322SOL    HW118428   0.294   1.674   6.843  0.1087  0.8241 -2.3423
 2322SOL    HW218429   0.452   1.668   6.841  0.8541 -1.4673  1.9860
 2323SOL     OW18430   2.626   1.012   1.070 -0.5282  0.8739 -0.0486
 2323SOL    HW118431   2.566   1.020   0.996 -0.2462 -1.2589 -0.5192
 2323SOL    HW218432   2.619   1.103   1.100 -2.4342  0.7284 -0.0520
 2324SOL     OW18433   0.850   4.468  13.439  0.0345  0.0184  0.1860
 2324SOL    HW118434   0.755   4.475  13.428  0.1479  0.8740 -0.2536
 2324SOL    HW218435   0.878   4.418  13.362 -0.0736  0.2424  0.0027
 2325SOL     OW18436   0.820   3.528   8.228 -0.0603 -0.0550  0.3075
 2325SOL    HW118437   0.752   3.580   8.184 -1.1287 -1.7316 -0.0168
 2325SOL    HW218438   0.790   3.531   8.319 -1.5932 -1.0555 -0.1832
 2326SOL     OW18439   1.020   2.010   6.704 -0.2163 -0.3277  0.4019
 2326SOL    HW118440   1.045   2.093   6.665 -1.7674  0.0837  0.2510
 2326SOL    HW218441   1.091   1.951   6.679 -0.6724 -0.2568 -1.0682
 2327SOL     OW18442   2.599   0.567  11.046  0.0331 -0.2315  0.0169
 2327SOL    HW118443   2.532   0.516  11.092 -0.0500  1.8441  2.1702
 2327SOL    HW218444   2.641   0.613  11.118  0.4062  2.6755 -2.0399
 2328SOL     OW18445   1.404   0.546   2.221  0.3157 -0.1324  0.1887
 2328SOL    HW118446   1.356   0.628   2.210 -0.6122 -0.1007  4.4627
 2328SOL    HW218447   1.477   0.550   2.160 -0.8135  1.0024 -1.0556
 2329SOL     OW18448   0.915   2.106   1.399 -0.1905 -0.3126  0.2346
 2329SOL    HW118449   0.882   2.110   1.309 -0.1035 -0.0113  0.2184
 2329SOL    HW218450   0.853   2.163   1.444  1.4947 -0.4098  2.6799
 2330SOL     OW18451   4.579   4.526   8.981  0.4893 -0.6077 -0.1273
 2330SOL    HW118452   4.634   4.453   9.011  0.8357 -0.6197 -0.7805
 2330SOL    HW218453   4.489   4.498   8.995  0.5575 -0.8735 -0.2229
 2331SOL     OW18454   0.004   4.486  14.135 -0.0096  0.0245 -0.8428
 2331SOL    HW118455   4.633   4.487  14.137  0.0271  1.6240  0.3553
 2331SOL    HW218456   0.023   4.577  14.113  3.2604  0.1550  2.4276
 2332SOL     OW18457   3.311   0.623   7.007 -0.0061 -0.1190  0.0391
 2332SOL    HW118458   3.336   0.714   6.994  1.6673 -0.2589  2.3980
 2332SOL    HW218459   3.280   0.612   6.917 -1.4374 -1.6632  0.7199
 2333SOL     OW18460   4.721   3.543   2.304 -0.0963  0.3914  0.7292
 2333SOL    HW118461   4.669   3.464   2.314 -0.5988  0.5440 -0.6390
 2333SOL    HW218462   4.678   3.587   2.377 -0.7557  1.4107 -0.2664
 2334SOL     OW18463   4.129   3.642  10.187 -0.1750  0.2358 -0.0047
 2334SOL    HW118464   4.040   3.666  10.159 -0.1465 -1.5665 -1.6290
 2334SOL    HW218465   4.113   3.575  10.253  2.4494 -0.2582  0.1268
 2335SOL     OW18466   4.267   4.704   5.598 -0.1186  0.0752 -0.0828
 2335SOL    HW118467   4.272   0.047   5.666  2.3286 -1.5637  1.3795
 2335SOL    HW218468   4.210   4.645   5.646  0.7288 -1.4890 -1.0161
 2336SOL     OW18469   1.686   0.367  13.991  0.4810 -0.1313  0.1085
 2336SOL    HW118470   1.778   0.366  14.018 -0.1145  0.2979  2.1018
 2336SOL    HW218471   1.636   0.348  14.070 -1.4402  0.2476 -1.0280
 2337SOL     OW18472   0.411   3.724  17.304 -0.0356  0.7997 -0.0476
 2337SOL    HW118473   0.347   3.704  17.235 -0.2078 -1.7400  0.8806
 2337SOL    HW218474   0.441   3.644  17.346 -1.4049  0.1345 -0.3510
 2338SOL     OW18475   1.999   0.059   8.411 -0.1899  0.0747 -0.3018
 2338SOL    HW118476   2.062   0.114   8.459 -0.0923  1.3558 -1.9026
 2338SOL    HW218477   1.951   0.046   8.493 -0.3516  0.5666 -0.3145
 2339SOL     OW18478   2.137   1.217  13.562  0.2705 -0.4674  0.4863
 2339SOL    HW118479   2.197   1.277  13.518  0.6435  0.9554  2.9524
 2339SOL    HW218480   2.184   1.135  13.549  3.6196  0.9977  3.3007
 2340SOL     OW18481   1.576   2.811   4.707 -0.4743 -0.0356 -0.4639
 2340SOL    HW118482   1.617   2.846   4.786 -2.1454 -0.7209  0.7049
 2340SOL    HW218483   1.483   2.816   4.730 -0.4939 -0.7949 -0.3636
 2341SOL     OW18484   0.508   1.195   8.138  0.1280 -0.0658  0.1773
 2341SOL    HW118485   0.507   1.129   8.207  0.2561  2.0163  2.2113
 2341SOL    HW218486   0.575   1.257   8.168 -0.9636  0.2878  1.9018
 2342SOL     OW18487   2.134   0.211  16.835 -0.4821 -0.3070 -0.5006
 2342SOL    HW118488   2.049   0.247  16.859  1.0038  1.7043  1.7278
 2342SOL    HW218489   2.163   0.152  16.904 -1.6066 -0.7898 -0.4472
 2343SOL     OW18490   1.576   1.901   0.141  0.1298  0.2968  0.1853
 2343SOL    HW118491   1.530   1.885   0.058 -3.0411  1.4744  1.6964
 2343SOL    HW218492   1.510   1.963   0.173 -0.9496 -1.2578  0.9712
 2344SOL     OW18493   0.528   1.125   8.428  0.8588  0.0503 -0.0792
 2344SOL    HW118494   0.515   1.072   8.507  0.1855 -0.7630 -0.7352
 2344SOL    HW218495   0.583   1.198   8.456 -0.5433  1.4128 -0.8720
 2345SOL     OW18496   2.069   2.909   7.417 -0.6463 -0.2209 -0.1361
 2345SOL    HW118497   2.042   2.902   7.325  0.5327  0.0084 -0.4903
 2345SOL    HW218498   2.111   2.995   7.415 -0.7668 -0.2201 -2.4766
 2346SOL     OW18499   2.111   4.114  16.428  0.0826  0.4379  0.4986
 2346SOL    HW118500   2.166   4.093  16.503  2.0285 -1.2875 -1.4308
 2346SOL    HW218501   2.028   4.129  16.474 -0.2990  0.3287 -0.1534
 2347SOL     OW18502   1.389   2.446   8.843  0.3975 -0.6315 -0.0062
 2347SOL    HW118503   1.345   2.362   8.850 -2.3682  0.7544 -0.7984
 2347SOL    HW218504   1.366   2.492   8.924  2.2058  2.0665 -1.0054
 2348SOL     OW18505   2.413   2.766   5.858  0.4741 -0.2390 -0.0265
 2348SOL    HW118506   2.331   2.787   5.903  0.4123 -1.4230  0.4154
 2348SOL    HW218507   2.426   2.835   5.794 -1.6303 -0.4278 -0.6439
 2349SOL     OW18508   1.569   1.610   2.240  0.1258 -0.0127 -0.1489
 2349SOL    HW118509   1.477   1.589   2.222 -0.0946 -0.2026  1.1381
 2349SOL    HW218510   1.619   1.572   2.168 -1.3102 -1.5390 -0.3494
 2350SOL     OW18511   4.140   3.374   6.361 -0.3657 -0.1232  0.0291
 2350SOL    HW118512   4.050   3.405   6.367 -0.3922 -0.4698  1.4444
 2350SOL    HW218513   4.146   3.325   6.279 -3.0005  0.6022 -0.5778
 2351SOL     OW18514   1.335   1.273   6.404  0.2098  0.2498  0.2444
 2351SOL    HW118515   1.419   1.237   6.377 -0.7329  1.0050 -3.8354
 2351SOL    HW218516   1.287   1.194   6.428 -0.1224  0.2988 -0.2438
 2352SOL     OW18517   1.003   2.713   6.139  0.7372  0.4741 -0.2162
 2352SOL    HW118518   1.061   2.731   6.213  0.8052 -0.3698 -0.0627
 2352SOL    HW218519   1.017   2.793   6.088 -0.7289  0.3192 -0.8837
 2353SOL     OW18520   2.097   2.925   2.330  0.2918 -0.2587  0.3045
 2353SOL    HW118521   2.130   2.949   2.243 -0.6427  0.6208  0.1811
 2353SOL    HW218522   2.181   2.920   2.375  0.4409 -2.0881 -0.2087
 2354SOL     OW18523   0.524   1.249   4.433  0.1344 -0.0845 -0.1047
 2354SOL    HW118524   0.542   1.217   4.521 -1.6110 -2.3897 -0.6037
 2354SOL    HW218525   0.497   1.171   4.384 -1.6867 -0.6539  1.8162
 2355SOL     OW18526   2.129   0.507   6.831 -0.7467 -0.4426 -0.1594
 2355SOL    HW118527   2.046   0.554   6.839 -0.6518 -0.6635  2.0344
 2355SOL    HW218528   2.175   0.556   6.763 -1.7869  0.0917 -0.4815
 2356SOL     OW18529   3.572   4.180   7.649  0.3231 -0.5844 -0.1931
 2356SOL    HW118530   3.493   4.127   7.636  0.1836  0.2049 -2.4333
 2356SOL    HW218531   3.633   4.110   7.627 -0.9910 -1.1141 -2.1969
 2357SOL     OW18532   3.949   1.481   6.241  0.3119 -0.9129 -0.2897
 2357SOL    HW118533   4.014   1.416   6.214  0.5928 -0.2168 -1.2841
 2357SOL    HW218534   3.891   1.431   6.299  1.4835  1.1770  2.6648
 2358SOL     OW18535   2.210   3.979   3.542 -0.8077 -0.0353 -0.1487
 2358SOL    HW118536   2.160   4.042   3.490  1.6255  2.0586  0.0245
 2358SOL    HW218537   2.235   3.921   3.469 -0.2522  1.3871 -1.0876
 2359SOL     OW18538   0.657   4.548   4.368 -0.1861  0.2112 -0.1694
 2359SOL    HW118539   0.679   4.509   4.283 -1.4189  0.7028 -0.7074
 2359SOL    HW218540   0.573   4.586   4.344 -0.5783  1.3327  3.0194
 2360SOL     OW18541   3.568   3.111   4.972  0.8065  0.4592 -0.5404
 2360SOL    HW118542   3.625   3.034   4.979  2.1729  1.6533  1.3536
 2360SOL    HW218543   3.478   3.082   4.957  1.0149 -0.4381 -0.0584
 2361SOL     OW18544   1.077   0.779   1.648 -0.1067 -0.4405  0.0953
 2361SOL    HW118545   1.154   0.784   1.706 -1.0306 -1.2955  1.3990
 2361SOL    HW218546   1.041   0.694   1.672 -0.2863 -0.4123 -0.0855
 2362SOL     OW18547   0.540   2.783   6.450  0.7010 -0.3817  0.2507
 2362SOL    HW118548   0.452   2.782   6.486  0.4789  0.8278 -0.2649
 2362SOL    HW218549   0.580   2.870   6.445 -2.0014  0.8277  0.0432
 2363SOL     OW18550   2.556   4.562   8.692  0.7265  0.0131  0.4031
 2363SOL    HW118551   2.627   4.608   8.736  1.1925 -0.0986 -0.2238
 2363SOL    HW218552   2.604   4.536   8.613  0.7851 -0.1935  0.5064
 2364SOL     OW18553   1.079   2.519  15.651 -0.3307 -0.1618 -0.4642
 2364SOL    HW118554   1.055   2.598  15.698  1.9188 -0.6469  1.5125
 2364SOL    HW218555   1.056   2.550  15.563 -3.8118  0.5296  0.7002
 2365SOL     OW18556   4.289   1.298   7.043  0.2736  0.0235 -0.2909
 2365SOL    HW118557   4.244   1.358   7.103 -0.5575 -0.7767 -0.1198
 2365SOL    HW218558   4.252   1.333   6.962 -0.5053 -2.0235 -0.8257
 2366SOL     OW18559   3.511   3.094  10.273  0.0449 -0.0098 -0.2560
 2366SOL    HW118560   3.490   3.018  10.327 -1.1470 -0.2141 -0.9898
 2366SOL    HW218561   3.602   3.068  10.263 -0.5363 -1.8700 -0.7280
 2367SOL     OW18562   2.139   4.313   2.006 -0.6455  0.3245  0.3720
 2367SOL    HW118563   2.174   4.313   1.917 -0.5067 -0.9965  0.4266
 2367SOL    HW218564   2.214   4.293   2.062  0.3697 -1.6233 -1.6869
 2368SOL     OW18565   4.713   2.326   1.475  0.2099  0.6600 -0.5732
 2368SOL    HW118566   0.067   2.379   1.490  0.3102  0.5425 -0.6826
 2368SOL    HW218567   4.718   2.288   1.563 -0.8429 -2.4732 -1.8677
 2369SOL     OW18568   3.240   3.257  13.204 -0.3316  0.0802 -0.3833
 2369SOL    HW118569   3.278   3.198  13.139 -2.5794 -2.2837  0.4020
 2369SOL    HW218570   3.157   3.281  13.162 -0.7614  0.8139  0.8971
 2370SOL     OW18571   4.634   3.349   6.866 -0.2974  0.2026 -0.3809
 2370SOL    HW118572   4.549   3.353   6.911 -0.1503 -0.8253 -0.0130
 2370SOL    HW218573   4.613   3.376   6.776 -1.2357 -1.3310 -0.6223
 2371SOL     OW18574   4.345   0.408  17.372  0.9118  0.2713  0.3803
 2371SOL    HW118575   4.400   0.426  17.448 -2.9684  1.8162  2.8414
 2371SOL    HW218576   4.272   0.470  17.379  0.3741 -0.3202  0.0996
 2372SOL     OW18577   3.616   4.074   3.235  0.1169 -0.0097  0.0584
 2372SOL    HW118578   3.630   4.045   3.145  0.9503 -1.1336  0.5489
 2372SOL    HW218579   3.585   4.164   3.226  1.9301  0.6512  0.4201
 2373SOL     OW18580   2.608   2.156   3.656 -0.0605 -0.3550 -0.1992
 2373SOL    HW118581   2.651   2.075   3.630  1.7572  0.1456  1.2562
 2373SOL    HW218582   2.523   2.132   3.693  0.5747  0.8881  2.0725
 2374SOL     OW18583   3.936   3.595   8.207  0.3192  0.1763  0.6744
 2374SOL    HW118584   3.913   3.617   8.297  1.2570  1.8352  0.5058
 2374SOL    HW218585   4.031   3.606   8.210  0.0925  1.9351  1.4857
 2375SOL     OW18586   0.498   1.907   4.195  0.1702 -0.1317 -0.5058
 2375SOL    HW118587   0.422   1.849   4.204 -0.4855  1.0848  1.8091
 2375SOL    HW218588   0.565   1.844   4.168  0.4449 -0.0384 -0.0429
 2376SOL     OW18589   1.498   4.649   7.798 -0.0576 -0.1352  0.1331
 2376SOL    HW118590   1.475   0.017   7.806 -0.8289 -0.3560  0.5291
 2376SOL    HW218591   1.542   4.628   7.880 -0.0616  2.5438  0.8067
 2377SOL     OW18592   0.727   4.153  17.059 -0.0320  0.0547  0.1557
 2377SOL    HW118593   0.695   4.098  17.131 -0.1752 -0.9699 -0.6972
 2377SOL    HW218594   0.665   4.119  16.994 -1.0744  1.4336  0.4385
 2378SOL     OW18595   1.482   3.320   2.995 -0.0668  0.2737 -0.5248
 2378SOL    HW118596   1.529   3.401   2.975  1.6631 -0.7139 -0.4714
 2378SOL    HW218597   1.406   3.336   2.940  0.6529  2.8281 -0.8131
 2379SOL     OW18598   0.253   1.454   1.596 -0.5110 -0.1931 -0.0176
 2379SOL    HW118599   0.336   1.414   1.621 -0.9334 -1.3019 -0.3768
 2379SOL    HW218600   0.281   1.481   1.509 -0.8172  0.1109 -0.0192
 2380SOL     OW18601   4.675   2.332  11.350  0.3362 -0.1467  0.0687
 2380SOL    HW118602   4.603   2.353  11.291  1.0350  1.4918 -0.2123
 2380SOL    HW218603   0.007   2.406  11.328 -0.4889  0.6279  0.5303
 2381SOL     OW18604   2.874   4.413   5.572  0.1821 -0.4433  0.0932
 2381SOL    HW118605   2.923   4.495   5.566  1.4055 -0.9946  2.4916
 2381SOL    HW218606   2.945   4.354   5.545  1.2484  0.0169  1.8579
 2382SOL     OW18607   0.780   3.895   2.039  0.4293  0.3090  0.3831
 2382SOL    HW118608   0.827   3.947   1.973  1.2516  0.8811  1.4366
 2382SOL    HW218609   0.704   3.866   1.989  0.9542  1.2125 -0.9483
 2383SOL     OW18610   0.020   1.381   5.789  0.0041 -0.1838 -0.1457
 2383SOL    HW118611   0.017   1.322   5.864  5.4414  0.6845  0.7584
 2383SOL    HW218612   4.671   1.342   5.743 -0.5408 -1.5253  1.8642
 2384SOL     OW18613   0.558   0.184   6.141  0.7498 -0.0781 -0.7180
 2384SOL    HW118614   0.478   0.196   6.089 -0.1869  1.2506  1.0081
 2384SOL    HW218615   0.522   0.147   6.222  1.5937 -0.7092 -0.6406
 2385SOL     OW18616   3.656   0.657   0.595 -0.6950  0.1877 -0.5952
 2385SOL    HW118617   3.691   0.695   0.676 -1.5023 -0.4104  0.0377
 2385SOL    HW218618   3.738   0.641   0.548  0.5589  2.7315  0.7000
 2386SOL     OW18619   2.447   2.611   8.015 -0.5758  0.8321  0.1315
 2386SOL    HW118620   2.469   2.561   8.093 -3.6360  0.5433  0.8027
 2386SOL    HW218621   2.509   2.579   7.949  1.0851  2.2920  0.9803
 2387SOL     OW18622   1.558   0.215  16.072  0.1240 -0.0886 -0.3639
 2387SOL    HW118623   1.542   0.278  16.142  0.9405  0.6523 -0.8413
 2387SOL    HW218624   1.585   0.276  16.003  0.8875 -2.7554 -2.4088
 2388SOL     OW18625   1.297   0.895  12.565 -0.1989 -0.1410 -0.5688
 2388SOL    HW118626   1.322   0.972  12.617  0.3006  0.3014 -1.4562
 2388SOL    HW218627   1.304   0.830  12.635 -1.0245  0.1729 -0.2048
 2389SOL     OW18628   3.349   2.580   7.888  0.2664 -0.6722 -0.2727
 2389SOL    HW118629   3.276   2.640   7.875  1.9730  1.1637 -1.4548
 2389SOL    HW218630   3.313   2.492   7.887 -0.4257 -0.4153  1.4878
 2390SOL     OW18631   0.114   2.659   4.676 -0.3863  0.8805  0.3472
 2390SOL    HW118632   0.133   2.737   4.624  2.0822  0.0834  0.0820
 2390SOL    HW218633   0.068   2.601   4.615  1.2163  1.0200 -0.9827
 2391SOL     OW18634   2.183   0.576  12.798  0.0170  0.1055  0.5050
 2391SOL    HW118635   2.265   0.529  12.789 -0.6967 -0.8388 -1.0960
 2391SOL    HW218636   2.141   0.521  12.864  0.4717 -1.8442 -0.8511
 2392SOL     OW18637   1.666   4.108   0.288 -0.6582 -0.4264 -0.2188
 2392SOL    HW118638   1.586   4.056   0.286 -1.3483  0.6340  0.1400
 2392SOL    HW218639   1.718   4.044   0.337  1.3676  2.4254  1.3791
 2393SOL     OW18640   3.284   2.610   6.688 -0.0985  0.0407 -0.0383
 2393SOL    HW118641   3.352   2.542   6.693 -1.2662 -0.7355  5.3370
 2393SOL    HW218642   3.337   2.681   6.652  1.0804 -0.4958  0.6095
 2394SOL     OW18643   1.018   2.741   7.850  0.1819  0.8513 -0.6687
 2394SOL    HW118644   1.053   2.776   7.768 -1.5658  0.7697 -1.4341
 2394SOL    HW218645   1.048   2.806   7.914 -0.0578  1.5471 -1.2727
 2395SOL     OW18646   4.436   0.540   6.942 -0.3891 -0.5708  0.3741
 2395SOL    HW118647   4.413   0.631   6.926  0.3251 -0.4350  0.1264
 2395SOL    HW218648   4.465   0.518   6.853 -3.5158  0.6606 -0.9353
 2396SOL     OW18649   3.909   4.135   8.262  0.1000 -0.1432 -0.2534
 2396SOL    HW118650   3.906   4.223   8.300 -1.4078 -0.4090  0.2571
 2396SOL    HW218651   3.972   4.091   8.320  0.2279  0.0988 -0.2103
 2397SOL     OW18652   3.963   3.256   3.844  0.4179  0.1891  0.1319
 2397SOL    HW118653   4.033   3.258   3.908  0.2472 -0.3155  0.3364
 2397SOL    HW218654   3.957   3.350   3.826 -1.8764 -0.1551 -0.9654
 2398SOL     OW18655   1.464   0.637   1.935  0.5093  0.0274 -0.4186
 2398SOL    HW118656   1.511   0.716   1.959  0.4011  0.1699 -0.6751
 2398SOL    HW218657   1.471   0.634   1.839 -1.4199 -1.1903 -0.5369
 2399SOL     OW18658   2.232   3.440   0.638 -0.1423 -0.3190 -0.2674
 2399SOL    HW118659   2.244   3.348   0.616 -0.7875 -0.2294 -1.0040
 2399SOL    HW218660   2.272   3.489   0.566  1.0678 -0.8335  0.0667
 2400SOL     OW18661   2.731   4.429   7.922  0.6498 -0.4287 -0.3580
 2400SOL    HW118662   2.701   4.409   8.011 -0.2356 -0.3788 -0.6537
 2400SOL    HW218663   2.731   4.524   7.935 -0.0697 -0.3537 -0.9337
 2401SOL     OW18664   2.965   2.788   4.144 -0.8897 -0.4293 -0.0658
 2401SOL    HW118665   2.950   2.712   4.088 -1.7345 -0.0564 -0.3503
 2401SOL    HW218666   2.880   2.784   4.189 -0.9012  1.6305  0.1007
 2402SOL     OW18667   2.392   0.899  13.039 -0.3200 -0.1390  0.4589
 2402SOL    HW118668   2.487   0.890  13.035 -0.0692  2.9887 -0.5393
 2402SOL    HW218669   2.377   0.947  12.958 -1.3294 -0.2547  0.5691
 2403SOL     OW18670   0.226   1.414   2.302  0.1570  0.1284  0.2131
 2403SOL    HW118671   0.281   1.489   2.326 -1.0957  0.9866  0.3593
 2403SOL    HW218672   0.159   1.452   2.246  1.1450  1.1866 -0.2579
 2404SOL     OW18673   2.134   4.377   8.591  0.2184 -0.3023  0.1383
 2404SOL    HW118674   2.207   4.409   8.644 -0.8226 -0.8387  1.9000
 2404SOL    HW218675   2.183   4.322   8.530 -0.8673 -1.4483  0.3123
 2405SOL     OW18676   1.826   2.611   5.880 -0.1080  0.0524 -0.3726
 2405SOL    HW118677   1.776   2.657   5.947  0.2648  0.4433 -0.3688
 2405SOL    HW218678   1.888   2.561   5.933  0.7782 -0.8857 -2.2863
 2406SOL     OW18679   1.092   3.956   8.964 -0.2037 -0.3544 -0.1935
 2406SOL    HW118680   1.131   3.902   9.033  0.7978  0.8553  0.1942
 2406SOL    HW218681   1.000   3.965   8.990 -0.2800  1.8090 -1.2047
 2407SOL     OW18682   2.831   1.878   0.202  0.5708 -0.3226  0.2854
 2407SOL    HW118683   2.813   1.877   0.108 -1.3264  1.6600  0.6070
 2407SOL    HW218684   2.888   1.806   0.227 -0.0364 -0.9732 -0.2048
 2408SOL     OW18685   2.351   2.768  12.576  0.8108  0.4642 -0.3105
 2408SOL    HW118686   2.345   2.773  12.481  0.7085  0.6695 -0.2940
 2408SOL    HW218687   2.446   2.760  12.582  0.8605  0.8021 -0.6074
 2409SOL     OW18688   2.248   0.888   5.730  0.3753 -0.2105  0.2828
 2409SOL    HW118689   2.230   0.825   5.660  0.1171  1.9241 -1.5660
 2409SOL    HW218690   2.330   0.851   5.763  0.6229  0.3930  0.3308
 2410SOL     OW18691   2.348   2.576  11.969 -0.1892  0.6620 -0.3345
 2410SOL    HW118692   2.365   2.578  12.063 -1.1066 -2.7206 -0.0902
 2410SOL    HW218693   2.403   2.500  11.952 -0.6856  1.0148 -3.5635
 2411SOL     OW18694   1.389   2.339  15.513 -0.2572  0.0544 -0.2700
 2411SOL    HW118695   1.308   2.361  15.467  0.6837  0.0525 -1.9610
 2411SOL    HW218696   1.417   2.277  15.445  2.2550  2.7682 -1.7067
 2412SOL     OW18697   0.895   0.263  16.972  0.1655  0.3829  0.1622
 2412SOL    HW118698   0.825   0.202  16.994  0.7363 -0.6163 -0.7994
 2412SOL    HW218699   0.862   0.343  17.013 -1.2850  0.1608 -0.5784
 2413SOL     OW18700   0.627   4.625   2.277  0.6645 -0.0726  0.6038
 2413SOL    HW118701   0.559   4.565   2.309  0.2089 -0.2876 -0.7792
 2413SOL    HW218702   0.697   4.594   2.335 -0.4123 -0.8441  1.5042
 2414SOL     OW18703   1.828   3.847   4.455  0.0065  0.2397  0.5499
 2414SOL    HW118704   1.843   3.814   4.544  2.0005  1.9946  0.8525
 2414SOL    HW218705   1.916   3.847   4.415 -0.1869 -1.8914  0.1022
 2415SOL     OW18706   0.307   0.643   3.415  0.1714  0.1799  0.2502
 2415SOL    HW118707   0.360   0.576   3.458 -2.1171 -1.2257  0.9074
 2415SOL    HW218708   0.345   0.721   3.455 -0.4732 -0.3456  1.8689
 2416SOL     OW18709   2.272   2.208   9.083 -0.1240  0.3539  0.1943
 2416SOL    HW118710   2.285   2.211   9.178  0.1140 -0.5644  0.1916
 2416SOL    HW218711   2.291   2.296   9.051 -0.3164 -0.6299 -2.6087
 2417SOL     OW18712   0.071   4.272   4.988 -0.5305  0.0667 -0.2365
 2417SOL    HW118713   0.077   4.289   4.894  2.1212  0.6623  0.0617
 2417SOL    HW218714   0.022   4.190   4.992  0.4149 -0.4177  1.3973
 2418SOL     OW18715   3.426   3.655   6.375  0.1507 -0.0680  0.1642
 2418SOL    HW118716   3.488   3.698   6.317 -0.0355  1.6314  1.2074
 2418SOL    HW218717   3.479   3.642   6.454 -0.2565  0.7680  0.5762
 2419SOL     OW18718   0.039   1.206   3.370 -0.2083 -0.3802  0.0657
 2419SOL    HW118719   4.695   1.227   3.306  0.9605 -0.1921 -1.1318
 2419SOL    HW218720   0.115   1.251   3.333 -0.9685  1.9246  1.2825
 2420SOL     OW18721   1.476   2.956  14.811  0.2081  0.2681  0.2336
 2420SOL    HW118722   1.383   2.978  14.814  0.2113  0.4910 -1.4282
 2420SOL    HW218723   1.473   2.863  14.791 -1.1414  0.6041 -1.0722
 2421SOL     OW18724   1.816   1.778   2.078 -0.4852  0.4017  0.2873
 2421SOL    HW118725   1.764   1.833   2.137 -0.0222  0.2846  0.8066
 2421SOL    HW218726   1.752   1.719   2.039  0.6753 -1.4875  1.2253
 2422SOL     OW18727   2.796   2.795   7.410  0.0057 -0.0416 -0.0240
 2422SOL    HW118728   2.794   2.862   7.479  1.7170  1.3965 -1.3603
 2422SOL    HW218729   2.717   2.744   7.425  0.2526 -1.0416 -2.1365
 2423SOL     OW18730   1.272   3.241   7.615 -0.3543  0.0330  0.6185
 2423SOL    HW118731   1.240   3.156   7.644 -0.3798 -0.5573 -1.1005
 2423SOL    HW218732   1.330   3.263   7.687  1.5469 -0.9561 -0.5963
 2424SOL     OW18733   4.145   0.803  17.662 -0.1204  0.1946  0.3348
 2424SOL    HW118734   4.219   0.862  17.673  0.2205 -0.1915  0.0969
 2424SOL    HW218735   4.129   0.782   0.054  1.4771 -3.1647 -0.1703
 2425SOL     OW18736   1.924   3.968   8.031 -0.0774 -0.4468  0.1417
 2425SOL    HW118737   1.845   3.938   8.077  0.1550 -0.9034  0.2403
 2425SOL    HW218738   1.920   3.902   7.963  1.2552 -0.6696  0.2832
 2426SOL     OW18739   0.530   2.864   7.504 -0.3341  0.2892 -0.6554
 2426SOL    HW118740   0.488   2.791   7.459 -2.1673 -0.3103  2.0201
 2426SOL    HW218741   0.518   2.943   7.452  1.6705  0.2548 -1.2042
 2427SOL     OW18742   1.078   2.304  15.046 -0.0341  0.3299  0.2962
 2427SOL    HW118743   1.014   2.233  15.040  0.2649  0.2368 -1.7349
 2427SOL    HW218744   1.089   2.320  14.952  0.4522 -0.1444  0.2648
 2428SOL     OW18745   1.353   2.051   1.894  0.0256 -0.4620 -0.1602
 2428SOL    HW118746   1.373   2.013   1.808  1.3746 -3.3473  1.4475
 2428SOL    HW218747   1.338   1.970   1.943  0.3627  0.3419  1.2688
 2429SOL     OW18748   2.612   3.131   2.369 -0.3189 -0.0940 -0.3773
 2429SOL    HW118749   2.555   3.082   2.310  1.7666 -1.3382 -1.3427
 2429SOL    HW218750   2.604   3.070   2.443 -0.0148 -1.4794 -1.4946
 2430SOL     OW18751   3.204   2.770   0.853 -0.0240 -0.0243 -0.2623
 2430SOL    HW118752   3.153   2.815   0.920  0.9003  1.8332 -0.8174
 2430SOL    HW218753   3.202   2.680   0.885  0.7632  0.5596  1.4012
 2431SOL     OW18754   0.728   0.775   8.005 -0.3521 -0.0731  0.8092
 2431SOL    HW118755   0.742   0.779   7.910  0.8043 -1.9034  0.8999
 2431SOL    HW218756   0.679   0.857   8.017 -0.1502  0.2154 -0.3083
 2432SOL     OW18757   0.175   0.326   6.488  0.2256  0.9071  0.0629
 2432SOL    HW118758   0.244   0.303   6.550 -0.8600  1.0143  1.3369
 2432SOL    HW218759   0.160   0.414   6.522 -2.1735  0.3875  0.3594
 2433SOL     OW18760   4.025   2.640   7.155 -0.1712  0.2467  0.2019
 2433SOL    HW118761   4.084   2.653   7.230  0.3383 -1.4447  0.0863
 2433SOL    HW218762   3.944   2.638   7.207 -1.9414  1.2082 -2.4837
 2434SOL     OW18763   0.828   2.173  14.568  0.1599 -0.5278 -0.4582
 2434SOL    HW118764   0.924   2.179  14.568  0.3510 -3.5849  0.8293
 2434SOL    HW218765   0.806   2.109  14.636  0.0748 -1.3642 -1.2740
 2435SOL     OW18766   2.601   4.572   1.291 -0.1995  0.2596  0.0217
 2435SOL    HW118767   2.666   4.511   1.257 -1.8740 -0.7670 -1.3320
 2435SOL    HW218768   2.615   4.546   1.382  0.8384  1.3022  0.1467
 2436SOL     OW18769   4.075   0.347   3.221  0.6914  0.2966 -0.0694
 2436SOL    HW118770   4.085   0.348   3.126 -0.1818  0.9347 -0.1551
 2436SOL    HW218771   3.980   0.352   3.230  0.5426  0.9561 -2.1104
 2437SOL     OW18772   0.196   1.765   2.399 -0.0320 -0.0264  0.0897
 2437SOL    HW118773   0.242   1.727   2.474 -0.2874  0.1489  0.3341
 2437SOL    HW218774   0.182   1.690   2.341  2.1283  0.0719 -0.5669
 2438SOL     OW18775   0.212   4.668   3.496  0.6040 -0.0077 -0.4758
 2438SOL    HW118776   0.169   4.640   3.415  0.0225  2.0678 -0.8733
 2438SOL    HW218777   0.224   0.036   3.476  3.0290 -0.2275 -0.0662
 2439SOL     OW18778   4.267   4.231   7.957  0.0436 -0.3392  0.5535
 2439SOL    HW118779   4.266   4.264   8.046  0.8004 -0.9034  0.7711
 2439SOL    HW218780   4.177   4.201   7.942 -0.6762  2.2267 -0.3450
 2440SOL     OW18781   1.208   4.353   3.638 -0.0533  0.1754  0.0968
 2440SOL    HW118782   1.300   4.372   3.619  0.2662 -1.2337  0.1923
 2440SOL    HW218783   1.193   4.428   3.695  1.6000  0.3397  0.3059
 2441SOL     OW18784   0.796   2.468  11.713 -0.0012 -0.2262  0.0258
 2441SOL    HW118785   0.872   2.506  11.669  0.0356 -1.0007 -0.5654
 2441SOL    HW218786   0.767   2.545  11.762  0.4693  0.6753 -1.1148
 2442SOL     OW18787   3.722   2.870   6.077 -0.2681  0.1660 -0.7386
 2442SOL    HW118788   3.656   2.821   6.128  1.6000 -0.4961  1.0413
 2442SOL    HW218789   3.805   2.822   6.077  0.8867  2.1755  1.0918
 2443SOL     OW18790   0.032   1.942   1.990  0.2592 -0.2572 -0.1154
 2443SOL    HW118791   0.115   1.927   1.945 -0.1324  2.1463 -1.6433
 2443SOL    HW218792   4.717   1.864   1.951 -1.4188  0.9962 -0.9075
 2444SOL     OW18793   2.180   0.428   2.179  0.3623 -0.2912 -0.3273
 2444SOL    HW118794   2.182   0.335   2.155 -1.1765 -0.6522  0.9554
 2444SOL    HW218795   2.119   0.461   2.113 -0.9454 -0.0975  0.9974
 2445SOL     OW18796   1.579   2.657   3.714 -0.3924  0.7116  0.4372
 2445SOL    HW118797   1.642   2.710   3.666 -2.6593 -0.4518 -3.7555
 2445SOL    HW218798   1.588   2.695   3.802 -3.5545  2.9170 -0.1816
 2446SOL     OW18799   4.375   2.569   7.130  0.0644 -0.1302 -0.7877
 2446SOL    HW118800   4.330   2.556   7.047  0.4849  0.7857 -1.1591
 2446SOL    HW218801   4.358   2.662   7.147  2.5533 -0.1369  1.8542
 2447SOL     OW18802   3.919   1.571   1.381 -0.4813  1.2378 -0.4008
 2447SOL    HW118803   3.986   1.620   1.333  1.4886  1.1042  2.2568
 2447SOL    HW218804   3.854   1.557   1.312 -0.7675  1.5280 -0.1941
 2448SOL     OW18805   0.269   0.027   1.562 -0.1939 -0.0381  0.2302
 2448SOL    HW118806   0.359   0.014   1.532 -0.1303  1.0720 -0.0773
 2448SOL    HW218807   0.226   0.005   1.479  1.5173  0.9523 -0.9319
 2449SOL     OW18808   4.511   3.555   1.021  0.0307  0.4288  0.0621
 2449SOL    HW118809   4.508   3.463   0.995  0.6096 -0.1048  1.8852
 2449SOL    HW218810   4.557   3.546   1.105 -1.0615  0.1619  0.6405
 2450SOL     OW18811   4.010   0.003  16.950  0.3158 -0.4485 -0.2105
 2450SOL    HW118812   3.998   4.676  16.870 -0.3211 -0.3300 -0.1919
 2450SOL    HW218813   3.923   0.043  16.939  0.7741  0.2812 -1.1659
 2451SOL     OW18814   2.154   3.222   5.021  0.7190  0.6892  0.8335
 2451SOL    HW118815   2.208   3.144   5.015  0.3106  0.3788  1.1838
 2451SOL    HW218816   2.071   3.194   4.982  1.0245  2.4972 -1.1276
 2452SOL     OW18817   2.444   0.632   3.093  0.5493 -0.4832  0.3279
 2452SOL    HW118818   2.453   0.547   3.050 -2.3958 -1.0676  0.8785
 2452SOL    HW218819   2.496   0.686   3.033 -0.5060 -1.7321 -1.7508
 2453SOL     OW18820   2.658   4.494  17.243 -0.3625 -0.2532  0.3119
 2453SOL    HW118821   2.728   4.459  17.298 -0.5361  0.7041  1.1420
 2453SOL    HW218822   2.656   4.582  17.280  1.1228 -0.1763  0.2133
 2454SOL     OW18823   0.262   1.760   8.513  0.5519 -0.2779 -0.1011
 2454SOL    HW118824   0.234   1.825   8.577 -0.6871  1.1959 -2.1051
 2454SOL    HW218825   0.260   1.818   8.437  0.2475 -0.8814 -0.5540
 2455SOL     OW18826   3.157   2.739   9.204 -0.6056  0.1526  0.3045
 2455SOL    HW118827   3.190   2.697   9.284  2.5457  1.6559 -0.1959
 2455SOL    HW218828   3.180   2.673   9.138  0.6519  1.2371 -0.3358
 2456SOL     OW18829   0.302   0.381   6.251 -0.2934  0.4253  0.0448
 2456SOL    HW118830   0.246   0.418   6.183  1.7550  0.4238 -1.6141
 2456SOL    HW218831   0.243   0.354   6.322  0.9125  0.4071  1.0256
 2457SOL     OW18832   1.171   2.785  14.049  0.3384 -0.0497 -0.3217
 2457SOL    HW118833   1.266   2.778  14.049  0.2756 -0.9052 -1.6883
 2457SOL    HW218834   1.153   2.705  14.100 -0.3285  0.2848 -0.0291
 2458SOL     OW18835   4.611   0.872  11.940  0.2996  0.5600 -0.8961
 2458SOL    HW118836   4.707   0.870  11.950  0.1883  0.9687  0.2066
 2458SOL    HW218837   4.599   0.900  11.849  0.0415  3.2488 -0.0310
 2459SOL     OW18838   0.092   2.712   5.829 -0.1492 -0.4117  0.2429
 2459SOL    HW118839   0.121   2.659   5.755 -0.6693 -3.1859  2.0493
 2459SOL    HW218840   0.129   2.798   5.810 -0.9002 -0.0420  0.4293
 2460SOL     OW18841   2.713   4.708  11.562 -0.2241  0.1425 -0.0046
 2460SOL    HW118842   2.708   0.067  11.608  0.4432 -0.8851  1.9454
 2460SOL    HW218843   2.797   4.712  11.518  0.1671 -3.0076  0.4212
 2461SOL     OW18844   2.870   3.142   2.465 -0.0021  0.4053 -0.4237
 2461SOL    HW118845   2.789   3.189   2.444 -1.0828 -0.7335  1.1824
 2461SOL    HW218846   2.899   3.106   2.382 -0.5549 -0.0065 -0.4372
 2462SOL     OW18847   0.589   3.307   2.229  0.4769  0.4318  0.0801
 2462SOL    HW118848   0.679   3.302   2.262  0.8806  1.7714 -0.8318
 2462SOL    HW218849   0.555   3.224   2.262  0.3881  0.2193 -0.5509
 2463SOL     OW18850   4.502   1.141   2.467  0.2959  0.4227  0.2470
 2463SOL    HW118851   4.515   1.089   2.388  1.7386  0.3129  0.5615
 2463SOL    HW218852   4.406   1.142   2.456  0.5010  2.7489 -1.3974
 2464SOL     OW18853   4.104   2.706   3.163  0.1506  0.1251  0.5297
 2464SOL    HW118854   4.191   2.665   3.168 -0.7560 -1.5977  2.1404
 2464SOL    HW218855   4.042   2.637   3.140  2.4514 -0.7959 -2.9268
 2465SOL     OW18856   3.746   0.285   4.172  0.0960 -0.1254 -0.5379
 2465SOL    HW118857   3.740   0.319   4.083 -2.0543 -1.1312 -0.7773
 2465SOL    HW218858   3.735   0.190   4.165 -0.1401 -0.0899 -0.6544
 2466SOL     OW18859   2.648   1.614   7.604 -0.0752  0.2227 -0.9559
 2466SOL    HW118860   2.662   1.689   7.661  0.3526  0.0983 -0.8975
 2466SOL    HW218861   2.563   1.574   7.623  0.1913  0.3511  0.4453
 2467SOL     OW18862   3.265   0.072   4.993 -0.2247 -0.2783  0.2390
 2467SOL    HW118863   3.224   0.128   4.928 -1.5914 -0.0727  1.2896
 2467SOL    HW218864   3.271   4.713   4.946  0.8766 -0.3084  0.4264
 2468SOL     OW18865   2.904   0.331   3.219  0.3170 -0.1465 -0.2263
 2468SOL    HW118866   2.902   0.422   3.248 -0.5270  0.5086 -2.3321
 2468SOL    HW218867   2.924   0.300   3.307  1.3313  1.1527 -0.0050
 2469SOL     OW18868   4.500   3.597   0.602  0.3520 -0.3792 -0.2901
 2469SOL    HW118869   4.436   3.559   0.542  1.3020 -0.9535 -0.9481
 2469SOL    HW218870   4.543   3.667   0.553 -2.5690  1.4665 -0.1678
 2470SOL     OW18871   4.134   3.047   7.171 -0.6294  0.1361 -0.3038
 2470SOL    HW118872   4.126   3.116   7.237  1.2375 -0.2894  0.3756
 2470SOL    HW218873   4.189   2.991   7.225  1.0863  1.4878 -0.6403
 2471SOL     OW18874   1.570   2.916  11.038 -0.3887  0.0759 -0.4887
 2471SOL    HW118875   1.616   2.999  11.030 -0.6762  0.5213  2.1709
 2471SOL    HW218876   1.644   2.862  11.064 -2.3055 -2.3692 -0.1168
 2472SOL     OW18877   0.829   0.288   3.821  0.0466 -0.2681  0.4208
 2472SOL    HW118878   0.788   0.335   3.894 -0.7363 -0.8082  0.3198
 2472SOL    HW218879   0.863   0.361   3.769  0.9549  1.0447  2.8607
 2473SOL     OW18880   1.740   2.864   3.615  0.0660  0.0593  0.2078
 2473SOL    HW118881   1.828   2.889   3.586 -1.2267 -1.5629 -5.2251
 2473SOL    HW218882   1.733   2.903   3.702  1.7561 -0.5709  0.6202
 2474SOL     OW18883   3.448   1.238   8.986 -0.5006  0.3154  0.2420
 2474SOL    HW118884   3.539   1.212   8.995 -0.7464 -0.4893  0.4026
 2474SOL    HW218885   3.453   1.333   8.992  1.0079  0.1109  2.0293
 2475SOL     OW18886   0.321   2.747  11.621 -0.4705  0.1259 -0.2841
 2475SOL    HW118887   0.281   2.754  11.708  0.7323  3.0693  0.0313
 2475SOL    HW218888   0.259   2.805  11.578 -1.1241  0.4141  1.0189
 2476SOL     OW18889   0.836   0.990  11.478 -0.2465 -0.9271 -0.0199
 2476SOL    HW118890   0.767   0.967  11.416 -0.1727 -1.0659 -0.0528
 2476SOL    HW218891   0.909   1.009  11.419  0.7567  1.6991  2.0849
 2477SOL     OW18892   4.362   4.603   1.736  0.5168 -0.2452 -0.0487
 2477SOL    HW118893   4.277   4.611   1.779  0.4696  0.7600 -0.3289
 2477SOL    HW218894   4.338   4.644   1.653  1.2165  0.5208  0.1236
 2478SOL     OW18895   2.718   2.211   4.708  0.3777  0.2241 -0.1790
 2478SOL    HW118896   2.659   2.173   4.643  0.7041 -0.5927  0.0127
 2478SOL    HW218897   2.677   2.192   4.792 -1.1621 -1.2414 -1.2593
 2479SOL     OW18898   0.899   3.842   6.154 -0.5783 -0.8959 -0.6293
 2479SOL    HW118899   0.862   3.779   6.215 -1.7454  2.5003  2.1711
 2479SOL    HW218900   0.849   3.921   6.175  0.1812 -0.5950  0.0435
 2480SOL     OW18901   3.712   2.583   1.276  0.2377  0.5119 -0.0809
 2480SOL    HW118902   3.738   2.494   1.299 -0.1869 -0.2092 -2.4404
 2480SOL    HW218903   3.728   2.585   1.182  2.9864  1.9404  0.4033
 2481SOL     OW18904   3.044   3.947   2.090  0.0142  0.3061 -0.9427
 2481SOL    HW118905   2.954   3.971   2.111 -0.5908 -1.6718 -1.2902
 2481SOL    HW218906   3.077   3.946   2.180 -2.5806 -0.1870  0.0088
 2482SOL     OW18907   2.249   2.094  11.994 -0.3791  0.7035  0.2210
 2482SOL    HW118908   2.225   2.023  12.053 -0.8942  1.0209  0.3896
 2482SOL    HW218909   2.345   2.099  11.997 -0.2741 -1.4951  0.4780
 2483SOL     OW18910   3.207   0.688   6.738 -0.4080  0.6843  0.0062
 2483SOL    HW118911   3.188   0.706   6.646  0.2921  0.8511 -0.1089
 2483SOL    HW218912   3.119   0.661   6.763  0.5922 -0.6241  2.1607
 2484SOL     OW18913   2.290   0.963   6.594 -0.3161  0.2108 -0.5495
 2484SOL    HW118914   2.224   0.967   6.525  0.4728  0.6250 -1.2827
 2484SOL    HW218915   2.332   1.049   6.589  0.5236 -0.2107 -0.7242
 2485SOL     OW18916   0.097   3.068   1.303 -0.1369 -0.3084 -0.3599
 2485SOL    HW118917   0.140   2.995   1.348 -2.1377 -1.9709 -1.1208
 2485SOL    HW218918   0.013   3.084   1.347 -0.2582  0.8771 -1.0194
 2486SOL     OW18919   2.360   0.862  10.980 -0.2759 -0.3498  0.0786
 2486SOL    HW118920   2.346   0.772  10.949  2.1710 -1.3838  1.9819
 2486SOL    HW218921   2.443   0.881  10.936  0.0704 -1.1768  0.3662
 2487SOL     OW18922   1.030   3.939   2.231  0.2591  0.3830 -0.2148
 2487SOL    HW118923   0.957   3.881   2.212  0.9767 -1.2431  1.9634
 2487SOL    HW218924   1.007   3.954   2.323  0.8804 -0.1716  0.0333
 2488SOL     OW18925   0.939   2.687   3.390  0.3169 -0.0823  0.1644
 2488SOL    HW118926   0.875   2.722   3.453 -0.9883 -1.0614 -0.5997
 2488SOL    HW218927   0.990   2.639   3.455 -1.3955  1.5112  2.6651
 2489SOL     OW18928   2.177   3.250   2.521  0.6083 -0.3304  0.3573
 2489SOL    HW118929   2.096   3.199   2.530 -0.7875  2.0853  1.2746
 2489SOL    HW218930   2.188   3.281   2.611  2.0947  0.7640 -0.2049
 2490SOL     OW18931   0.953   4.638   4.151  0.4169 -0.3570 -0.1209
 2490SOL    HW118932   0.920   4.715   4.199  1.1473 -0.8343  1.1681
 2490SOL    HW218933   0.955   4.562   4.209  3.0233  0.3222  0.7019
 2491SOL     OW18934   3.728   0.603   6.665 -0.1985 -0.7305  0.4811
 2491SOL    HW118935   3.650   0.658   6.664  1.4569  1.6076 -1.1466
 2491SOL    HW218936   3.791   0.674   6.654  0.7994 -1.9125 -1.4599
 2492SOL     OW18937   2.623   0.261  17.454 -0.6380 -0.5166  0.0024
 2492SOL    HW118938   2.577   0.272  17.537  0.4900 -1.3895  0.7374
 2492SOL    HW218939   2.553   0.285  17.392 -1.6023 -0.8805  0.9485
 2493SOL     OW18940   0.581   4.589  12.153 -0.1206 -0.7704 -0.0943
 2493SOL    HW118941   0.673   4.612  12.143 -0.3750  1.1993  2.0102
 2493SOL    HW218942   0.560   4.632  12.237  0.8945 -0.5899  0.0598
 2494SOL     OW18943   2.133   3.672   2.701  0.1195  0.3283 -0.5836
 2494SOL    HW118944   2.219   3.638   2.725 -1.6674 -3.2818  0.6730
 2494SOL    HW218945   2.137   3.671   2.606  1.8288 -1.9106 -0.4751
 2495SOL     OW18946   1.463   2.306  10.380  0.1588 -0.7373  0.1312
 2495SOL    HW118947   1.376   2.282  10.409  0.0466 -1.7959 -1.0816
 2495SOL    HW218948   1.505   2.322  10.464  0.4967  0.0813 -0.1867
 2496SOL     OW18949   3.946   2.333   8.904 -0.8944 -0.0414 -0.0179
 2496SOL    HW118950   3.943   2.386   8.824 -1.0079  0.7057  0.4835
 2496SOL    HW218951   3.957   2.401   8.970  1.3363 -0.1085 -0.3272
 2497SOL     OW18952   3.911   0.279  13.082  0.0999  0.0184 -0.0599
 2497SOL    HW118953   3.873   0.204  13.038 -2.7166  0.3841  1.7313
 2497SOL    HW218954   3.873   0.263  13.169  0.5670 -1.2090 -0.0917
 2498SOL     OW18955   3.820   3.313   2.842 -0.0450 -0.1329  0.1440
 2498SOL    HW118956   3.862   3.338   2.923  0.3226  1.9189 -0.6965
 2498SOL    HW218957   3.732   3.285   2.870 -0.8941  4.0834  1.6378
 2499SOL     OW18958   4.123   4.256   7.451  0.6174 -0.1370 -0.7249
 2499SOL    HW118959   4.153   4.208   7.528  1.0245  2.2941  0.6603
 2499SOL    HW218960   4.206   4.291   7.421 -0.3059  3.3324  0.6858
 2500SOL     OW18961   0.447   1.765  11.873  0.0346 -0.1312 -0.0013
 2500SOL    HW118962   0.436   1.771  11.778 -1.5054 -1.0067  0.1302
 2500SOL    HW218963   0.478   1.853  11.894 -0.6946  0.5359 -1.6483
 2501SOL     OW18964   3.382   1.830   6.168  0.0138  0.2429 -0.4623
 2501SOL    HW118965   3.423   1.900   6.220 -1.2042  1.2413 -0.8527
 2501SOL    HW218966   3.290   1.847   6.188  0.6106  2.3674  0.5422
 2502SOL     OW18967   4.666   4.150   4.556 -0.1516  0.4358 -0.1735
 2502SOL    HW118968   4.683   4.194   4.472 -0.9321  0.2248 -0.4407
 2502SOL    HW218969   0.012   4.087   4.560 -0.8938 -0.5804 -2.8888
 2503SOL     OW18970   3.365   1.322   0.148 -0.4635 -0.1372 -0.2410
 2503SOL    HW118971   3.352   1.296   0.240 -2.5787 -1.3850 -0.8848
 2503SOL    HW218972   3.371   1.236   0.106 -0.0359 -0.6856  0.9375
 2504SOL     OW18973   3.979   1.434   7.866 -0.2761 -0.1552 -0.4263
 2504SOL    HW118974   3.951   1.479   7.786 -0.9540  0.0801 -0.0508
 2504SOL    HW218975   3.896   1.389   7.880 -0.5412  0.4868  0.0225
 2505SOL     OW18976   4.599   4.102  11.709  0.0692 -0.1121 -0.1690
 2505SOL    HW118977   4.534   4.106  11.639  0.3035 -0.7070 -0.4154
 2505SOL    HW218978   4.565   4.031  11.763 -0.1197 -0.4789 -0.7779
 2506SOL     OW18979   0.015   3.901   2.838 -0.1491  0.3523 -0.0687
 2506SOL    HW118980   0.054   3.857   2.763 -1.4882 -0.1020 -0.5014
 2506SOL    HW218981   0.091   3.912   2.895  0.7536  0.0525 -1.2199
 2507SOL     OW18982   1.349   3.361   3.449 -0.7128  0.0052  0.2898
 2507SOL    HW118983   1.349   3.440   3.503 -2.5462 -1.0572  1.8270
 2507SOL    HW218984   1.442   3.341   3.432 -1.1683 -1.1773 -0.8246
 2508SOL     OW18985   3.050   3.307  12.350 -0.1029  0.1911 -0.6089
 2508SOL    HW118986   3.071   3.279  12.438 -0.1375  1.7187 -0.1075
 2508SOL    HW218987   2.979   3.367  12.371  0.2081 -0.0324  1.0887
 2509SOL     OW18988   1.812   3.591   8.136 -0.6715  0.6317  0.2507
 2509SOL    HW118989   1.828   3.663   8.197  1.4544 -1.0925  1.7220
 2509SOL    HW218990   1.812   3.519   8.199  0.1595  0.6286  0.2432
 2510SOL     OW18991   1.591   0.278   3.899  0.3399  0.2026  0.0719
 2510SOL    HW118992   1.587   0.334   3.821 -1.3398  0.2581  0.2071
 2510SOL    HW218993   1.505   0.236   3.903 -0.2113  1.4935  1.7589
 2511SOL     OW18994   1.361   0.177   7.785  0.1537 -0.0555  0.5247
 2511SOL    HW118995   1.269   0.152   7.798  0.2552  0.0948  1.5444
 2511SOL    HW218996   1.371   0.245   7.851  1.7733  1.2509 -1.0689
 2512SOL     OW18997   3.927   1.267  12.017  0.5350  0.4334 -0.0871
 2512SOL    HW118998   4.007   1.215  12.012 -1.6715 -2.9395 -0.4586
 2512SOL    HW218999   3.897   1.241  12.105 -1.1389 -0.4395 -0.8996
 2513SOL     OW19000   4.497   2.536   7.889  0.3643  0.2970  0.4081
 2513SOL    HW119001   4.553   2.466   7.922  1.9729  0.8629 -1.1154
 2513SOL    HW219002   4.563   2.592   7.847  0.5603 -1.2633 -1.3696
 2514SOL     OW19003   3.485   1.832   8.629 -0.1486  0.0196  0.0314
 2514SOL    HW119004   3.473   1.767   8.698  0.0046  0.6737  0.6705
 2514SOL    HW219005   3.403   1.882   8.626 -0.8002 -1.0287  0.6102
 2515SOL     OW19006   2.508   4.639   0.693 -0.3786 -0.1957  0.1021
 2515SOL    HW119007   2.540   4.579   0.760  0.2744 -1.1223 -1.0302
 2515SOL    HW219008   2.438   4.691   0.732 -3.1551 -2.5610 -1.6467
 2516SOL     OW19009   2.301   2.204   4.229 -0.2458 -0.0257  0.7026
 2516SOL    HW119010   2.366   2.212   4.300  1.2813  1.4009 -0.8534
 2516SOL    HW219011   2.217   2.203   4.276  0.6597  1.2853  2.3709
 2517SOL     OW19012   0.409   0.173   4.751  0.7159 -0.1487 -0.0131
 2517SOL    HW119013   0.367   0.244   4.800  0.2236  1.7875 -3.2253
 2517SOL    HW219014   0.469   0.231   4.704  0.9710  0.3303  0.9135
 2518SOL     OW19015   2.835   3.219  15.833  0.1337  0.0624 -0.2831
 2518SOL    HW119016   2.889   3.270  15.772  0.1410  3.1772  2.3470
 2518SOL    HW219017   2.897   3.150  15.856 -1.3908 -0.3143  2.6223
 2519SOL     OW19018   3.341   4.271   7.332 -0.6204  0.2880  0.1923
 2519SOL    HW119019   3.380   4.340   7.386  1.2463 -0.3245 -0.3702
 2519SOL    HW219020   3.291   4.323   7.269 -1.2631  0.0097  0.4729
 2520SOL     OW19021   2.077   4.344  13.384 -0.2329 -0.1965 -0.0640
 2520SOL    HW119022   2.087   4.262  13.431 -1.7755  0.7908  1.9656
 2520SOL    HW219023   1.982   4.351  13.381 -0.0960  2.0532  0.9325
 2521SOL     OW19024   1.758   1.453   6.352  0.3612  0.0116 -0.2491
 2521SOL    HW119025   1.827   1.390   6.369 -0.0663 -0.3530  0.1138
 2521SOL    HW219026   1.772   1.519   6.420  2.8611 -0.3453 -0.4177
 2522SOL     OW19027   4.190   4.320   4.486  0.1559 -0.3616 -0.0354
 2522SOL    HW119028   4.132   4.247   4.508  0.6683 -0.7018  0.1701
 2522SOL    HW219029   4.129   4.393   4.472 -0.4323 -1.2930 -2.2263
 2523SOL     OW19030   0.687   0.446   8.681  0.5660 -0.1760 -0.1979
 2523SOL    HW119031   0.647   0.385   8.743 -2.4062 -0.8092 -2.7076
 2523SOL    HW219032   0.746   0.487   8.744  0.4448 -0.5425  0.1522
 2524SOL     OW19033   4.135   3.284   4.044 -0.1380 -0.4193  0.1338
 2524SOL    HW119034   4.170   3.227   4.113  0.0982 -0.8590 -0.3481
 2524SOL    HW219035   4.077   3.340   4.096  1.2381  1.5419 -0.4207
 2525SOL     OW19036   1.208   1.409   8.165  0.3965  0.1025  1.0679
 2525SOL    HW119037   1.236   1.325   8.128 -1.0734  0.4466 -0.8225
 2525SOL    HW219038   1.295   1.448   8.172 -0.3816  2.2995 -1.5584
 2526SOL     OW19039   2.893   0.756  11.581 -0.0525  0.1847 -0.0878
 2526SOL    HW119040   2.833   0.791  11.647 -1.7035 -1.6150 -0.6132
 2526SOL    HW219041   2.967   0.802  11.619  0.1868 -0.3396  0.0763
 2527SOL     OW19042   3.809   2.424   9.768  0.5601  0.3425 -0.3992
 2527SOL    HW119043   3.851   2.509   9.783  2.2820 -0.3426 -1.3689
 2527SOL    HW219044   3.734   2.431   9.827 -0.6830 -1.7150 -1.7648
 2528SOL     OW19045   1.680   0.352   5.654 -0.0211  0.2520  0.2400
 2528SOL    HW119046   1.615   0.297   5.695  0.7626 -0.6564  0.2658
 2528SOL    HW219047   1.646   0.342   5.565  2.7232  2.9979 -1.1167
 2529SOL     OW19048   2.208   4.565   7.492  0.1218  0.0259  0.5464
 2529SOL    HW119049   2.271   4.545   7.561  1.4702  1.0692 -0.3812
 2529SOL    HW219050   2.204   4.476   7.455 -0.3175  0.5282 -0.6228
 2530SOL     OW19051   2.476   1.233   6.554  0.0025 -0.2144  0.2345
 2530SOL    HW119052   2.529   1.162   6.591 -0.7986 -1.2876 -0.6777
 2530SOL    HW219053   2.508   1.316   6.588 -4.3323  1.0167  1.2492
 2531SOL     OW19054   4.194   3.653   4.953 -0.1620 -0.3617 -0.0488
 2531SOL    HW119055   4.201   3.573   5.006  0.8118 -0.4113 -0.2611
 2531SOL    HW219056   4.205   3.709   5.029  0.0586  0.3377 -0.6023
 2532SOL     OW19057   0.997   4.447   2.707  0.5073 -0.5987  0.2127
 2532SOL    HW119058   1.014   4.538   2.683  0.6873 -1.0856 -1.5269
 2532SOL    HW219059   1.024   4.400   2.628  0.4220 -0.4090  0.0687
 2533SOL     OW19060   4.218   0.749   7.930 -0.5577  0.0464  0.2148
 2533SOL    HW119061   4.245   0.759   8.022  1.1553  0.6844 -0.3619
 2533SOL    HW219062   4.243   0.834   7.895 -0.6360 -0.2047 -0.4404
 2534SOL     OW19063   2.032   4.709   4.544  0.2283  0.5820  0.2623
 2534SOL    HW119064   1.953   4.696   4.597  0.1022  0.2215 -0.0116
 2534SOL    HW219065   2.056   4.622   4.510  1.7956  1.2821 -0.3954
 2535SOL     OW19066   1.397   3.268  17.199  0.5934  0.6243  0.0921
 2535SOL    HW119067   1.403   3.333  17.129 -1.1383  1.8818  1.1336
 2535SOL    HW219068   1.306   3.249  17.178  0.3825 -0.3199  1.9120
 2536SOL     OW19069   1.341   4.417   6.054 -0.5161  0.0532 -0.4998
 2536SOL    HW119070   1.370   4.507   6.069 -0.7510  0.0017  0.3094
 2536SOL    HW219071   1.336   4.381   6.143 -0.1600  0.0660 -0.4773
 2537SOL     OW19072   4.535   3.031  15.098  0.6168  0.0302  0.5355
 2537SOL    HW119073   4.588   3.107  15.074 -0.0526  1.1550  2.5977
 2537SOL    HW219074   4.585   2.967  15.046  0.6977 -1.2799  2.2132
 2538SOL     OW19075   0.019   0.010   2.050  0.5047  0.4702 -0.0624
 2538SOL    HW119076   0.072   0.010   2.129 -0.0399 -1.3429  0.2815
 2538SOL    HW219077   0.072   4.673   2.000 -0.2538 -1.3210  1.3609
 2539SOL     OW19078   0.205   0.128  10.708 -0.1774 -0.2553  0.0075
 2539SOL    HW119079   0.269   0.159  10.772 -1.7030 -0.7066  1.7286
 2539SOL    HW219080   0.253   0.070  10.648  1.2795  0.6914  0.2428
 2540SOL     OW19081   4.023   3.978  17.335 -0.5029 -0.0574  0.2122
 2540SOL    HW119082   4.047   4.037  17.263 -0.9619 -1.3766 -1.0196
 2540SOL    HW219083   4.082   4.014  17.401 -1.2928  0.4398  0.6448
 2541SOL     OW19084   3.530   0.307   5.436 -0.0950 -0.2793 -0.2992
 2541SOL    HW119085   3.599   0.362   5.401  0.4920 -0.5904  0.3713
 2541SOL    HW219086   3.489   0.378   5.486  0.6305 -1.4845  2.0162
 2542SOL     OW19087   2.585   0.269   4.420  0.4399 -0.2893  0.3046
 2542SOL    HW119088   2.665   0.265   4.472  0.5768  2.0432  0.3046
 2542SOL    HW219089   2.624   0.284   4.334  2.2285 -1.4229  0.9427
 2543SOL     OW19090   0.864   2.876   5.788  0.2270 -0.1385  0.0889
 2543SOL    HW119091   0.774   2.902   5.811 -0.1262 -1.5865  0.3068
 2543SOL    HW219092   0.885   2.940   5.720 -3.3574  0.5832 -0.3431
 2544SOL     OW19093   2.321   2.797   7.067  0.2996  0.1755 -0.1475
 2544SOL    HW119094   2.376   2.816   6.990  0.3733  0.5711 -0.0000
 2544SOL    HW219095   2.271   2.720   7.041 -0.0925  0.0930  0.8629
 2545SOL     OW19096   2.394   4.667  17.243 -0.3728  0.3977  0.0766
 2545SOL    HW119097   2.380   4.676  17.337  1.3194  2.1186  0.1672
 2545SOL    HW219098   2.402   4.572  17.244 -0.6432  0.3577 -3.5106
 2546SOL     OW19099   2.680   1.071   2.361 -0.2019  0.1757  0.0710
 2546SOL    HW119100   2.586   1.069   2.379 -0.2706 -0.9814 -0.4145
 2546SOL    HW219101   2.691   0.990   2.311  2.0147  1.8574 -2.1968
 2547SOL     OW19102   0.602   0.168   9.368 -0.0993  0.1033  0.1274
 2547SOL    HW119103   0.580   0.261   9.368  0.2202  0.1713 -1.8581
 2547SOL    HW219104   0.680   0.169   9.313 -0.6153 -1.1438 -0.6430
 2548SOL     OW19105   4.379   0.821  13.191 -0.6735 -0.2859 -0.1517
 2548SOL    HW119106   4.293   0.783  13.207 -0.3573 -1.5406 -1.4225
 2548SOL    HW219107   4.382   0.899  13.246 -0.8438 -0.4084  0.0312
 2549SOL     OW19108   3.692   1.099   9.013 -0.5595  0.3361  0.8159
 2549SOL    HW119109   3.709   1.044   9.089  1.0799 -1.0104 -0.5394
 2549SOL    HW219110   3.762   1.164   9.007 -1.1862  1.0757  1.4203
 2550SOL     OW19111   4.287   1.679  12.507  0.5774  0.0056 -0.0066
 2550SOL    HW119112   4.259   1.767  12.534 -1.0856 -0.1369 -1.2524
 2550SOL    HW219113   4.334   1.698  12.426  0.4724  1.4184  0.2478
 2551SOL     OW19114   1.604   3.711   1.041 -0.0536  0.0952  0.1126
 2551SOL    HW119115   1.520   3.740   1.077  0.2558 -0.5934  1.3655
 2551SOL    HW219116   1.618   3.793   0.994 -0.5116  0.7918  1.1941
 2552SOL     OW19117   3.385   4.143  12.098  0.0587  0.4722  0.3612
 2552SOL    HW119118   3.453   4.100  12.047 -0.8009 -0.1067 -0.2855
 2552SOL    HW219119   3.389   4.227  12.052  1.1020 -0.9068 -2.0458
 2553SOL     OW19120   1.995   0.126   3.449  1.0235  0.2513  0.0298
 2553SOL    HW119121   1.931   0.067   3.408  1.5956  0.0421 -0.5585
 2553SOL    HW219122   1.939   0.163   3.517  2.2856  1.1907  0.5582
 2554SOL     OW19123   0.053   3.179  11.143  0.0767 -0.0129  0.0418
 2554SOL    HW119124   4.717   3.140  11.205  0.1840 -0.5367 -0.1799
 2554SOL    HW219125   0.049   3.107  11.079 -2.7354 -1.0541  1.4069
 2555SOL     OW19126   2.382   0.812  15.465  1.1020  0.5142 -0.2154
 2555SOL    HW119127   2.380   0.883  15.529 -0.3989  0.7751 -0.5318
 2555SOL    HW219128   2.357   0.861  15.386  0.1566  0.7535  0.2219
 2556SOL     OW19129   4.174   4.511   5.805 -0.2658  0.1268  0.3271
 2556SOL    HW119130   4.085   4.523   5.836  0.2678 -1.3239  2.4102
 2556SOL    HW219131   4.173   4.416   5.798  0.5538  0.2260 -1.0449
 2557SOL     OW19132   3.156   2.425   9.042  0.0703 -1.0075  0.0537
 2557SOL    HW119133   3.136   2.381   9.125 -1.9619 -1.0280 -0.4506
 2557SOL    HW219134   3.083   2.392   8.990  0.3876 -0.3451 -0.8153
 2558SOL     OW19135   3.988   4.186   1.903 -0.0898 -0.1132  0.2714
 2558SOL    HW119136   4.024   4.224   1.823 -1.4979 -0.1906 -0.3925
 2558SOL    HW219137   4.033   4.101   1.902 -0.1347 -0.1099 -1.9600
 2559SOL     OW19138   1.053   2.585   3.159 -0.1906 -0.2264 -0.1844
 2559SOL    HW119139   1.012   2.647   3.099  0.7115  1.1532  0.6209
 2559SOL    HW219140   1.048   2.637   3.240 -1.6054 -0.2458 -0.2469
 2560SOL     OW19141   2.696   2.786   4.225 -0.1918 -0.3914  0.1443
 2560SOL    HW119142   2.700   2.879   4.249  0.3723 -0.4861  0.4108
 2560SOL    HW219143   2.688   2.737   4.306  4.3709  0.9254  1.4189
 2561SOL     OW19144   3.094   0.780   2.703 -0.7361  0.3326 -0.0679
 2561SOL    HW119145   3.056   0.867   2.717  0.2581  0.4671  1.7949
 2561SOL    HW219146   3.105   0.778   2.608  0.7279 -1.6131  0.1355
 2562SOL     OW19147   1.240   0.007   4.945 -0.6953 -0.0045 -0.5634
 2562SOL    HW119148   1.159   4.692   4.977 -1.0607  2.1120  1.2097
 2562SOL    HW219149   1.220   4.721   4.852 -0.9836 -0.0731 -0.4935
 2563SOL     OW19150   2.488   3.919  16.407 -0.1285 -0.1798  0.3459
 2563SOL    HW119151   2.490   4.011  16.381  0.1517 -0.1074  0.6300
 2563SOL    HW219152   2.490   3.875  16.322 -0.3045 -0.6336  0.5804
 2564SOL     OW19153   2.213   1.925   4.145  0.4776  0.0357 -0.3521
 2564SOL    HW119154   2.276   1.909   4.075  1.3267  0.6200  0.2797
 2564SOL    HW219155   2.246   2.008   4.177  1.2853  0.1474 -1.4850
 2565SOL     OW19156   1.858   3.118   6.662 -0.4156 -0.1564  0.4328
 2565SOL    HW119157   1.939   3.075   6.636 -1.0643 -0.8408 -0.4790
 2565SOL    HW219158   1.833   3.175   6.590  1.4366  1.6107  1.1972
 2566SOL     OW19159   4.163   2.656  17.060 -0.1842 -0.1711 -0.3195
 2566SOL    HW119160   4.085   2.639  17.007 -1.8858  2.5107  1.3070
 2566SOL    HW219161   4.169   2.586  17.125  2.1001 -0.8315 -1.2255
 2567SOL     OW19162   0.849   3.354  14.382 -0.3092 -0.0942 -0.4108
 2567SOL    HW119163   0.805   3.283  14.336  1.1097 -0.6360 -0.9336
 2567SOL    HW219164   0.939   3.322  14.374 -0.8918 -1.9306  0.4022
 2568SOL     OW19165   1.805   3.730   4.725 -0.6047  0.2686  0.3412
 2568SOL    HW119166   1.832   3.724   4.817  3.3748  2.7429 -0.6879
 2568SOL    HW219167   1.732   3.667   4.723  0.3314 -0.7127 -2.1187
 2569SOL     OW19168   2.441   1.727   3.542  0.9765  0.5412 -0.1238
 2569SOL    HW119169   2.529   1.691   3.526  0.7228  0.1041 -0.5322
 2569SOL    HW219170   2.427   1.690   3.629  0.1316 -0.4713 -0.6842
 2570SOL     OW19171   3.490   1.384   1.785  0.0877  0.3662  0.0144
 2570SOL    HW119172   3.482   1.291   1.765  1.1184  0.1511  0.5901
 2570SOL    HW219173   3.582   1.395   1.761 -0.7557  1.7633 -2.5540
 2571SOL     OW19174   2.000   2.268   7.756 -0.1522  0.2740 -0.2270
 2571SOL    HW119175   2.019   2.175   7.772  2.1852  0.5704 -1.3540
 2571SOL    HW219176   1.916   2.260   7.711  0.0385  0.0191 -0.5344
 2572SOL     OW19177   2.510   1.480   7.205 -0.1542  0.4767  0.3178
 2572SOL    HW119178   2.522   1.575   7.194 -1.8677  0.8202  1.4528
 2572SOL    HW219179   2.419   1.484   7.234 -0.5612  1.0489 -1.0119
 2573SOL     OW19180   4.605   1.597   6.304  0.1684 -0.1567  0.1271
 2573SOL    HW119181   4.672   1.615   6.369 -0.8216 -0.3408  1.2065
 2573SOL    HW219182   4.560   1.682   6.298 -3.2274 -2.1791 -3.2707
 2574SOL     OW19183   0.868   0.985  13.175 -0.4721 -0.5683 -0.1390
 2574SOL    HW119184   0.788   0.972  13.123 -0.6102 -2.1983  0.4945
 2574SOL    HW219185   0.891   0.893  13.189 -1.3166 -0.3608  2.6362
 2575SOL     OW19186   2.930   4.504  14.206 -0.2170 -0.1665 -0.1345
 2575SOL    HW119187   2.955   4.595  14.189 -1.7172  0.0976 -0.9028
 2575SOL    HW219188   2.944   4.487  14.299  1.0805  0.4737 -0.1996
 2576SOL     OW19189   0.332   1.743   5.065 -0.0017 -0.3419 -0.6521
 2576SOL    HW119190   0.405   1.750   5.127  1.8967 -1.1753 -2.8010
 2576SOL    HW219191   0.298   1.657   5.089 -1.7702  0.6088  0.2813
 2577SOL     OW19192   4.074   0.397  14.972  0.1326  0.4144  0.0044
 2577SOL    HW119193   4.105   0.483  14.942  1.9524  0.2212  1.3127
 2577SOL    HW219194   4.138   0.343  14.925 -0.6533 -1.1813  0.7983
 2578SOL     OW19195   3.414   0.401   3.044 -0.1166  0.2871 -0.6099
 2578SOL    HW119196   3.472   0.471   3.016 -0.3730  0.7981  0.1152
 2578SOL    HW219197   3.481   0.336   3.066  0.0985  0.3788 -0.9940
 2579SOL     OW19198   2.280   3.890   2.599 -0.2614  0.1899  0.1676
 2579SOL    HW119199   2.257   3.974   2.558 -1.6320 -0.7915 -1.1069
 2579SOL    HW219200   2.252   3.835   2.526 -1.1590 -0.9734  1.3903
 2580SOL     OW19201   3.883   1.459  16.488  0.3630 -0.0865  0.2793
 2580SOL    HW119202   3.935   1.534  16.461  0.9287  0.3874  2.7068
 2580SOL    HW219203   3.932   1.421  16.560  0.3893  1.9158  1.2991
 2581SOL     OW19204   0.605   0.397   4.720  0.5047 -0.8845 -0.3514
 2581SOL    HW119205   0.680   0.432   4.672 -0.0642 -0.5900 -1.0289
 2581SOL    HW219206   0.649   0.343   4.785 -1.8882 -0.7353  1.3935
 2582SOL     OW19207   1.051   4.621  15.784  0.0439 -0.1899  0.3017
 2582SOL    HW119208   0.979   4.558  15.782  0.9598 -1.2018 -1.0266
 2582SOL    HW219209   1.114   4.552  15.803  0.7239  1.1042  2.7316
 2583SOL     OW19210   3.752   4.281   9.364 -0.0094 -0.8676  0.3394
 2583SOL    HW119211   3.757   4.223   9.288 -0.0626 -0.9979  0.4370
 2583SOL    HW219212   3.703   4.351   9.321  0.7223 -0.7602 -0.3346
 2584SOL     OW19213   0.617   0.160  11.961  0.2158  0.1560 -0.2095
 2584SOL    HW119214   0.705   0.185  11.988  0.2705 -0.2377 -0.0382
 2584SOL    HW219215   0.560   0.215  12.015  0.3394  1.1969 -1.1230
 2585SOL     OW19216   1.214   4.380   2.194  0.2609 -0.2122 -0.5855
 2585SOL    HW119217   1.169   4.458   2.224 -1.7546 -1.4835 -0.3298
 2585SOL    HW219218   1.134   4.328   2.192  0.8036 -1.0667 -0.4573
 2586SOL     OW19219   1.291   4.261   6.330  0.1346 -0.1968 -0.7210
 2586SOL    HW119220   1.208   4.215   6.332 -0.1764  0.5146  1.8734
 2586SOL    HW219221   1.349   4.186   6.341  1.5485  0.8160 -1.1513
 2587SOL     OW19222   3.168   4.544  11.652 -0.3762 -0.2895 -0.4669
 2587SOL    HW119223   3.176   4.638  11.663  0.4283 -0.5831  1.4054
 2587SOL    HW219224   3.128   4.508  11.731  1.3434  0.8276  0.9140
 2588SOL     OW19225   2.878   4.185   3.643  0.2150  0.2619  0.3075
 2588SOL    HW119226   2.793   4.216   3.673 -0.9248 -0.3708 -2.2865
 2588SOL    HW219227   2.927   4.195   3.725 -0.7772 -1.1900  1.0789
 2589SOL     OW19228   3.281   4.289  10.608 -0.3126 -0.5336  0.1777
 2589SOL    HW119229   3.305   4.360  10.668 -0.6884  1.1906 -1.6964
 2589SOL    HW219230   3.263   4.231  10.682  1.4198  0.3672  1.3160
 2590SOL     OW19231   2.890   2.833   9.222  0.3976 -0.0273 -0.0596
 2590SOL    HW119232   2.979   2.807   9.200  0.7519  0.2883  1.0296
 2590SOL    HW219233   2.844   2.750   9.234 -0.8648  0.8169  0.9116
 2591SOL     OW19234   3.226   4.497   3.033  0.2868 -0.2144  0.4861
 2591SOL    HW119235   3.159   4.445   3.079  1.9650 -3.8298 -1.1312
 2591SOL    HW219236   3.188   4.510   2.946  0.6024 -1.4547  0.1627
 2592SOL     OW19237   4.284   0.386   9.953 -0.1505  0.4050 -0.1162
 2592SOL    HW119238   4.319   0.437  10.026 -0.0483  1.1236 -0.6687
 2592SOL    HW219239   4.198   0.363   9.988 -0.2068  1.2542  0.3166
 2593SOL     OW19240   2.688   3.426   8.819  0.1988 -0.5707 -0.7270
 2593SOL    HW119241   2.618   3.492   8.814  0.7759  0.1371  0.5933
 2593SOL    HW219242   2.719   3.438   8.729  2.2091 -0.7307 -0.0312
 2594SOL     OW19243   0.422   3.265  17.439 -0.3927  0.7859  0.1874
 2594SOL    HW119244   0.482   3.340  17.446 -0.1710  0.7874 -1.9046
 2594SOL    HW219245   0.350   3.309  17.484 -3.4699 -2.0778 -1.9898
 2595SOL     OW19246   3.137   3.691  15.947 -0.1250 -0.2580 -0.4046
 2595SOL    HW119247   3.050   3.706  15.911  1.5674  1.5626 -3.6921
 2595SOL    HW219248   3.156   3.781  15.972  0.3877 -0.5673  0.3339
 2596SOL     OW19249   1.092   0.920   9.197 -0.0820  0.2574  0.7425
 2596SOL    HW119250   1.153   0.894   9.266 -0.6172 -1.3107  0.6414
 2596SOL    HW219251   1.152   0.954   9.131 -1.2985 -0.1036 -0.5692
 2597SOL     OW19252   3.803   1.301   3.434  0.0521  0.2953  0.2016
 2597SOL    HW119253   3.829   1.369   3.496  0.6605  1.3651 -1.2165
 2597SOL    HW219254   3.744   1.260   3.497 -1.3996 -0.7520 -1.8274
 2598SOL     OW19255   3.672   3.255   6.673  0.1040  0.2435  0.3215
 2598SOL    HW119256   3.697   3.167   6.701  0.8317  0.8514  1.5691
 2598SOL    HW219257   3.643   3.231   6.585  1.3476 -3.2674  0.8657
 2599SOL     OW19258   2.585   1.225   1.817  0.1620 -0.0428  0.0545
 2599SOL    HW119259   2.508   1.212   1.762 -0.2831  0.8941  0.4656
 2599SOL    HW219260   2.564   1.168   1.891  0.8336 -0.3036  0.0391
 2600SOL     OW19261   3.080   2.968  11.461 -0.2172 -0.3425 -0.2089
 2600SOL    HW119262   3.062   3.003  11.374  1.6241  1.5079  0.1613
 2600SOL    HW219263   3.052   3.042  11.516 -0.4869 -1.8527  1.6754
 2601SOL     OW19264   4.505   3.886   6.662  0.3109 -0.7086  0.7352
 2601SOL    HW119265   4.588   3.874   6.615  1.0716 -2.4100  2.5129
 2601SOL    HW219266   4.498   3.982   6.663  1.1526 -0.6096 -1.9950
 2602SOL     OW19267   0.511   1.945   2.784 -0.0390 -0.2470  0.0766
 2602SOL    HW119268   0.422   1.911   2.787  0.1731 -0.6790  1.7858
 2602SOL    HW219269   0.556   1.908   2.860  1.1905  0.0394 -0.5096
 2603SOL     OW19270   1.641   1.428   6.716 -0.1913 -0.5439 -0.2136
 2603SOL    HW119271   1.657   1.357   6.654 -1.2247  0.4647 -1.6335
 2603SOL    HW219272   1.721   1.480   6.707 -0.0230 -0.7669 -0.0016
 2604SOL     OW19273   2.014   4.300  12.492  0.0530  0.2926 -0.3874
 2604SOL    HW119274   2.099   4.295  12.535  0.0426  1.0829 -0.2770
 2604SOL    HW219275   1.962   4.267  12.566  1.1231  1.7452  1.0012
 2605SOL     OW19276   1.501   0.412   2.734  0.3999  0.0368 -0.0950
 2605SOL    HW119277   1.419   0.462   2.735  0.0413 -0.5798  0.8561
 2605SOL    HW219278   1.538   0.459   2.658  0.6223 -0.6239 -0.3974
 2606SOL     OW19279   4.305   1.461   5.598  0.0703  0.3533  0.5817
 2606SOL    HW119280   4.297   1.372   5.563 -0.2700  0.2329  0.9562
 2606SOL    HW219281   4.309   1.449   5.693 -1.2223  1.1703  0.7395
 2607SOL     OW19282   4.329   0.753  12.797 -0.1761  0.0297  0.0055
 2607SOL    HW119283   4.390   0.679  12.805  0.6251  0.5745 -1.0992
 2607SOL    HW219284   4.282   0.719  12.721  1.4460 -0.9307 -0.5638
 2608SOL     OW19285   1.790   2.390  10.678 -0.3409  0.6033  0.1726
 2608SOL    HW119286   1.856   2.446  10.718  0.8333 -0.7709  0.1329
 2608SOL    HW219287   1.847   2.331  10.630 -0.7625 -0.4134  0.9257
 2609SOL     OW19288   4.321   2.274   3.527 -0.6280  0.6341  0.4023
 2609SOL    HW119289   4.258   2.268   3.456  0.8111  2.2271 -1.0372
 2609SOL    HW219290   4.395   2.302   3.472  0.1593 -1.3724  0.4472
 2610SOL     OW19291   4.406   1.586   2.728 -0.2635  0.1267 -0.3493
 2610SOL    HW119292   4.502   1.584   2.730 -0.2549  1.2129  0.1472
 2610SOL    HW219293   4.388   1.665   2.678 -2.0472 -0.9480 -1.3955
 2611SOL     OW19294   0.267   2.497   7.768  0.3843  0.6498 -0.8526
 2611SOL    HW119295   0.261   2.405   7.792  1.0118  0.2207 -2.3219
 2611SOL    HW219296   0.334   2.524   7.831 -1.7029 -0.1691  1.6971
 2612SOL     OW19297   0.302   1.761   3.209 -0.2814  0.6397 -0.7657
 2612SOL    HW119298   0.304   1.694   3.140  2.5884  0.1755 -0.2169
 2612SOL    HW219299   0.276   1.844   3.168 -1.0161  1.3623  1.1688
 2613SOL     OW19300   1.057   0.841   8.065  0.2130 -0.3661 -0.5825
 2613SOL    HW119301   1.083   0.770   8.008  1.3801 -0.1276 -0.3568
 2613SOL    HW219302   1.004   0.797   8.131  2.3953  1.1280  2.1986
 2614SOL     OW19303   2.195   2.667   8.044  0.6478 -0.0710 -0.7293
 2614SOL    HW119304   2.287   2.641   8.045  0.6253 -0.1546 -1.0721
 2614SOL    HW219305   2.197   2.740   7.982  1.7160 -0.4857 -1.1754
 2615SOL     OW19306   2.841   2.594   3.102  0.1164 -0.1246  0.2003
 2615SOL    HW119307   2.917   2.538   3.082 -0.2668 -1.0154  1.2332
 2615SOL    HW219308   2.823   2.565   3.191  1.6382  2.3260  1.2847
 2616SOL     OW19309   1.958   1.440   0.971 -0.0843 -0.8398  0.3282
 2616SOL    HW119310   1.999   1.455   1.056 -1.2142  1.1432  0.4993
 2616SOL    HW219311   1.883   1.385   0.996 -0.4927 -0.8808 -0.9956
 2617SOL     OW19312   1.958   3.405   0.676 -0.2219  0.2258 -0.2877
 2617SOL    HW119313   1.955   3.385   0.770  0.0514  1.2234 -0.0688
 2617SOL    HW219314   2.050   3.428   0.662 -0.2015  0.3799  0.1016
 2618SOL     OW19315   1.753   3.975   6.851  0.0368 -0.3509  0.6510
 2618SOL    HW119316   1.741   3.888   6.813  3.4910 -0.9739  0.9918
 2618SOL    HW219317   1.817   4.020   6.795  0.4083 -1.5428  0.1182
 2619SOL     OW19318   2.931   3.072   4.555  0.0947 -0.6025  0.0257
 2619SOL    HW119319   2.864   3.136   4.579 -0.8764 -0.9707 -1.7012
 2619SOL    HW219320   2.916   3.049   4.463 -0.7937 -0.5823  0.1692
 2620SOL     OW19321   3.309   0.873   0.582  0.1385  0.4929 -0.6911
 2620SOL    HW119322   3.226   0.917   0.568  0.1250  0.6420 -0.1122
 2620SOL    HW219323   3.347   0.895   0.497  0.6904  2.0338 -0.0424
 2621SOL     OW19324   0.378   2.591  11.388  0.6721  0.1602  0.6605
 2621SOL    HW119325   0.382   2.606  11.483  2.4685  0.8817  0.4538
 2621SOL    HW219326   0.431   2.512  11.374  1.5619  1.0451 -0.9356
 2622SOL     OW19327   2.140   0.292   4.931 -0.5039  0.0511  0.2685
 2622SOL    HW119328   2.163   0.303   4.838 -1.2739 -0.2591  0.0482
 2622SOL    HW219329   2.090   0.211   4.933 -1.2496  0.5365  1.3309
 2623SOL     OW19330   1.190   1.745  12.955  0.5427 -0.0320  0.0768
 2623SOL    HW119331   1.138   1.667  12.971  2.4883 -1.0229  1.5649
 2623SOL    HW219332   1.253   1.715  12.889  1.0275 -1.8620  1.3790
 2624SOL     OW19333   4.681   2.278   2.082  0.2230  0.3263  0.1084
 2624SOL    HW119334   4.632   2.360   2.079 -2.6529 -1.3516  1.6568
 2624SOL    HW219335   4.617   2.211   2.059 -1.3073  1.4420  1.0668
 2625SOL     OW19336   2.848   2.687  12.727 -0.1407 -0.3282 -0.2452
 2625SOL    HW119337   2.851   2.731  12.813  1.1952  0.3165 -0.6222
 2625SOL    HW219338   2.916   2.620  12.723  1.8723  1.7440 -0.6399
 2626SOL     OW19339   2.257   3.596   8.006  0.5282  0.0957 -0.4020
 2626SOL    HW119340   2.166   3.579   7.981 -0.2325  1.7690  1.2830
 2626SOL    HW219341   2.260   3.551   8.090 -0.4977 -3.0563 -2.0676
 2627SOL     OW19342   0.529   4.196  15.109 -0.1365  0.8848 -0.1866
 2627SOL    HW119343   0.606   4.227  15.061  0.4762 -0.4262 -0.0629
 2627SOL    HW219344   0.470   4.150  15.048 -0.6417  1.9399 -0.4998
 2628SOL     OW19345   1.969   2.529   8.014 -0.0772  0.0573  0.4526
 2628SOL    HW119346   1.983   2.527   7.919  1.5986 -2.9614  0.7583
 2628SOL    HW219347   2.041   2.586   8.042  0.6786 -1.2434  1.1856
 2629SOL     OW19348   1.795   0.942   2.271 -0.6139  0.2997  0.1408
 2629SOL    HW119349   1.761   0.872   2.326 -1.0001  0.5917  0.2683
 2629SOL    HW219350   1.773   1.016   2.327 -0.5482  0.1988  0.2988
 2630SOL     OW19351   3.518   1.992   1.052  0.3153  0.1284  1.0423
 2630SOL    HW119352   3.592   2.025   1.001  0.5360  0.8174  1.8102
 2630SOL    HW219353   3.441   2.019   1.001  1.9752 -1.9207 -2.5468
 2631SOL     OW19354   3.039   4.484   7.761  0.1252  0.0542  0.7397
 2631SOL    HW119355   3.001   4.414   7.709 -3.2566  3.2640 -1.1108
 2631SOL    HW219356   3.056   4.432   7.839 -0.7790 -0.4546  0.5947
 2632SOL     OW19357   0.475   0.278   9.121  0.5160  0.6112  0.1578
 2632SOL    HW119358   0.427   0.356   9.147  1.8398  1.3575  0.3693
 2632SOL    HW219359   0.447   0.220   9.192  0.0394  1.2706  0.5060
 2633SOL     OW19360   0.353   1.121   2.612 -0.0302 -0.3844  0.7008
 2633SOL    HW119361   0.375   1.208   2.579 -0.4277 -0.5733 -0.0534
 2633SOL    HW219362   0.429   1.073   2.578  0.6899  1.3736 -0.1841
 2634SOL     OW19363   1.201   1.113   5.937  0.6212  0.3324 -0.0245
 2634SOL    HW119364   1.248   1.182   5.984  0.7488  2.2182 -2.9412
 2634SOL    HW219365   1.138   1.164   5.887 -1.1354 -1.4290  0.4093
 2635SOL     OW19366   3.379   3.997   3.734  0.1038 -0.2894  0.3618
 2635SOL    HW119367   3.465   4.031   3.710  0.3427 -2.4433 -1.8414
 2635SOL    HW219368   3.396   3.903   3.740 -1.7853 -0.5920  1.2533
 2636SOL     OW19369   3.268   4.418   1.493 -0.2039 -0.0477  0.3201
 2636SOL    HW119370   3.248   4.368   1.572 -1.8886 -1.1442 -0.8081
 2636SOL    HW219371   3.269   4.505   1.532 -1.2266 -1.2595  3.0513
 2637SOL     OW19372   4.426   0.085  17.470 -0.0465 -0.0607 -0.0373
 2637SOL    HW119373   4.339   0.084  17.509  0.2460 -0.8640  0.5872
 2637SOL    HW219374   4.484   0.036  17.528  2.5146  2.1090 -0.7865
 2638SOL     OW19375   4.024   2.676   3.891 -0.1198  0.0118  0.4480
 2638SOL    HW119376   4.022   2.608   3.824 -1.1623 -0.2658  0.7604
 2638SOL    HW219377   3.945   2.724   3.866  0.1885  1.6570  2.6535
 2639SOL     OW19378   0.582   2.186   6.171 -0.1736  0.4003 -0.0973
 2639SOL    HW119379   0.533   2.215   6.094 -2.7496 -0.1327  1.3780
 2639SOL    HW219380   0.535   2.231   6.240  2.1938  2.6295  0.0639
 2640SOL     OW19381   1.250   4.169   5.913  0.1942  0.0236 -0.6034
 2640SOL    HW119382   1.277   4.253   5.951 -2.2305  0.5726 -0.0457
 2640SOL    HW219383   1.157   4.183   5.894  0.1677  0.1932 -0.3459
 2641SOL     OW19384   2.823   1.959  13.122 -0.2442 -0.1610 -0.0601
 2641SOL    HW119385   2.889   2.009  13.170  0.0505  0.5460 -1.1971
 2641SOL    HW219386   2.775   2.025  13.072 -0.3846 -0.6095 -0.5124
 2642SOL     OW19387   4.033   1.912   5.604 -0.9165 -0.1954 -0.0267
 2642SOL    HW119388   3.943   1.944   5.591 -0.9215 -0.7014 -1.2050
 2642SOL    HW219389   4.065   1.982   5.662 -1.3170  0.1126 -0.1731
 2643SOL     OW19390   2.942   1.004  12.020  0.9875 -0.5817  0.7447
 2643SOL    HW119391   2.958   0.936  12.086  0.2378 -0.8606  0.6482
 2643SOL    HW219392   2.990   1.080  12.052 -0.9792  0.3864  1.4300
 2644SOL     OW19393   0.194   0.652   7.421  0.5070  0.0890 -0.1997
 2644SOL    HW119394   0.112   0.623   7.462  0.2376  1.7894  0.4543
 2644SOL    HW219395   0.230   0.714   7.484 -2.3913  1.7166 -0.1314
 2645SOL     OW19396   1.360   2.859   2.007  0.0483 -0.0499 -0.2414
 2645SOL    HW119397   1.305   2.792   2.047  0.1505  0.1790  0.2815
 2645SOL    HW219398   1.302   2.877   1.933  1.5871 -1.5932 -1.8277
 2646SOL     OW19399   0.446   1.924  11.374  0.1546  0.0076 -0.1342
 2646SOL    HW119400   0.390   1.985  11.422  1.4952  0.0055  1.4340
 2646SOL    HW219401   0.502   1.880  11.437 -1.5000 -1.5493  0.2669
 2647SOL     OW19402   4.182   1.646   7.945 -0.1071  0.1396  0.3780
 2647SOL    HW119403   4.274   1.621   7.934 -0.0429  2.0477 -3.3861
 2647SOL    HW219404   4.140   1.568   7.909  0.3181 -0.2030  0.6215
 2648SOL     OW19405   0.143   3.923  12.868 -0.3387 -0.4411 -0.7093
 2648SOL    HW119406   0.148   3.925  12.964 -0.6555  0.1254 -0.7049
 2648SOL    HW219407   0.083   3.996  12.854 -0.0110  0.6912  3.8341
 2649SOL     OW19408   4.244   1.256  14.596  0.1465  0.5172  0.0836
 2649SOL    HW119409   4.321   1.211  14.562 -0.1714 -2.1914  2.9814
 2649SOL    HW219410   4.180   1.222  14.533  0.8252 -1.1033  0.2762
 2650SOL     OW19411   1.521   3.676   6.712 -0.4292 -0.1237 -0.0410
 2650SOL    HW119412   1.499   3.743   6.776 -2.0219 -2.0799  1.4877
 2650SOL    HW219413   1.610   3.649   6.733 -1.1154 -3.4631 -1.3905
 2651SOL     OW19414   0.468   3.756   4.338 -0.0144  0.1548  0.1976
 2651SOL    HW119415   0.507   3.669   4.326 -2.1775 -0.8084  0.0802
 2651SOL    HW219416   0.377   3.737   4.315  0.1430 -0.2895 -0.0522
 2652SOL     OW19417   0.936   0.464   7.371  0.2259  0.2419  0.4671
 2652SOL    HW119418   1.023   0.503   7.358 -0.8613  1.4882 -3.1301
 2652SOL    HW219419   0.937   0.386   7.316 -0.1133 -0.0946  0.9334
 2653SOL     OW19420   0.559   2.580   4.599  0.5715 -0.4326 -0.1606
 2653SOL    HW119421   0.511   2.580   4.517 -1.6302  0.4030  1.1048
 2653SOL    HW219422   0.637   2.530   4.577  0.2708 -1.2108  0.5030
 2654SOL     OW19423   4.099   4.330   0.016  0.0350  0.4961 -0.5156
 2654SOL    HW119424   4.036   4.372   0.073  1.2131  1.2881  0.2135
 2654SOL    HW219425   4.131   4.401  17.660 -0.5088  0.6111 -0.6759
 2655SOL     OW19426   4.607   2.522  12.445 -0.1215 -0.0568  0.1316
 2655SOL    HW119427   4.599   2.479  12.360  1.9226 -1.2722  0.5702
 2655SOL    HW219428   4.665   2.594  12.418 -1.2647  0.4463 -0.9824
 2656SOL     OW19429   2.579   0.003   8.994 -0.2648  0.3790 -0.5263
 2656SOL    HW119430   2.545   0.090   9.014 -1.0806 -0.5069  1.9882
 2656SOL    HW219431   2.630   0.021   8.915  1.5368  0.0418  0.5592
 2657SOL     OW19432   2.806   0.797   7.960  0.1889  0.0207  0.1479
 2657SOL    HW119433   2.809   0.724   8.022 -1.1308  0.3830  0.6492
 2657SOL    HW219434   2.887   0.780   7.913  0.1561 -1.1148  0.4990
 2658SOL     OW19435   2.476   2.744   8.294  0.1154 -0.0468 -0.0885
 2658SOL    HW119436   2.390   2.786   8.292 -0.5839 -1.4692  0.0134
 2658SOL    HW219437   2.513   2.787   8.218 -0.2988  0.1621 -0.1717
 2659SOL     OW19438   2.363   3.880   4.927 -0.4319  0.6957  0.1854
 2659SOL    HW119439   2.283   3.828   4.920  0.4952 -0.8140  0.7685
 2659SOL    HW219440   2.425   3.811   4.949 -2.1774 -0.1154  2.5523
 2660SOL     OW19441   1.311   1.206   6.910 -0.1567 -0.3229 -0.3942
 2660SOL    HW119442   1.282   1.251   6.831  0.6928  1.0614  0.1012
 2660SOL    HW219443   1.319   1.286   6.962  0.2903 -1.0169  0.6166
 2661SOL     OW19444   3.052   2.300   2.325  0.1092  0.5038  0.3002
 2661SOL    HW119445   2.980   2.242   2.350 -1.1699  2.0662  0.2211
 2661SOL    HW219446   3.123   2.237   2.339 -1.9433 -1.3030  2.5624
 2662SOL     OW19447   1.127   3.584   4.722 -0.1286  0.0026  0.4231
 2662SOL    HW119448   1.115   3.585   4.627 -0.1083  0.3270  0.4253
 2662SOL    HW219449   1.163   3.670   4.742 -1.0262  0.6359 -0.7402
 2663SOL     OW19450   0.833   0.360  12.369  0.0110  0.3878  0.1302
 2663SOL    HW119451   0.772   0.381  12.440  2.1228  1.5284  1.6032
 2663SOL    HW219452   0.855   0.269  12.390  0.0293  0.0772 -1.2632
 2664SOL     OW19453   2.893   1.569   8.487  0.1060 -0.5404  0.7392
 2664SOL    HW119454   2.964   1.506   8.496  1.6793  0.8790 -1.9271
 2664SOL    HW219455   2.808   1.524   8.488 -0.9678  1.4681 -2.6381
 2665SOL     OW19456   1.018   0.810   4.819 -0.6625 -0.8179  0.5473
 2665SOL    HW119457   0.943   0.757   4.846  0.7644 -2.8679  0.4550
 2665SOL    HW219458   1.058   0.831   4.904  0.7643 -1.4775  0.0346
 2666SOL     OW19459   3.845   4.623  15.765  0.7251 -0.3882  0.4214
 2666SOL    HW119460   3.829   4.676  15.687 -1.5945 -1.2314  0.3191
 2666SOL    HW219461   3.781   4.655  15.827  1.6666  0.4980  0.9317
 2667SOL     OW19462   2.655   2.490   4.610 -0.0172 -0.1906 -0.3218
 2667SOL    HW119463   2.716   2.425   4.645  0.1511 -0.5629 -1.3129
 2667SOL    HW219464   2.597   2.432   4.561  1.1834  0.6986 -2.7938
 2668SOL     OW19465   3.014   3.266   9.764 -0.2240 -0.4445  0.3418
 2668SOL    HW119466   3.057   3.297   9.844 -1.7302 -0.1769  1.0593
 2668SOL    HW219467   2.979   3.348   9.728 -1.6102 -1.3576 -0.4139
 2669SOL     OW19468   3.724   1.476   4.532 -0.1124  0.2135 -0.0646
 2669SOL    HW119469   3.672   1.556   4.529  1.2832  1.2351  2.9117
 2669SOL    HW219470   3.659   1.415   4.497 -1.0483  1.6738 -0.8478
 2670SOL     OW19471   1.358   3.708  16.678  0.0094  0.2110  0.2213
 2670SOL    HW119472   1.381   3.800  16.695  1.2024  0.6055 -3.5345
 2670SOL    HW219473   1.417   3.686  16.605  0.9873  0.2843  0.9924
 2671SOL     OW19474   4.684   2.346   5.482  0.2965  0.2201 -0.1598
 2671SOL    HW119475   4.705   2.270   5.535  0.2680 -0.4772 -1.1451
 2671SOL    HW219476   0.017   2.410   5.523  0.0406  0.4572 -0.1680
 2672SOL     OW19477   1.169   2.666   2.154  0.1488  0.2565 -0.3183
 2672SOL    HW119478   1.168   2.571   2.161  0.2683  0.1405 -1.8658
 2672SOL    HW219479   1.184   2.695   2.244 -1.6686 -1.9731  0.6993
 2673SOL     OW19480   2.766   1.004   4.054 -0.2023 -0.2620 -0.0971
 2673SOL    HW119481   2.697   1.069   4.069 -0.3650 -0.3270 -0.5567
 2673SOL    HW219482   2.802   1.025   3.968  0.1185  2.4229  0.6972
 2674SOL     OW19483   1.682   3.527   5.643 -0.0786 -0.2866 -0.3990
 2674SOL    HW119484   1.729   3.443   5.640 -1.4924 -1.0413 -1.6392
 2674SOL    HW219485   1.598   3.501   5.605 -0.9407 -0.5440  1.6840
 2675SOL     OW19486   1.814   2.732   2.612  0.5077  0.2523 -0.6830
 2675SOL    HW119487   1.834   2.664   2.547  2.2086  1.0208 -0.9778
 2675SOL    HW219488   1.882   2.718   2.678  0.0880 -0.3706 -0.3877
 2676SOL     OW19489   0.235   1.079   3.793 -0.3593  0.4124  0.0733
 2676SOL    HW119490   0.204   1.001   3.839 -0.2369  0.8973  0.9939
 2676SOL    HW219491   0.164   1.099   3.732 -0.8033  0.6636  0.6709
 2677SOL     OW19492   4.337   2.177   1.630  0.1508 -0.0596  0.3998
 2677SOL    HW119493   4.269   2.117   1.662 -2.5087  2.4254 -0.5264
 2677SOL    HW219494   4.415   2.124   1.643  0.9019  0.6416 -1.3644
 2678SOL     OW19495   2.322   0.624   2.309  0.0812 -0.0506  0.3491
 2678SOL    HW119496   2.405   0.576   2.302 -0.0971 -0.7083  2.7022
 2678SOL    HW219497   2.273   0.553   2.268  0.4136  0.9772 -1.8505
 2679SOL     OW19498   3.159   3.714   3.303 -0.6354  0.0755 -0.2013
 2679SOL    HW119499   3.141   3.634   3.253  0.1553 -0.5969  0.5843
 2679SOL    HW219500   3.153   3.774   3.228  0.4003  1.5837  0.9333
 2680SOL     OW19501   4.670   4.499   7.558 -0.1963  0.2545  0.0459
 2680SOL    HW119502   4.656   4.563   7.628 -0.0219  1.5312 -1.0810
 2680SOL    HW219503   4.678   4.547   7.476  2.6524  0.9372  0.7429
 2681SOL     OW19504   0.368   0.875   2.959 -0.1290  0.4680 -0.2969
 2681SOL    HW119505   0.361   0.792   3.006  0.0924  0.3423 -0.4853
 2681SOL    HW219506   0.325   0.859   2.875  1.0151  3.0018 -1.3802
 2682SOL     OW19507   2.449   2.225   2.689  0.4171  0.2655 -0.0602
 2682SOL    HW119508   2.532   2.223   2.736 -0.4421 -2.3687  1.3147
 2682SOL    HW219509   2.411   2.141   2.715 -0.4975  0.3483 -1.0920
 2683SOL     OW19510   4.272   0.115   5.377  0.2714  0.5057  0.9024
 2683SOL    HW119511   4.253   0.043   5.437 -0.1210  1.2290  1.6349
 2683SOL    HW219512   4.296   0.184   5.438  2.5365 -0.2941  0.9411
 2684SOL     OW19513   3.139   0.427   6.254  0.0641  0.4480  0.4158
 2684SOL    HW119514   3.178   0.345   6.225  1.4361  0.9288  0.8777
 2684SOL    HW219515   3.145   0.409   6.348 -0.6164 -1.4425  0.0983
 2685SOL     OW19516   0.068   2.396   6.787 -0.3315 -0.3787 -0.0337
 2685SOL    HW119517   0.104   2.451   6.856  1.5271  0.7067 -1.8589
 2685SOL    HW219518   0.141   2.373   6.729  0.2079  1.2873 -0.0132
 2686SOL     OW19519   0.437   2.423   8.245  0.7824  0.0929  0.7297
 2686SOL    HW119520   0.522   2.381   8.258 -0.2750 -3.1876 -2.9131
 2686SOL    HW219521   0.454   2.504   8.292 -2.2448  0.9345  0.3261
 2687SOL     OW19522   4.377   0.251  15.538  0.0871 -0.5172  0.3856
 2687SOL    HW119523   4.348   0.233  15.449 -1.0880  2.2446  0.2100
 2687SOL    HW219524   4.427   0.331  15.525  0.8813 -1.2532 -1.1612
 2688SOL     OW19525   2.139   1.848   9.513 -0.2727  0.1337  0.3206
 2688SOL    HW119526   2.162   1.924   9.566  1.5706 -0.6115  0.5833
 2688SOL    HW219527   2.112   1.884   9.429 -1.0583 -0.8866  0.1270
 2689SOL     OW19528   3.220   4.077   6.478 -0.1917 -0.1074  0.2858
 2689SOL    HW119529   3.189   4.129   6.403 -1.8756 -1.2454  0.1778
 2689SOL    HW219530   3.166   4.093   6.555  0.6972  0.7466  0.7259
 2690SOL     OW19531   1.454   0.107  11.650  0.0108 -0.0989  0.2535
 2690SOL    HW119532   1.436   0.032  11.593 -0.9195  2.0517 -2.2504
 2690SOL    HW219533   1.442   0.175  11.584  1.3685  0.6753  0.8146
 2691SOL     OW19534   1.777   4.368   7.349  0.0413  0.2177 -0.0232
 2691SOL    HW119535   1.727   4.300   7.394 -0.1914 -0.9588 -2.0584
 2691SOL    HW219536   1.712   4.429   7.314  1.0091  0.7760 -0.8743
 2692SOL     OW19537   4.496   2.512   5.303 -0.1134  0.5303  0.3756
 2692SOL    HW119538   4.549   2.480   5.377  1.6898  1.7316 -0.3841
 2692SOL    HW219539   4.514   2.434   5.250  0.1476  1.1602 -0.4635
 2693SOL     OW19540   1.433   1.260   3.597 -0.0298  0.1193  0.1618
 2693SOL    HW119541   1.408   1.317   3.670  0.9372 -0.4268  0.9235
 2693SOL    HW219542   1.432   1.322   3.524 -0.5873 -0.8441 -0.6419
 2694SOL     OW19543   3.129   0.428   2.978 -0.3035  0.2276  0.1452
 2694SOL    HW119544   3.089   0.347   3.012 -1.7730  1.4981  1.4178
 2694SOL    HW219545   3.217   0.420   3.014 -0.7294  1.9942  1.5926
 2695SOL     OW19546   0.834   2.288   1.593  0.0367  0.0187 -0.1019
 2695SOL    HW119547   0.888   2.333   1.658  1.0748 -0.7559 -0.4160
 2695SOL    HW219548   0.748   2.322   1.618 -0.1880 -1.1343  0.7243
 2696SOL     OW19549   3.809   4.246   3.567  0.0380 -0.2272 -0.2344
 2696SOL    HW119550   3.840   4.281   3.483  2.6011 -1.1482  0.3284
 2696SOL    HW219551   3.899   4.216   3.580  1.2416  2.0581 -3.4077
 2697SOL     OW19552   0.669   2.348  12.971 -0.1461  0.7128  0.4426
 2697SOL    HW119553   0.601   2.373  13.034 -1.2189  0.9597 -0.8107
 2697SOL    HW219554   0.623   2.353  12.887  1.3083  1.5470 -0.2959
 2698SOL     OW19555   2.347   4.608  12.645  0.4610 -0.3232  0.3805
 2698SOL    HW119556   2.276   4.546  12.628  1.5284 -1.3409 -0.4235
 2698SOL    HW219557   2.375   4.615  12.553 -0.1311  0.8398  0.2834
 2699SOL     OW19558   2.186   1.344   2.267 -0.3379 -0.3116  0.3214
 2699SOL    HW119559   2.110   1.307   2.223 -1.1494  0.7923  0.7972
 2699SOL    HW219560   2.220   1.392   2.192 -0.1008 -2.1890 -0.7716
 2700SOL     OW19561   0.554   0.535  15.526  0.2687  0.2459 -0.1962
 2700SOL    HW119562   0.554   0.440  15.516 -0.1875  0.1499  0.7845
 2700SOL    HW219563   0.635   0.556  15.480  0.2750  3.2389  1.1384
 2701SOL     OW19564   0.249   4.284   7.359  0.3177  0.7381  0.6301
 2701SOL    HW119565   0.187   4.308   7.290  0.3879 -0.5045  0.1272
 2701SOL    HW219566   0.294   4.367   7.376 -0.7841  1.9759 -2.5620
 2702SOL     OW19567   3.329   0.171   9.066  0.2220 -0.0176  0.1349
 2702SOL    HW119568   3.352   0.237   9.001 -2.5414 -0.7465 -1.5606
 2702SOL    HW219569   3.237   0.194   9.082 -0.7427 -2.7147 -1.6701
 2703SOL     OW19570   4.284   0.365   7.302  0.2789  0.6151 -0.1773
 2703SOL    HW119571   4.301   0.274   7.327 -1.3100 -0.6652 -3.7532
 2703SOL    HW219572   4.374   0.387   7.280  0.6749 -0.0790  0.7193
 2704SOL     OW19573   1.782   2.263   6.188  0.5889  0.6616 -0.7990
 2704SOL    HW119574   1.755   2.347   6.225  1.4459  0.1370  0.9988
 2704SOL    HW219575   1.836   2.286   6.112  3.8846 -0.0551  1.3661
 2705SOL     OW19576   1.824   1.673   1.217 -0.0010  0.7331  0.3242
 2705SOL    HW119577   1.860   1.678   1.128  1.3797  0.5844  0.8712
 2705SOL    HW219578   1.849   1.588   1.254 -0.1062 -0.9514 -3.4171
 2706SOL     OW19579   2.964   0.487   3.532 -0.0854 -0.0025 -0.4438
 2706SOL    HW119580   3.029   0.496   3.462  0.5279 -0.1350  0.1091
 2706SOL    HW219581   2.956   0.392   3.528  0.4521 -0.0638 -0.1459
 2707SOL     OW19582   0.598   3.749   6.891  0.4074  0.0251  0.8270
 2707SOL    HW119583   0.542   3.687   6.937 -0.2084  0.3135  0.4605
 2707SOL    HW219584   0.594   3.828   6.945 -4.6786 -0.2396  0.7786
 2708SOL     OW19585   4.300   1.677  12.183  0.0366 -0.0015  0.3834
 2708SOL    HW119586   4.258   1.763  12.188  0.0755  0.0974 -0.8498
 2708SOL    HW219587   4.389   1.697  12.157  0.4289  1.4668  2.8449
 2709SOL     OW19588   3.582   1.580   0.794 -0.3898 -0.2887  0.3954
 2709SOL    HW119589   3.523   1.523   0.844  0.6321 -3.2991 -1.8173
 2709SOL    HW219590   3.663   1.530   0.790  0.0776  0.4909  0.0871
 2710SOL     OW19591   2.455   4.042   8.136 -0.0628 -0.1598  0.0840
 2710SOL    HW119592   2.461   3.950   8.110  1.0957 -0.4392  1.3760
 2710SOL    HW219593   2.360   4.052   8.143 -0.1859 -1.5278  0.3208
 2711SOL     OW19594   3.836   4.403  15.917 -0.3244  0.3739  0.4484
 2711SOL    HW119595   3.875   4.457  15.848 -0.1100  1.5489  1.4971
 2711SOL    HW219596   3.895   4.412  15.992  1.1792 -0.7129 -0.6108
 2712SOL     OW19597   4.368   1.214  10.158 -0.2131 -0.0132 -0.3750
 2712SOL    HW119598   4.411   1.242  10.239  2.2794 -1.8727 -1.0649
 2712SOL    HW219599   4.302   1.152  10.189 -1.9325  2.7444  1.4695
 2713SOL     OW19600   4.706   3.805  11.677  0.1929  0.0977  0.0205
 2713SOL    HW119601   4.624   3.837  11.716  0.4282  1.0937 -0.3009
 2713SOL    HW219602   0.044   3.831  11.744 -0.7070 -1.1459  1.3430
 2714SOL     OW19603   0.814   1.484   4.734 -0.0436 -0.0083 -0.0524
 2714SOL    HW119604   0.798   1.440   4.818  1.9647 -0.3704  0.1364
 2714SOL    HW219605   0.869   1.559   4.756 -0.4098 -0.0734  1.0780
 2715SOL     OW19606   0.148   2.732   3.573  0.3016 -0.2288 -0.6876
 2715SOL    HW119607   0.104   2.813   3.599  0.3883 -0.0132 -1.2152
 2715SOL    HW219608   0.208   2.721   3.646 -0.6863 -3.7532 -0.4315
 2716SOL     OW19609   2.858   1.566  12.861  0.2536  0.1431  0.1918
 2716SOL    HW119610   2.928   1.507  12.889  1.5608  1.7661  0.3539
 2716SOL    HW219611   2.838   1.611  12.943 -1.0242 -0.8752  0.4250
 2717SOL     OW19612   1.563   1.900  13.117 -0.2417  0.1184 -0.1431
 2717SOL    HW119613   1.626   1.844  13.160 -0.2392 -0.8757 -1.4460
 2717SOL    HW219614   1.606   1.985  13.108  1.2607 -0.7386 -0.9479
 2718SOL     OW19615   3.773   0.045   1.823 -0.0091  0.3084 -0.0636
 2718SOL    HW119616   3.724   4.696   1.785  3.0411  0.1810 -3.7035
 2718SOL    HW219617   3.703   0.103   1.853  0.3707 -0.0192  1.4450
 2719SOL     OW19618   2.394   2.890   8.549  0.1567  0.4801  0.3867
 2719SOL    HW119619   2.461   2.932   8.603 -0.0677  0.1264  0.9364
 2719SOL    HW219620   2.444   2.810   8.531  1.2019  0.9459  1.2266
 2720SOL     OW19621   3.096   0.838   8.451 -0.3991 -0.0610 -0.1567
 2720SOL    HW119622   3.092   0.864   8.359 -2.5552 -0.6141 -0.2193
 2720SOL    HW219623   3.167   0.895   8.482 -0.8925 -1.3313  3.2975
 2721SOL     OW19624   0.244   2.870   2.282  0.5175 -0.7908 -0.5695
 2721SOL    HW119625   0.177   2.908   2.225  0.4310  0.0282  0.0733
 2721SOL    HW219626   0.192   2.845   2.359 -0.3057  2.4570 -0.0632
 2722SOL     OW19627   0.669   3.631   5.591  0.2459 -0.3681 -0.2350
 2722SOL    HW119628   0.664   3.536   5.588  2.9039 -0.4938 -0.1905
 2722SOL    HW219629   0.606   3.640   5.520  0.0467  1.2557  0.1475
 2723SOL     OW19630   3.524   0.849   3.615  0.4141 -0.1946 -0.0352
 2723SOL    HW119631   3.574   0.902   3.552  1.7101 -0.6776  0.6010
 2723SOL    HW219632   3.520   0.903   3.694 -2.5773  0.9354 -0.9309
 2724SOL     OW19633   3.144   2.560   7.356 -0.0005 -0.0141  0.1364
 2724SOL    HW119634   3.121   2.641   7.311 -1.5854  0.1192  1.1591
 2724SOL    HW219635   3.106   2.496   7.296  0.4066 -0.0468 -0.0808
 2725SOL     OW19636   3.610   4.323   5.086 -0.0116 -0.4628 -0.3087
 2725SOL    HW119637   3.693   4.291   5.050  0.2621  1.8334 -1.7837
 2725SOL    HW219638   3.551   4.323   5.011  0.7934  0.4923 -0.9614
 2726SOL     OW19639   4.657   2.525   1.015 -0.5673  0.0846  0.2898
 2726SOL    HW119640   4.697   2.587   1.075 -3.2690  0.8942  1.2245
 2726SOL    HW219641   0.014   2.480   0.990  0.0101  0.5554  1.3188
 2727SOL     OW19642   2.477   0.694  12.780  0.3158  0.1534 -0.2989
 2727SOL    HW119643   2.499   0.603  12.760 -0.9432 -0.1489 -0.3580
 2727SOL    HW219644   2.553   0.716  12.833  0.1292  0.1923 -0.0462
 2728SOL     OW19645   4.426   3.091   1.687 -0.5524  0.1510 -0.7302
 2728SOL    HW119646   4.409   3.029   1.616  2.5511  1.6185 -2.7308
 2728SOL    HW219647   4.339   3.128   1.701 -0.1878 -0.4861  3.0576
 2729SOL     OW19648   0.626   2.494   5.644 -0.0409  0.0118 -0.5703
 2729SOL    HW119649   0.659   2.489   5.554  3.1529  1.7145  0.5014
 2729SOL    HW219650   0.558   2.560   5.631 -0.8741 -0.7485 -0.0976
 2730SOL     OW19651   3.923   0.638   1.430  0.3473  0.7722  0.1129
 2730SOL    HW119652   3.829   0.622   1.434  0.2668  0.4110 -3.6326
 2730SOL    HW219653   3.954   0.616   1.342  0.3832 -0.8819  0.5522
 2731SOL     OW19654   1.534   0.982  10.998  0.0791  0.1592 -0.0120
 2731SOL    HW119655   1.582   0.942  10.926  1.0728 -0.9021  1.2499
 2731SOL    HW219656   1.607   0.966  11.058 -0.9899 -1.9675  0.7355
 2732SOL     OW19657   3.454   0.387   2.298  0.2448  0.3595  0.6368
 2732SOL    HW119658   3.367   0.424   2.284 -0.4035 -1.2345  0.5202
 2732SOL    HW219659   3.482   0.366   2.209 -0.7645  0.5898  0.2702
 2733SOL     OW19660   2.743   3.632   8.016  0.4319  0.2627 -0.1698
 2733SOL    HW119661   2.719   3.542   7.994 -1.5918  0.5101  1.0324
 2733SOL    HW219662   2.696   3.628   8.100  1.4192 -0.7466  0.3365
 2734SOL     OW19663   3.752   4.507   7.424  0.9031  0.3454  0.2629
 2734SOL    HW119664   3.771   4.429   7.372  0.0851 -1.5236  2.7767
 2734SOL    HW219665   3.662   4.491   7.454  1.6550 -3.5000  0.5404
 2735SOL     OW19666   3.694   2.722  10.898 -0.3946 -0.0271 -0.0146
 2735SOL    HW119667   3.712   2.763  10.814  1.3844 -0.7743 -0.0006
 2735SOL    HW219668   3.778   2.676  10.903  0.0081  0.5588 -1.5066
 2736SOL     OW19669   1.674   1.538  15.554 -0.5172  0.1759 -0.3564
 2736SOL    HW119670   1.717   1.462  15.593 -0.9156  0.2045  0.1433
 2736SOL    HW219671   1.608   1.485  15.511 -2.2119  2.3163 -0.3836
 2737SOL     OW19672   0.722   2.514   8.777  0.0218  0.0600  0.9640
 2737SOL    HW119673   0.767   2.598   8.773  1.5711 -0.7632  1.1051
 2737SOL    HW219674   0.678   2.509   8.691 -0.7472 -1.1990  1.4200
 2738SOL     OW19675   1.961   1.314  10.710  0.0303  0.2505  0.0696
 2738SOL    HW119676   1.900   1.245  10.684 -0.1666  0.7970 -0.9276
 2738SOL    HW219677   1.905   1.380  10.752 -0.0113 -0.5504  1.2691
 2739SOL     OW19678   0.651   3.648   1.519 -0.0845 -0.4685 -0.6184
 2739SOL    HW119679   0.726   3.706   1.525  1.4758 -2.5738  0.0849
 2739SOL    HW219680   0.691   3.561   1.518  0.7432 -0.0977  0.7717
 2740SOL     OW19681   4.217   1.677   3.796  0.1294  0.1256  0.6742
 2740SOL    HW119682   4.309   1.660   3.776  0.2404  0.7706  0.6253
 2740SOL    HW219683   4.181   1.676   3.708 -0.7115 -1.3164  1.0387
 2741SOL     OW19684   0.896   1.125   7.047  0.2011 -0.1583  0.1018
 2741SOL    HW119685   0.974   1.070   7.049  0.1434 -0.3058 -1.9783
 2741SOL    HW219686   0.928   1.199   6.995  0.2291 -0.5778 -0.4707
 2742SOL     OW19687   0.686   4.587  17.225  0.8444 -0.2351 -0.3110
 2742SOL    HW119688   0.618   4.558  17.286  2.3667 -1.6926  0.6867
 2742SOL    HW219689   0.667   4.538  17.145 -0.4311  1.4093 -1.0381
 2743SOL     OW19690   2.131   1.919  14.088 -0.3530 -0.2967  0.9252
 2743SOL    HW119691   2.218   1.885  14.110 -1.1147 -1.4515  2.1337
 2743SOL    HW219692   2.121   1.980  14.161  1.0328  1.8632 -0.6753
 2744SOL     OW19693   1.667   0.866  17.174  0.2461  0.1164 -0.1646
 2744SOL    HW119694   1.713   0.943  17.140  0.4254  0.0280 -0.1166
 2744SOL    HW219695   1.652   0.812  17.096  0.4381 -1.5239  0.9366
 2745SOL     OW19696   1.691   4.660  15.017  0.0859  0.2500  0.0012
 2745SOL    HW119697   1.630   4.706  15.074 -0.8416  1.0381 -1.6335
 2745SOL    HW219698   1.684   4.710  14.936 -0.6328 -0.7430 -0.5492
 2746SOL     OW19699   0.395   1.497   9.385 -0.8496  0.1520 -0.3391
 2746SOL    HW119700   0.485   1.518   9.359 -1.6140  0.8567 -2.3918
 2746SOL    HW219701   0.401   1.404   9.364  2.0383  0.1484  0.4367
 2747SOL     OW19702   3.867   2.229   5.066 -0.4070  0.0929  0.2258
 2747SOL    HW119703   3.931   2.173   5.021 -1.7002 -0.8983 -0.3989
 2747SOL    HW219704   3.790   2.172   5.061  0.9163 -1.6996  0.0522
 2748SOL     OW19705   3.727   1.478   1.637 -0.1868 -0.1112  0.1867
 2748SOL    HW119706   3.746   1.389   1.609 -1.2947 -0.2990  0.0352
 2748SOL    HW219707   3.800   1.527   1.598 -0.8684  0.3026 -0.5732
 2749SOL     OW19708   4.507   2.293   6.295 -0.4334  0.0212 -0.2418
 2749SOL    HW119709   4.526   2.319   6.385  0.4371  0.4317 -0.5461
 2749SOL    HW219710   4.554   2.209   6.290  0.9494  0.7879  0.0591
 2750SOL     OW19711   0.849   0.167  13.519 -0.0031  0.5416  0.8309
 2750SOL    HW119712   0.917   0.101  13.512 -0.9653 -0.1168 -2.2448
 2750SOL    HW219713   0.771   0.120  13.489  0.7352 -0.9575  1.2573
 2751SOL     OW19714   2.680   4.684   4.298  0.0223 -0.7894 -0.1533
 2751SOL    HW119715   2.606   4.704   4.241  0.0703 -0.8137 -0.2242
 2751SOL    HW219716   2.624   4.633   4.357  1.1628 -0.8851  0.8359
 2752SOL     OW19717   1.880   3.605   1.083 -0.0615  0.7003 -0.2387
 2752SOL    HW119718   1.871   3.650   0.998 -2.0202 -2.2056 -1.5634
 2752SOL    HW219719   1.805   3.636   1.133  0.4388  0.3749  0.7083
 2753SOL     OW19720   0.796   0.770   3.494  0.1677 -0.3768  0.1604
 2753SOL    HW119721   0.811   0.743   3.584 -0.3895 -0.7564  0.1408
 2753SOL    HW219722   0.864   0.727   3.442  0.4712  1.5394 -1.0301
 2754SOL     OW19723   2.770   1.823  16.199 -0.1885 -0.0940  0.2506
 2754SOL    HW119724   2.720   1.747  16.229  0.2332  0.6414  2.7954
 2754SOL    HW219725   2.701   1.888  16.211  0.2086  0.2612  0.5955
 2755SOL     OW19726   0.309   2.525  14.990  0.1838  0.8097  0.4503
 2755SOL    HW119727   0.397   2.488  14.998 -0.4637 -0.3759  2.2793
 2755SOL    HW219728   0.271   2.460  14.931 -1.2757  1.9125  0.1816
 2756SOL     OW19729   3.866   1.212   6.339  0.0815 -0.1637  0.2197
 2756SOL    HW119730   3.794   1.275   6.338 -0.5016 -0.7272  4.2008
 2756SOL    HW219731   3.884   1.216   6.433  1.7979  1.5742 -0.1704
 2757SOL     OW19732   3.828   4.466  14.304  0.4430 -0.4872  0.0469
 2757SOL    HW119733   3.856   4.394  14.360  0.7229 -0.2580  0.2049
 2757SOL    HW219734   3.863   4.443  14.218 -1.0070  0.6580 -0.8471
 2758SOL     OW19735   3.847   1.225   1.556 -0.1585  0.1828 -0.3928
 2758SOL    HW119736   3.896   1.150   1.522  0.4233 -0.8332  2.6747
 2758SOL    HW219737   3.762   1.191   1.526 -0.1707  0.0732 -0.2387
 2759SOL     OW19738   3.454   3.346  12.129 -0.0751  0.6075  0.0037
 2759SOL    HW119739   3.362   3.356  12.150 -0.0197 -0.0208  0.5616
 2759SOL    HW219740   3.467   3.418  12.068  0.1593  2.2866  2.0513
 2760SOL     OW19741   3.353   0.201   2.867  0.1892 -0.4193 -0.1863
 2760SOL    HW119742   3.324   0.120   2.909  0.1827  0.3201  1.2273
 2760SOL    HW219743   3.355   0.267   2.936 -0.2977  0.4258 -0.9770
 2761SOL     OW19744   0.573   3.568   7.701 -0.4966 -0.2696  0.4032
 2761SOL    HW119745   0.493   3.533   7.740  0.7128 -1.4863  1.8007
 2761SOL    HW219746   0.535   3.650   7.672 -0.2338  0.6046  2.5208
 2762SOL     OW19747   0.657   4.393  16.212  0.0885  0.8152  0.1932
 2762SOL    HW119748   0.645   4.356  16.125  1.3048  0.5048  0.1577
 2762SOL    HW219749   0.744   4.368  16.244 -0.1834  0.3156  0.5512
 2763SOL     OW19750   1.801   0.183  12.236  0.0389 -0.1005 -0.1705
 2763SOL    HW119751   1.719   0.180  12.187 -1.7159 -0.8944  2.8019
 2763SOL    HW219752   1.865   0.152  12.173  0.3666 -1.5400  0.8556
 2764SOL     OW19753   0.139   0.490   6.003  0.5399  0.8388  0.0164
 2764SOL    HW119754   0.054   0.503   5.961 -0.8103 -3.4920  1.3947
 2764SOL    HW219755   0.171   0.408   5.967 -0.8766  0.3863 -0.2169
 2765SOL     OW19756   0.374   2.185   4.781 -0.1818  0.6974 -0.6065
 2765SOL    HW119757   0.283   2.212   4.767 -0.3248  1.6082  2.0542
 2765SOL    HW219758   0.415   2.265   4.751  1.9615 -0.7128 -1.4174
 2766SOL     OW19759   1.430   4.586   1.410  0.0835  0.3954 -0.2945
 2766SOL    HW119760   1.451   4.679   1.412 -1.8003  0.8035  0.4633
 2766SOL    HW219761   1.506   4.552   1.457 -0.4528 -1.6251 -0.8655
 2767SOL     OW19762   1.492   4.419   3.759  0.3156 -0.4024 -0.1972
 2767SOL    HW119763   1.533   4.505   3.767 -0.2300 -0.0097 -1.5428
 2767SOL    HW219764   1.457   4.419   3.848  0.9392 -0.8829  0.0418
 2768SOL     OW19765   1.399   4.298  10.876 -0.2224 -0.1316 -0.0402
 2768SOL    HW119766   1.364   4.289  10.965 -0.3911 -0.3887 -0.1333
 2768SOL    HW219767   1.372   4.388  10.857 -3.1959 -0.5711  1.9609
 2769SOL     OW19768   2.669   3.798  14.589 -0.6254 -0.2485 -0.5138
 2769SOL    HW119769   2.621   3.879  14.606 -1.5424 -1.1867  1.3919
 2769SOL    HW219770   2.670   3.779  14.495  1.6629  3.7432 -1.2919
 2770SOL     OW19771   2.409   2.631  11.568 -0.2199  0.2817  0.7795
 2770SOL    HW119772   2.389   2.541  11.595 -0.7161  0.2368  0.2480
 2770SOL    HW219773   2.488   2.625  11.515 -1.9338  0.6440 -1.7690
 2771SOL     OW19774   4.479   3.322  10.092 -0.1665  0.1948  0.4488
 2771SOL    HW119775   4.395   3.318  10.045  0.8836  0.2660 -1.4393
 2771SOL    HW219776   4.544   3.264  10.052 -0.5713  1.3385 -1.8278
 2772SOL     OW19777   4.643   0.127   7.127 -0.1989 -0.4644  0.3682
 2772SOL    HW119778   4.597   0.113   7.044  0.5770 -1.8340  0.1700
 2772SOL    HW219779   4.633   0.041   7.168 -0.2335 -0.2122  0.8909
 2773SOL     OW19780   0.840   0.134  15.229 -0.2199  0.0394 -0.2158
 2773SOL    HW119781   0.859   0.156  15.138 -2.7775 -0.6490 -0.9172
 2773SOL    HW219782   0.891   0.196  15.281 -0.5270 -0.2231  0.3980
 2774SOL     OW19783   4.054   3.999   9.371 -0.7509 -0.7747 -0.3996
 2774SOL    HW119784   4.149   3.999   9.367 -0.7461  1.4257 -0.1644
 2774SOL    HW219785   4.034   3.964   9.283 -0.1948 -1.0508 -0.4151
 2775SOL     OW19786   2.275   4.289   7.756 -0.3106 -0.6299  0.6951
 2775SOL    HW119787   2.332   4.256   7.687  0.0757 -0.5518  0.9793
 2775SOL    HW219788   2.208   4.222   7.763 -1.1234 -0.0594 -1.4972
 2776SOL     OW19789   0.840   1.997   5.581  0.2350  0.7297 -0.8079
 2776SOL    HW119790   0.907   2.032   5.522  2.6979  0.1155  1.6259
 2776SOL    HW219791   0.897   1.948   5.640 -0.0309  0.8796 -0.4303
 2777SOL     OW19792   3.062   3.271  15.666  0.0948 -0.0305 -0.2917
 2777SOL    HW119793   3.038   3.255  15.575  2.8207  1.3755 -1.2554
 2777SOL    HW219794   3.107   3.189  15.684 -0.5097 -0.4828 -0.8656
 2778SOL     OW19795   2.282   2.649   3.292  0.3149  0.3130 -0.1998
 2778SOL    HW119796   2.358   2.707   3.282  0.2279  0.2696 -1.1214
 2778SOL    HW219797   2.272   2.633   3.386  1.2680 -1.6827 -0.4429
 2779SOL     OW19798   3.831   3.888   6.137 -0.2222 -0.7648  0.3625
 2779SOL    HW119799   3.832   3.820   6.070  0.1795 -0.7570  0.3550
 2779SOL    HW219800   3.879   3.961   6.098 -0.6445 -0.2285  0.8390
 2780SOL     OW19801   1.377   1.529   1.394  0.5662 -0.5079  0.1343
 2780SOL    HW119802   1.397   1.595   1.328  1.6535  0.8199  1.7919
 2780SOL    HW219803   1.282   1.537   1.406  0.5459  1.4487 -1.5011
 2781SOL     OW19804   2.521   1.814   8.763  0.2674 -0.2816 -0.2080
 2781SOL    HW119805   2.579   1.738   8.770  1.9105  0.9262 -0.7544
 2781SOL    HW219806   2.583   1.886   8.775  1.3876 -1.5666  1.6362
 2782SOL     OW19807   2.240   0.277  11.250 -0.0474 -0.1575 -0.0377
 2782SOL    HW119808   2.150   0.299  11.274 -0.5000  0.0485 -1.8845
 2782SOL    HW219809   2.267   0.234  11.331 -1.5911  0.0338  0.5729
 2783SOL     OW19810   1.956   4.045  15.770  0.2067 -0.0945  0.4212
 2783SOL    HW119811   2.050   4.032  15.758 -0.0310 -0.1660 -1.3956
 2783SOL    HW219812   1.930   3.954  15.785  3.4233 -0.9552  0.8073
 2784SOL     OW19813   2.537   4.507   7.428 -0.4103  0.2581  0.5336
 2784SOL    HW119814   2.486   4.558   7.365  0.3287  0.0165 -0.2684
 2784SOL    HW219815   2.571   4.568   7.493 -1.1613  0.1633  1.0271
 2785SOL     OW19816   1.893   1.475   7.184 -0.1620  0.2217 -0.0377
 2785SOL    HW119817   1.917   1.401   7.240  0.1118  1.3649  1.3446
 2785SOL    HW219818   1.963   1.535   7.211 -0.1549 -0.2311  0.9342
 2786SOL     OW19819   2.648   1.029   6.546  0.4670  0.2280  0.0926
 2786SOL    HW119820   2.735   1.029   6.506  0.6275 -3.2751  0.4347
 2786SOL    HW219821   2.635   0.953   6.603  0.3576  2.4052  2.9181
 2787SOL     OW19822   1.771   3.066   3.248 -0.4112 -0.0937  0.3419
 2787SOL    HW119823   1.707   3.136   3.261 -0.8493 -0.1484 -1.4088
 2787SOL    HW219824   1.852   3.115   3.260 -0.3536 -0.3035  0.7766
 2788SOL     OW19825   4.437   1.415   1.799  0.4481  0.2747  0.6695
 2788SOL    HW119826   4.373   1.344   1.793  0.7992  0.0928 -1.1139
 2788SOL    HW219827   4.454   1.413   1.705 -2.3601 -0.3062  0.1752
 2789SOL     OW19828   3.767   4.311   6.355  0.2200 -0.0149 -0.5801
 2789SOL    HW119829   3.766   4.370   6.430  0.2344  0.7089 -1.1531
 2789SOL    HW219830   3.807   4.231   6.388  1.7246  0.4715 -1.2110
 2790SOL     OW19831   4.710   4.160   3.217 -0.2638  0.1047  0.4884
 2790SOL    HW119832   4.624   4.176   3.254  0.5387  1.1395  1.9195
 2790SOL    HW219833   4.689   4.184   3.127  0.8536 -0.2122  0.1322
 2791SOL     OW19834   2.348   1.023   8.435  0.3892  0.2103  1.1095
 2791SOL    HW119835   2.340   0.962   8.508 -3.0048 -1.6646 -0.8117
 2791SOL    HW219836   2.255   1.029   8.411  1.2204 -0.6707 -2.3271
 2792SOL     OW19837   3.562   1.900   7.427  0.0634 -0.2504  0.3018
 2792SOL    HW119838   3.617   1.899   7.505  1.4056 -0.2801 -0.6392
 2792SOL    HW219839   3.598   1.978   7.384  1.8507 -0.9023  0.6243
 2793SOL     OW19840   3.684   4.632  14.538 -0.7609 -0.4702 -0.5653
 2793SOL    HW119841   3.593   4.601  14.535 -0.9963  0.2314 -0.6023
 2793SOL    HW219842   3.728   4.574  14.600 -1.6670  0.0221  0.5331
 2794SOL     OW19843   2.785   3.672  11.104 -0.4726 -0.1140  0.1564
 2794SOL    HW119844   2.796   3.682  11.010  3.4819 -2.4453  0.3877
 2794SOL    HW219845   2.876   3.695  11.123 -1.4303  4.0476 -0.1868
 2795SOL     OW19846   0.173   4.163   2.204  0.0119 -0.0689 -0.0268
 2795SOL    HW119847   0.123   4.239   2.235  0.0443 -0.3592  0.7524
 2795SOL    HW219848   0.236   4.142   2.273 -0.2802 -0.5330  0.0980
 2796SOL     OW19849   3.056   3.192   0.084  0.5277  0.9037 -0.0410
 2796SOL    HW119850   3.021   3.105   0.063 -1.6977  2.3058 -2.1389
 2796SOL    HW219851   3.119   3.200   0.013  1.6422  1.5643  1.0202
 2797SOL     OW19852   0.299   1.029   6.991 -0.4103 -0.9165  0.4759
 2797SOL    HW119853   0.319   1.038   7.085  3.7776  2.1543 -0.7032
 2797SOL    HW219854   0.206   1.049   6.987 -0.5314 -1.7722 -0.7979
 2798SOL     OW19855   2.968   3.824   4.775 -0.2359  0.4248  0.2423
 2798SOL    HW119856   2.966   3.734   4.807 -1.4155  0.1723 -0.5499
 2798SOL    HW219857   3.046   3.824   4.719  0.2315 -1.6406  0.9018
 2799SOL     OW19858   0.011   4.369   5.829  0.2252  0.0095 -0.2422
 2799SOL    HW119859   4.704   4.343   5.742  0.5435  2.6217 -1.1341
 2799SOL    HW219860   4.666   4.332   5.883  3.0002 -1.3142  2.4662
 2800SOL     OW19861   2.725   3.845   6.508 -0.5735  0.0227  0.2299
 2800SOL    HW119862   2.780   3.804   6.575 -0.4864 -1.0255 -0.4780
 2800SOL    HW219863   2.786   3.854   6.435 -0.6242 -0.0978  0.1729
 2801SOL     OW19864   4.013   2.278  15.541  0.2055  0.3831 -0.5439
 2801SOL    HW119865   3.934   2.281  15.596  0.5360 -1.0570 -0.0040
 2801SOL    HW219866   4.049   2.199  15.581 -0.9243  0.4200  0.5358
 2802SOL     OW19867   3.707   4.390  17.435  0.2994 -0.4243  0.5076
 2802SOL    HW119868   3.796   4.395  17.400  0.0063 -0.9970 -0.3093
 2802SOL    HW219869   3.704   4.473  17.482 -0.5863 -0.0540 -0.1985
 2803SOL     OW19870   3.926   4.439   5.169  0.2835  0.0509  0.1200
 2803SOL    HW119871   3.893   4.515   5.120 -1.6055 -0.9305 -0.1171
 2803SOL    HW219872   3.900   4.365   5.115  0.5574  0.3629 -0.4499
 2804SOL     OW19873   3.420   3.600   7.623 -0.4880  0.4434  0.0294
 2804SOL    HW119874   3.422   3.641   7.710  0.6946 -0.0206  0.2166
 2804SOL    HW219875   3.333   3.635   7.600 -1.2603 -0.9310  0.8306
 2805SOL     OW19876   0.921   4.393  15.719 -0.1721 -0.4732  0.2097
 2805SOL    HW119877   0.956   4.398  15.630  1.2165 -0.7704  0.7278
 2805SOL    HW219878   0.950   4.308  15.753 -0.2260 -1.7896 -3.0844
 2806SOL     OW19879   3.978   2.720  10.486  0.5656  0.3023  0.0028
 2806SOL    HW119880   3.892   2.680  10.497  1.8206 -1.7599  2.3453
 2806SOL    HW219881   3.968   2.770  10.566 -0.0691 -0.6703  0.5355
 2807SOL     OW19882   2.986   3.316   6.283 -0.2098  0.6677 -0.1557
 2807SOL    HW119883   2.977   3.249   6.351 -0.8998 -0.1266 -1.0296
 2807SOL    HW219884   2.893   3.318   6.259  0.2295 -1.8819 -2.1317
 2808SOL     OW19885   1.078   3.282   1.727  0.2407  0.0176  0.3055
 2808SOL    HW119886   0.996   3.328   1.741 -0.3773 -0.7422 -0.8116
 2808SOL    HW219887   1.048   3.211   1.671  1.8792 -1.0053  0.7157
 2809SOL     OW19888   0.154   2.691   6.937 -0.1309 -0.5558  0.3205
 2809SOL    HW119889   0.165   2.603   6.972 -0.3137  0.8258  3.8433
 2809SOL    HW219890   0.208   2.748   6.992 -0.2760  1.4002 -1.5611
 2810SOL     OW19891   2.357   1.204  16.344  0.0681 -0.7976 -0.3158
 2810SOL    HW119892   2.422   1.141  16.312 -0.4423 -0.7753 -1.3785
 2810SOL    HW219893   2.330   1.256  16.268 -2.6632  1.6808  2.3550
 2811SOL     OW19894   1.280   2.171   9.228 -0.3307 -0.2551 -0.2259
 2811SOL    HW119895   1.277   2.149   9.321 -1.2463 -1.5661 -0.5738
 2811SOL    HW219896   1.248   2.261   9.230 -1.2070 -0.5491 -1.4656
 2812SOL     OW19897   1.240   0.152   2.662 -0.7714  0.6554 -0.6523
 2812SOL    HW119898   1.191   0.226   2.626  1.5270  2.8763  0.8356
 2812SOL    HW219899   1.321   0.157   2.612  0.1187  0.1079  0.7526
 2813SOL     OW19900   3.492   3.337   3.765  0.3276 -0.2294 -0.8174
 2813SOL    HW119901   3.422   3.384   3.721  1.7876 -0.1546 -3.0849
 2813SOL    HW219902   3.488   3.251   3.722 -1.0513  0.6522 -2.4452
 2814SOL     OW19903   3.827   2.503   7.719  0.6614 -0.1858 -0.5951
 2814SOL    HW119904   3.782   2.503   7.803  1.1657 -0.1741 -0.3276
 2814SOL    HW219905   3.759   2.518   7.653 -1.0302 -0.5176  1.0856
 2815SOL     OW19906   1.902   0.646   8.046  0.3166  0.6110  0.0688
 2815SOL    HW119907   1.819   0.686   8.071  1.4699  0.0530  4.7906
 2815SOL    HW219908   1.886   0.642   7.952  0.2471  0.1449  0.1035
 2816SOL     OW19909   3.749   0.970   6.060  0.4212  0.5886 -0.6566
 2816SOL    HW119910   3.717   0.893   6.014  2.5388 -2.0280  2.2268
 2816SOL    HW219911   3.669   1.002   6.101 -0.3361 -1.2209 -0.7432
 2817SOL     OW19912   1.269   4.032   3.318  0.4814 -0.1809  0.0291
 2817SOL    HW119913   1.310   4.114   3.290  1.5510  0.2388  2.7572
 2817SOL    HW219914   1.247   4.060   3.407  3.6687  0.5630  0.6011
 2818SOL     OW19915   3.818   2.445  12.408  0.2202 -0.3894  0.2894
 2818SOL    HW119916   3.843   2.462  12.317 -0.3447 -0.5398  0.0992
 2818SOL    HW219917   3.878   2.493  12.465  0.6456 -2.0985  1.2716
 2819SOL     OW19918   0.092   1.117   8.125  0.5673  0.9944  0.3939
 2819SOL    HW119919   0.111   1.211   8.119  2.7263  0.6178  1.5172
 2819SOL    HW219920   0.121   1.116   8.216  2.6678 -2.3345 -0.3369
 2820SOL     OW19921   0.638   0.183   7.435 -0.8854  0.2881 -0.2301
 2820SOL    HW119922   0.605   0.199   7.346  0.4093  0.1584 -0.7346
 2820SOL    HW219923   0.555   0.167   7.480 -1.3313  0.2668 -1.0511
 2821SOL     OW19924   0.512   3.591   3.718  0.1805  0.1576 -0.0312
 2821SOL    HW119925   0.590   3.573   3.770 -0.3602 -1.5664  0.1734
 2821SOL    HW219926   0.559   3.597   3.635  1.9557 -0.2313  0.9550
 2822SOL     OW19927   4.313   1.301   5.883 -0.3283  0.0988  0.1115
 2822SOL    HW119928   4.367   1.287   5.961 -2.4449 -3.3515  0.9393
 2822SOL    HW219929   4.316   1.217   5.838  0.2425  0.8577 -1.2765
 2823SOL     OW19930   2.196   3.719   4.419 -0.4618  0.3998 -0.0878
 2823SOL    HW119931   2.181   3.753   4.330 -0.2586  1.5019  0.2945
 2823SOL    HW219932   2.248   3.792   4.453 -0.4910  0.9318 -1.1787
 2824SOL     OW19933   0.706   0.728  16.077 -0.3538 -0.1137  0.0880
 2824SOL    HW119934   0.671   0.723  15.988  1.1699  0.5790 -0.5498
 2824SOL    HW219935   0.699   0.638  16.111  0.0791  0.3757  1.4957
 2825SOL     OW19936   4.297   4.171  16.340 -0.0144  0.2519 -0.6528
 2825SOL    HW119937   4.349   4.244  16.310  0.2749 -0.2636 -1.3951
 2825SOL    HW219938   4.311   4.103  16.274 -1.1061  0.3220 -0.9658
 2826SOL     OW19939   3.923   4.225   2.768  0.1147 -0.0448  0.3045
 2826SOL    HW119940   3.868   4.148   2.778  1.2099 -0.8683  0.0012
 2826SOL    HW219941   3.932   4.230   2.672 -2.0127 -1.1047  0.0443
 2827SOL     OW19942   2.956   2.402   4.018 -0.6808 -0.3118 -0.3605
 2827SOL    HW119943   2.871   2.408   3.975 -0.2456  0.5249 -1.1106
 2827SOL    HW219944   2.943   2.327   4.076 -1.0233 -1.1065 -1.4886
 2828SOL     OW19945   3.826   1.450   5.651  0.2954 -0.2972 -0.4205
 2828SOL    HW119946   3.797   1.478   5.738 -0.1122  1.2132 -1.0329
 2828SOL    HW219947   3.910   1.491   5.633 -0.1416  0.6616 -0.2968
 2829SOL     OW19948   4.609   1.316   8.781 -0.0599 -0.2252 -0.0819
 2829SOL    HW119949   4.607   1.397   8.730 -0.2336  0.4877  1.0789
 2829SOL    HW219950   4.527   1.272   8.757 -1.5492  1.2074  2.4373
 2830SOL     OW19951   0.553   2.510   3.572  0.4817  0.3481 -0.4340
 2830SOL    HW119952   0.487   2.503   3.641  1.2319  0.9699  0.3438
 2830SOL    HW219953   0.506   2.462   3.503  1.3536  0.2255 -0.9489
 2831SOL     OW19954   1.100   3.788   3.594  0.0048  0.1260 -0.7287
 2831SOL    HW119955   1.061   3.797   3.680 -0.7071 -1.8958 -0.8442
 2831SOL    HW219956   1.061   3.861   3.545  0.2236 -0.0508 -1.1724
 2832SOL     OW19957   0.646   1.787  16.743  0.3307  0.4606 -0.5946
 2832SOL    HW119958   0.625   1.825  16.658  0.6852 -1.0161 -1.3532
 2832SOL    HW219959   0.738   1.772  16.722  0.4820  0.1849  0.2644
 2833SOL     OW19960   3.254   2.079   9.054 -0.2826  0.6637  0.2240
 2833SOL    HW119961   3.273   2.123   8.972  1.1134 -0.5419 -0.1036
 2833SOL    HW219962   3.339   2.046   9.084  0.5545 -0.1518 -3.0379
 2834SOL     OW19963   2.548   2.761  15.687 -0.2221  0.0323  0.1809
 2834SOL    HW119964   2.591   2.846  15.678  1.5717 -1.1380 -2.3866
 2834SOL    HW219965   2.459   2.793  15.698 -0.6117 -0.3197 -1.9067
 2835SOL     OW19966   0.818   1.648   0.148  0.2189  0.6159  0.5139
 2835SOL    HW119967   0.831   1.561   0.187 -0.0002  0.9270  1.2734
 2835SOL    HW219968   0.730   1.649   0.110  1.0066 -1.3989 -1.3808
 2836SOL     OW19969   2.930   0.679   4.615 -0.4002  0.0007  0.7656
 2836SOL    HW119970   2.940   0.699   4.708  0.5141  0.6526  0.5335
 2836SOL    HW219971   2.881   0.753   4.580  0.2098  0.3555  0.6514
 2837SOL     OW19972   0.794   1.414   7.166 -0.0895 -0.0555 -0.5175
 2837SOL    HW119973   0.845   1.412   7.085  2.0903 -2.1985  0.8652
 2837SOL    HW219974   0.847   1.476   7.216  2.3532 -1.5659 -1.2374
 2838SOL     OW19975   3.152   4.098   2.558 -0.3810 -0.1878 -0.7656
 2838SOL    HW119976   3.212   4.110   2.632 -0.4540  0.8152 -0.8776
 2838SOL    HW219977   3.106   4.181   2.547  0.8382  0.5645 -0.1063
 2839SOL     OW19978   3.840   2.111   9.664 -0.2082  0.1565  0.4064
 2839SOL    HW119979   3.888   2.171   9.721 -1.7885 -1.2524  3.1968
 2839SOL    HW219980   3.756   2.155   9.651  0.1371  0.1968 -1.8301
 2840SOL     OW19981   3.939   0.194   6.697  0.0341 -0.0129  0.8420
 2840SOL    HW119982   3.923   0.134   6.625 -0.9735  0.6974  0.4650
 2840SOL    HW219983   3.854   0.239   6.699  0.4851  0.7657  3.4084
 2841SOL     OW19984   4.144   3.297   1.291 -0.8683  0.3323  0.4194
 2841SOL    HW119985   4.227   3.301   1.337  0.8637  0.2391 -2.6521
 2841SOL    HW219986   4.163   3.218   1.240 -2.2540  1.6086 -2.0988
 2842SOL     OW19987   1.288   1.787   1.979  0.4475 -0.0043  0.3452
 2842SOL    HW119988   1.254   1.785   2.069 -0.1023  0.7712  0.1504
 2842SOL    HW219989   1.259   1.703   1.943 -1.2789  0.5369  0.4905
 2843SOL     OW19990   1.261   3.115   3.334 -0.3023 -0.4887 -0.3243
 2843SOL    HW119991   1.308   3.193   3.363  0.8236 -1.1368 -0.3767
 2843SOL    HW219992   1.305   3.047   3.386  0.1294 -1.3735 -1.8402
 2844SOL     OW19993   1.904   0.570   2.293 -0.0288 -0.4792 -0.2293
 2844SOL    HW119994   1.875   0.480   2.284  0.8376 -0.7421 -0.3945
 2844SOL    HW219995   1.887   0.610   2.208  0.4116 -1.1676 -0.6397
 2845SOL     OW19996   0.304   1.399   7.543  0.0992  0.3891  0.5315
 2845SOL    HW119997   0.284   1.335   7.611 -0.9085  1.8977  1.6469
 2845SOL    HW219998   0.228   1.398   7.484  0.7344  0.9667 -0.3020
 2846SOL     OW19999   0.089   0.472   9.949  0.4029 -0.3026 -0.1543
 2846SOL    HW120000   0.055   0.383   9.938  0.2332  0.1738 -3.3773
 2846SOL    HW220001   0.142   0.465  10.029  0.3834 -4.8653 -0.5322
 2847SOL     OW20002   1.955   2.026   8.832 -0.1946  0.1241  0.2053
 2847SOL    HW120003   1.915   2.040   8.746  0.7859 -0.5181 -0.3483
 2847SOL    HW220004   1.877   2.039   8.886  1.8571  0.9005  2.9852
 2848SOL     OW20005   3.273   2.257  15.078 -0.0895  0.3027  0.3586
 2848SOL    HW120006   3.230   2.256  15.164 -0.8315 -0.3035 -0.0158
 2848SOL    HW220007   3.201   2.301  15.033  0.5457 -0.9546 -1.9129
 2849SOL     OW20008   0.044   2.137   8.175  0.4773 -0.0429  0.6415
 2849SOL    HW120009   0.111   2.184   8.127 -1.3124  0.9881 -0.8296
 2849SOL    HW220010   0.079   2.156   8.262  1.4749  0.9473  0.0208
 2850SOL     OW20011   3.079   2.466   3.100 -0.4649 -0.2504 -0.2207
 2850SOL    HW120012   3.139   2.540   3.096 -0.6101 -0.1372 -0.3179
 2850SOL    HW220013   3.137   2.416   3.157 -1.2862 -0.0527  0.8000
 2851SOL     OW20014   0.072   3.121   1.039  0.1609  0.0426  0.0244
 2851SOL    HW120015   0.072   3.117   1.134  0.0729 -0.1383  0.0160
 2851SOL    HW220016   0.156   3.165   1.021  0.6819 -0.5729  0.9635
 2852SOL     OW20017   1.957   2.132   3.690 -0.1007  0.1637 -0.1801
 2852SOL    HW120018   1.952   2.069   3.762 -0.2643 -0.2102 -0.5180
 2852SOL    HW220019   2.036   2.104   3.643 -1.7211 -0.1232 -2.7803
 2853SOL     OW20020   1.485   3.371   5.445  0.4594 -0.2675 -0.1329
 2853SOL    HW120021   1.475   3.365   5.350 -1.5761  0.9616  0.0050
 2853SOL    HW220022   1.472   3.280   5.473 -1.8328  0.2691  0.5064
 2854SOL     OW20023   0.203   3.733   8.430 -0.5652 -0.2485 -1.0515
 2854SOL    HW120024   0.208   3.826   8.410  0.5022 -0.3257 -1.1809
 2854SOL    HW220025   0.297   3.718   8.447 -0.7619 -0.7503 -0.3980
 2855SOL     OW20026   4.638   1.249   2.701  0.2194  0.3616 -0.7375
 2855SOL    HW120027   4.589   1.233   2.621  0.4218  0.2918 -0.8484
 2855SOL    HW220028   4.688   1.167   2.695  1.8760  1.2852  0.4158
 2856SOL     OW20029   2.544   3.234   6.044 -0.7351 -0.6979 -0.5621
 2856SOL    HW120030   2.507   3.148   6.065  0.6160 -0.5556  2.4006
 2856SOL    HW220031   2.603   3.239   6.119 -2.5999 -0.2762  0.8750
 2857SOL     OW20032   4.451   0.794   1.161 -0.0588  0.1004  0.2838
 2857SOL    HW120033   4.404   0.866   1.119  0.0900  0.6467  1.0510
 2857SOL    HW220034   4.531   0.837   1.191  2.0067 -1.9813 -2.3044
 2858SOL     OW20035   2.995   0.801   7.094 -0.4120  0.7089 -0.0901
 2858SOL    HW120036   2.981   0.806   7.188  0.0726  1.4862 -0.0560
 2858SOL    HW220037   3.064   0.736   7.085 -1.0347 -0.0104  0.3690
 2859SOL     OW20038   0.536   3.872   3.217 -0.5548 -0.7778  0.1086
 2859SOL    HW120039   0.559   3.947   3.273 -0.8754  0.4764 -1.4352
 2859SOL    HW220040   0.442   3.876   3.231 -0.3215 -0.8888  1.7222
 2860SOL     OW20041   1.415   0.733   3.638 -0.2423 -0.1380  0.3366
 2860SOL    HW120042   1.361   0.811   3.634 -0.0299 -0.0730 -1.5066
 2860SOL    HW220043   1.497   0.759   3.680  0.6836 -0.5844 -1.1944
 2861SOL     OW20044   1.340   4.191   4.083 -0.3947 -0.1028 -0.1932
 2861SOL    HW120045   1.387   4.183   4.166  0.2377  1.6916 -0.3724
 2861SOL    HW220046   1.417   4.189   4.025 -0.2245  2.0774 -0.0482
 2862SOL     OW20047   4.443   3.900  11.822 -0.1342  0.3573 -0.8040
 2862SOL    HW120048   4.377   3.939  11.880 -0.8319 -1.5272 -0.3270
 2862SOL    HW220049   4.419   3.809  11.837  1.1885  0.2466  0.6534
 2863SOL     OW20050   0.317   2.369  12.642 -0.0104 -0.0375 -0.3988
 2863SOL    HW120051   0.343   2.418  12.721  0.5724  0.0446 -0.6421
 2863SOL    HW220052   0.391   2.311  12.624 -0.1716 -0.8604  1.5284
 2864SOL     OW20053   3.448   1.818   5.892 -0.1552  0.2668 -0.4059
 2864SOL    HW120054   3.506   1.751   5.855 -0.3247  0.1415 -0.4416
 2864SOL    HW220055   3.421   1.794   5.980 -1.0290  0.7032 -0.5535
 2865SOL     OW20056   0.891   2.736   2.359  0.4081 -0.2954  0.1286
 2865SOL    HW120057   0.850   2.820   2.337  0.8160 -0.1962 -0.2439
 2865SOL    HW220058   0.982   2.765   2.361  0.1517  0.5322 -0.1926
 2866SOL     OW20059   3.320   4.015   0.026  0.1969 -0.1485 -0.5211
 2866SOL    HW120060   3.238   4.063   0.008  0.1139  0.0128  0.3032
 2866SOL    HW220061   3.367   4.066   0.092 -1.1736 -1.3564  1.3740
 2867SOL     OW20062   2.179   0.020  12.197 -0.5765  0.5480  0.0341
 2867SOL    HW120063   2.169   4.651  12.179  0.6405  0.2473  0.9289
 2867SOL    HW220064   2.122   0.056  12.129 -2.8937  0.1116  1.7613
 2868SOL     OW20065   1.857   1.868  10.564  0.6719  0.1454  0.3188
 2868SOL    HW120066   1.777   1.872  10.616  0.8968 -0.9453  0.7488
 2868SOL    HW220067   1.889   1.779  10.581  0.5269  0.4115  1.9467
 2869SOL     OW20068   4.248   2.190   6.242 -0.1489  0.0189  0.1141
 2869SOL    HW120069   4.314   2.243   6.285 -1.8210  1.5463  0.8034
 2869SOL    HW220070   4.190   2.163   6.313  0.3302 -0.8435  0.1846
 2870SOL     OW20071   0.296   1.488   5.189  0.2957 -0.3961  0.2316
 2870SOL    HW120072   0.326   1.497   5.279  2.0915 -1.1252 -0.2842
 2870SOL    HW220073   0.310   1.396   5.164  0.8053 -1.0003  2.7845
 2871SOL     OW20074   1.470   2.114   5.221 -0.7144  0.0843 -0.1422
 2871SOL    HW120075   1.535   2.103   5.290 -0.4146 -0.0492 -0.4413
 2871SOL    HW220076   1.515   2.174   5.162 -1.6427 -0.2282 -1.1698
 2872SOL     OW20077   2.794   3.849   5.117 -0.1322 -0.2056  0.6522
 2872SOL    HW120078   2.763   3.869   5.029  2.5574 -2.0870 -0.7208
 2872SOL    HW220079   2.711   3.813   5.149 -0.9116 -0.2907 -1.4704
 2873SOL     OW20080   3.782   2.932   9.410 -0.5764  0.7217  0.4877
 2873SOL    HW120081   3.843   2.862   9.386  0.2227  0.9721  1.7865
 2873SOL    HW220082   3.806   3.000   9.348 -0.8121 -1.2961 -1.8186
 2874SOL     OW20083   0.909   3.072   7.309  0.0378 -0.0352 -0.4449
 2874SOL    HW120084   0.855   3.098   7.234  0.7980  0.1910 -0.9073
 2874SOL    HW220085   0.973   3.019   7.262  1.2714  2.3030 -1.3734
 2875SOL     OW20086   1.275   2.193   6.916 -0.0126  0.2872 -0.6672
 2875SOL    HW120087   1.318   2.197   6.830  1.2889  1.4762  0.0296
 2875SOL    HW220088   1.342   2.250   6.954 -0.1468  0.3785 -0.5701
 2876SOL     OW20089   2.439   4.708   8.185 -1.0196 -0.4419 -0.0250
 2876SOL    HW120090   2.434   4.703   8.089  0.1403 -0.1841 -0.0962
 2876SOL    HW220091   2.395   4.625   8.205 -0.9762 -0.6433 -0.7552
 2877SOL     OW20092   3.852   0.432   9.514 -0.4882  0.5076 -0.3332
 2877SOL    HW120093   3.865   0.442   9.420  2.6465 -0.8882 -0.0229
 2877SOL    HW220094   3.852   0.526   9.536 -0.8459  0.6146 -0.7931
 2878SOL     OW20095   2.353   4.345  10.314 -0.0291 -0.3747 -0.5194
 2878SOL    HW120096   2.347   4.251  10.298  1.3814 -0.9586  2.4331
 2878SOL    HW220097   2.414   4.333  10.387 -0.0062 -0.2379 -0.5166
 2879SOL     OW20098   2.926   4.694   9.737  0.1421  0.0029  0.1620
 2879SOL    HW120099   2.915   4.609   9.694  0.7771 -1.4160  2.8489
 2879SOL    HW220100   2.835   4.722   9.745  0.1145  0.3414 -1.2096
 2880SOL     OW20101   1.104   3.742   5.380  0.4534 -0.0297 -0.0644
 2880SOL    HW120102   1.175   3.696   5.425  0.4953  0.1975  0.0976
 2880SOL    HW220103   1.046   3.763   5.454  0.4536  2.4269 -0.7953
 2881SOL     OW20104   2.170   3.808   6.454  0.4970 -1.3265  0.0473
 2881SOL    HW120105   2.154   3.804   6.360  1.9270 -1.3415 -0.2044
 2881SOL    HW220106   2.236   3.877   6.455 -0.5992 -0.2054 -2.9728
 2882SOL     OW20107   2.569   3.112   7.771 -0.8008  0.3384 -0.2178
 2882SOL    HW120108   2.624   3.052   7.821  0.8061  1.8102 -0.2301
 2882SOL    HW220109   2.577   3.196   7.815  0.8661 -0.8067  1.6676
 2883SOL     OW20110   1.991   2.557   7.745 -0.2388 -0.6385  0.2348
 2883SOL    HW120111   1.933   2.485   7.718 -2.4892  0.9518  0.8531
 2883SOL    HW220112   2.065   2.549   7.684 -0.0727 -2.1234  0.6286
 2884SOL     OW20113   0.757   3.928  15.155 -0.0565  0.1029 -0.1935
 2884SOL    HW120114   0.702   3.870  15.206 -1.7611 -0.5357 -2.7428
 2884SOL    HW220115   0.778   3.997  15.218  0.3644  0.2465 -0.4841
 2885SOL     OW20116   3.359   1.426  13.134  0.4618  0.2625 -0.6791
 2885SOL    HW120117   3.411   1.504  13.153 -0.3223  1.1412 -2.1079
 2885SOL    HW220118   3.274   1.462  13.108  0.3672 -0.2542 -1.1009
 2886SOL     OW20119   1.909   0.406  13.041 -0.3240  0.4039 -0.7986
 2886SOL    HW120120   1.898   0.320  13.002  1.4506  0.3194 -1.0841
 2886SOL    HW220121   1.835   0.419  13.100  0.0314  2.2812 -0.7644
 2887SOL     OW20122   1.348   1.633   8.729 -0.1889 -0.1118 -0.6544
 2887SOL    HW120123   1.395   1.580   8.793 -0.5187  1.5218  0.9229
 2887SOL    HW220124   1.273   1.578   8.706 -0.5316 -0.8010  2.2054
 2888SOL     OW20125   3.627   2.813   4.401 -0.1133  0.6019  0.4081
 2888SOL    HW120126   3.569   2.890   4.396 -0.7964 -0.0074 -0.8861
 2888SOL    HW220127   3.701   2.848   4.351 -0.8007  0.0203 -1.0108
 2889SOL     OW20128   2.195   3.592   3.910 -0.2150 -0.0831 -0.3178
 2889SOL    HW120129   2.191   3.595   3.814 -0.6389  0.3117 -0.2902
 2889SOL    HW220130   2.145   3.517   3.945  0.0970  0.0641  0.4361
 2890SOL     OW20131   2.911   1.835  11.983 -0.1793  0.3948  0.0268
 2890SOL    HW120132   2.955   1.898  11.925  0.7444  0.0125  0.3223
 2890SOL    HW220133   2.861   1.791  11.914  0.1675  2.4920 -1.5812
 2891SOL     OW20134   0.325   2.204   8.427 -0.7646  0.6040 -0.0558
 2891SOL    HW120135   0.327   2.116   8.388 -1.8625  0.7803 -0.4891
 2891SOL    HW220136   0.364   2.258   8.359 -1.1519  1.0060  0.0417
 2892SOL     OW20137   3.122   3.880   8.643 -0.0495 -0.0882  0.0324
 2892SOL    HW120138   3.111   3.822   8.719 -0.4238 -0.0041  0.0422
 2892SOL    HW220139   3.167   3.820   8.583  0.6208 -0.7410  1.1820
 2893SOL     OW20140   0.817   1.652   6.954  0.0808 -0.2797 -0.0735
 2893SOL    HW120141   0.756   1.654   6.880  1.4833 -1.8367 -1.2762
 2893SOL    HW220142   0.850   1.742   6.952  0.2249 -0.3190  0.8878
 2894SOL     OW20143   2.638   3.588  12.446 -0.0196  0.1674  0.4427
 2894SOL    HW120144   2.676   3.676  12.445  0.3510  0.0090  0.5862
 2894SOL    HW220145   2.710   3.537  12.409 -0.6946 -1.3343  1.2164
 2895SOL     OW20146   2.804   1.063   6.871  0.2922  0.1639  0.3209
 2895SOL    HW120147   2.802   0.975   6.833 -1.5417  0.4733 -0.3131
 2895SOL    HW220148   2.718   1.056   6.913  1.2996 -0.1319  2.3249
 2896SOL     OW20149   3.815   0.544   2.240 -0.2428  0.2476 -0.1699
 2896SOL    HW120150   3.805   0.468   2.297  1.4936 -0.3088 -0.5927
 2896SOL    HW220151   3.756   0.603   2.285 -0.1890 -0.2274  0.5259
 2897SOL     OW20152   3.810   3.710   1.268 -0.2129  0.2606  0.4501
 2897SOL    HW120153   3.876   3.779   1.260 -1.9525  1.9573  0.9478
 2897SOL    HW220154   3.873   3.639   1.252  0.4955  0.9874  0.0623
 2898SOL     OW20155   0.018   0.430   0.019 -0.0333  0.0705 -0.0951
 2898SOL    HW120156   4.649   0.412   0.008 -0.2627  1.7236 -0.7547
 2898SOL    HW220157   0.071   0.361  17.676 -2.1713 -1.1240 -0.8162
 2899SOL     OW20158   0.013   0.108   5.682 -0.1720  0.2569  0.3879
 2899SOL    HW120159   4.699   0.140   5.600 -0.3944  2.9881  1.5571
 2899SOL    HW220160   4.712   0.017   5.687 -0.1197  0.2317  0.1856
 2900SOL     OW20161   1.830   2.040  14.680 -0.1898  0.4418 -0.5494
 2900SOL    HW120162   1.920   2.048  14.650  0.2069 -0.9215  0.2777
 2900SOL    HW220163   1.833   1.961  14.733  1.6051  1.2163  0.4805
 2901SOL     OW20164   4.177   1.473   7.240  0.1883  0.3441  0.2217
 2901SOL    HW120165   4.256   1.522   7.264  0.3723 -0.3636  1.0251
 2901SOL    HW220166   4.129   1.489   7.321 -2.0229  1.8520 -1.3693
 2902SOL     OW20167   3.221   2.348   7.836 -0.2266 -0.1024  0.5087
 2902SOL    HW120168   3.126   2.353   7.844 -0.4699 -0.0471 -2.6794
 2902SOL    HW220169   3.242   2.279   7.773  0.0713 -0.7656  1.3150
 2903SOL     OW20170   2.863   0.648   2.244 -0.5702  0.0174  0.0185
 2903SOL    HW120171   2.880   0.735   2.281  0.8199  0.6889 -2.1688
 2903SOL    HW220172   2.936   0.624   2.187  0.1986  2.2492  0.0609
 2904SOL     OW20173   3.957   2.305  16.966 -0.5807  0.3790 -0.6946
 2904SOL    HW120174   3.922   2.238  17.024  0.9568 -1.7781 -2.2129
 2904SOL    HW220175   3.882   2.320  16.908  1.7267  0.8077 -3.6230
 2905SOL     OW20176   0.327   3.150  11.159  0.0483 -0.2300  0.6135
 2905SOL    HW120177   0.317   3.242  11.134 -0.4112 -0.5018 -0.2278
 2905SOL    HW220178   0.245   3.107  11.132  1.1830 -1.0065 -1.6067
 2906SOL     OW20179   3.296   1.056   7.274  0.2506 -0.1708  0.5728
 2906SOL    HW120180   3.353   1.121   7.315 -0.7996  1.6075 -0.7147
 2906SOL    HW220181   3.249   1.097   7.200  1.0284  0.5527  0.4813
 2907SOL     OW20182   2.673   1.887   3.238  0.4813  0.2185 -0.5124
 2907SOL    HW120183   2.688   1.974   3.275  1.6473 -0.5377  0.7586
 2907SOL    HW220184   2.713   1.899   3.152 -0.0999 -1.5641 -1.0323
 2908SOL     OW20185   3.057   0.533  16.681  0.1532 -0.4436 -0.2343
 2908SOL    HW120186   3.001   0.513  16.605  0.9010 -2.1070 -0.3562
 2908SOL    HW220187   3.142   0.562  16.647  0.0899  0.3593  0.3086
 2909SOL     OW20188   2.164   1.582   7.262 -0.1913  0.5582  0.5369
 2909SOL    HW120189   2.199   1.595   7.350  0.1961 -1.5200  0.6859
 2909SOL    HW220190   2.158   1.672   7.232  0.2430  1.6227  3.6289
 2910SOL     OW20191   2.908   2.626   1.063  0.0163  0.0555 -0.6016
 2910SOL    HW120192   2.824   2.581   1.070 -0.0285  0.1336 -0.6387
 2910SOL    HW220193   2.924   2.627   1.158 -0.1704  0.0832 -0.5697
 2911SOL     OW20194   4.137   0.681   8.745  0.5956 -0.5302  0.3513
 2911SOL    HW120195   4.075   0.649   8.679  2.1042 -1.4258 -0.6166
 2911SOL    HW220196   4.081   0.669   8.822  0.5788 -0.7682  0.3011
 2912SOL     OW20197   4.569   2.398   3.401  0.3751  0.0826 -0.1922
 2912SOL    HW120198   4.640   2.368   3.457 -1.0466  0.3804  1.7452
 2912SOL    HW220199   4.613   2.474   3.362  1.1757  0.1580  0.8581
 2913SOL     OW20200   3.423   3.013  10.897 -0.0457  0.0915 -0.1959
 2913SOL    HW120201   3.356   3.081  10.895  0.1887  0.3167 -0.5282
 2913SOL    HW220202   3.493   3.049  10.951 -1.5325  3.4324 -0.5237
 2914SOL     OW20203   2.932   4.277  10.001  0.6440  0.4684 -0.3116
 2914SOL    HW120204   2.931   4.233   9.916 -0.0364  1.8619 -1.0213
 2914SOL    HW220205   3.001   4.216  10.028 -0.3694 -0.6198 -0.1776
 2915SOL     OW20206   0.388   0.983  10.376  0.0425 -0.1511 -0.6540
 2915SOL    HW120207   0.347   0.963  10.460 -1.8843  1.3923 -1.2476
 2915SOL    HW220208   0.464   0.925  10.368  0.8316  0.7656  0.1872
 2916SOL     OW20209   0.989   2.347   0.762  0.1909 -0.4541  0.0027
 2916SOL    HW120210   1.010   2.288   0.835 -0.4492 -0.7344 -0.0405
 2916SOL    HW220211   0.937   2.279   0.720 -1.3515  0.5128  0.3772
 2917SOL     OW20212   1.116   3.534  17.350 -0.2406 -0.2127 -0.2073
 2917SOL    HW120213   1.094   3.609  17.295 -0.1832  0.8555  1.2159
 2917SOL    HW220214   1.031   3.490  17.354  1.4049 -3.1978  2.0107
 2918SOL     OW20215   4.282   0.257  12.909  1.1467 -0.6712  0.3926
 2918SOL    HW120216   4.375   0.275  12.896  1.6831 -1.3732  3.3223
 2918SOL    HW220217   4.274   0.196  12.983 -0.1584 -0.6200  0.2904
 2919SOL     OW20218   2.219   4.393  14.298  0.3697 -0.3214 -0.7663
 2919SOL    HW120219   2.205   4.320  14.238 -3.6830 -1.3008  1.4072
 2919SOL    HW220220   2.194   4.349  14.379 -1.9097 -1.5349 -2.1321
 2920SOL     OW20221   4.042   2.606   2.263  0.6015 -0.0735  0.1331
 2920SOL    HW120222   4.064   2.535   2.323 -0.8571  0.0288  0.7967
 2920SOL    HW220223   4.082   2.581   2.180  0.1292  0.4226 -0.2531
 2921SOL     OW20224   0.484   4.643   3.550 -0.3549 -0.3886 -0.1767
 2921SOL    HW120225   0.456   4.552   3.550 -1.6723 -0.0060  0.4472
 2921SOL    HW220226   0.403   4.677   3.511  0.5835  1.3054 -0.6435
 2922SOL     OW20227   0.131   4.204   3.445  0.1514 -0.2587  0.3951
 2922SOL    HW120228   0.203   4.143   3.428  0.5458 -0.2619  2.1027
 2922SOL    HW220229   0.068   4.183   3.376 -0.4293  0.7726  0.6218
 2923SOL     OW20230   3.631   1.072   1.476 -0.1936 -0.6334  0.3561
 2923SOL    HW120231   3.624   1.079   1.381  2.4730 -0.5352  0.1508
 2923SOL    HW220232   3.641   0.977   1.490 -1.2087 -0.8952 -0.7151
 2924SOL     OW20233   2.803   1.809   7.009 -0.3173  0.2898  0.4027
 2924SOL    HW120234   2.880   1.812   7.065  0.0485 -3.0298  0.0590
 2924SOL    HW220235   2.735   1.763   7.058  0.7099  1.6776  3.1298
 2925SOL     OW20236   3.598   1.622   9.378 -0.3786  0.2530 -0.0225
 2925SOL    HW120237   3.683   1.609   9.335 -0.9754 -0.3716 -0.9888
 2925SOL    HW220238   3.565   1.534   9.390 -0.6260  0.3840  0.2494
 2926SOL     OW20239   4.299   2.198   2.058  0.0100 -0.1314  0.4503
 2926SOL    HW120240   4.384   2.165   2.030  1.0114  1.4829  1.6265
 2926SOL    HW220241   4.245   2.197   1.979  0.2234 -1.5420  0.3225
 2927SOL     OW20242   0.992   3.110  16.812  0.5163 -0.2044  0.3806
 2927SOL    HW120243   0.896   3.104  16.812  0.5707 -1.1007 -0.6376
 2927SOL    HW220244   1.011   3.053  16.886  0.8449 -0.0718  0.3952
 2928SOL     OW20245   3.568   4.395   3.560 -0.2676  0.0866  0.0677
 2928SOL    HW120246   3.661   4.370   3.558  0.3142  2.2210  1.4417
 2928SOL    HW220247   3.572   4.473   3.614 -2.3046 -1.0151  1.7868
 2929SOL     OW20248   1.990   0.353   1.969  0.1384 -0.0165  0.3471
 2929SOL    HW120249   1.999   0.428   1.910 -1.4428 -0.3905 -0.3592
 2929SOL    HW220250   1.954   0.293   1.904 -0.3821 -2.1728  2.6428
 2930SOL     OW20251   3.048   3.143  11.761  0.0321  0.1227 -0.1054
 2930SOL    HW120252   3.031   3.235  11.741  0.6295  0.2486 -0.0131
 2930SOL    HW220253   3.135   3.158  11.797  0.3251 -1.5076 -0.1483
 2931SOL     OW20254   2.958   2.150  14.968  0.2391  0.0704  0.2301
 2931SOL    HW120255   2.966   2.245  14.972 -1.8691  0.2875 -0.6261
 2931SOL    HW220256   3.050   2.127  14.950  0.5209  1.7817 -0.5387
 2932SOL     OW20257   0.890   0.598   5.823  0.0573  0.1296  0.3066
 2932SOL    HW120258   0.796   0.616   5.816  0.3196  1.5509  0.3501
 2932SOL    HW220259   0.904   0.535   5.753 -1.8220 -0.5598  0.5511
 2933SOL     OW20260   0.520   3.530  11.974  0.5047  0.2397  0.3080
 2933SOL    HW120261   0.585   3.517  12.044  3.1670 -3.8688 -2.9203
 2933SOL    HW220262   0.482   3.442  11.969 -1.5169  1.1898 -1.0740
 2934SOL     OW20263   1.626   3.934   7.854 -0.2578  0.2785  0.1390
 2934SOL    HW120264   1.569   3.961   7.782 -0.4394  0.5276  0.3714
 2934SOL    HW220265   1.563   3.887   7.909 -1.0861 -0.0393 -1.0767
 2935SOL     OW20266   1.044   0.890   7.056  0.2356 -0.2301  0.3996
 2935SOL    HW120267   1.040   0.813   7.113 -1.0333 -0.7317 -0.3617
 2935SOL    HW220268   0.982   0.866   6.987 -2.0290 -3.2481  3.5341
 2936SOL     OW20269   3.692   1.283   5.005  0.0512  0.5189  0.0441
 2936SOL    HW120270   3.760   1.270   4.939 -0.9591  0.8118 -1.0640
 2936SOL    HW220271   3.744   1.279   5.085  1.9003 -0.9773 -1.2209
 2937SOL     OW20272   3.119   0.512   9.304  0.0376  0.4835 -0.1500
 2937SOL    HW120273   3.128   0.438   9.365 -0.2448 -1.0366 -1.9597
 2937SOL    HW220274   3.169   0.478   9.230  0.6809  0.8238  0.1319
 2938SOL     OW20275   0.282   3.714   7.993 -0.6396  0.4543  0.3407
 2938SOL    HW120276   0.296   3.633   7.946 -0.9847 -0.2334  1.4122
 2938SOL    HW220277   0.294   3.781   7.926 -2.2667  0.6389  0.2273
 2939SOL     OW20278   1.333   3.952  15.629 -0.4526 -0.0153 -0.5348
 2939SOL    HW120279   1.345   3.870  15.580  1.5078 -0.7412  1.1739
 2939SOL    HW220280   1.283   4.005  15.567 -0.3152  1.2726  0.4516
 2940SOL     OW20281   3.589   0.574   4.188 -0.3674 -0.2674 -0.4263
 2940SOL    HW120282   3.643   0.609   4.117 -1.7021  2.1500 -0.2377
 2940SOL    HW220283   3.620   0.483   4.194  1.2084  0.2669 -0.5422
 2941SOL     OW20284   1.105   0.556   3.117 -0.3201  0.0310  0.1634
 2941SOL    HW120285   1.115   0.621   3.048 -2.0210 -1.9089 -1.9372
 2941SOL    HW220286   1.193   0.518   3.124  1.0776  3.4583  0.9496
 2942SOL     OW20287   1.178   2.905   8.041 -0.2452 -0.3524 -0.3456
 2942SOL    HW120288   1.130   2.956   8.106 -2.0764 -1.4803 -0.8396
 2942SOL    HW220289   1.265   2.921   8.078 -1.0647  0.1429  1.3846
 2943SOL     OW20290   1.976   4.307   0.365 -0.0185 -0.1797 -0.8190
 2943SOL    HW120291   1.980   4.360   0.286 -1.9152  1.8315  0.4164
 2943SOL    HW220292   1.915   4.235   0.345 -1.6280  0.9385  0.0089
 2944SOL     OW20293   1.704   2.473   5.686  0.5443 -0.3725  0.0562
 2944SOL    HW120294   1.788   2.432   5.663 -0.7192 -2.3195 -1.0639
 2944SOL    HW220295   1.727   2.520   5.766  1.6552 -1.0233  0.1282
 2945SOL     OW20296   2.774   4.540  10.615  0.4223  0.0622  0.1926
 2945SOL    HW120297   2.800   4.453  10.584  2.5570  1.3207 -1.4998
 2945SOL    HW220298   2.791   4.526  10.708 -1.1445  0.1625  0.4851
 2946SOL     OW20299   0.869   1.020   9.312 -0.0467  0.2894 -0.7114
 2946SOL    HW120300   0.934   0.970   9.261 -1.4302  2.0726 -4.2641
 2946SOL    HW220301   0.889   0.990   9.400  0.5763  2.4040 -0.1344
 2947SOL     OW20302   1.089   0.211   6.983  0.1304 -0.0372 -0.2989
 2947SOL    HW120303   1.115   0.123   6.956 -2.3617 -1.3060  1.3621
 2947SOL    HW220304   1.170   0.251   7.015  0.0932  0.0684 -0.3372
 2948SOL     OW20305   4.380   1.788   6.608  0.6088  0.2946  0.0766
 2948SOL    HW120306   4.474   1.794   6.626  0.4276  3.4369 -0.0511
 2948SOL    HW220307   4.361   1.695   6.622 -1.0119  0.8096  1.3373
 2949SOL     OW20308   0.656   4.452  15.682 -0.0689  0.3363  0.4923
 2949SOL    HW120309   0.683   4.543  15.669  2.3279 -0.8402 -2.9162
 2949SOL    HW220310   0.741   4.408  15.684 -0.2452  0.0077  0.6816
 2950SOL     OW20311   0.278   4.670   8.279 -0.2995  0.0356  0.6572
 2950SOL    HW120312   0.243   4.714   8.201  0.1875 -1.3428 -0.3488
 2950SOL    HW220313   0.369   4.671   8.250 -0.7598 -0.1180 -0.8178
 2951SOL     OW20314   2.224   0.204   2.801  0.4431  0.2006  0.1292
 2951SOL    HW120315   2.129   0.214   2.802  0.3315 -0.8681  0.3609
 2951SOL    HW220316   2.241   0.296   2.784 -1.2572  0.7458  1.3446
 2952SOL     OW20317   1.520   3.028   5.190  0.0214  0.0610  0.0507
 2952SOL    HW120318   1.537   3.017   5.096  0.2182 -1.6705  0.2934
 2952SOL    HW220319   1.613   3.024   5.213 -0.1389 -1.7051  0.3600
 2953SOL     OW20320   1.314   3.903   5.942  0.0838 -0.4743 -0.4598
 2953SOL    HW120321   1.281   3.992   5.932  1.4418 -0.0607 -1.4124
 2953SOL    HW220322   1.258   3.868   6.011 -3.8515  0.6803 -3.0685
 2954SOL     OW20323   1.921   1.535   6.898 -0.6287 -0.1714  0.3286
 2954SOL    HW120324   1.939   1.449   6.936  1.3616  0.1902  0.1800
 2954SOL    HW220325   1.982   1.584   6.953 -3.5256 -0.0163  3.3912
 2955SOL     OW20326   3.057   3.033  10.087  0.2741 -0.4604  0.3641
 2955SOL    HW120327   2.977   3.072  10.124  0.3836  1.9921 -1.9761
 2955SOL    HW220328   3.125   3.100  10.099 -0.9378  0.9248 -0.5957
 2956SOL     OW20329   2.394   1.987   6.354  0.2045  0.0230 -0.0134
 2956SOL    HW120330   2.448   2.062   6.377 -0.2572  0.2734  0.2540
 2956SOL    HW220331   2.310   2.024   6.381 -0.2766 -1.0281 -0.0822
 2957SOL     OW20332   0.435   3.672   1.339  0.0338  0.1136  0.3114
 2957SOL    HW120333   0.473   3.631   1.261 -1.2542 -0.9550  0.2452
 2957SOL    HW220334   0.503   3.651   1.403  0.8387 -0.8828 -0.8629
 2958SOL     OW20335   4.318   0.532   5.818 -0.2915  0.1318  0.3530
 2958SOL    HW120336   4.371   0.455   5.800 -1.7797 -0.8077  0.0107
 2958SOL    HW220337   4.369   0.574   5.887  2.3690 -0.4467 -1.2527
 2959SOL     OW20338   0.151   1.993   2.252 -0.4290  0.1995  0.3681
 2959SOL    HW120339   0.123   1.985   2.161  1.5064 -1.5920 -0.0467
 2959SOL    HW220340   0.152   1.902   2.282  1.7169  0.1457  0.1065
 2960SOL     OW20341   2.999   4.434   1.668  0.1011 -0.1109 -0.3950
 2960SOL    HW120342   2.925   4.377   1.645 -1.2045  1.5090 -0.2455
 2960SOL    HW220343   3.053   4.367   1.710 -1.1498  0.3137  1.8836
 2961SOL     OW20344   1.126   0.785   2.969 -0.2284  0.2401  0.2173
 2961SOL    HW120345   1.214   0.802   3.002 -0.9137  0.7868  1.7252
 2961SOL    HW220346   1.132   0.828   2.883  1.0708 -1.5975 -0.6321
 2962SOL     OW20347   3.049   0.468   7.448  0.2503 -0.1341 -0.0563
 2962SOL    HW120348   3.079   0.378   7.458  0.8434  0.1583  0.8286
 2962SOL    HW220349   3.098   0.498   7.371 -1.9946 -1.3767 -1.9672
 2963SOL     OW20350   2.100   4.585  12.492 -0.5335  0.4336  0.3196
 2963SOL    HW120351   2.014   4.625  12.479 -1.5204 -1.9746 -0.5809
 2963SOL    HW220352   2.063   4.498  12.503  0.1718  0.1734  0.6317
 2964SOL     OW20353   1.257   3.654  14.903  0.6163  0.1036 -0.3525
 2964SOL    HW120354   1.309   3.632  14.826  2.8622  2.5393  0.4939
 2964SOL    HW220355   1.206   3.573  14.900  0.0460  0.4786 -0.8356
 2965SOL     OW20356   4.452   4.440  16.750  0.0818  0.2304  0.0321
 2965SOL    HW120357   4.415   4.516  16.795 -0.2412  0.0093  0.1365
 2965SOL    HW220358   4.507   4.475  16.679  0.2723 -0.6454 -0.2498
 2966SOL     OW20359   2.301   1.420   5.972 -0.0882  0.0392  0.3772
 2966SOL    HW120360   2.316   1.412   5.877 -3.3670 -0.8821 -0.0578
 2966SOL    HW220361   2.332   1.510   5.985 -0.2615  0.8700 -4.7862
 2967SOL     OW20362   3.025   0.355   3.976  0.4728  0.1627 -0.3256
 2967SOL    HW120363   2.983   0.292   3.917 -0.2478 -0.4528  0.8367
 2967SOL    HW220364   3.070   0.409   3.911 -0.6940 -0.5761 -1.7521
 2968SOL     OW20365   0.609   1.427   5.997  0.0902  0.0481  0.3610
 2968SOL    HW120366   0.652   1.453   6.079 -0.3545 -0.9149  0.8877
 2968SOL    HW220367   0.544   1.368   6.035  1.1069 -0.1714  1.7437
 2969SOL     OW20368   0.030   4.184  10.786  0.3096 -0.5431 -0.1715
 2969SOL    HW120369   0.071   4.187  10.700  0.7787 -0.4469  0.0559
 2969SOL    HW220370   4.666   4.187  10.750  0.9097  2.8391 -1.3049
 2970SOL     OW20371   3.617   3.375   1.657  0.3509  0.2707  0.2204
 2970SOL    HW120372   3.708   3.386   1.629  0.3645  1.6810  0.8158
 2970SOL    HW220373   3.588   3.351   1.569  1.1708 -0.0528  0.0390
 2971SOL     OW20374   2.431   1.036  12.097  0.3066  0.1397  0.0148
 2971SOL    HW120375   2.343   1.001  12.086 -0.9465  3.0445  0.8728
 2971SOL    HW220376   2.407   1.100  12.164  0.3919 -0.8882  1.0252
 2972SOL     OW20377   3.138   1.921   5.414  0.1897  0.2144  0.1091
 2972SOL    HW120378   3.226   1.933   5.378  0.5523  0.7460  1.1844
 2972SOL    HW220379   3.093   1.913   5.329 -2.4707  1.8030  1.3790
 2973SOL     OW20380   0.989   4.167   1.413 -0.5843  0.6598  0.8006
 2973SOL    HW120381   1.055   4.226   1.375  0.0456  0.2383  1.2271
 2973SOL    HW220382   0.923   4.231   1.439 -1.8009  0.6529 -2.2218
 2974SOL     OW20383   3.456   2.291   0.998  0.1804 -0.0261 -0.0247
 2974SOL    HW120384   3.551   2.282   0.985 -0.0939  0.1204 -2.1228
 2974SOL    HW220385   3.423   2.202   0.984  1.8965 -0.6187 -0.3982
 2975SOL     OW20386   2.044   4.557   5.534 -0.0722  0.2042  0.0799
 2975SOL    HW120387   2.123   4.610   5.546  0.4250 -0.3556 -0.7942
 2975SOL    HW220388   2.059   4.493   5.604  1.4743 -1.1053 -1.4737
 2976SOL     OW20389   1.208   0.190  13.913  0.8526  0.5182  0.4308
 2976SOL    HW120390   1.244   0.106  13.884 -1.1924 -0.5430  1.0053
 2976SOL    HW220391   1.277   0.223  13.970  0.6604  0.7231  0.5436
 2977SOL     OW20392   3.882   2.739   5.274 -0.2692 -0.0472 -0.4867
 2977SOL    HW120393   3.886   2.691   5.356  0.3535 -0.3377 -0.6936
 2977SOL    HW220394   3.827   2.684   5.218 -1.9751  0.8840  0.2459
 2978SOL     OW20395   3.852   3.616   5.380 -0.2209 -0.4741  0.3291
 2978SOL    HW120396   3.867   3.551   5.312 -0.6445 -2.2500  1.9386
 2978SOL    HW220397   3.768   3.655   5.354  0.8385 -0.6636 -3.3483
 2979SOL     OW20398   3.597   3.697   4.103 -0.4557 -0.6718  0.2592
 2979SOL    HW120399   3.665   3.645   4.059 -0.4218 -0.7386  0.3902
 2979SOL    HW220400   3.545   3.710   4.023 -2.0265 -0.4264  1.3304
 2980SOL     OW20401   4.054   2.782   3.598 -0.4311 -0.1066 -0.3441
 2980SOL    HW120402   4.021   2.848   3.660 -0.3231 -1.2609  0.9291
 2980SOL    HW220403   4.133   2.827   3.566 -0.0990  1.9561  3.4429
 2981SOL     OW20404   3.891   4.084   8.944 -0.3292  0.2182 -0.6988
 2981SOL    HW120405   3.833   4.016   8.911  0.1496  0.2076 -1.5283
 2981SOL    HW220406   3.892   4.143   8.869  0.7375  0.2844 -0.6278
 2982SOL     OW20407   3.880   2.312   1.965 -0.0484 -0.1031 -0.0086
 2982SOL    HW120408   3.880   2.407   1.956  1.1860 -0.1140 -0.1476
 2982SOL    HW220409   3.821   2.277   1.898  1.7930 -2.4477 -0.4426
 2983SOL     OW20410   1.025   2.932  14.211 -0.0165  0.0296  0.8277
 2983SOL    HW120411   1.077   2.874  14.155 -2.1557 -1.2965  0.2093
 2983SOL    HW220412   1.023   3.015  14.163 -0.5857 -1.1224 -1.1219
 2984SOL     OW20413   4.256   3.324  13.375  0.0884  0.1383 -0.3864
 2984SOL    HW120414   4.328   3.290  13.322  0.0418  2.3583 -1.8463
 2984SOL    HW220415   4.306   3.383  13.432  1.6426 -2.3617  0.8751
 2985SOL     OW20416   1.477   4.538   6.870  0.1344 -0.5006 -0.9704
 2985SOL    HW120417   1.393   4.494   6.859 -1.9451  2.4638  2.7012
 2985SOL    HW220418   1.461   4.621   6.916 -0.9370 -1.2248 -0.0371
 2986SOL     OW20419   0.085   1.061   2.910  0.1516  0.7148 -0.3406
 2986SOL    HW120420   0.073   1.000   2.838 -1.9531  0.5160  0.1914
 2986SOL    HW220421   0.034   1.009   2.971  2.4090  1.9192  2.5985
 2987SOL     OW20422   0.559   4.474  17.631  0.1169 -0.4985  0.2447
 2987SOL    HW120423   0.539   4.461  17.539  3.7673  1.9468 -0.9068
 2987SOL    HW220424   0.475   4.460  17.676 -0.9647 -2.7482 -2.5550
 2988SOL     OW20425   2.373   1.157   0.929  0.2299 -0.0315  0.2794
 2988SOL    HW120426   2.308   1.226   0.919 -1.2297 -1.1569  1.9342
 2988SOL    HW220427   2.328   1.105   0.996 -0.8930  0.5589 -0.0369
 2989SOL     OW20428   4.546   1.296   5.019  0.5020  0.3017  0.3413
 2989SOL    HW120429   4.503   1.221   5.059  1.3512  0.1904  1.0580
 2989SOL    HW220430   4.627   1.297   5.071 -0.1635  2.5142  1.3445
 2990SOL     OW20431   0.746   2.748  17.494 -0.2634 -0.5032  0.3873
 2990SOL    HW120432   0.705   2.758  17.580  0.0419  1.5080  0.2871
 2990SOL    HW220433   0.840   2.749  17.509 -0.3732 -1.8637  1.1912
 2991SOL     OW20434   2.876   1.044   5.653 -0.5284 -0.0715  0.2668
 2991SOL    HW120435   2.870   1.138   5.640 -0.6238  0.0213  0.9795
 2991SOL    HW220436   2.970   1.026   5.641 -0.6344  0.3848 -1.2080
 2992SOL     OW20437   1.580   3.985   8.664  0.2206  0.1701  0.1734
 2992SOL    HW120438   1.540   3.900   8.685 -1.3202  1.1531  1.2073
 2992SOL    HW220439   1.526   4.043   8.717  0.7231  0.2849  0.5509
 2993SOL     OW20440   2.201   0.388  13.049 -0.4933  0.3075  0.4307
 2993SOL    HW120441   2.108   0.383  13.073 -0.5584 -1.6232 -0.2401
 2993SOL    HW220442   2.228   0.476  13.075 -2.0840  0.0199  2.9973
 2994SOL     OW20443   3.923   2.816  12.649  0.0238  0.2047  0.0208
 2994SOL    HW120444   3.924   2.910  12.631 -2.3330 -0.0076 -1.2442
 2994SOL    HW220445   3.832   2.805  12.675  0.2934 -0.3429  0.7217
 2995SOL     OW20446   2.565   3.972   6.197 -0.0764 -0.3177 -0.7272
 2995SOL    HW120447   2.531   3.947   6.283  1.2568 -0.1734 -0.1515
 2995SOL    HW220448   2.487   4.013   6.160 -1.8361 -0.4355  2.8620
 2996SOL     OW20449   0.493   2.551   2.441  0.4697  0.8178  0.6950
 2996SOL    HW120450   0.477   2.590   2.355  0.4075 -1.7204 -0.4597
 2996SOL    HW220451   0.564   2.611   2.459 -0.0560  1.0244  2.0556
 2997SOL     OW20452   0.717   2.341   7.283  0.1056  0.1251  0.0734
 2997SOL    HW120453   0.639   2.355   7.230  0.4734  1.3802 -0.1268
 2997SOL    HW220454   0.686   2.276   7.346 -2.8533  1.3725 -0.1293
 2998SOL     OW20455   3.826   1.373   7.624 -0.3503  0.7524 -0.2472
 2998SOL    HW120456   3.909   1.325   7.618 -0.3204  0.8578 -0.7001
 2998SOL    HW220457   3.763   1.305   7.650 -1.1380  1.1636 -1.0597
 2999SOL     OW20458   3.370   4.229  14.411  0.0627 -0.0654  0.3634
 2999SOL    HW120459   3.445   4.269  14.454  0.7898  0.1661 -1.1274
 2999SOL    HW220460   3.406   4.149  14.373 -0.1571 -0.3176  0.6835
 3000SOL     OW20461   0.932   3.559   3.421 -0.4771 -0.0126 -0.0696
 3000SOL    HW120462   0.913   3.479   3.372  1.5832  0.4784 -1.7062
 3000SOL    HW220463   1.015   3.571   3.375 -0.7291  1.3267 -0.1609
 3001SOL     OW20464   3.819   4.260   7.786 -0.1917 -0.1891 -0.4754
 3001SOL    HW120465   3.877   4.327   7.749  1.0625 -1.0120  0.0160
 3001SOL    HW220466   3.767   4.237   7.709  2.9003 -1.6339 -2.0934
 3002SOL     OW20467   0.348   4.376  12.239  0.0103  0.1114 -0.5166
 3002SOL    HW120468   0.395   4.341  12.314 -0.0116  1.5840  0.1934
 3002SOL    HW220469   0.420   4.395  12.180 -0.2818  1.0589 -0.5637
 3003SOL     OW20470   2.598   4.230  17.645 -0.1917  0.2136  0.3270
 3003SOL    HW120471   2.640   4.269   0.022 -1.4976  2.9802 -0.3615
 3003SOL    HW220472   2.522   4.286  17.633 -0.8986 -0.5712  1.2162
 3004SOL     OW20473   0.315   3.255   7.222 -0.0339  0.4259  0.1005
 3004SOL    HW120474   0.319   3.162   7.200 -0.5414  0.0785  1.5432
 3004SOL    HW220475   0.340   3.243   7.313 -1.6816  1.0437  0.6194
 3005SOL     OW20476   4.276   4.528  17.083  0.4865  0.1868 -0.1522
 3005SOL    HW120477   4.186   4.535  17.114  1.2441 -0.4129  2.2511
 3005SOL    HW220478   4.302   4.619  17.069 -1.3120  0.6364 -0.6237
 3006SOL     OW20479   3.366   2.866   7.533  0.2358  0.1589  0.5774
 3006SOL    HW120480   3.449   2.904   7.565  0.2501  1.8440 -1.4193
 3006SOL    HW220481   3.295   2.924   7.562 -1.5256 -2.1179  0.7635
 3007SOL     OW20482   2.875   1.681   1.188  0.3354 -0.4651 -0.4073
 3007SOL    HW120483   2.888   1.609   1.249  1.4896  0.5672  0.5810
 3007SOL    HW220484   2.967   1.706   1.174 -0.1958  1.6535 -0.1514
 3008SOL     OW20485   2.456   1.608   4.594 -0.2809 -0.2868 -0.1648
 3008SOL    HW120486   2.379   1.664   4.582 -1.3213 -2.0661 -1.8536
 3008SOL    HW220487   2.429   1.541   4.657  0.5139 -0.0385  0.4407
 3009SOL     OW20488   4.481   0.195   2.303 -0.3296 -0.1653 -0.2853
 3009SOL    HW120489   4.575   0.181   2.305 -0.3995 -0.6890 -0.6657
 3009SOL    HW220490   4.459   0.190   2.210 -1.8957  0.1726  0.0643
 3010SOL     OW20491   0.295   2.838  13.385  0.3298  0.2171  0.2540
 3010SOL    HW120492   0.336   2.788  13.455  2.1443  0.4982 -0.6025
 3010SOL    HW220493   0.305   2.924  13.425  1.2852 -1.4934  3.6658
 3011SOL     OW20494   1.221   3.822   4.792 -0.1110 -0.2015 -0.0684
 3011SOL    HW120495   1.258   3.793   4.876  5.2229  2.6862 -1.3912
 3011SOL    HW220496   1.295   3.868   4.752 -0.1304 -0.9110 -0.9131
 3012SOL     OW20497   1.969   2.833   4.061  0.5247  0.4298 -0.1582
 3012SOL    HW120498   2.043   2.867   4.011  0.9240  0.2198  0.2928
 3012SOL    HW220499   1.955   2.748   4.019 -1.1816 -1.7091  4.6825
 3013SOL     OW20500   0.052   2.020   1.222 -0.9135  0.1194 -0.6961
 3013SOL    HW120501   0.141   2.016   1.188 -0.5531 -3.4670  0.5849
 3013SOL    HW220502   0.001   1.974   1.156  0.0370 -1.7869 -0.1101
 3014SOL     OW20503   1.400   3.098   1.724  0.1846 -0.1585 -0.6751
 3014SOL    HW120504   1.351   3.075   1.803 -0.7497  2.1568 -0.5863
 3014SOL    HW220505   1.346   3.054   1.658 -1.0888  0.7147 -0.2049
 3015SOL     OW20506   3.524   1.496   4.248 -0.4978  0.5807 -0.2411
 3015SOL    HW120507   3.605   1.459   4.212 -0.3891  1.0495 -0.4727
 3015SOL    HW220508   3.495   1.430   4.310  1.3771 -0.3842 -0.3757
 3016SOL     OW20509   1.148   0.823   8.824 -0.0615 -0.5692 -0.3920
 3016SOL    HW120510   1.119   0.858   8.908  0.3556 -0.4488 -0.2971
 3016SOL    HW220511   1.171   0.906   8.781 -0.0349 -0.3046  0.1340
 3017SOL     OW20512   0.165   1.506   2.962  0.1289 -0.3299 -0.6481
 3017SOL    HW120513   0.157   1.452   2.883  0.1189 -3.2165  1.3203
 3017SOL    HW220514   0.250   1.547   2.946  0.4977 -0.6011  0.6535
 3018SOL     OW20515   1.250   1.716   7.742 -0.4026  0.2679  0.5832
 3018SOL    HW120516   1.189   1.643   7.738  0.4788 -0.3507 -2.0185
 3018SOL    HW220517   1.191   1.779   7.701  1.1232  0.9314 -0.6434
 3019SOL     OW20518   0.108   3.260   0.714 -0.4848 -0.5118 -0.6013
 3019SOL    HW120519   0.132   3.167   0.722 -0.9930 -0.6273 -0.4379
 3019SOL    HW220520   0.112   3.269   0.619  0.5209  0.8838 -0.4196
 3020SOL     OW20521   1.025   2.067   8.847 -0.4996 -0.1685  0.8385
 3020SOL    HW120522   0.932   2.064   8.866 -1.0878  1.5991 -1.7211
 3020SOL    HW220523   1.059   2.032   8.929  1.5211  0.4726  0.2915
 3021SOL     OW20524   4.183   3.011   5.909 -0.0518  1.0335 -0.1568
 3021SOL    HW120525   4.199   2.958   5.831 -0.0834  0.1202  0.4570
 3021SOL    HW220526   4.099   3.052   5.887  0.0520  1.0980 -0.4241
 3022SOL     OW20527   1.045   0.737   3.788 -0.0739  0.0767 -0.5892
 3022SOL    HW120528   1.050   0.771   3.699 -2.1691 -0.0803 -0.7657
 3022SOL    HW220529   0.984   0.665   3.770  1.9965 -1.4723 -1.4256
 3023SOL     OW20530   0.283   1.014   7.470 -0.3513  0.6330  0.0785
 3023SOL    HW120531   0.215   1.006   7.404 -0.1055  0.5635 -0.1636
 3023SOL    HW220532   0.275   0.922   7.496 -0.5964  0.6957  0.2271
 3024SOL     OW20533   2.812   3.099   9.153  0.8590 -0.0750 -0.5796
 3024SOL    HW120534   2.717   3.106   9.140  0.9599  0.8025 -0.8655
 3024SOL    HW220535   2.825   3.009   9.183  2.5379  0.4129  0.1464
 3025SOL     OW20536   1.629   3.956   0.915 -0.0599  0.0026 -0.0822
 3025SOL    HW120537   1.537   3.975   0.893 -0.2767 -0.0275  0.8117
 3025SOL    HW220538   1.669   3.984   0.832  1.0296  1.5492  0.9633
 3026SOL     OW20539   2.623   1.011   6.006 -0.5360 -1.1230  0.0455
 3026SOL    HW120540   2.707   0.970   5.984  1.8758  1.7869  4.1180
 3026SOL    HW220541   2.599   1.070   5.934  0.3150 -1.8858 -0.8601
 3027SOL     OW20542   3.951   0.738   3.709 -0.1864 -0.7565 -0.1715
 3027SOL    HW120543   3.898   0.801   3.659  1.2104 -1.1267 -2.1355
 3027SOL    HW220544   3.985   0.676   3.644  0.7375 -0.2611 -0.1555
 3028SOL     OW20545   3.274   2.318   6.865  0.4146 -0.4269  0.1339
 3028SOL    HW120546   3.279   2.276   6.780  1.8409  1.1754 -0.5748
 3028SOL    HW220547   3.349   2.376   6.852  0.8112 -0.7637  0.8839
 3029SOL     OW20548   4.490   3.022   1.219 -0.2674  0.1825 -0.5739
 3029SOL    HW120549   4.513   3.113   1.237  0.4423 -0.4514  1.8447
 3029SOL    HW220550   4.475   2.992   1.309  2.1557  2.4093  0.5912
 3030SOL     OW20551   4.703   2.925   8.149  0.1709 -0.0783  0.8905
 3030SOL    HW120552   4.681   2.943   8.240 -2.1387  0.3843  0.2217
 3030SOL    HW220553   4.644   2.853   8.126  1.6576 -0.9538 -0.2471
 3031SOL     OW20554   2.644   4.433   5.935 -0.2516 -0.1365  0.7670
 3031SOL    HW120555   2.637   4.513   5.884 -0.3257 -1.2588 -0.9653
 3031SOL    HW220556   2.731   4.395   5.923 -0.8493 -1.0707 -0.5581
 3032SOL     OW20557   1.248   2.281  13.171  0.0366  0.0803 -0.1550
 3032SOL    HW120558   1.335   2.314  13.194 -0.1807  1.2699 -1.0209
 3032SOL    HW220559   1.236   2.215  13.239 -2.1043  0.3200 -0.3056
 3033SOL     OW20560   4.033   0.441   8.617 -0.0543 -0.0992  0.6999
 3033SOL    HW120561   3.960   0.436   8.678  0.3747 -1.5727  1.0939
 3033SOL    HW220562   3.989   0.390   8.549 -0.2328  0.0900  0.6736
 3034SOL     OW20563   1.034   2.261   6.530 -0.0789 -0.0562  0.0144
 3034SOL    HW120564   1.061   2.235   6.443 -1.7681  0.9386 -0.8054
 3034SOL    HW220565   1.000   2.347   6.508  0.2981 -0.6264 -2.7023
 3035SOL     OW20566   2.610   0.444   6.769 -0.0992  0.0404  0.1022
 3035SOL    HW120567   2.599   0.523   6.822 -0.4798  1.1702 -1.6786
 3035SOL    HW220568   2.543   0.453   6.702 -0.1764  0.0485  0.1808
 3036SOL     OW20569   3.135   3.258   4.008  0.4672  0.3262  0.1700
 3036SOL    HW120570   3.092   3.229   4.089  1.1827 -1.7555 -0.2024
 3036SOL    HW220571   3.112   3.192   3.943  0.1915  0.4352  0.1582
 3037SOL     OW20572   2.680   3.718  11.864  0.0499  0.1947  0.1253
 3037SOL    HW120573   2.733   3.648  11.828 -1.3215 -0.1243 -1.2940
 3037SOL    HW220574   2.609   3.720  11.800 -0.0766 -1.3557  0.2158
 3038SOL     OW20575   0.841   3.746   3.942 -0.4026 -0.0076 -0.4358
 3038SOL    HW120576   0.909   3.806   3.911 -0.7671  0.7193  0.1513
 3038SOL    HW220577   0.824   3.780   4.030  1.2781 -1.8220  0.6033
 3039SOL     OW20578   3.268   2.944  16.088 -0.1778 -0.4801  0.5853
 3039SOL    HW120579   3.207   3.012  16.058  0.0705 -0.2039  0.7075
 3039SOL    HW220580   3.332   2.951  16.017 -0.7134 -3.8931 -0.2167
 3040SOL     OW20581   4.413   2.238   6.740 -0.4092  0.3618 -0.0867
 3040SOL    HW120582   4.479   2.197   6.796 -1.5141  1.9486  2.3852
 3040SOL    HW220583   4.392   2.160   6.688  1.4579 -0.2483  0.0611
 3041SOL     OW20584   3.886   2.014   0.886 -0.1617 -0.1701  0.9225
 3041SOL    HW120585   3.934   1.936   0.858 -0.1951  0.0014  0.3721
 3041SOL    HW220586   3.821   2.024   0.816 -0.9543  0.1990  1.7229
 3042SOL     OW20587   1.877   3.036   1.794  0.2146  0.5242 -0.2536
 3042SOL    HW120588   1.901   3.013   1.704  0.0697 -1.8763  0.3305
 3042SOL    HW220589   1.951   3.010   1.848 -2.3175  0.7837  3.3472
 3043SOL     OW20590   3.311   3.336   0.571  0.0782  0.4666  0.4208
 3043SOL    HW120591   3.392   3.376   0.603  0.4960  0.9968 -1.3212
 3043SOL    HW220592   3.249   3.407   0.589 -1.2582 -0.7325  0.5492
 3044SOL     OW20593   2.773   3.093   3.692 -0.0236 -0.3714 -0.1467
 3044SOL    HW120594   2.850   3.067   3.641  0.4352 -1.3454  1.0461
 3044SOL    HW220595   2.748   3.014   3.741  0.7220 -0.4096  0.1710
 3045SOL     OW20596   3.036   3.719   5.202 -0.6324  0.5158  0.0455
 3045SOL    HW120597   2.952   3.757   5.174 -0.2476  0.9493 -0.5034
 3045SOL    HW220598   3.007   3.648   5.260 -0.3792  0.5633  0.2307
 3046SOL     OW20599   0.984   1.623   8.033  0.0738 -0.0531  0.5269
 3046SOL    HW120600   1.063   1.621   8.086  1.2897 -0.1827 -1.3184
 3046SOL    HW220601   0.928   1.680   8.087 -0.6341 -0.6357  0.4078
 3047SOL     OW20602   0.675   1.471   1.857 -0.0779  0.5931  0.0387
 3047SOL    HW120603   0.740   1.530   1.895  0.9373 -0.1103 -0.5964
 3047SOL    HW220604   0.664   1.409   1.929 -0.1311  1.1369  0.4934
 3048SOL     OW20605   1.098   0.936   5.137 -0.1923 -0.2117 -0.4771
 3048SOL    HW120606   1.166   1.001   5.117 -0.1970  0.0812  0.4404
 3048SOL    HW220607   1.154   0.865   5.105  0.7391  0.2887  0.0284
 3049SOL     OW20608   0.245   1.195   2.129  0.5684  0.5148  0.3886
 3049SOL    HW120609   0.158   1.156   2.120 -0.4070  2.1294  2.7617
 3049SOL    HW220610   0.234   1.240   2.213  0.5022 -2.0886  1.7919
 3050SOL     OW20611   1.652   0.698   9.187 -0.4758  0.3073 -0.2530
 3050SOL    HW120612   1.619   0.788   9.191 -2.2141 -0.3019 -0.5504
 3050SOL    HW220613   1.576   0.652   9.150 -1.0631  1.9014 -1.0251
 3051SOL     OW20614   4.327   4.085  10.187  0.0138 -0.2457  0.4410
 3051SOL    HW120615   4.422   4.085  10.203  0.7095  0.8341 -3.4582
 3051SOL    HW220616   4.301   4.151  10.251 -1.4851 -0.6096  0.1992
 3052SOL     OW20617   4.568   3.004   3.968  0.3216 -0.4718 -0.1238
 3052SOL    HW120618   4.657   2.970   3.956  0.5050 -1.2156  3.4490
 3052SOL    HW220619   4.589   3.092   3.999 -2.5470  0.8518 -1.9253
 3053SOL     OW20620   2.257   0.241   4.204  0.0791 -0.1975 -0.1220
 3053SOL    HW120621   2.184   0.285   4.161 -1.0769 -0.9863  1.0321
 3053SOL    HW220622   2.318   0.315   4.194 -0.9133  0.5485 -0.6339
 3054SOL     OW20623   1.990   4.085   5.193  0.3481 -0.2010 -0.1210
 3054SOL    HW120624   2.024   3.996   5.201  0.2042 -0.2269  0.2140
 3054SOL    HW220625   1.994   4.119   5.282 -1.6242 -0.1653 -0.0571
 3055SOL     OW20626   3.821   3.506   5.770 -0.3450  0.5500  0.5541
 3055SOL    HW120627   3.802   3.415   5.793  0.7942  0.0392 -0.5293
 3055SOL    HW220628   3.738   3.527   5.728 -2.1930 -3.6369  2.0920
 3056SOL     OW20629   4.008   1.471  13.666  0.0309  0.0657 -0.4117
 3056SOL    HW120630   3.995   1.558  13.704 -1.7446 -1.3111  2.1242
 3056SOL    HW220631   3.917   1.442  13.668  0.5562 -1.4078  2.3878
 3057SOL     OW20632   3.825   3.400   3.275 -0.1962 -0.2493  0.1792
 3057SOL    HW120633   3.868   3.472   3.322  2.3008 -0.8415 -1.1687
 3057SOL    HW220634   3.897   3.383   3.214 -1.0991  1.0344 -1.2397
 3058SOL     OW20635   3.147   1.867   0.187 -0.4561  0.0431  0.1767
 3058SOL    HW120636   3.134   1.818   0.106  0.8852  1.9773 -1.1946
 3058SOL    HW220637   3.130   1.956   0.158 -1.0214 -0.7200 -1.8104
 3059SOL     OW20638   2.792   3.827   6.128  0.0634 -0.5964 -0.0629
 3059SOL    HW120639   2.714   3.873   6.158  1.1709  0.8702  0.6169
 3059SOL    HW220640   2.854   3.847   6.198 -0.5071 -0.7212  0.4762
 3060SOL     OW20641   3.596   4.694   5.831 -0.1535  0.7494 -0.1268
 3060SOL    HW120642   3.584   0.060   5.860 -1.6667  0.5565 -0.1613
 3060SOL    HW220643   3.544   4.640   5.890  0.7907  0.8764  0.8175
 3061SOL     OW20644   1.061   0.187  10.686  0.0373  0.1033  0.3277
 3061SOL    HW120645   1.089   0.169  10.776 -1.5951 -0.4510  0.7295
 3061SOL    HW220646   0.976   0.231  10.695  0.9096  1.5326  1.4786
 3062SOL     OW20647   1.796   3.163   8.132 -0.5553  0.1969  0.0273
 3062SOL    HW120648   1.880   3.208   8.145 -1.3061  1.2123  1.3215
 3062SOL    HW220649   1.822   3.108   8.058  0.8684  0.9177 -0.0187
 3063SOL     OW20650   1.611   3.256   4.018  0.1004 -0.2083  0.4306
 3063SOL    HW120651   1.703   3.261   3.994 -0.0970  0.4654 -0.1860
 3063SOL    HW220652   1.580   3.346   4.005  2.7266  0.8188  1.3769
 3064SOL     OW20653   4.135   1.507   5.020 -0.1990  0.1443  0.3385
 3064SOL    HW120654   4.108   1.503   4.928 -0.5854  1.7979  0.3781
 3064SOL    HW220655   4.225   1.539   5.015 -1.6182  3.7248 -2.5748
 3065SOL     OW20656   1.657   2.594   3.172  0.2389 -0.3419 -0.2902
 3065SOL    HW120657   1.713   2.561   3.101 -1.6293  1.0019 -2.4107
 3065SOL    HW220658   1.732   2.595   3.231  0.2181 -1.2587 -0.2470
 3066SOL     OW20659   1.491   0.406  11.919  0.4429 -0.2900  0.4180
 3066SOL    HW120660   1.396   0.400  11.904  0.7936 -2.2819 -1.0838
 3066SOL    HW220661   1.492   0.492  11.960 -1.8456 -0.2669  0.4170
 3067SOL     OW20662   1.067   0.316   8.709  0.6674  0.1613 -0.5262
 3067SOL    HW120663   0.971   0.307   8.713  0.7386 -0.6632 -0.8026
 3067SOL    HW220664   1.081   0.391   8.768 -0.3641 -0.6891  0.8040
 3068SOL     OW20665   1.692   0.434  12.818  0.0879 -0.2005 -0.3281
 3068SOL    HW120666   1.720   0.344  12.831 -1.0501  0.1344  4.1599
 3068SOL    HW220667   1.766   0.472  12.770 -1.1251  3.1239  0.4094
 3069SOL     OW20668   3.920   4.546   5.912 -0.1778 -0.3348  0.6247
 3069SOL    HW120669   3.854   4.494   5.867 -1.3012 -1.3106  3.4233
 3069SOL    HW220670   3.933   4.490   5.989  1.9726  0.6193  0.9810
 3070SOL     OW20671   0.507   0.593   3.785  0.5943  0.6759  0.2023
 3070SOL    HW120672   0.413   0.598   3.768  0.6280 -0.7978 -0.4457
 3070SOL    HW220673   0.519   0.563   3.875 -1.8760  1.0488  0.6488
 3071SOL     OW20674   1.916   2.675   7.209 -0.0929  0.0071 -0.1621
 3071SOL    HW120675   1.913   2.639   7.120  0.4481  0.2418 -0.2816
 3071SOL    HW220676   1.938   2.767   7.192  0.7369  0.2938  2.4389
 3072SOL     OW20677   1.748   1.774   2.674 -0.1406  0.1607  0.8093
 3072SOL    HW120678   1.802   1.828   2.617 -3.1291  2.5706  0.2704
 3072SOL    HW220679   1.687   1.735   2.611 -0.2325  1.6216 -0.0089
 3073SOL     OW20680   2.039   2.164  11.833  0.4119 -0.3297  0.1508
 3073SOL    HW120681   2.111   2.215  11.796  1.6528 -0.7193  2.0811
 3073SOL    HW220682   2.092   2.125  11.902  0.2913  1.0320  1.0162
 3074SOL     OW20683   4.128   3.663   3.243 -0.3406 -0.1737  0.2750
 3074SOL    HW120684   4.199   3.711   3.285 -1.2034  0.1370  1.3904
 3074SOL    HW220685   4.170   3.583   3.210 -0.8900 -0.1040 -0.6048
 3075SOL     OW20686   0.440   2.076   5.736  0.1961 -0.3467 -0.5099
 3075SOL    HW120687   0.376   2.043   5.673  0.0909 -0.4409 -0.3551
 3075SOL    HW220688   0.520   2.074   5.683  1.7618  1.2622  1.8013
 3076SOL     OW20689   0.529   4.651   8.137 -0.5018  0.1359 -0.1443
 3076SOL    HW120690   0.559   0.005   8.092  0.6014 -1.2397 -1.8359
 3076SOL    HW220691   0.609   4.626   8.185  1.8283  1.0519 -3.5421
 3077SOL     OW20692   1.198   4.354   4.986 -0.0401 -0.0173  0.2929
 3077SOL    HW120693   1.129   4.421   4.982 -0.2473 -0.1166  2.1987
 3077SOL    HW220694   1.165   4.305   5.061  1.2425 -0.8314  0.3360
 3078SOL     OW20695   2.277   3.281   7.991  0.2410 -0.4376  0.1225
 3078SOL    HW120696   2.323   3.343   7.935 -1.3858  1.5935  1.0368
 3078SOL    HW220697   2.347   3.222   8.019  0.3356 -0.6477 -0.5545
 3079SOL     OW20698   1.815   1.971   4.433  0.0956 -0.3315 -0.5524
 3079SOL    HW120699   1.822   1.877   4.451  1.7411  0.1326  1.1284
 3079SOL    HW220700   1.720   1.986   4.430  0.3366  1.4532  1.2182
 3080SOL     OW20701   1.433   2.123   6.681 -0.0935  0.0682 -0.0762
 3080SOL    HW120702   1.371   2.085   6.618 -0.0518 -0.1413  0.0097
 3080SOL    HW220703   1.470   2.038   6.705 -2.3989 -0.7365  0.7079
 3081SOL     OW20704   0.606   0.130   4.086 -0.0286 -0.1487  0.5106
 3081SOL    HW120705   0.653   0.074   4.025  0.3272  0.9025 -0.1932
 3081SOL    HW220706   0.575   0.205   4.035 -1.1240 -3.0040 -3.0184
 3082SOL     OW20707   2.575   2.751  17.371  0.0449 -0.0599  0.3002
 3082SOL    HW120708   2.613   2.805  17.441 -1.9196 -0.0188  1.3498
 3082SOL    HW220709   2.522   2.822  17.336  0.1661 -1.1152 -2.0399
 3083SOL     OW20710   0.112   1.809   5.816  0.5291 -0.6140 -0.0380
 3083SOL    HW120711   0.171   1.737   5.796 -0.1123 -0.4239 -2.6166
 3083SOL    HW220712   0.022   1.776   5.811  0.1082  0.4080  0.7566
 3084SOL     OW20713   0.836   0.882   4.596  0.5926  0.6996 -0.1640
 3084SOL    HW120714   0.787   0.839   4.526 -0.4215  0.9524  0.3877
 3084SOL    HW220715   0.882   0.811   4.641 -0.4511  0.6670  0.8245
 3085SOL     OW20716   3.070   2.756  10.192  0.2749  0.7492 -0.4767
 3085SOL    HW120717   3.062   2.805  10.274 -0.9400  0.0039 -0.1432
 3085SOL    HW220718   3.044   2.821  10.127  0.7072  1.0456 -0.3479
 3086SOL     OW20719   2.037   3.053   5.535  0.1031  0.2381 -0.2466
 3086SOL    HW120720   2.025   2.969   5.578 -1.1878  0.7776  0.4595
 3086SOL    HW220721   2.123   3.044   5.494  0.6554  0.3857  0.8852
 3087SOL     OW20722   3.388   2.345   5.518 -0.1857  0.3817  0.4914
 3087SOL    HW120723   3.408   2.395   5.598  2.5536 -0.5670  0.3918
 3087SOL    HW220724   3.314   2.396   5.484  0.2883  0.3294 -0.6276
 3088SOL     OW20725   0.502   1.390   1.641  0.0302  0.1977 -0.2490
 3088SOL    HW120726   0.546   1.308   1.664 -0.0344  0.0070 -0.8089
 3088SOL    HW220727   0.560   1.456   1.679  0.1878 -0.4921  0.7071
 3089SOL     OW20728   0.929   0.556   7.046 -0.3299  0.1509  0.2254
 3089SOL    HW120729   0.872   0.624   7.080  0.7079  1.9254 -1.5771
 3089SOL    HW220730   0.996   0.538   7.112  2.7390 -1.0665 -3.1979
 3090SOL     OW20731   1.661   0.661   4.056  0.8010 -0.6746  0.3204
 3090SOL    HW120732   1.598   0.633   3.990  0.9709 -0.1099 -0.0840
 3090SOL    HW220733   1.725   0.701   3.996 -1.2055  1.2634 -0.5357
 3091SOL     OW20734   4.526   2.504   1.962  0.3604  0.2487 -0.0496
 3091SOL    HW120735   4.537   2.559   1.884 -1.3885 -0.3347 -0.7169
 3091SOL    HW220736   4.483   2.426   1.927  0.9707  0.5637 -1.4682
 3092SOL     OW20737   0.018   3.227   5.527 -0.0517 -0.6640 -0.2023
 3092SOL    HW120738   4.716   3.185   5.445 -0.8679 -1.1566  0.3130
 3092SOL    HW220739   4.664   3.280   5.541  0.3833  0.1428 -0.8370
 3093SOL     OW20740   4.698   0.916   0.661 -0.2700 -0.2507 -0.0182
 3093SOL    HW120741   4.643   0.930   0.739  1.8765  0.5585  1.3668
 3093SOL    HW220742   4.647   0.858   0.605 -1.4892 -1.0798  1.9631
 3094SOL     OW20743   1.532   3.424   5.884 -0.6750 -0.4376  0.5252
 3094SOL    HW120744   1.528   3.517   5.860 -1.3212 -0.5436  0.2400
 3094SOL    HW220745   1.454   3.402   5.935 -1.1784  1.9024  0.7611
 3095SOL     OW20746   2.436   2.251  17.114  0.6355  0.1490  0.7202
 3095SOL    HW120747   2.460   2.327  17.167  0.1189  0.6602  0.2350
 3095SOL    HW220748   2.394   2.297  17.041  1.1047 -0.5462  0.0066
 3096SOL     OW20749   1.566   1.953   2.771  0.3223  0.2882 -0.3494
 3096SOL    HW120750   1.501   1.944   2.701  1.9628  1.1788 -2.0085
 3096SOL    HW220751   1.645   1.921   2.726 -0.6247 -1.3146 -0.8401
 3097SOL     OW20752   3.470   4.538   4.039 -0.0821  0.3343 -0.1571
 3097SOL    HW120753   3.413   4.576   4.105 -1.2442 -0.7770 -0.5295
 3097SOL    HW220754   3.452   4.581   3.956  2.1887  0.4534 -0.6091
 3098SOL     OW20755   0.893   3.827   5.840  0.0530 -0.3906  0.3312
 3098SOL    HW120756   0.936   3.801   5.922  3.3390 -0.0594 -1.2899
 3098SOL    HW220757   0.836   3.895   5.876  0.6147  1.8917 -3.1017
 3099SOL     OW20758   0.354   0.426   8.117  0.1603 -0.1092 -0.4532
 3099SOL    HW120759   0.432   0.387   8.157  1.0269  0.0388 -1.9860
 3099SOL    HW220760   0.369   0.510   8.160 -1.0952 -0.2990  0.3387
 3100SOL     OW20761   4.457   0.164   8.037 -0.3939  0.2054 -0.0880
 3100SOL    HW120762   4.489   0.127   8.119 -1.3312  2.0868  1.1324
 3100SOL    HW220763   4.366   0.189   8.057 -0.1927 -1.9734  3.6194
 3101SOL     OW20764   0.410   0.953   1.798  0.1914  0.1815  0.0085
 3101SOL    HW120765   0.341   1.017   1.811  0.9908  1.6104 -2.7884
 3101SOL    HW220766   0.367   0.873   1.827  0.4972  0.1520  0.3863
 3102SOL     OW20767   2.661   0.692   6.191 -0.5673 -0.4373  0.3285
 3102SOL    HW120768   2.722   0.749   6.237 -1.1794 -1.8505  2.8986
 3102SOL    HW220769   2.587   0.753   6.180 -0.3742 -0.0926  0.9694
 3103SOL     OW20770   1.696   4.177   8.011 -0.6900 -0.2970  0.6554
 3103SOL    HW120771   1.745   4.181   8.093 -1.2099 -0.7566  0.9919
 3103SOL    HW220772   1.681   4.083   8.000  2.7379 -0.6783 -0.8628
 3104SOL     OW20773   0.861   3.072   2.929 -0.4576 -0.1490 -0.1980
 3104SOL    HW120774   0.916   2.998   2.955 -2.7341 -1.2268  1.4769
 3104SOL    HW220775   0.844   3.103   3.018  1.2565  2.1030 -0.6357
 3105SOL     OW20776   0.237   3.421   0.938  0.1403  0.5090  0.0563
 3105SOL    HW120777   0.171   3.384   0.879  0.1239  0.4044  0.1401
 3105SOL    HW220778   0.213   3.514   0.937 -3.2344 -0.3651 -1.5940
 3106SOL     OW20779   3.655   4.006   4.138 -0.3555 -0.3386 -0.1723
 3106SOL    HW120780   3.566   4.037   4.119 -0.2329  0.2632  0.2258
 3106SOL    HW220781   3.644   3.982   4.230 -3.6329  2.3857  0.1703
 3107SOL     OW20782   1.677   1.943   2.223 -0.4339 -0.2929 -0.1304
 3107SOL    HW120783   1.639   2.030   2.214 -2.4757 -1.0128  1.5070
 3107SOL    HW220784   1.720   1.954   2.307 -1.6117 -3.6151  0.9021
 3108SOL     OW20785   2.935   0.671   5.330 -0.0230 -0.3810  0.6572
 3108SOL    HW120786   2.940   0.766   5.315  1.2567 -0.5247  0.1894
 3108SOL    HW220787   3.024   0.646   5.307 -0.5600  0.7394 -2.6888
 3109SOL     OW20788   0.658   3.333  15.198 -0.2898 -0.0311 -0.6643
 3109SOL    HW120789   0.721   3.307  15.131  0.6623 -0.6968  0.4773
 3109SOL    HW220790   0.576   3.298  15.165 -1.0063 -1.1455  2.2522
 3110SOL     OW20791   2.907   2.067   7.979 -0.5622 -0.0764 -0.0098
 3110SOL    HW120792   2.811   2.070   7.971 -0.5789  1.0899  0.6165
 3110SOL    HW220793   2.932   2.150   7.939  0.9052 -0.1111  0.8386
 3111SOL     OW20794   0.362   4.084  15.941  0.2971 -0.4692  0.1506
 3111SOL    HW120795   0.278   4.126  15.927  1.3688  0.9587 -2.0449
 3111SOL    HW220796   0.395   4.087  15.851 -0.3742 -0.0427 -0.0765
 3112SOL     OW20797   3.947   3.618   6.745  0.4699  0.0359  0.1677
 3112SOL    HW120798   3.942   3.630   6.651  2.0140 -0.0903  0.0607
 3112SOL    HW220799   4.042   3.602   6.751  0.3680 -0.4269  0.6147
 3113SOL     OW20800   4.015   0.111   1.727  0.2998  0.0379  0.4332
 3113SOL    HW120801   3.921   0.116   1.744 -0.1638  2.6734 -2.6656
 3113SOL    HW220802   4.022   0.016   1.728 -0.8382 -0.0635 -1.5235
 3114SOL     OW20803   1.591   2.532   8.009  0.7377 -0.6206 -0.5825
 3114SOL    HW120804   1.515   2.579   7.975  0.3991 -0.0994  0.8614
 3114SOL    HW220805   1.648   2.550   7.934 -0.6687  0.3888 -1.4121
 3115SOL     OW20806   2.118   4.089   4.914  0.2936  0.0206 -0.0228
 3115SOL    HW120807   2.076   4.025   4.857  0.7026  0.3777 -0.7306
 3115SOL    HW220808   2.102   4.043   4.996 -2.0141  0.0339 -0.4554
 3116SOL     OW20809   2.759   0.990   0.141 -0.0712 -0.0075 -0.1426
 3116SOL    HW120810   2.707   1.068   0.159 -0.7831 -0.5742  0.2770
 3116SOL    HW220811   2.820   0.998   0.215  0.9892  0.4301 -1.0689
 3117SOL     OW20812   3.570   0.169  14.093  0.1111 -0.2360  0.0796
 3117SOL    HW120813   3.619   0.174  14.175 -1.0273 -1.4755  0.8384
 3117SOL    HW220814   3.540   0.078  14.097 -0.0192 -0.1852  0.2764
 3118SOL     OW20815   2.127   1.616  11.298  0.1702  0.1284 -0.8025
 3118SOL    HW120816   2.088   1.703  11.290  2.6586  1.2618 -0.5906
 3118SOL    HW220817   2.219   1.642  11.301  0.1668 -0.0519  0.4664
 3119SOL     OW20818   2.055   1.370  10.142 -0.1709  0.1643 -1.0966
 3119SOL    HW120819   2.029   1.309  10.073 -1.2701 -0.6890  0.0935
 3119SOL    HW220820   2.057   1.303  10.210 -0.8376  0.1005 -1.1462
 3120SOL     OW20821   4.147   0.356   2.625  0.0541 -0.0198 -0.0152
 3120SOL    HW120822   4.168   0.334   2.534 -1.7360 -2.9751  0.2878
 3120SOL    HW220823   4.231   0.335   2.666 -0.6631 -1.0569  0.9264
 3121SOL     OW20824   2.499   1.578   7.956 -0.1333 -0.2212  0.0656
 3121SOL    HW120825   2.495   1.484   7.976  1.5158 -0.6279 -1.4840
 3121SOL    HW220826   2.451   1.582   7.874 -0.1744  1.1255  0.1687
 3122SOL     OW20827   2.743   2.072   5.116 -0.0491  0.1815 -0.2002
 3122SOL    HW120828   2.779   2.160   5.126  1.1390 -0.3678  0.4389
 3122SOL    HW220829   2.671   2.100   5.060 -0.4375 -2.3496 -0.9568
 3123SOL     OW20830   4.597   3.751   4.827 -0.3913 -0.3917 -0.2167
 3123SOL    HW120831   4.679   3.708   4.802  0.6499  0.3824  1.7740
 3123SOL    HW220832   4.644   3.802   4.893 -1.1821 -0.7588  0.6291
 3124SOL     OW20833   3.230   3.113   5.238 -0.1479 -0.7816  0.1345
 3124SOL    HW120834   3.186   3.176   5.180  1.4797 -0.3541 -0.6346
 3124SOL    HW220835   3.289   3.077   5.172 -0.8519  0.4238 -1.1480
 3125SOL     OW20836   1.437   3.907   4.489  0.3206  0.3961  0.1593
 3125SOL    HW120837   1.481   3.846   4.429 -0.5612 -0.7283  0.6729
 3125SOL    HW220838   1.377   3.940   4.422  1.5368  0.4272 -0.9236
 3126SOL     OW20839   3.916   0.720   8.378  0.0749  0.2015  0.0536
 3126SOL    HW120840   3.933   0.638   8.332  0.8755  0.9995 -1.0557
 3126SOL    HW220841   3.968   0.774   8.318 -2.0331 -1.3722 -3.2397
 3127SOL     OW20842   3.375   3.774   2.713 -0.2760  0.2698  1.0478
 3127SOL    HW120843   3.296   3.727   2.687  0.7902 -1.2386  0.5598
 3127SOL    HW220844   3.378   3.718   2.790  0.5608 -1.1017  0.0175
 3128SOL     OW20845   0.457   1.999   1.353 -0.1916  0.2562  0.3729
 3128SOL    HW120846   0.485   2.087   1.327  0.9276  0.3922  2.0778
 3128SOL    HW220847   0.480   1.995   1.445 -0.6524  0.4071  0.4975
 3129SOL     OW20848   4.439   0.917   5.350 -0.1101 -0.1923 -0.3897
 3129SOL    HW120849   4.516   0.896   5.402  1.4574  0.2533 -2.5192
 3129SOL    HW220850   4.419   0.824   5.334 -0.9555 -0.0032 -0.4247
 3130SOL     OW20851   0.850   2.007  13.983 -0.0085 -0.7698 -0.0337
 3130SOL    HW120852   0.921   1.946  14.003  0.0483 -1.1177 -1.2699
 3130SOL    HW220853   0.886   2.041  13.901 -1.2826  0.1349 -0.2273
 3131SOL     OW20854   1.448   0.069   8.619  0.0052  0.0599 -0.5323
 3131SOL    HW120855   1.468   0.018   8.698 -2.2515  1.3304  0.8743
 3131SOL    HW220856   1.379   0.130   8.646  0.0021 -0.6001  0.9862
 3132SOL     OW20857   4.615   0.338   0.934  0.2239 -0.3845 -0.0106
 3132SOL    HW120858   4.551   0.272   0.958  0.4733 -1.0717 -1.2168
 3132SOL    HW220859   4.578   0.425   0.951 -0.4402 -0.6897  0.0839
 3133SOL     OW20860   1.158   0.135  14.221 -0.0388 -0.4453  0.1385
 3133SOL    HW120861   1.109   0.111  14.142  1.9516  2.0908 -1.8876
 3133SOL    HW220862   1.245   0.149  14.184 -0.1472  0.0780  0.0769
 3134SOL     OW20863   4.301   0.888   3.448  0.3760 -0.1469  0.0789
 3134SOL    HW120864   4.321   0.795   3.446 -0.4225 -0.3288  0.4219
 3134SOL    HW220865   4.230   0.897   3.385  1.4938  0.2225 -1.1348
 3135SOL     OW20866   2.177   3.458  10.712  0.0398  0.1395  0.4742
 3135SOL    HW120867   2.140   3.451  10.624 -0.3228  4.6227  0.2485
 3135SOL    HW220868   2.227   3.378  10.724  2.1367  1.5324  0.9681
 3136SOL     OW20869   1.561   3.045   7.324  0.3277 -0.0774  0.2210
 3136SOL    HW120870   1.475   3.041   7.366  0.7975 -1.5475  1.0514
 3136SOL    HW220871   1.553   3.126   7.273  2.3507  0.1769  0.3331
 3137SOL     OW20872   3.741   0.309   2.766  0.0068 -0.4654  0.7836
 3137SOL    HW120873   3.748   0.223   2.808 -0.1006 -1.2539 -0.8085
 3137SOL    HW220874   3.835   0.326   2.762 -0.3881  1.1742 -1.2650
 3138SOL     OW20875   3.364   3.456  16.681  0.0732 -0.4827  0.6131
 3138SOL    HW120876   3.453   3.490  16.672 -0.1698  0.1732  0.6763
 3138SOL    HW220877   3.390   3.365  16.696 -0.9540 -0.1489  4.4184
 3139SOL     OW20878   0.086   2.282   3.526  0.2227  0.0176 -0.3702
 3139SOL    HW120879   0.130   2.290   3.441  0.8771  0.8062  0.0433
 3139SOL    HW220880   0.063   2.190   3.528 -0.5246  0.2161 -0.0046
 3140SOL     OW20881   2.371   0.005  17.530  0.3116  0.3227 -0.5995
 3140SOL    HW120882   2.351   4.679  17.608  2.0002  1.2068  0.4047
 3140SOL    HW220883   2.366   0.087  17.579 -0.9689  0.7970 -1.5127
 3141SOL     OW20884   1.882   0.916   2.848  0.6374  0.0481  0.2944
 3141SOL    HW120885   1.845   0.957   2.769 -1.5356  0.8070  1.6990
 3141SOL    HW220886   1.853   0.827   2.828 -2.9175  1.3098 -0.1538
 3142SOL     OW20887   2.347   4.427   8.752  0.0502 -0.4585  0.1493
 3142SOL    HW120888   2.378   4.404   8.839 -0.0008 -2.8658 -0.4724
 3142SOL    HW220889   2.418   4.486   8.727 -0.2077  0.1398  0.8120
 3143SOL     OW20890   3.459   1.181   4.981  0.4258  0.4618 -0.0792
 3143SOL    HW120891   3.436   1.114   4.917 -0.6528  0.8760 -0.1259
 3143SOL    HW220892   3.547   1.207   4.954  0.4338  1.1134  0.5777
 3144SOL     OW20893   4.067   2.522   7.600 -0.0846  0.3180 -0.3091
 3144SOL    HW120894   3.986   2.524   7.652 -1.3381  0.9687 -2.2739
 3144SOL    HW220895   4.077   2.432   7.571  2.5252  1.7174 -3.6806
 3145SOL     OW20896   2.167   2.644   9.028  0.2337  0.0086 -0.2337
 3145SOL    HW120897   2.160   2.691   8.945  2.9855  3.4945  1.5243
 3145SOL    HW220898   2.126   2.558   9.015 -0.9257  0.8703 -2.1599
 3146SOL     OW20899   1.843   0.288   8.081  0.2203  0.1406  0.0344
 3146SOL    HW120900   1.930   0.326   8.079  0.0293  0.3990 -3.2766
 3146SOL    HW220901   1.853   0.205   8.035  0.8177  0.8967 -1.2160
 3147SOL     OW20902   4.073   1.498  16.695 -0.3729  0.4503  0.0145
 3147SOL    HW120903   4.070   1.522  16.788  2.7194 -0.8150  0.4420
 3147SOL    HW220904   4.032   1.574  16.654 -0.7456  0.0748 -0.3166
 3148SOL     OW20905   1.040   4.010   1.639 -0.5200 -0.3862  0.3595
 3148SOL    HW120906   1.135   4.017   1.641 -0.7025  1.6121  1.2745
 3148SOL    HW220907   1.019   4.057   1.558  1.4797 -0.3975 -0.1613
 3149SOL     OW20908   4.417   2.642   8.777 -0.1779 -0.6179 -0.7299
 3149SOL    HW120909   4.400   2.586   8.853 -1.1046  0.1424 -0.3690
 3149SOL    HW220910   4.427   2.730   8.812  2.3893 -0.8584 -0.8694
 3150SOL     OW20911   3.184   3.709   8.439  0.2380 -0.6496 -0.0109
 3150SOL    HW120912   3.190   3.619   8.471  4.0385 -0.3199  0.2579
 3150SOL    HW220913   3.273   3.740   8.455 -0.1410 -0.2398  1.3180
 3151SOL     OW20914   1.746   0.546   5.220  0.0886  0.4387 -0.1138
 3151SOL    HW120915   1.816   0.484   5.200 -1.9688 -1.5551 -1.1129
 3151SOL    HW220916   1.674   0.510   5.167 -0.1538 -0.6399  0.9516
 3152SOL     OW20917   0.775   1.545   8.624 -0.0759 -0.2244 -0.0145
 3152SOL    HW120918   0.858   1.551   8.576 -0.1165  0.2215 -0.0247
 3152SOL    HW220919   0.767   1.618   8.685  1.1136 -0.9832  1.0662
 3153SOL     OW20920   3.423   2.197   8.850  0.7924  0.3801  0.1825
 3153SOL    HW120921   3.513   2.193   8.882  1.5125  2.3681 -1.5722
 3153SOL    HW220922   3.402   2.132   8.782 -0.8021  0.3340  0.7066
 3154SOL     OW20923   4.078   3.909   9.659 -0.0191  0.1710  0.2520
 3154SOL    HW120924   3.987   3.939   9.650  0.0493  0.0661 -0.7457
 3154SOL    HW220925   4.074   3.824   9.616  1.0985 -0.3477  1.1895
 3155SOL     OW20926   2.597   0.780   3.865  0.0004 -0.2886 -0.0108
 3155SOL    HW120927   2.679   0.774   3.913  0.7677  1.9333 -1.0565
 3155SOL    HW220928   2.631   0.787   3.776  1.0195  0.7016  0.4684
 3156SOL     OW20929   1.345   2.131   4.982  0.3362  0.0346  0.2936
 3156SOL    HW120930   1.340   2.121   5.077  0.1706  0.6452  0.3487
 3156SOL    HW220931   1.388   2.049   4.958  0.0087  0.3834 -1.4805
 3157SOL     OW20932   1.554   0.058   0.726  0.2751 -0.4444  0.1279
 3157SOL    HW120933   1.542   4.708   0.667 -1.9354  0.5351 -0.6759
 3157SOL    HW220934   1.630   0.106   0.692 -0.9870  1.2974 -0.2412
 3158SOL     OW20935   4.652   0.802   8.346  0.5246 -0.1963  0.3126
 3158SOL    HW120936   4.614   0.715   8.357 -2.3348  0.9732 -0.4175
 3158SOL    HW220937   4.714   0.812   8.418  0.6654  0.9743  0.0246
 3159SOL     OW20938   3.330   3.691   8.101 -0.3488  0.0250  0.2908
 3159SOL    HW120939   3.392   3.682   8.173  3.8193  1.9473 -3.0878
 3159SOL    HW220940   3.257   3.748   8.127  1.1255  1.8863  0.3398
 3160SOL     OW20941   0.684   2.355   4.014 -0.3968 -0.2724  0.2392
 3160SOL    HW120942   0.682   2.303   3.934 -2.3182  0.0433  0.0726
 3160SOL    HW220943   0.623   2.304   4.067 -0.6711 -1.2313 -1.0190
 3161SOL     OW20944   4.203   4.210  12.560 -0.1831  0.7596  0.0248
 3161SOL    HW120945   4.190   4.271  12.487  1.0805  0.3035 -0.5839
 3161SOL    HW220946   4.295   4.225  12.586  0.8079 -1.1447 -2.4024
 3162SOL     OW20947   1.113   4.240   0.719 -0.3115 -0.0416 -0.5247
 3162SOL    HW120948   1.074   4.299   0.784 -2.0809  1.6413 -3.1298
 3162SOL    HW220949   1.105   4.295   0.642  2.9195  1.1687  0.0254
 3163SOL     OW20950   0.542   3.524  12.391  0.2810  0.1885 -0.0402
 3163SOL    HW120951   0.541   3.435  12.357 -1.7068  0.0617  0.3142
 3163SOL    HW220952   0.511   3.574  12.316 -0.8721  0.8882  0.8894
 3164SOL     OW20953   4.118   4.531  13.952 -0.2628  0.1788  0.1368
 3164SOL    HW120954   4.208   4.511  13.927 -0.7663 -1.8396 -0.0442
 3164SOL    HW220955   4.084   4.543  13.863  1.0073 -1.0839 -0.5137
 3165SOL     OW20956   1.108   2.969   3.886  0.5697  0.1767  0.0082
 3165SOL    HW120957   1.142   2.903   3.826  1.4585 -0.4475  1.1956
 3165SOL    HW220958   1.022   2.980   3.845  0.0794  1.4581  1.3962
 3166SOL     OW20959   3.695   1.994   1.472  0.0057  0.5745 -0.6288
 3166SOL    HW120960   3.739   2.078   1.487  3.0294 -1.0880 -0.0558
 3166SOL    HW220961   3.604   2.023   1.472 -0.3249 -0.4383  2.8428
 3167SOL     OW20962   0.163   4.586  12.230 -0.1526 -0.5584  0.6117
 3167SOL    HW120963   0.223   4.513  12.245  0.8286  0.2526  0.6569
 3167SOL    HW220964   0.235   4.647  12.212  0.1156 -0.2157  2.9530
 3168SOL     OW20965   2.533   0.640   6.947 -0.3945 -0.0201 -0.1010
 3168SOL    HW120966   2.507   0.560   6.992 -1.7562 -0.5085 -1.7507
 3168SOL    HW220967   2.549   0.709   7.012  1.0636 -0.5538  0.1053
 3169SOL     OW20968   0.371   4.135   6.182 -0.4463 -0.2050  0.0228
 3169SOL    HW120969   0.282   4.169   6.175 -0.6158 -0.7189 -0.2584
 3169SOL    HW220970   0.410   4.190   6.251 -3.1953  1.4016  0.2978
 3170SOL     OW20971   0.822   4.668  15.610 -0.4149  0.3599  0.3807
 3170SOL    HW120972   0.799   0.027  15.651  3.1589  0.6513  1.7519
 3170SOL    HW220973   0.913   4.662  15.639 -0.2195  0.3386 -0.2474
 3171SOL     OW20974   0.936   2.039   8.101  0.2944  0.4741 -0.1395
 3171SOL    HW120975   0.986   2.001   8.028 -0.1887 -0.9506  0.2918
 3171SOL    HW220976   0.933   2.131   8.073  2.2519  0.4024 -0.5962
 3172SOL     OW20977   0.154   0.905   5.572  0.2124  0.4207  0.7743
 3172SOL    HW120978   0.065   0.894   5.606  0.3436  0.9373  1.2898
 3172SOL    HW220979   0.147   0.909   5.477  0.8172  2.3569  0.8024
 3173SOL     OW20980   0.558   2.207  14.367  0.0659 -0.3050 -0.4615
 3173SOL    HW120981   0.633   2.183  14.422  0.4448  1.8683 -0.0268
 3173SOL    HW220982   0.601   2.225  14.284 -1.4988 -1.4241 -1.5032
 3174SOL     OW20983   3.559   2.922   3.401  0.0377 -0.4492 -0.1968
 3174SOL    HW120984   3.621   2.933   3.473  1.0511 -2.0825 -0.8181
 3174SOL    HW220985   3.601   2.978   3.336 -2.4504 -1.0614 -2.3276
 3175SOL     OW20986   2.984   1.786   6.734 -0.1067 -0.0994  0.4709
 3175SOL    HW120987   2.933   1.771   6.654  0.8794  0.5003 -0.2658
 3175SOL    HW220988   2.929   1.756   6.806 -0.0500 -0.7165  0.2562
 3176SOL     OW20989   2.299   4.143   7.510  0.5242  0.5136 -0.4727
 3176SOL    HW120990   2.300   4.203   7.436 -1.7865  1.9294  0.6460
 3176SOL    HW220991   2.228   4.085   7.481 -0.0132  1.5393 -1.1886
 3177SOL     OW20992   1.326   0.944   6.976  0.0470  0.3931  0.2192
 3177SOL    HW120993   1.232   0.944   6.995 -0.5466  0.0840 -2.7581
 3177SOL    HW220994   1.335   1.031   6.936 -2.1526  0.5597  0.0563
 3178SOL     OW20995   0.319   2.657   3.232  0.5104 -0.6713  0.5647
 3178SOL    HW120996   0.311   2.605   3.312 -0.3765 -0.3428  0.6934
 3178SOL    HW220997   0.410   2.682   3.244 -0.5070  1.7289  3.3726
 3179SOL     OW20998   1.163   4.354   1.312 -0.3474 -0.1148 -0.9256
 3179SOL    HW120999   1.211   4.392   1.386 -1.5775 -1.1821  0.4197
 3179SOL    HW221000   1.159   4.413   1.236 -1.6351 -0.1299 -0.8789
 3180SOL     OW21001   3.234   1.907   7.333 -0.6021 -0.6156 -0.5212
 3180SOL    HW121002   3.189   1.988   7.358  1.3528  0.6410 -1.0260
 3180SOL    HW221003   3.323   1.942   7.319 -0.2684 -0.7952  1.1927
 3181SOL     OW21004   4.403   0.625   8.799 -0.5686  0.1650  0.1230
 3181SOL    HW121005   4.318   0.652   8.763 -0.7661  0.0157  0.4734
 3181SOL    HW221006   4.416   0.538   8.760  0.9873 -0.2490  1.5706
 3182SOL     OW21007   1.612   2.513  15.840 -0.0456  0.4553 -0.5655
 3182SOL    HW121008   1.608   2.554  15.753 -0.4118  1.3867 -0.1169
 3182SOL    HW221009   1.544   2.446  15.835 -0.8643  1.2511 -0.2865
 3183SOL     OW21010   3.409   1.976   4.089  0.6047 -0.1560  0.0963
 3183SOL    HW121011   3.444   1.921   4.159 -2.4178 -0.0914  1.6509
 3183SOL    HW221012   3.449   1.945   4.008 -0.3075  1.0747 -0.8468
 3184SOL     OW21013   3.759   4.248   2.121 -0.0530 -0.0019 -0.5474
 3184SOL    HW121014   3.736   4.325   2.069 -1.9262  0.3089  0.7447
 3184SOL    HW221015   3.792   4.187   2.055 -2.3630  1.3370 -2.9327
 3185SOL     OW21016   0.722   2.811  15.718 -0.0020 -0.2221  0.1764
 3185SOL    HW121017   0.814   2.785  15.720 -0.0977 -0.5199  0.6773
 3185SOL    HW221018   0.749   2.896  15.684  1.6840 -0.6024  0.6034
 3186SOL     OW21019   3.014   2.657   9.745  0.1554  0.0199  0.1941
 3186SOL    HW121020   3.001   2.735   9.690 -1.1466 -0.9683 -0.9069
 3186SOL    HW221021   3.102   2.668   9.779  0.6700 -1.8020 -0.5950
 3187SOL     OW21022   0.029   0.669   3.452 -0.4676  0.0540 -0.5590
 3187SOL    HW121023   0.114   0.655   3.411 -1.7013 -1.6240 -2.5591
 3187SOL    HW221024   4.697   0.604   3.411  0.4429  0.1508 -1.9924
 3188SOL     OW21025   2.279   0.011  14.389  0.4479  0.1010 -0.0388
 3188SOL    HW121026   2.250   4.702  14.474  1.4930 -0.2028  0.2027
 3188SOL    HW221027   2.297   0.103  14.406  2.2028 -0.0685 -0.9946
 3189SOL     OW21028   0.667   0.537  13.037 -0.6707 -0.0129  0.0045
 3189SOL    HW121029   0.635   0.518  12.948 -0.8346 -0.6074  0.1921
 3189SOL    HW221030   0.733   0.471  13.056  0.0693  0.1984 -1.8164
 3190SOL     OW21031   4.598   0.295   1.675 -0.3124  0.5809 -0.4394
 3190SOL    HW121032   4.588   0.280   1.581 -3.9336 -0.6131  0.1457
 3190SOL    HW221033   4.527   0.246   1.717 -0.0859 -0.1723 -0.9294
 3191SOL     OW21034   3.871   3.889   5.467  0.3743 -0.5430 -0.0669
 3191SOL    HW121035   3.928   3.917   5.396 -0.8721  1.4645 -0.3019
 3191SOL    HW221036   3.873   3.795   5.454 -1.5207 -0.7939  1.3753
 3192SOL     OW21037   0.322   3.544   8.211 -0.2682 -0.0674  0.3370
 3192SOL    HW121038   0.352   3.595   8.286 -1.6226 -0.5090  1.1697
 3192SOL    HW221039   0.307   3.613   8.146  2.2850  1.1140  1.0143
 3193SOL     OW21040   3.395   1.506   5.934  1.0501 -0.1405  0.2087
 3193SOL    HW121041   3.319   1.528   5.880  0.6361  1.0703  1.2753
 3193SOL    HW221042   3.357   1.503   6.022  0.5802 -0.7858 -0.0142
 3194SOL     OW21043   0.805   1.227   6.361  0.0140 -0.7900  0.1646
 3194SOL    HW121044   0.734   1.164   6.362 -1.7130  1.1566  0.0459
 3194SOL    HW221045   0.851   1.207   6.443  1.2741 -0.6839 -0.5189
 3195SOL     OW21046   0.987   1.688   8.455  0.2181  0.2245 -0.3282
 3195SOL    HW121047   1.060   1.716   8.401 -0.4591  1.3488 -0.6406
 3195SOL    HW221048   0.932   1.766   8.461  0.1091  0.0092  1.5493
 3196SOL     OW21049   1.945   0.106  17.306 -0.3619 -0.0192 -0.2276
 3196SOL    HW121050   1.857   0.086  17.335 -0.0284 -1.3868 -0.1727
 3196SOL    HW221051   1.997   0.054  17.367 -1.7432 -1.7863 -0.5739
 3197SOL     OW21052   2.464   4.490   2.878  0.3182  0.5059  0.0648
 3197SOL    HW121053   2.503   4.557   2.822 -0.6607  0.2887 -0.8691
 3197SOL    HW221054   2.405   4.537   2.938  1.3971  0.8276  0.8837
 3198SOL     OW21055   1.093   2.912   5.020 -0.4954  0.1025 -0.1341
 3198SOL    HW121056   1.004   2.899   5.051  0.1431 -0.8085  1.3582
 3198SOL    HW221057   1.085   2.985   4.959 -0.3495 -0.2024 -0.5214
 3199SOL     OW21058   0.719   1.340  15.721  0.5762 -0.3782 -0.3530
 3199SOL    HW121059   0.793   1.364  15.775  0.6719  2.1935 -1.6121
 3199SOL    HW221060   0.713   1.245  15.731 -1.2579 -0.1269  1.0222
 3200SOL     OW21061   1.655   0.832   4.534  0.1155  0.0532  0.0850
 3200SOL    HW121062   1.643   0.845   4.440 -1.0138 -1.2822  0.0506
 3200SOL    HW221063   1.688   0.742   4.529 -0.6006 -0.2543  0.8746
 3201SOL     OW21064   1.766   4.511  17.485 -0.2028 -0.7241  0.6909
 3201SOL    HW121065   1.732   4.509  17.395  1.3079  1.7247  0.0831
 3201SOL    HW221066   1.723   4.434  17.523 -1.3385 -0.5185 -0.1709
 3202SOL     OW21067   1.517   3.830   1.918 -0.0815 -0.3134 -0.3427
 3202SOL    HW121068   1.448   3.845   1.854 -0.9276  1.8983  1.0685
 3202SOL    HW221069   1.596   3.818   1.865  0.0919  1.3894 -0.4887
 3203SOL     OW21070   3.091   1.021   4.358 -0.4723  0.2159  0.2487
 3203SOL    HW121071   3.127   1.017   4.447 -0.8893  1.0937  0.4580
 3203SOL    HW221072   3.009   0.972   4.368  0.9481 -1.8063  2.0001
 3204SOL     OW21073   3.891   2.573   2.646  0.6271 -0.0051  0.0643
 3204SOL    HW121074   3.954   2.644   2.661  2.3202 -1.8595  1.6480
 3204SOL    HW221075   3.865   2.551   2.736  0.6883 -1.1514 -0.2083
 3205SOL     OW21076   2.630   3.692   3.257 -0.1232 -0.2800 -0.4700
 3205SOL    HW121077   2.656   3.635   3.329 -1.6907 -0.8954 -0.4047
 3205SOL    HW221078   2.639   3.782   3.288 -1.3152 -0.8793  1.5578
 3206SOL     OW21079   4.535   4.446   3.865  0.4521  0.0140  0.4083
 3206SOL    HW121080   4.610   4.445   3.806 -0.0107  0.5549 -0.1787
 3206SOL    HW221081   4.464   4.417   3.808 -1.1453  0.8839  1.9744
 3207SOL     OW21082   1.322   4.069   7.159 -0.3721  0.4682 -0.1570
 3207SOL    HW121083   1.386   4.058   7.089  1.0438 -1.9374  1.5090
 3207SOL    HW221084   1.241   4.030   7.125 -1.1201  2.5532 -0.7493
 3208SOL     OW21085   3.639   0.724   5.916  0.2729 -0.2452 -0.0639
 3208SOL    HW121086   3.606   0.773   5.841 -0.4677 -1.3628 -0.4555
 3208SOL    HW221087   3.561   0.673   5.937  0.2664 -0.7594 -1.3442
 3209SOL     OW21088   3.470   0.773   7.345 -0.4868 -0.5115 -0.0363
 3209SOL    HW121089   3.466   0.834   7.419 -0.1759  1.1243 -1.3809
 3209SOL    HW221090   3.562   0.786   7.319 -0.7971  1.4627 -0.1269
 3210SOL     OW21091   2.025   3.461  10.456  0.3362 -0.4462  0.3241
 3210SOL    HW121092   1.940   3.435  10.490 -0.5221  2.1782  0.1535
 3210SOL    HW221093   2.013   3.555  10.463  0.1416 -0.6867  3.1183
 3211SOL     OW21094   1.777   3.377  10.527 -0.4318  0.3141 -0.2502
 3211SOL    HW121095   1.698   3.355  10.578 -2.4382  2.9768 -2.2193
 3211SOL    HW221096   1.769   3.308  10.461 -0.9075  1.7299 -1.6621
 3212SOL     OW21097   2.228   4.718   3.975  0.3429 -0.3161 -0.2487
 3212SOL    HW121098   2.195   4.631   3.994 -1.7021  0.1806 -1.5724
 3212SOL    HW221099   2.146   0.040   3.992  1.6318  1.6576  0.6848
 3213SOL     OW21100   4.595   0.095   3.864 -0.3439 -0.0294 -0.1565
 3213SOL    HW121101   4.635   0.100   3.777  0.4535 -0.9706  0.1564
 3213SOL    HW221102   4.519   0.149   3.844 -1.8264 -2.4203 -0.9241
 3214SOL     OW21103   1.851   1.436   0.377 -0.5294 -0.1385  0.1638
 3214SOL    HW121104   1.930   1.422   0.325 -1.7708 -2.2298 -1.1542
 3214SOL    HW221105   1.842   1.344   0.403 -0.8404 -0.3676 -0.7892
 3215SOL     OW21106   1.104   0.077   7.810  0.0934 -0.3840  0.3478
 3215SOL    HW121107   1.145   0.047   7.891 -0.9415  1.0085  1.3890
 3215SOL    HW221108   1.028   0.126   7.844  0.4681  0.1489  0.4231
 3216SOL     OW21109   2.718   3.525   3.460  0.3839 -0.1790  0.1833
 3216SOL    HW121110   2.789   3.590   3.467  1.9243 -1.7747 -0.6363
 3216SOL    HW221111   2.691   3.494   3.547  1.1115 -1.1139  0.0777
 3217SOL     OW21112   3.747   4.650   9.341  0.4162  0.6581 -0.1619
 3217SOL    HW121113   3.692   4.720   9.377  1.5726  1.9475 -0.9045
 3217SOL    HW221114   3.685   4.604   9.284  2.1467 -1.8607  0.0195
 3218SOL     OW21115   0.249   2.247   1.640  0.3221  0.0628  0.2417
 3218SOL    HW121116   0.320   2.264   1.578 -0.8861 -0.3051 -1.2353
 3218SOL    HW221117   0.301   2.214   1.714 -0.3736 -2.3462 -0.3298
 3219SOL     OW21118   2.645   4.512   1.806 -0.4736 -0.0135  0.7000
 3219SOL    HW121119   2.621   4.462   1.884  0.1916 -0.0993  0.8443
 3219SOL    HW221120   2.580   4.580   1.824 -0.1953 -0.0185  1.7203
 3220SOL     OW21121   1.412   1.472   7.538 -0.1463 -0.3832  0.1505
 3220SOL    HW121122   1.472   1.416   7.490 -1.3740 -1.4773 -0.1176
 3220SOL    HW221123   1.418   1.433   7.625 -0.9421  1.5188  1.0539
 3221SOL     OW21124   2.696   1.599   8.794  0.1545  0.0254  0.0285
 3221SOL    HW121125   2.787   1.627   8.781  0.5149 -1.1719 -0.0101
 3221SOL    HW221126   2.702   1.508   8.821 -1.9953 -0.0531  0.2322
 3222SOL     OW21127   2.127   3.551   0.955  1.0254 -0.0029  0.0219
 3222SOL    HW121128   2.112   3.459   0.932 -1.1751  0.5015 -0.6134
 3222SOL    HW221129   2.046   3.567   1.003  1.3567 -0.2972  0.6745
 3223SOL     OW21130   2.826   3.769   8.813 -0.7573 -0.1134  0.0962
 3223SOL    HW121131   2.917   3.739   8.815 -0.7738 -0.2186 -0.8226
 3223SOL    HW221132   2.807   3.778   8.907  1.7882 -0.2295  0.6258
 3224SOL     OW21133   0.265   1.162   1.858 -0.0771  0.0343 -0.1783
 3224SOL    HW121134   0.283   1.188   1.949  1.5218 -1.6360 -0.0160
 3224SOL    HW221135   0.187   1.213   1.837 -0.8382 -0.2932  1.8594
 3225SOL     OW21136   2.287   1.824   8.605 -0.1869 -0.1352 -0.1041
 3225SOL    HW121137   2.362   1.837   8.663 -0.9923 -0.1555  0.9636
 3225SOL    HW221138   2.288   1.733   8.576  1.9146  0.8182 -2.9733
 3226SOL     OW21139   1.257   0.512   2.709  0.0802  0.2333  0.2542
 3226SOL    HW121140   1.231   0.481   2.622  0.1446  1.1603 -0.0918
 3226SOL    HW221141   1.183   0.487   2.764 -1.1041  1.0918 -0.9560
 3227SOL     OW21142   3.454   3.553   4.945  0.1701 -0.0791 -0.0423
 3227SOL    HW121143   3.513   3.590   4.879  1.3345  0.2884  1.2000
 3227SOL    HW221144   3.513   3.521   5.013  1.5432 -0.6899 -1.5239
 3228SOL     OW21145   1.529   1.769   1.671 -0.4873 -0.3992 -0.1781
 3228SOL    HW121146   1.448   1.798   1.630  1.4818  1.8529 -2.3857
 3228SOL    HW221147   1.590   1.841   1.659 -1.1516  0.0877 -0.6400
 3229SOL     OW21148   2.844   4.022   9.201  0.0760 -0.2220  0.4842
 3229SOL    HW121149   2.875   3.932   9.206 -1.1486 -0.7415 -1.3979
 3229SOL    HW221150   2.889   4.061   9.276  0.5490 -0.5008  0.3496
 3230SOL     OW21151   0.506   3.917  16.951  0.0568  0.0347 -0.1099
 3230SOL    HW121152   0.556   3.836  16.945  0.2268  0.1575 -0.3471
 3230SOL    HW221153   0.495   3.915  17.047  1.0274 -1.0531 -0.0217
 3231SOL     OW21154   2.338   3.299   8.861  0.2389  0.0877 -0.4187
 3231SOL    HW121155   2.255   3.336   8.829 -0.7841 -1.4314  0.4882
 3231SOL    HW221156   2.339   3.230   8.794  0.5411 -1.1951  0.9234
 3232SOL     OW21157   4.679   3.561   3.189 -0.4957 -0.7216 -0.4377
 3232SOL    HW121158   4.695   3.654   3.205  0.0341 -0.8874 -0.0069
 3232SOL    HW221159   4.645   3.567   3.100  0.9067 -1.8483 -1.0629
 3233SOL     OW21160   3.476   0.220  11.555 -0.3200 -0.3445  0.6001
 3233SOL    HW121161   3.418   0.233  11.630  0.3602  1.3807  0.8238
 3233SOL    HW221162   3.426   0.158  11.502 -1.0829 -0.2028  1.1621
 3234SOL     OW21163   2.804   2.885  14.320  0.3674 -0.4220  1.0587
 3234SOL    HW121164   2.832   2.961  14.269  0.8655 -1.1956  0.1784
 3234SOL    HW221165   2.709   2.879  14.308  0.6419 -0.9491 -0.8711
 3235SOL     OW21166   1.737   0.098  11.447 -0.3191 -0.4012  0.3512
 3235SOL    HW121167   1.792   0.108  11.524  1.6622 -3.1883 -0.6938
 3235SOL    HW221168   1.653   0.076  11.486  0.1356 -1.1050  0.9387
 3236SOL     OW21169   2.508   3.171  10.055  0.7798  0.1211 -0.4285
 3236SOL    HW121170   2.576   3.104  10.049  1.1441  0.3956  0.6225
 3236SOL    HW221171   2.494   3.200   9.964 -0.9322  1.5172  0.2721
 3237SOL     OW21172   3.583   1.429   3.727  0.0654 -0.4968 -0.0800
 3237SOL    HW121173   3.648   1.476   3.779 -1.3162 -1.6549  2.7000
 3237SOL    HW221174   3.568   1.489   3.653 -0.3977 -0.3716  0.1171
 3238SOL     OW21175   1.017   4.131   8.288 -0.3093 -0.0662 -0.2192
 3238SOL    HW121176   1.061   4.076   8.353 -1.4799 -2.0274 -1.0902
 3238SOL    HW221177   1.089   4.193   8.282 -0.9230  0.7259  0.5167
 3239SOL     OW21178   4.293   1.896   5.950  0.4708  0.2852 -0.0598
 3239SOL    HW121179   4.242   1.822   5.917 -1.7423  1.4427  0.8467
 3239SOL    HW221180   4.285   1.879   6.044  0.2294 -2.4836 -0.5744
 3240SOL     OW21181   4.683   0.355   8.442  0.1731  0.4497  0.0620
 3240SOL    HW121182   4.612   0.320   8.388  0.5446 -0.8416  0.4144
 3240SOL    HW221183   0.038   0.333   8.394  1.6061 -0.5307  2.8822
 3241SOL     OW21184   0.178   4.060   5.805 -0.6347  0.5926  0.0891
 3241SOL    HW121185   0.187   4.141   5.755 -0.5293  0.2842 -0.4024
 3241SOL    HW221186   0.244   4.007   5.760 -0.9510  2.0354 -2.1134
 3242SOL     OW21187   0.673   3.022   6.459  0.1053  0.1236  0.0707
 3242SOL    HW121188   0.733   3.071   6.514 -0.2136  0.9085 -0.2898
 3242SOL    HW221189   0.591   3.068   6.477 -0.6392 -0.8129 -0.9036
 3243SOL     OW21190   0.096   1.342   6.716 -0.3564  0.4344 -0.1324
 3243SOL    HW121191   0.138   1.381   6.793 -1.9463 -1.2606  1.6305
 3243SOL    HW221192   0.169   1.307   6.666  0.6432  0.5534  1.2615
 3244SOL     OW21193   0.610   4.196   2.433  0.5147 -0.0274  0.1948
 3244SOL    HW121194   0.669   4.264   2.466  0.6473  0.0868 -0.2734
 3244SOL    HW221195   0.632   4.189   2.340 -0.9741  2.0451 -0.3079
 3245SOL     OW21196   4.128   3.850   5.280  0.6019 -0.5067  0.0870
 3245SOL    HW121197   4.195   3.914   5.301  0.2048 -0.7708  2.1666
 3245SOL    HW221198   4.112   3.879   5.190  3.2057  1.1801  0.1755
 3246SOL     OW21199   4.024   1.506   7.451 -0.3868  0.5195 -0.1547
 3246SOL    HW121200   4.044   1.423   7.493  0.1596  0.4634 -0.5266
 3246SOL    HW221201   3.948   1.530   7.504  0.9402  0.5991  1.7027
 3247SOL     OW21202   0.830   3.147   1.477 -0.6987 -0.5181  0.1416
 3247SOL    HW121203   0.828   3.148   1.381 -1.4646  0.2102  0.1544
 3247SOL    HW221204   0.921   3.121   1.489 -0.6256 -0.6182 -0.5851
 3248SOL     OW21205   2.179   3.179  13.002 -0.0630 -0.3883 -0.1410
 3248SOL    HW121206   2.173   3.236  12.925  0.3541 -0.0878  0.0490
 3248SOL    HW221207   2.176   3.092  12.962 -0.8656 -0.3875 -0.0847
 3249SOL     OW21208   0.497   0.651  10.641 -0.4321 -0.1698  0.3338
 3249SOL    HW121209   0.541   0.696  10.569 -0.7187 -0.5136 -0.0529
 3249SOL    HW221210   0.407   0.652  10.609 -1.3534 -0.9060  2.8548
 3250SOL     OW21211   0.107   1.919   7.449 -0.3476 -0.1908  0.4230
 3250SOL    HW121212   0.039   1.905   7.514  0.8221 -0.6093  1.5423
 3250SOL    HW221213   0.164   1.975   7.500  0.8243 -0.1127 -0.9641
 3251SOL     OW21214   1.981   0.599   4.829  0.0971  0.2472 -0.7427
 3251SOL    HW121215   2.070   0.577   4.857  0.3742 -0.1602 -1.9556
 3251SOL    HW221216   1.940   0.651   4.899 -0.9842 -1.8840  0.1998
 3252SOL     OW21217   3.843   1.979   8.906  0.0331 -0.1646 -0.5470
 3252SOL    HW121218   3.890   2.001   8.825  1.9807  1.7510  1.1048
 3252SOL    HW221219   3.918   2.002   8.961 -2.0306 -0.1813  2.2477
 3253SOL     OW21220   4.105   4.589   1.824 -0.8007  0.1949 -0.2282
 3253SOL    HW121221   4.050   4.557   1.895 -0.1767  0.1372  0.2244
 3253SOL    HW221222   4.117   4.506   1.776 -0.5658  1.2419 -1.9716
 3254SOL     OW21223   2.579   2.039   8.617  0.4123  0.2277  0.3649
 3254SOL    HW121224   2.540   2.117   8.578 -0.8729 -0.4032  0.3900
 3254SOL    HW221225   2.530   1.962   8.589 -0.7180  1.2974 -0.6214
 3255SOL     OW21226   0.143   0.845  12.040  0.3322  0.0287  0.5137
 3255SOL    HW121227   0.170   0.826  12.129  0.2853 -1.8422  0.1192
 3255SOL    HW221228   0.218   0.860  11.983  0.8759  1.8177  1.6904
 3256SOL     OW21229   1.547   0.253  13.248  0.3205  0.1180  0.3908
 3256SOL    HW121230   1.612   0.191  13.282  0.5872  0.6392  0.8361
 3256SOL    HW221231   1.603   0.328  13.228 -0.4465  0.7269  0.5633
 3257SOL     OW21232   0.670   0.000  14.880 -0.0751 -0.7685 -0.4262
 3257SOL    HW121233   0.605   0.062  14.913  1.2201  0.8684 -0.9144
 3257SOL    HW221234   0.746   0.057  14.873 -1.0011  0.2923 -1.7572
 3258SOL     OW21235   2.355   0.106   2.442  0.3356  0.1514  0.3793
 3258SOL    HW121236   2.428   0.124   2.383  0.3690 -0.7528  0.1547
 3258SOL    HW221237   2.401   0.114   2.526  0.6887 -3.3140  0.4945
 3259SOL     OW21238   1.906   3.121   1.266 -0.6017 -0.1248  0.5609
 3259SOL    HW121239   1.839   3.113   1.198 -0.3923  0.9282  0.2159
 3259SOL    HW221240   1.949   3.207   1.260  1.0587 -0.9706  0.1717
 3260SOL     OW21241   0.369   1.218   5.176  0.5590 -0.1096 -0.0602
 3260SOL    HW121242   0.386   1.129   5.209  1.0826  0.2383  0.6139
 3260SOL    HW221243   0.442   1.230   5.116  0.5571  2.5598  0.4764
 3261SOL     OW21244   1.252   0.679  10.107  0.2007 -0.3066  0.7278
 3261SOL    HW121245   1.245   0.691  10.202  0.2123 -1.7567  0.9120
 3261SOL    HW221246   1.167   0.715  10.083 -0.4036 -3.5422 -1.9088
 3262SOL     OW21247   4.356   0.764   2.479  0.5207 -0.3693 -0.1735
 3262SOL    HW121248   4.409   0.768   2.399  0.8544 -4.2940 -0.1107
 3262SOL    HW221249   4.419   0.778   2.549 -2.3994  3.4697  1.6987
 3263SOL     OW21250   4.069   2.884   9.321  0.2492  0.3889  0.0157
 3263SOL    HW121251   4.012   2.900   9.246 -0.2700  1.3591  0.6262
 3263SOL    HW221252   4.157   2.861   9.291 -0.2298 -0.4020 -0.7697
 3264SOL     OW21253   1.888   4.463   0.612  0.6052 -0.1297 -0.0121
 3264SOL    HW121254   1.906   4.375   0.579  2.5133  1.0390 -2.1277
 3264SOL    HW221255   1.832   4.438   0.686 -0.1503 -0.6051 -0.7531
 3265SOL     OW21256   3.649   2.857   7.509 -0.4560 -0.1391 -0.0689
 3265SOL    HW121257   3.689   2.844   7.595 -0.1582 -2.2208 -0.5168
 3265SOL    HW221258   3.668   2.949   7.497 -0.6546 -0.3101 -1.6408
 3266SOL     OW21259   4.247   1.143  16.767  0.6822 -0.1025 -0.0629
 3266SOL    HW121260   4.213   1.060  16.801 -1.8306  0.2570 -1.6383
 3266SOL    HW221261   4.324   1.111  16.721  0.3978  1.2749 -1.4996
 3267SOL     OW21262   2.412   4.594   7.151  0.2892 -0.1741  0.3751
 3267SOL    HW121263   2.475   4.568   7.083 -0.7815 -0.4233 -0.5190
 3267SOL    HW221264   2.395   4.685   7.128 -1.0069 -0.5703 -0.2273
 3268SOL     OW21265   1.890   4.653  11.258 -0.1137 -0.2596 -0.3874
 3268SOL    HW121266   1.832   4.647  11.182  1.1424  1.9695 -1.5305
 3268SOL    HW221267   1.833   4.691  11.325  0.6896 -1.1187  0.7778
 3269SOL     OW21268   3.533   3.422   4.548  0.1989  0.5535  0.8844
 3269SOL    HW121269   3.543   3.517   4.540 -0.2190  0.6280  1.2413
 3269SOL    HW221270   3.593   3.393   4.617  0.1149 -0.9878  0.3071
 3270SOL     OW21271   1.346   3.192   8.443  0.4902  0.4947  0.1667
 3270SOL    HW121272   1.342   3.197   8.538  0.7026  1.0684  0.1420
 3270SOL    HW221273   1.261   3.157   8.416  0.8339  0.3831 -0.7673
 3271SOL     OW21274   3.833   2.848   1.721  0.2211 -0.4251  0.3950
 3271SOL    HW121275   3.913   2.894   1.697 -0.3238  0.1795 -0.2762
 3271SOL    HW221276   3.776   2.899   1.664  1.9718  1.4875  0.3661
 3272SOL     OW21277   4.261   3.627  12.718  0.3172 -0.3666 -0.1848
 3272SOL    HW121278   4.255   3.696  12.652 -2.3313  0.0636  0.4971
 3272SOL    HW221279   4.179   3.637  12.766  0.6936  0.1873  0.3510
 3273SOL     OW21280   3.970   3.894   9.136  0.2224  0.1101 -0.9202
 3273SOL    HW121281   3.936   3.943   9.061 -1.7314 -1.2337 -0.9095
 3273SOL    HW221282   3.901   3.829   9.149  0.1509  0.7869  2.0401
 3274SOL     OW21283   3.652   0.572   3.026  0.4258 -0.3262 -0.0412
 3274SOL    HW121284   3.663   0.562   2.932 -0.2155 -0.3145 -0.1108
 3274SOL    HW221285   3.690   0.657   3.050  1.8058 -1.6644  2.4696
 3275SOL     OW21286   0.449   0.911   9.123 -0.1208 -0.7927 -0.0515
 3275SOL    HW121287   0.527   0.881   9.170  0.2107  0.1745  0.0223
 3275SOL    HW221288   0.487   0.949   9.044 -0.2136 -1.7856 -0.5758
 3276SOL     OW21289   2.864   3.444   4.530 -0.0890  0.1253 -0.5618
 3276SOL    HW121290   2.910   3.393   4.464  0.5030 -1.3925  1.0140
 3276SOL    HW221291   2.854   3.377   4.598 -0.6960  1.5300  0.7151
 3277SOL     OW21292   3.728   0.999   9.262  0.2734 -0.2410 -0.7990
 3277SOL    HW121293   3.647   1.050   9.268 -0.6509 -1.8555  0.3452
 3277SOL    HW221294   3.787   1.042   9.324 -0.1914 -2.1820  0.9790
 3278SOL     OW21295   0.836   1.889   3.586 -0.1820  0.2229 -0.7076
 3278SOL    HW121296   0.867   1.845   3.507  1.5352 -0.4460  0.3280
 3278SOL    HW221297   0.865   1.979   3.569  1.4076 -0.0696  0.4599
 3279SOL     OW21298   3.196   2.886   0.603  0.1057  0.1383 -0.1175
 3279SOL    HW121299   3.192   2.864   0.696 -2.3613 -1.7961 -0.6920
 3279SOL    HW221300   3.115   2.844   0.576 -0.9107  1.8470  0.2760
 3280SOL     OW21301   2.644   3.587   4.979 -0.1043 -0.4574  0.5239
 3280SOL    HW121302   2.727   3.551   4.949  0.1349  0.6218 -0.1378
 3280SOL    HW221303   2.609   3.614   4.894  1.8411  1.4345  0.3302
 3281SOL     OW21304   0.545   4.480   2.743  0.5794  0.1734 -0.8275
 3281SOL    HW121305   0.450   4.467   2.742  0.6873 -0.7098  0.5848
 3281SOL    HW221306   0.575   4.397   2.781  0.8133  1.2314  1.3179
 3282SOL     OW21307   2.149   2.846   0.944 -0.3909 -0.1640  0.0082
 3282SOL    HW121308   2.070   2.792   0.938  0.0356 -0.7517 -0.2886
 3282SOL    HW221309   2.213   2.788   0.904  0.8232  1.0279  0.2425
 3283SOL     OW21310   2.314   3.437  16.487 -0.4388  0.3807  0.1579
 3283SOL    HW121311   2.365   3.403  16.560  0.0396 -0.3396 -0.5150
 3283SOL    HW221312   2.313   3.359  16.432  1.1402  0.8407 -0.5260
 3284SOL     OW21313   1.637   2.454  15.547  0.0929 -0.2945 -0.4228
 3284SOL    HW121314   1.637   2.517  15.476 -2.7297  1.5676  1.2255
 3284SOL    HW221315   1.551   2.412  15.537 -0.0753  0.1864 -0.9843
 3285SOL     OW21316   3.765   1.373   4.136  0.9721  0.0950 -0.2869
 3285SOL    HW121317   3.761   1.308   4.066  0.9178 -0.9885  0.7288
 3285SOL    HW221318   3.815   1.326   4.203  1.6903 -0.0518 -0.9250
 3286SOL     OW21319   3.901   0.590   7.906  0.6519 -0.1935 -0.1079
 3286SOL    HW121320   3.852   0.518   7.868 -0.0981  0.8675 -1.1368
 3286SOL    HW221321   3.868   0.665   7.856 -0.6542 -1.1142 -0.6116
 3287SOL     OW21322   2.209   4.378  16.421  0.2109  0.6524 -0.0951
 3287SOL    HW121323   2.280   4.360  16.359  0.4217  0.8366  0.0951
 3287SOL    HW221324   2.169   4.293  16.438  1.0214  0.4545  0.8098
 3288SOL     OW21325   2.639   1.139   2.898 -0.4165 -0.2210 -0.4572
 3288SOL    HW121326   2.638   1.113   2.990  1.5206  0.0747 -0.3452
 3288SOL    HW221327   2.550   1.164   2.875 -0.0092  1.6069  0.0025
 3289SOL     OW21328   0.934   2.514   8.504  0.1486  0.4262 -0.2513
 3289SOL    HW121329   0.918   2.577   8.575  1.5853  0.3616  0.1184
 3289SOL    HW221330   0.962   2.442   8.560  3.3628  1.5241 -0.4542
 3290SOL     OW21331   0.317   3.449  13.734  0.3242 -0.0128 -0.1846
 3290SOL    HW121332   0.299   3.361  13.701  1.1458 -0.4606  0.5482
 3290SOL    HW221333   0.342   3.428  13.824  0.3921 -2.3686 -0.7335
 3291SOL     OW21334   1.211   4.093  15.419  0.7599 -0.0870  0.5081
 3291SOL    HW121335   1.187   4.035  15.347  0.4143 -0.3049  0.7984
 3291SOL    HW221336   1.198   4.175  15.372  1.1792 -1.1807 -1.4990
 3292SOL     OW21337   4.424   0.346   9.439 -0.1087  0.5199  0.1007
 3292SOL    HW121338   4.361   0.290   9.485  0.0208  1.2690  1.2000
 3292SOL    HW221339   4.498   0.286   9.431 -0.8459 -0.7173  2.4809
 3293SOL     OW21340   1.440   1.413   4.545 -0.0393  0.2292  0.5331
 3293SOL    HW121341   1.419   1.500   4.511 -1.2180 -0.2846 -0.0437
 3293SOL    HW221342   1.380   1.392   4.616  0.1891 -0.7335  0.4405
 3294SOL     OW21343   1.881   0.943   1.149  0.2314 -0.4325  0.4851
 3294SOL    HW121344   1.847   0.923   1.062 -0.8196 -0.7232  0.9632
 3294SOL    HW221345   1.870   1.038   1.149  2.0642 -0.2112 -0.5914
 3295SOL     OW21346   0.390   1.851   9.355  0.1445 -0.2631  0.4064
 3295SOL    HW121347   0.298   1.828   9.339  0.4993 -1.1098 -0.4128
 3295SOL    HW221348   0.406   1.828   9.446 -1.0093 -2.1463  0.1412
 3296SOL     OW21349   0.325   4.285   3.768  0.3431 -0.1688  0.1497
 3296SOL    HW121350   0.327   4.198   3.808 -0.5290  0.7759  2.2696
 3296SOL    HW221351   0.234   4.308   3.786  0.0224  0.9786 -3.0276
 3297SOL     OW21352   3.582   4.234   8.354 -0.0543 -0.1847 -0.2492
 3297SOL    HW121353   3.515   4.168   8.334 -0.3354  0.1277 -0.3445
 3297SOL    HW221354   3.647   4.199   8.293  0.9812  0.7493  0.3277
 3298SOL     OW21355   4.243   2.954   5.637  0.3074  0.2284  0.4479
 3298SOL    HW121356   4.194   2.878   5.668  0.0851  0.3047  0.2860
 3298SOL    HW221357   4.187   3.030   5.654  0.4875  0.2692  0.8590
 3299SOL     OW21358   0.954   4.482   7.060  0.2618 -0.3727 -0.4793
 3299SOL    HW121359   0.892   4.529   7.115 -1.1996 -1.4683 -1.1766
 3299SOL    HW221360   1.007   4.553   7.024  0.8160  0.1260  1.3384
 3300SOL     OW21361   0.534   3.292   1.351  0.0814  0.1630 -0.4500
 3300SOL    HW121362   0.540   3.203   1.315 -0.7486 -0.6932  1.5104
 3300SOL    HW221363   0.442   3.306   1.331  0.0550  0.6438  0.0023
 3301SOL     OW21364   3.064   1.542   0.243  0.3334 -0.3079 -0.0522
 3301SOL    HW121365   3.043   1.567   0.333  1.7262  1.5805 -0.2524
 3301SOL    HW221366   2.972   1.552   0.216  0.7913 -0.6331 -1.7225
 3302SOL     OW21367   3.927   3.499   2.325 -0.1900  0.1488  0.4885
 3302SOL    HW121368   3.839   3.467   2.307  0.3627 -1.2979  0.3319
 3302SOL    HW221369   3.916   3.511   2.419  3.2051  2.1725  0.6298
 3303SOL     OW21370   0.886   0.275   6.760  0.0258  0.6364  0.2953
 3303SOL    HW121371   0.938   0.355   6.760  0.2815  0.4857  3.8428
 3303SOL    HW221372   0.925   0.239   6.840  0.6753 -1.0087 -0.7561
 3304SOL     OW21373   3.445   3.731   3.854  0.0554 -0.3732 -0.8428
 3304SOL    HW121374   3.526   3.685   3.832  0.3587 -0.1553 -0.1770
 3304SOL    HW221375   3.388   3.676   3.799 -2.3737  2.1259 -0.7963
 3305SOL     OW21376   3.177   1.002   3.406  0.5054 -0.9281 -0.0246
 3305SOL    HW121377   3.151   0.920   3.364 -1.8906 -0.3559  0.3121
 3305SOL    HW221378   3.142   1.066   3.343 -0.2324 -1.6710 -0.3682
 3306SOL     OW21379   4.489   0.675   3.122  0.3835 -0.3259 -0.6015
 3306SOL    HW121380   4.397   0.666   3.097 -0.0742  1.5155  0.3880
 3306SOL    HW221381   4.506   0.752   3.069  2.0810  0.2660  0.7982
 3307SOL     OW21382   1.843   3.712   8.398 -0.6072 -0.3828  0.0229
 3307SOL    HW121383   1.937   3.696   8.413 -0.4262  0.2754 -0.4242
 3307SOL    HW221384   1.799   3.647   8.452 -0.1980 -1.6825 -1.1868
 3308SOL     OW21385   2.585   0.324   8.704  0.2781 -0.0605 -0.1084
 3308SOL    HW121386   2.584   0.378   8.784  0.2895 -0.5840  0.2445
 3308SOL    HW221387   2.565   0.399   8.647 -0.7763 -0.3899 -0.1737
 3309SOL     OW21388   0.619   1.822   2.991  0.3933 -0.0829 -0.4434
 3309SOL    HW121389   0.714   1.811   2.997  0.5450  1.4670  0.1534
 3309SOL    HW221390   0.611   1.884   3.064 -0.7984  1.0539 -1.5192
 3310SOL     OW21391   1.135   2.492   8.043 -0.2128  0.3811  0.1738
 3310SOL    HW121392   1.063   2.504   7.981 -0.3347 -0.4239  0.1615
 3310SOL    HW221393   1.174   2.406   8.025 -0.4527  0.0828  1.1161
 3311SOL     OW21394   3.513   0.804   2.895  0.4046  1.1286  0.0167
 3311SOL    HW121395   3.538   0.734   2.834 -1.1932 -1.8009  2.7556
 3311SOL    HW221396   3.418   0.807   2.895  0.5001  3.6924  1.4570
 3312SOL     OW21397   2.713   2.625   9.227  0.8213 -0.3722  0.1095
 3312SOL    HW121398   2.648   2.688   9.257  2.2799  0.9986  0.3941
 3312SOL    HW221399   2.680   2.538   9.251  1.3153 -0.5757  0.0690
 3313SOL     OW21400   2.450   3.540  12.253  0.0471  0.3836 -0.5609
 3313SOL    HW121401   2.506   3.548  12.330  1.0241 -2.9656 -0.9065
 3313SOL    HW221402   2.466   3.624  12.210 -0.8888  0.2857 -1.1080
 3314SOL     OW21403   2.151   1.979  13.831  0.7089  0.4545  0.2745
 3314SOL    HW121404   2.120   1.962  13.920  2.3629  0.5568  0.8705
 3314SOL    HW221405   2.220   2.044  13.843  3.0999 -2.1536  0.7124
 3315SOL     OW21406   1.645   3.762   7.232 -0.4475 -0.2556  0.4616
 3315SOL    HW121407   1.702   3.838   7.216 -0.5789 -0.6038 -1.5349
 3315SOL    HW221408   1.708   3.698   7.265  1.0611  1.4358  0.8456
 3316SOL     OW21409   3.136   1.163  12.192  0.2831 -0.2543 -0.4040
 3316SOL    HW121410   3.173   1.248  12.214  1.0740 -0.7539  0.2268
 3316SOL    HW221411   3.215   1.110  12.179 -0.3924 -0.7870 -2.3159
 3317SOL     OW21412   0.394   4.466  11.907 -0.0607 -0.1364  0.5845
 3317SOL    HW121413   0.465   4.530  11.899 -0.2618  0.0786  0.4961
 3317SOL    HW221414   0.429   4.381  11.884 -1.0398 -0.1840 -0.6966
 3318SOL     OW21415   3.017   3.191   7.807  0.2749 -0.0977  0.9379
 3318SOL    HW121416   3.058   3.277   7.817 -3.6738  1.9591 -0.8009
 3318SOL    HW221417   3.004   3.167   7.898  0.4985  0.2697  1.0695
 3319SOL     OW21418   4.703   0.987   7.892 -0.4441 -0.3286  0.2670
 3319SOL    HW121419   4.647   0.935   7.948 -0.3277 -0.6619  0.0754
 3319SOL    HW221420   0.008   1.039   7.967  2.0900 -0.4088 -0.6630
 3320SOL     OW21421   3.422   3.971   1.197  0.0528  0.4409  0.8294
 3320SOL    HW121422   3.411   3.888   1.150  1.6024  1.0868 -0.6973
 3320SOL    HW221423   3.500   3.950   1.248  0.6994 -1.8431 -1.0680
 3321SOL     OW21424   4.400   0.784   2.115 -0.0020  0.4344  0.3999
 3321SOL    HW121425   4.331   0.776   2.050 -0.8076  0.6071  1.2223
 3321SOL    HW221426   4.466   0.719   2.092  0.3559  0.9190  0.0471
 3322SOL     OW21427   2.736   1.592   3.951 -0.5258 -0.6457  0.3486
 3322SOL    HW121428   2.738   1.508   3.905  1.4823 -0.5339  0.2278
 3322SOL    HW221429   2.802   1.570   4.017  1.7239 -0.5370 -1.8725
 3323SOL     OW21430   1.717   0.800   7.391  0.0662 -0.0604  0.2495
 3323SOL    HW121431   1.647   0.816   7.454  0.8360  1.8160  0.6423
 3323SOL    HW221432   1.685   0.846   7.313  1.6444  2.6043  1.1464
 3324SOL     OW21433   0.883   0.500   8.470  0.5413  0.3796  0.4034
 3324SOL    HW121434   0.919   0.577   8.514 -0.0742 -0.0454  1.6746
 3324SOL    HW221435   0.813   0.489   8.534  1.0775 -0.3632  0.8748
 3325SOL     OW21436   3.133   4.599   4.533  0.5003  0.6126  0.4555
 3325SOL    HW121437   3.197   4.667   4.512  0.9494  0.2286  0.5885
 3325SOL    HW221438   3.061   4.625   4.475  0.2454  2.0624  1.4071
 3326SOL     OW21439   1.660   1.742   9.207  0.2537  0.2219  0.3488
 3326SOL    HW121440   1.617   1.659   9.228  2.0681 -0.5564  0.9813
 3326SOL    HW221441   1.647   1.740   9.112  0.0363 -1.7778  0.4194
 3327SOL     OW21442   1.251   2.750  11.562  0.2355 -0.9529 -0.5467
 3327SOL    HW121443   1.334   2.787  11.593  0.3215 -0.5579 -1.2452
 3327SOL    HW221444   1.194   2.769  11.636 -1.9088  0.9991 -2.6949
 3328SOL     OW21445   0.066   0.673   4.906 -0.3576 -0.1930  0.6426
 3328SOL    HW121446   0.063   0.764   4.932  0.7723 -0.6938  2.4428
 3328SOL    HW221447   0.153   0.654   4.871 -0.9666 -2.6609  0.4290
 3329SOL     OW21448   4.691   4.221   7.560  0.5275  0.5028 -0.2217
 3329SOL    HW121449   4.688   4.316   7.547  1.4933  0.6571  0.7060
 3329SOL    HW221450   0.032   4.219   7.630  0.1918  1.1329  0.1110
 3330SOL     OW21451   4.329   1.041   7.980 -0.1629  0.0779  0.0303
 3330SOL    HW121452   4.273   1.119   7.980 -0.3380 -0.0467 -0.7755
 3330SOL    HW221453   4.398   1.083   8.032  1.1694 -3.3953  1.0379
 3331SOL     OW21454   3.475   2.048   6.326  0.2415 -0.5976  0.5011
 3331SOL    HW121455   3.556   2.084   6.363  1.5575  0.4718 -3.5209
 3331SOL    HW221456   3.423   2.033   6.406 -1.0647  1.1621 -0.0126
 3332SOL     OW21457   2.287   0.144   9.953  0.0948 -0.0312  0.2018
 3332SOL    HW121458   2.258   0.200  10.024 -1.8296  2.7972 -2.8339
 3332SOL    HW221459   2.236   0.172   9.877  1.1914 -0.1207 -0.5782
 3333SOL     OW21460   1.895   1.487   2.814 -0.6255 -0.3279 -0.1970
 3333SOL    HW121461   1.897   1.440   2.731  1.2846 -1.2208  0.3328
 3333SOL    HW221462   1.870   1.573   2.782  0.3329  0.0683  0.1251
 3334SOL     OW21463   1.295   4.352   2.570  0.3786  0.1718  0.6107
 3334SOL    HW121464   1.312   4.446   2.570  1.3533  0.0029  2.4866
 3334SOL    HW221465   1.219   4.338   2.513  0.3993  0.1174  0.5962
 3335SOL     OW21466   2.566   1.341   3.560 -0.0876 -0.5546 -0.1149
 3335SOL    HW121467   2.507   1.333   3.486 -0.3500 -0.2976  0.0654
 3335SOL    HW221468   2.613   1.419   3.530  1.2786 -0.3405  2.5097
 3336SOL     OW21469   0.031   0.625   1.802  0.1256  0.5432  0.3159
 3336SOL    HW121470   0.010   0.656   1.714  0.2141  0.0081  0.1057
 3336SOL    HW221471   4.666   0.615   1.834  0.0640 -1.4050 -0.4720
 3337SOL     OW21472   1.009   4.112   1.888 -0.0994  0.1826  0.1271
 3337SOL    HW121473   0.985   4.083   1.800 -1.2508  0.7415  0.2594
 3337SOL    HW221474   1.075   4.044   1.903  1.9953  3.1216  4.2825
 3338SOL     OW21475   0.998   1.384   3.719 -0.0856 -0.5390 -0.2303
 3338SOL    HW121476   0.906   1.364   3.704 -0.3503 -0.3717  1.1845
 3338SOL    HW221477   1.001   1.480   3.713 -0.8617 -0.4243  1.1984
 3339SOL     OW21478   1.402   2.883   6.321  0.1212 -0.3439  0.3205
 3339SOL    HW121479   1.436   2.965   6.358  0.0492  0.2558 -0.9109
 3339SOL    HW221480   1.370   2.919   6.238  1.8078 -1.3916 -0.7847
 3340SOL     OW21481   2.828   2.483   2.299  0.6154 -0.5806  0.1553
 3340SOL    HW121482   2.900   2.437   2.255 -0.4560 -1.8882 -0.2205
 3340SOL    HW221483   2.842   2.443   2.384  2.2028 -2.3278 -0.9301
 3341SOL     OW21484   0.029   0.576   8.922 -0.3885 -0.1592  0.0938
 3341SOL    HW121485   4.674   0.621   8.951  0.4341 -0.3039  2.5588
 3341SOL    HW221486   4.719   0.490   8.944 -0.4379 -0.4442 -1.1225
 3342SOL     OW21487   3.150   0.962   5.598  0.7210 -0.0493 -0.4118
 3342SOL    HW121488   3.188   1.027   5.540  0.2887  0.0870 -0.5426
 3342SOL    HW221489   3.178   0.888   5.544  0.1069  0.3589 -1.2911
 3343SOL     OW21490   3.466   2.072  14.741  0.5969 -0.6531  0.7637
 3343SOL    HW121491   3.452   1.978  14.730 -1.7778 -0.4901  2.2332
 3343SOL    HW221492   3.560   2.067  14.754  0.7246  2.6806  1.0802
 3344SOL     OW21493   3.925   2.316   4.622 -0.0595 -0.6658 -0.1143
 3344SOL    HW121494   3.938   2.339   4.531  1.8115  1.1708  0.6185
 3344SOL    HW221495   3.942   2.397   4.671 -0.6618 -0.5482 -0.0952
 3345SOL     OW21496   0.972   4.106   2.923 -0.0920  0.2795 -0.7151
 3345SOL    HW121497   1.021   4.028   2.898 -0.8968  0.0299 -1.5439
 3345SOL    HW221498   1.018   4.168   2.867 -0.1096  0.9300 -0.0017
 3346SOL     OW21499   2.558   0.615   1.771 -0.2550 -0.4150  0.1857
 3346SOL    HW121500   2.543   0.550   1.839 -0.1311 -1.3313 -0.6686
 3346SOL    HW221501   2.486   0.607   1.708  0.3065  0.0432 -0.5164
 3347SOL     OW21502   3.588   0.191   8.260  0.3107 -0.2020 -0.0520
 3347SOL    HW121503   3.649   0.205   8.188 -0.0275 -3.7848 -1.0203
 3347SOL    HW221504   3.508   0.166   8.215 -0.0685  0.9310 -0.0075
 3348SOL     OW21505   3.028   0.017   7.927  0.5933  0.6515 -0.0573
 3348SOL    HW121506   3.044   0.100   7.883  1.3396  1.2843  1.3962
 3348SOL    HW221507   3.057   4.680   7.859 -2.5412 -0.6248 -0.2434
 3349SOL     OW21508   1.009   1.726   5.320  0.1036 -0.2337  0.2157
 3349SOL    HW121509   1.079   1.789   5.305 -1.3805  1.9170  2.2803
 3349SOL    HW221510   1.029   1.660   5.254 -0.2557  2.8572 -3.0168
 3350SOL     OW21511   2.252   1.652   7.505 -0.4909  1.1291 -0.1866
 3350SOL    HW121512   2.320   1.589   7.530 -0.4262  0.9927 -0.7149
 3350SOL    HW221513   2.286   1.741   7.515  0.7927  0.3987  2.0519
 3351SOL     OW21514   1.173   3.263   1.987 -0.0820  0.1779  0.2621
 3351SOL    HW121515   1.122   3.265   1.907 -0.3056  0.0761  0.4037
 3351SOL    HW221516   1.174   3.354   2.018  0.9570 -0.3703  1.8490
 3352SOL     OW21517   1.021   3.920   3.834  0.2633  0.3291 -0.0890
 3352SOL    HW121518   1.115   3.930   3.818  0.0051  1.7812 -0.6497
 3352SOL    HW221519   0.990   4.009   3.820 -1.4536 -0.6811 -2.7422
 3353SOL     OW21520   2.611   2.564   7.416 -0.0732  0.4657 -0.3209
 3353SOL    HW121521   2.669   2.487   7.417 -2.6695 -1.4702  0.2032
 3353SOL    HW221522   2.586   2.548   7.507  0.7940  2.2584  0.2171
 3354SOL     OW21523   1.540   4.239   8.811 -0.0276 -0.0266  0.0543
 3354SOL    HW121524   1.460   4.259   8.761  0.6445  0.1385 -0.9524
 3354SOL    HW221525   1.500   4.237   8.898  0.6184 -2.4349  0.2984
 3355SOL     OW21526   3.923   2.010  10.938  0.1052  0.0118 -0.3280
 3355SOL    HW121527   3.907   1.918  10.959  0.6944  0.2857  1.3415
 3355SOL    HW221528   4.018   2.012  10.954 -0.0260 -0.2609  0.4555
 3356SOL     OW21529   4.560   3.743   6.020 -0.2635 -0.4552  0.5662
 3356SOL    HW121530   4.643   3.787   6.004 -0.9134  0.5687 -0.0095
 3356SOL    HW221531   4.556   3.670   5.959  1.8892  1.4690 -1.8346
 3357SOL     OW21532   1.616   4.552   1.610 -0.0925 -0.4456  0.0838
 3357SOL    HW121533   1.660   4.630   1.645 -0.4355 -0.0038 -0.4635
 3357SOL    HW221534   1.650   4.490   1.675 -1.6076  0.3384  1.5957
 3358SOL     OW21535   1.422   0.053   2.146  0.1678 -0.6688 -0.4721
 3358SOL    HW121536   1.448   4.716   2.214  0.8874 -0.1967 -0.3214
 3358SOL    HW221537   1.377   0.124   2.193 -0.0270  0.2069 -1.9899
 3359SOL     OW21538   0.757   4.079   6.566 -0.1435 -0.1799  0.2057
 3359SOL    HW121539   0.754   4.070   6.471 -0.7374 -3.5783  0.5638
 3359SOL    HW221540   0.852   4.087   6.566 -0.1261 -0.2533 -1.3536
 3360SOL     OW21541   1.111   1.678   6.541 -0.0965 -0.0193  0.5741
 3360SOL    HW121542   1.141   1.600   6.495 -0.2435 -1.4412  2.8615
 3360SOL    HW221543   1.112   1.740   6.469  1.5125 -0.0281  0.5959
 3361SOL     OW21544   1.349   1.702   4.667 -0.1059  0.2385 -0.0530
 3361SOL    HW121545   1.283   1.770   4.657  0.2249  0.2213 -2.4975
 3361SOL    HW221546   1.410   1.749   4.722 -0.8504  0.3744  0.6562
 3362SOL     OW21547   3.700   0.945   9.854 -0.4728  0.4192 -0.6137
 3362SOL    HW121548   3.681   0.852   9.837  0.6625  0.0664  0.0406
 3362SOL    HW221549   3.677   0.939   9.947  2.1540 -2.2605 -0.1203
 3363SOL     OW21550   1.454   1.966  10.457 -0.6053  0.0306  0.0696
 3363SOL    HW121551   1.397   2.026  10.409 -0.2230  0.8350  0.6142
 3363SOL    HW221552   1.444   1.875  10.430 -2.1629 -0.2793  1.7610
 3364SOL     OW21553   2.278   2.918   0.580  0.0698 -0.1580 -0.3187
 3364SOL    HW121554   2.273   2.847   0.516  0.9800  0.1572 -0.7504
 3364SOL    HW221555   2.242   2.878   0.659 -2.9710  1.5497 -0.8517
 3365SOL     OW21556   2.003   0.671   4.347  0.3941 -0.3706 -0.1154
 3365SOL    HW121557   1.946   0.617   4.293  0.0705  0.8444 -1.0071
 3365SOL    HW221558   2.034   0.604   4.407 -3.5143 -0.1469  2.1234
 3366SOL     OW21559   2.775   0.508   3.759  0.4384  0.5875  0.3418
 3366SOL    HW121560   2.809   0.419   3.763 -2.6276 -0.6366 -1.0246
 3366SOL    HW221561   2.723   0.516   3.838  1.6120  0.6515  1.1049
 3367SOL     OW21562   3.670   0.237   7.297  0.7993  0.2770 -0.4126
 3367SOL    HW121563   3.641   0.324   7.268 -1.1808  0.0583  0.9394
 3367SOL    HW221564   3.594   0.180   7.280 -0.8634  1.8461  1.8320
 3368SOL     OW21565   3.458   4.181  10.430  0.4763  0.0504  0.1713
 3368SOL    HW121566   3.385   4.222  10.477  1.8335  0.4210  1.9495
 3368SOL    HW221567   3.435   4.213  10.343  0.6856 -3.4230 -1.1764
 3369SOL     OW21568   2.718   3.684  16.157 -0.1324 -0.2056  0.4855
 3369SOL    HW121569   2.768   3.640  16.089 -0.3654  0.1399  0.0830
 3369SOL    HW221570   2.778   3.757  16.174  1.9472 -1.4087 -1.6844
 3370SOL     OW21571   1.441   3.259  13.084  0.3918  0.3401  0.2502
 3370SOL    HW121572   1.519   3.251  13.029  1.3852 -0.1497  1.7339
 3370SOL    HW221573   1.486   3.252  13.168  0.5377 -0.7797  0.0791
 3371SOL     OW21574   0.219   1.236   4.152 -0.3984  0.1544 -0.2655
 3371SOL    HW121575   0.284   1.179   4.194  0.3328 -1.3601 -3.4401
 3371SOL    HW221576   0.142   1.180   4.146  0.8718 -1.5358 -1.1253
 3372SOL     OW21577   1.558   0.518   8.660 -0.1869 -0.4984  0.0221
 3372SOL    HW121578   1.469   0.496   8.632 -0.0432 -1.7999  0.6021
 3372SOL    HW221579   1.583   0.593   8.606  1.4316 -1.1455 -0.1190
 3373SOL     OW21580   1.470   0.096  15.119  0.2241  0.2238 -0.5314
 3373SOL    HW121581   1.406   0.042  15.166 -0.8121  1.5523 -0.4056
 3373SOL    HW221582   1.464   0.179  15.166 -0.0221  0.2806 -0.6645
 3374SOL     OW21583   4.680   0.652   7.577  0.5282 -0.1708  0.2106
 3374SOL    HW121584   4.707   0.735   7.618  1.5527  0.3399 -1.4845
 3374SOL    HW221585   4.585   0.655   7.586  0.3078 -2.0826 -1.5474
 3375SOL     OW21586   3.144   2.130   4.903 -0.0044  0.3596  0.0852
 3375SOL    HW121587   3.096   2.093   4.828  0.5266 -1.6000  0.7184
 3375SOL    HW221588   3.227   2.133   4.856  1.4214 -1.7329  2.4746
 3376SOL     OW21589   3.853   0.215   7.502  0.2374  0.1634 -0.6193
 3376SOL    HW121590   3.914   0.284   7.476  0.4586  0.7075  1.3588
 3376SOL    HW221591   3.782   0.228   7.439  1.1997  0.4906 -1.6290
 3377SOL     OW21592   1.667   2.115   8.094  1.0895 -0.1930 -0.0953
 3377SOL    HW121593   1.639   2.142   8.182 -0.7626 -0.3685 -0.6253
 3377SOL    HW221594   1.725   2.189   8.075 -1.0587  1.2915 -0.9333
 3378SOL     OW21595   1.499   2.459   7.462 -0.0915 -0.0201  0.0409
 3378SOL    HW121596   1.449   2.488   7.538  1.0739  1.0776  0.3784
 3378SOL    HW221597   1.566   2.525   7.447  1.4395 -1.7804 -0.8771
 3379SOL     OW21598   1.926   1.956   5.390 -0.9009 -0.1344 -0.2847
 3379SOL    HW121599   1.849   2.003   5.358  1.2827  2.1368 -2.1232
 3379SOL    HW221600   1.885   1.900   5.456 -0.6292 -0.4563 -0.3863
 3380SOL     OW21601   3.757   2.065   0.388  0.0889  0.2149  0.1546
 3380SOL    HW121602   3.733   2.003   0.319 -1.8786 -0.8986  1.8210
 3380SOL    HW221603   3.669   2.081   0.422  0.7573 -0.3166  2.1040
 3381SOL     OW21604   2.520   2.807  12.136  0.2555 -0.3533 -0.5965
 3381SOL    HW121605   2.496   2.723  12.175 -0.0339  0.4581  0.9627
 3381SOL    HW221606   2.582   2.769  12.074 -1.7763 -1.2316 -2.0582
 3382SOL     OW21607   0.251   1.169  15.561  0.1874 -0.0729  0.3770
 3382SOL    HW121608   0.319   1.185  15.627  2.0545 -0.3539 -1.4699
 3382SOL    HW221609   0.261   1.242  15.500  3.0846  0.5025  1.5042
 3383SOL     OW21610   1.469   0.029   5.335  0.0185  0.5830  0.1589
 3383SOL    HW121611   1.428   4.667   5.337  2.1435 -0.4352 -0.0908
 3383SOL    HW221612   1.412   0.076   5.396 -0.2822 -1.0575  1.1440
 3384SOL     OW21613   1.230   4.666   0.848 -0.7501 -0.0519 -0.2626
 3384SOL    HW121614   1.319   4.664   0.812 -0.9196 -0.9777 -0.6380
 3384SOL    HW221615   1.182   4.700   0.772 -0.8920  0.5144  0.0846
 3385SOL     OW21616   0.496   3.699   6.087 -0.3917  0.1465 -0.2552
 3385SOL    HW121617   0.442   3.621   6.099 -1.3916  0.9612  0.6088
 3385SOL    HW221618   0.565   3.639   6.057 -0.1721  0.5479 -0.5572
 3386SOL     OW21619   1.416   4.186   1.326 -0.2303  0.0416  0.5134
 3386SOL    HW121620   1.498   4.235   1.323 -1.1825  1.7465  2.4768
 3386SOL    HW221621   1.345   4.248   1.340  0.2224  0.6604  0.0919
 3387SOL     OW21622   2.715   4.531   0.483 -0.0588  0.4323  0.4909
 3387SOL    HW121623   2.655   4.596   0.519 -0.0367 -0.0299  1.3697
 3387SOL    HW221624   2.805   4.560   0.499 -0.5774  1.2400  2.0087
 3388SOL     OW21625   0.138   4.548   3.743 -0.4422  0.2135 -0.5859
 3388SOL    HW121626   0.131   4.462   3.702 -1.8917 -0.5278  1.2033
 3388SOL    HW221627   0.186   4.596   3.675  0.1740  0.3753 -0.0301
 3389SOL     OW21628   1.444   0.082   7.000 -0.1157 -0.1823 -0.2437
 3389SOL    HW121629   1.397   0.162   6.976  0.4986  0.2408 -0.0414
 3389SOL    HW221630   1.436   0.062   7.093 -1.8763  0.2720 -0.3139
 3390SOL     OW21631   0.561   0.088  16.809  0.4150 -0.0008 -0.0195
 3390SOL    HW121632   0.566   0.002  16.768  1.6240 -0.2726  0.6839
 3390SOL    HW221633   0.611   0.084  16.891 -0.3406 -2.3166  0.3149
 3391SOL     OW21634   0.852   3.137   5.270 -0.0928  0.3221  0.2134
 3391SOL    HW121635   0.817   3.065   5.217  1.0292  0.2787 -0.4592
 3391SOL    HW221636   0.858   3.197   5.196 -2.9618  0.4866  0.1030
 3392SOL     OW21637   3.608   0.423   8.406 -0.1506 -0.0590 -0.3917
 3392SOL    HW121638   3.646   0.451   8.323  1.7585  0.9129  0.8135
 3392SOL    HW221639   3.572   0.340   8.375  1.2068 -0.3842 -1.1108
 3393SOL     OW21640   1.382   3.657  14.655 -0.1955 -0.3539  0.8516
 3393SOL    HW121641   1.426   3.742  14.646  0.0590 -0.5544  0.2384
 3393SOL    HW221642   1.449   3.601  14.616  2.2962  1.5228  2.4163
 3394SOL     OW21643   1.304   2.133   4.577 -0.3868 -0.2947  0.0738
 3394SOL    HW121644   1.320   2.223   4.605 -1.1701 -0.7377  1.9451
 3394SOL    HW221645   1.368   2.133   4.506 -1.7845 -0.8806 -1.1764
 3395SOL     OW21646   1.257   0.781   8.391  0.5256 -0.1936  0.1296
 3395SOL    HW121647   1.266   0.689   8.367  0.8009  0.0863 -0.8477
 3395SOL    HW221648   1.215   0.829   8.319 -1.0734 -0.6392  0.7535
 3396SOL     OW21649   2.928   1.156   8.331  0.0572 -0.4070 -0.3633
 3396SOL    HW121650   2.876   1.111   8.398  1.1699 -1.9316 -0.5040
 3396SOL    HW221651   2.884   1.131   8.250  0.8283  0.4151 -1.0313
 3397SOL     OW21652   1.642   1.725   4.731 -0.5769 -0.3058  0.2762
 3397SOL    HW121653   1.648   1.721   4.636  2.3673 -0.8120  0.4986
 3397SOL    HW221654   1.669   1.816   4.739 -4.0948  0.8388 -0.6877
 3398SOL     OW21655   4.072   0.308   2.916 -0.4569 -0.0907  0.3418
 3398SOL    HW121656   4.050   0.243   2.848 -2.0724 -0.2913  1.0601
 3398SOL    HW221657   4.023   0.384   2.885  0.2455  0.3002  0.1953
 3399SOL     OW21658   3.549   1.954   4.661  0.1923 -0.3268  0.4630
 3399SOL    HW121659   3.491   1.962   4.737  2.7095 -0.8496  2.4429
 3399SOL    HW221660   3.621   2.013   4.682  1.4069 -1.2025 -1.2427
 3400SOL     OW21661   0.391   0.563  12.294 -0.3616 -0.1863  0.4951
 3400SOL    HW121662   0.324   0.496  12.308 -0.9258  0.1504 -0.5630
 3400SOL    HW221663   0.334   0.640  12.295 -0.0269  0.0711 -1.3537
 3401SOL     OW21664   3.768   0.815   2.999 -0.4295 -0.2046 -0.3032
 3401SOL    HW121665   3.832   0.841   2.933 -0.2613  0.9136  0.2901
 3401SOL    HW221666   3.691   0.825   2.943  1.1089  0.9535 -2.2126
 3402SOL     OW21667   0.173   4.453   7.131  0.8041  0.6480 -0.1752
 3402SOL    HW121668   0.217   4.415   7.056  0.9522  1.8991 -0.7138
 3402SOL    HW221669   0.184   4.542   7.098 -3.4111  1.1382 -0.3632
 3403SOL     OW21670   1.829   4.173   2.063  0.1477 -0.3014  0.4986
 3403SOL    HW121671   1.829   4.139   1.974  0.3136  0.1903  0.3130
 3403SOL    HW221672   1.917   4.139   2.078  0.1506  0.5453  2.3542
 3404SOL     OW21673   3.367   1.390   4.601 -0.1959 -0.5247 -0.1587
 3404SOL    HW121674   3.416   1.315   4.635  0.6799  0.4442  0.7233
 3404SOL    HW221675   3.371   1.457   4.669  0.9955  0.2557 -0.9894
 3405SOL     OW21676   1.794   1.737   5.121  0.5499  0.2183 -1.0364
 3405SOL    HW121677   1.859   1.692   5.175 -1.3990 -1.0983  0.1897
 3405SOL    HW221678   1.780   1.671   5.053 -2.1355  0.9074 -1.1327
 3406SOL     OW21679   0.525   0.508  16.799 -0.2052  0.0880 -0.5675
 3406SOL    HW121680   0.486   0.595  16.799  0.2666  0.3030  0.6587
 3406SOL    HW221681   0.507   0.485  16.708  0.4052 -0.6882 -0.4939
 3407SOL     OW21682   1.954   1.360  13.685 -0.4867  0.0249 -0.5702
 3407SOL    HW121683   1.891   1.336  13.616  1.4454  0.0210 -2.3317
 3407SOL    HW221684   2.037   1.321  13.656 -1.7622 -3.0436 -0.1673
 3408SOL     OW21685   1.475   0.581   8.990 -0.9425  0.2500  0.1244
 3408SOL    HW121686   1.493   0.540   8.905 -1.5051  1.7288 -0.7073
 3408SOL    HW221687   1.441   0.662   8.953 -1.9223 -0.5397 -0.7048
 3409SOL     OW21688   0.582   2.204   1.238 -0.1652  0.2556  0.6035
 3409SOL    HW121689   0.677   2.198   1.229 -0.3837 -1.6493 -0.4834
 3409SOL    HW221690   0.566   2.298   1.232  2.0892  0.4839 -1.5611
 3410SOL     OW21691   1.718   0.665   1.724  0.1769 -0.0619  0.0533
 3410SOL    HW121692   1.763   0.749   1.729 -0.0293 -0.0407  1.6059
 3410SOL    HW221693   1.633   0.687   1.686 -0.5125 -1.3071  0.8722
 3411SOL     OW21694   1.988   1.637  15.975 -0.2679  0.1737 -0.3465
 3411SOL    HW121695   1.898   1.661  15.954 -0.2465 -0.7382 -1.4690
 3411SOL    HW221696   2.012   1.707  16.036  3.0732 -0.0804 -1.3538
 3412SOL     OW21697   0.187   1.510   3.364 -0.4737 -0.3406 -0.0335
 3412SOL    HW121698   0.270   1.551   3.340 -1.0286  0.1395 -1.1435
 3412SOL    HW221699   0.163   1.446   3.296  1.3405 -0.0707 -0.9313
 3413SOL     OW21700   4.506   4.002  14.431 -0.2911  0.6528 -0.3511
 3413SOL    HW121701   4.417   3.966  14.427 -0.3521  0.4849  2.2131
 3413SOL    HW221702   4.535   3.974  14.345  0.5301 -2.3835  0.9034
 3414SOL     OW21703   0.197   3.310   1.416 -0.0661 -0.1097 -0.4831
 3414SOL    HW121704   0.151   3.245   1.363 -0.8870  0.3595 -0.3512
 3414SOL    HW221705   0.199   3.278   1.506 -1.1982  1.4350  0.1066
 3415SOL     OW21706   1.241   2.041   8.659 -0.0911  1.2493  0.1091
 3415SOL    HW121707   1.289   2.123   8.656  1.9027  0.0467 -0.4146
 3415SOL    HW221708   1.160   2.045   8.711  1.6189 -1.8871  3.0353
 3416SOL     OW21709   4.459   0.727  10.879 -0.5637 -0.0537  0.5905
 3416SOL    HW121710   4.474   0.636  10.852 -1.1797 -0.0869  0.3585
 3416SOL    HW221711   4.484   0.720  10.972  0.6934 -1.0373  0.1879
 3417SOL     OW21712   1.884   2.435  12.877  0.3769 -0.4397 -0.6168
 3417SOL    HW121713   1.967   2.475  12.850  0.6682  0.7290  1.9515
 3417SOL    HW221714   1.900   2.343  12.858  2.5253  0.0683 -1.3939
 3418SOL     OW21715   1.384   3.720   3.261 -0.2930  0.5344 -0.0282
 3418SOL    HW121716   1.380   3.732   3.166 -1.1553  0.3559 -0.0074
 3418SOL    HW221717   1.320   3.780   3.298 -2.1433 -0.9058 -0.9087
 3419SOL     OW21718   0.481   3.927   1.261 -0.0118 -0.1492 -0.4117
 3419SOL    HW121719   0.474   3.842   1.305  2.0671  0.7887  1.7196
 3419SOL    HW221720   0.390   3.944   1.240 -0.8998 -0.6656  3.0392
 3420SOL     OW21721   1.988   3.020   4.597  0.0987 -0.0587  0.5963
 3420SOL    HW121722   2.061   3.039   4.538 -1.5653  2.0492 -0.8024
 3420SOL    HW221723   1.913   3.052   4.546 -0.0740 -3.2555 -1.1228
 3421SOL     OW21724   2.479   3.437   4.709  0.1025 -0.3775  0.2346
 3421SOL    HW121725   2.464   3.442   4.615  1.6684  3.0156  0.1266
 3421SOL    HW221726   2.390   3.438   4.744 -0.3440  2.8028 -0.9925
 3422SOL     OW21727   3.817   0.979   4.629  0.7515 -0.3433 -0.3795
 3422SOL    HW121728   3.819   0.966   4.535 -1.2615 -0.6964 -0.3647
 3422SOL    HW221729   3.900   1.027   4.638  0.3575  0.2477  0.1797
 3423SOL     OW21730   4.449   3.986   5.905  0.0257 -0.0512  0.2981
 3423SOL    HW121731   4.356   3.965   5.893 -0.3260  1.7666 -0.1130
 3423SOL    HW221732   4.489   3.909   5.944  2.3400  0.5865 -0.7741
 3424SOL     OW21733   0.710   4.296   6.141  0.1302 -0.2361 -0.6145
 3424SOL    HW121734   0.656   4.306   6.063  2.4732 -1.3757 -2.3870
 3424SOL    HW221735   0.779   4.362   6.144  0.7797 -1.0760  2.6989
 3425SOL     OW21736   1.283   0.788  15.419  0.2127 -0.0591 -0.5511
 3425SOL    HW121737   1.259   0.729  15.348 -1.5132 -1.2811  1.0375
 3425SOL    HW221738   1.232   0.867  15.400 -0.7925 -0.3263  1.0152
 3426SOL     OW21739   0.185   1.731  17.217 -0.2306 -0.0280  0.7920
 3426SOL    HW121740   0.170   1.769  17.304 -1.3849  2.0786 -0.3178
 3426SOL    HW221741   0.255   1.668  17.231 -0.2401  0.1265  1.5218
 3427SOL     OW21742   3.484   2.220   1.789 -0.0591 -0.2138  0.0958
 3427SOL    HW121743   3.435   2.264   1.720 -1.1702 -0.9437  0.4300
 3427SOL    HW221744   3.570   2.237   1.751  0.2789  0.4748  1.1699
 3428SOL     OW21745   1.605   4.314  14.940  0.2335 -0.5032 -0.5604
 3428SOL    HW121746   1.600   4.308  15.036  0.0695  1.5851 -0.4418
 3428SOL    HW221747   1.689   4.359  14.930 -0.1448 -0.0481 -1.6705
 3429SOL     OW21748   4.459   1.677   7.803  0.4987 -0.4669  0.0246
 3429SOL    HW121749   4.512   1.754   7.825  0.2230 -0.8176  1.8719
 3429SOL    HW221750   4.422   1.710   7.721 -0.2792  0.0553  0.5852
 3430SOL     OW21751   3.948   1.987   4.511  0.4507  0.5206 -0.3311
 3430SOL    HW121752   3.924   2.054   4.447  0.0370 -0.0994 -0.8243
 3430SOL    HW221753   3.922   2.032   4.592  1.4442 -0.6774  0.6673
 3431SOL     OW21754   3.382   1.888   2.011 -0.6912 -0.0060  0.2638
 3431SOL    HW121755   3.427   1.899   1.928 -1.4405 -0.3481 -0.1894
 3431SOL    HW221756   3.379   1.792   2.013  0.6079 -0.0715 -1.7124
 3432SOL     OW21757   1.920   2.310   2.630 -0.2573 -0.1374  0.4844
 3432SOL    HW121758   1.866   2.348   2.561  0.2853  0.0448  0.1538
 3432SOL    HW221759   1.953   2.234   2.582 -1.9796 -0.6740  0.1765
 3433SOL     OW21760   3.657   1.698   6.783 -0.3476  0.5553  0.2185
 3433SOL    HW121761   3.699   1.612   6.795  1.6961  1.7666  1.8226
 3433SOL    HW221762   3.734   1.743   6.748 -0.0479 -0.8025 -0.8949
 3434SOL     OW21763   0.345   2.076  10.240  0.7445 -0.1179  0.4908
 3434SOL    HW121764   0.413   2.135  10.207  1.4420 -0.7551  0.7914
 3434SOL    HW221765   0.335   2.014  10.168 -0.2804  1.7233 -0.9374
 3435SOL     OW21766   4.044   1.888  11.209  1.0974 -0.4976 -0.0181
 3435SOL    HW121767   4.038   1.835  11.288 -1.2367 -2.0714 -1.2629
 3435SOL    HW221768   3.980   1.851  11.148 -0.0613  1.5804 -0.0807
 3436SOL     OW21769   1.554   2.501  14.917  0.2332 -0.6147  0.1318
 3436SOL    HW121770   1.553   2.582  14.968  0.9193  0.1687 -1.0981
 3436SOL    HW221771   1.464   2.472  14.935  0.5496 -1.8963 -0.3864
 3437SOL     OW21772   3.696   2.626   3.361 -0.1907  0.1569 -0.0017
 3437SOL    HW121773   3.638   2.566   3.314 -0.7132  2.0594 -1.7522
 3437SOL    HW221774   3.634   2.683   3.406 -0.4817  0.5134 -0.8732
 3438SOL     OW21775   0.090   1.855  12.143 -0.0264 -0.2216 -0.3794
 3438SOL    HW121776   0.092   1.891  12.054 -0.8161  2.4476  0.6845
 3438SOL    HW221777   0.030   1.912  12.190  1.5802  1.6381 -0.6106
 3439SOL     OW21778   3.919   1.852   4.194 -0.4382  0.0104 -0.0627
 3439SOL    HW121779   3.941   1.912   4.122 -2.0101  2.5740  1.6200
 3439SOL    HW221780   3.900   1.770   4.148 -1.7946  0.1070  0.3088
 3440SOL     OW21781   3.838   4.541   6.657 -0.1227  0.7111  0.7298
 3440SOL    HW121782   3.921   4.584   6.637  0.1764 -1.1720 -2.0491
 3440SOL    HW221783   3.820   4.570   6.747  0.9617 -0.2812  1.2693
 3441SOL     OW21784   3.072   2.332   5.743  0.0292  0.3113 -0.3005
 3441SOL    HW121785   3.069   2.250   5.694  1.9228  1.8545 -3.0351
 3441SOL    HW221786   3.069   2.400   5.675  1.0021 -0.4261 -1.0799
 3442SOL     OW21787   2.564   1.271   9.515 -0.3430  0.8727 -0.1839
 3442SOL    HW121788   2.524   1.231   9.438 -1.2061  2.5557 -0.6127
 3442SOL    HW221789   2.573   1.194   9.570 -2.5701  1.6506  1.2704
 3443SOL     OW21790   4.363   0.910   1.704 -0.8579  0.0943  0.2583
 3443SOL    HW121791   4.431   0.960   1.749  0.0872 -0.1201 -0.9152
 3443SOL    HW221792   4.370   0.824   1.747  0.6282  0.6900  1.2020
 3444SOL     OW21793   3.394   4.184   1.019 -0.4621 -0.2635 -0.0729
 3444SOL    HW121794   3.367   4.269   1.054 -0.4336 -0.1548 -0.3186
 3444SOL    HW221795   3.422   4.135   1.097  0.1604  1.5723  0.8664
 3445SOL     OW21796   3.439   0.040  15.606  0.2079  0.0352  0.3083
 3445SOL    HW121797   3.403   0.068  15.522  1.2605 -1.3432 -0.6178
 3445SOL    HW221798   3.510   0.104  15.615 -0.6165  0.7447  1.6528
 3446SOL     OW21799   4.171   1.989  15.377 -0.2556 -0.2835  0.1941
 3446SOL    HW121800   4.087   2.011  15.336  0.0073 -1.5955 -1.0155
 3446SOL    HW221801   4.152   2.012  15.468 -1.2984  0.0562 -0.1067
 3447SOL     OW21802   1.792   3.974   7.161 -0.0234 -0.2924 -0.3830
 3447SOL    HW121803   1.838   4.048   7.199  0.9264  0.2523 -2.6099
 3447SOL    HW221804   1.796   3.992   7.068 -0.1077 -0.7725 -0.4833
 3448SOL     OW21805   2.214   4.659   1.047  0.4364  0.8715  0.1801
 3448SOL    HW121806   2.266   4.689   0.972 -0.6643  1.3152 -0.3955
 3448SOL    HW221807   2.191   0.014   1.095  3.1083  0.8947  1.4132
 3449SOL     OW21808   2.915   1.257   6.160  0.1545  0.4330  0.3265
 3449SOL    HW121809   2.856   1.331   6.148 -0.3179  0.0521  0.3010
 3449SOL    HW221810   2.978   1.276   6.091 -0.9089 -0.5047 -0.9010
 3450SOL     OW21811   0.005   0.160   2.422  0.0495  0.1985  0.3828
 3450SOL    HW121812   0.035   0.168   2.512  1.2452 -0.1789  0.0177
 3450SOL    HW221813   0.083   0.182   2.370  0.0036 -2.0612 -0.6752
 3451SOL     OW21814   4.375   4.315   4.678  0.1614  0.5750 -0.1365
 3451SOL    HW121815   4.318   4.335   4.603  1.3257  1.6925 -0.7344
 3451SOL    HW221816   4.439   4.249   4.651 -1.0809  0.0934 -1.8979
 3452SOL     OW21817   1.864   1.548   6.595 -0.3973 -1.0619  0.6847
 3452SOL    HW121818   1.925   1.517   6.661 -0.0387 -2.1084 -0.1393
 3452SOL    HW221819   1.912   1.621   6.557 -1.3892 -1.6397 -1.6708
 3453SOL     OW21820   1.722   4.473   5.901 -0.5323  0.0754 -0.2939
 3453SOL    HW121821   1.717   4.460   5.807 -1.2868 -1.8536  0.0152
 3453SOL    HW221822   1.700   4.566   5.910 -1.0674 -0.1719  1.0461
 3454SOL     OW21823   4.341   2.389  10.968  0.5983 -0.0896  0.0542
 3454SOL    HW121824   4.361   2.387  10.874 -0.0747  0.9179 -0.1198
 3454SOL    HW221825   4.264   2.332  10.973  0.9192 -0.4866  0.4048
 3455SOL     OW21826   2.817   2.964  12.672 -0.9786  0.1902  0.1341
 3455SOL    HW121827   2.829   3.029  12.603  0.0850 -0.4055 -0.2274
 3455SOL    HW221828   2.804   2.877  12.634 -2.9659  0.6556 -0.2396
 3456SOL     OW21829   1.652   3.073   2.744 -0.2694  0.1644 -0.4096
 3456SOL    HW121830   1.597   3.078   2.822  2.4932 -2.3835  1.7271
 3456SOL    HW221831   1.739   3.079   2.782 -0.8166  0.3297  0.7934
 3457SOL     OW21832   2.992   4.022   6.712  0.6720  0.5458 -0.0844
 3457SOL    HW121833   2.923   4.069   6.667 -1.0045  0.0382  1.9727
 3457SOL    HW221834   2.962   3.932   6.697  2.6426 -0.2925  0.9085
 3458SOL     OW21835   3.616   0.579   2.742 -0.0689  0.6912  0.1611
 3458SOL    HW121836   3.619   0.485   2.730  1.2822  0.6568  0.7456
 3458SOL    HW221837   3.559   0.602   2.669  0.4229  0.4698 -0.2914
 3459SOL     OW21838   1.160   0.576   8.111  0.1018 -0.4813  0.8877
 3459SOL    HW121839   1.135   0.540   8.196  0.0489  2.3454  2.0764
 3459SOL    HW221840   1.076   0.558   8.070  0.4999 -0.5471  0.1056
 3460SOL     OW21841   3.256   1.180   6.133 -0.5800 -0.6719 -0.3696
 3460SOL    HW121842   3.190   1.120   6.168 -1.0071 -0.9389 -1.6289
 3460SOL    HW221843   3.317   1.182   6.207  0.5084 -1.0088 -1.2498
 3461SOL     OW21844   2.121   3.248   7.188 -0.5413 -0.1076 -0.3233
 3461SOL    HW121845   2.191   3.185   7.207 -1.3198 -0.3937  1.6587
 3461SOL    HW221846   2.164   3.301   7.122 -0.2346  1.3924  1.0701
 3462SOL     OW21847   3.030   1.908  11.336  0.9264 -0.1822  0.1604
 3462SOL    HW121848   2.986   1.938  11.415  0.6711  0.6159 -0.2773
 3462SOL    HW221849   2.966   1.937  11.270 -0.7814 -0.5696  1.6351
 3463SOL     OW21850   4.262   0.073   3.488  0.2982  0.1755  0.0224
 3463SOL    HW121851   4.290   0.099   3.400 -2.9807 -0.7339 -1.2680
 3463SOL    HW221852   4.302   4.712   3.474  0.5912  0.0351  1.7560
 3464SOL     OW21853   1.757   0.778  10.102 -0.3624 -0.5603 -0.3147
 3464SOL    HW121854   1.829   0.838  10.121 -0.4950  0.1182 -1.9726
 3464SOL    HW221855   1.738   0.804  10.012  2.0552  0.3165 -0.5719
 3465SOL     OW21856   4.189   3.610   1.855 -0.3097 -0.1264  0.1456
 3465SOL    HW121857   4.175   3.610   1.950 -0.0102 -0.8485  0.1944
 3465SOL    HW221858   4.285   3.602   1.855 -0.2439  0.7279 -0.0356
 3466SOL     OW21859   0.187   0.506   4.681 -0.6237  0.0960 -0.0967
 3466SOL    HW121860   0.177   0.421   4.723 -0.1277  0.1429  0.1199
 3466SOL    HW221861   0.140   0.491   4.599 -0.6012 -1.6716  0.2275
 3467SOL     OW21862   0.636   2.811   7.018 -0.4605  0.1060 -0.3723
 3467SOL    HW121863   0.711   2.790   7.074 -0.5858  0.3392 -0.1138
 3467SOL    HW221864   0.663   2.794   6.928  2.7589  1.1614  0.3988
 3468SOL     OW21865   1.222   2.124  13.546 -0.6073 -0.3518 -0.2282
 3468SOL    HW121866   1.255   2.182  13.616 -0.3920 -0.1902 -0.4638
 3468SOL    HW221867   1.292   2.120  13.482 -0.3915 -1.7192  0.1002
 3469SOL     OW21868   3.817   1.656   7.580 -0.3075  0.2900 -0.7788
 3469SOL    HW121869   3.786   1.580   7.629 -0.8229  2.6660  2.5993
 3469SOL    HW221870   3.793   1.728   7.638 -0.7894 -0.5319  0.0501
 3470SOL     OW21871   4.092   2.616   4.711 -0.4246 -0.3199  0.2263
 3470SOL    HW121872   4.041   2.655   4.640  0.0136  1.4731  0.8971
 3470SOL    HW221873   4.048   2.665   4.780 -1.4910 -0.8809 -0.0597
 3471SOL     OW21874   3.420   0.884   6.385 -0.2666  0.0177  0.4548
 3471SOL    HW121875   3.371   0.966   6.390 -1.0107 -0.3777 -0.4462
 3471SOL    HW221876   3.358   0.823   6.344  1.4154 -1.9595  0.8111
 3472SOL     OW21877   4.541   0.686  13.458 -0.0531 -0.1467 -0.0972
 3472SOL    HW121878   4.511   0.715  13.372 -0.2438  2.0977  0.7327
 3472SOL    HW221879   4.514   0.760  13.511 -0.6688 -2.0378  2.2389
 3473SOL     OW21880   3.274   3.604   9.470  0.0091 -0.3413 -0.2761
 3473SOL    HW121881   3.354   3.612   9.522  0.1198 -1.6180 -0.2543
 3473SOL    HW221882   3.272   3.511   9.450  1.1616 -0.4598  0.1413
 3474SOL     OW21883   0.112   3.455  11.141  0.2288 -0.3976 -0.3356
 3474SOL    HW121884   0.202   3.428  11.158 -0.4190 -1.9691  0.6114
 3474SOL    HW221885   0.071   3.368  11.141  0.7774 -0.6560  1.2027
 3475SOL     OW21886   2.410   4.308   0.630  0.1094  0.0695 -0.2982
 3475SOL    HW121887   2.407   4.285   0.723 -0.3504  3.2048  0.4532
 3475SOL    HW221888   2.499   4.281   0.606  0.5175  1.3503 -0.2450
 3476SOL     OW21889   4.691   3.536   3.579 -0.4599  0.5458  0.5322
 3476SOL    HW121890   4.616   3.529   3.638  0.5178  0.1159  1.7462
 3476SOL    HW221891   4.678   3.458   3.525  0.3158 -0.5539  1.9414
 3477SOL     OW21892   1.752   0.422   0.714  0.0666 -0.6109 -0.2415
 3477SOL    HW121893   1.771   0.331   0.692  0.6913 -1.0086  1.9688
 3477SOL    HW221894   1.730   0.454   0.627 -0.1317  1.9540  0.7712
 3478SOL     OW21895   4.462   3.808  17.090 -0.3187 -0.7421  0.0017
 3478SOL    HW121896   4.531   3.858  17.134  0.3968 -0.5646 -1.3383
 3478SOL    HW221897   4.435   3.736  17.149  0.2986 -1.7934 -1.0085
 3479SOL     OW21898   2.881   1.274   9.887  0.1421  0.3645  0.0427
 3479SOL    HW121899   2.884   1.201   9.825 -3.4135  1.1575 -1.0892
 3479SOL    HW221900   2.824   1.237   9.955  0.0235 -0.1826 -0.3490
 3480SOL     OW21901   3.858   2.065   2.482  0.3664  0.6846  0.0881
 3480SOL    HW121902   3.896   2.148   2.456  1.8113  0.0334  0.1241
 3480SOL    HW221903   3.767   2.090   2.465 -0.2741 -1.6119  0.1549
 3481SOL     OW21904   3.932   0.142   6.210 -0.0482  0.1399 -0.1306
 3481SOL    HW121905   3.921   0.123   6.117  0.2582 -0.7819  0.0239
 3481SOL    HW221906   3.894   0.230   6.221 -0.6731 -0.5991  3.4280
 3482SOL     OW21907   1.485   4.159   8.405  0.2521 -0.2181 -0.1365
 3482SOL    HW121908   1.475   4.067   8.382  2.0503 -0.1111 -1.3774
 3482SOL    HW221909   1.489   4.161   8.500  1.1168  2.2839 -0.2309
 3483SOL     OW21910   3.293   1.267   0.425 -0.2057  0.5201 -0.7201
 3483SOL    HW121911   3.215   1.290   0.476  2.1038  0.7452  2.7022
 3483SOL    HW221912   3.368   1.313   0.463  0.1548  0.2337 -1.0924
 3484SOL     OW21913   0.915   1.275  14.311  0.1060  0.0087  0.4705
 3484SOL    HW121914   0.921   1.300  14.403 -1.9193 -1.9410  1.1156
 3484SOL    HW221915   0.971   1.198  14.313 -0.4584 -0.3616  1.5532
 3485SOL     OW21916   4.060   1.517  11.536  0.0283  0.2966 -0.3441
 3485SOL    HW121917   4.095   1.542  11.450  1.7992  3.1838  1.2014
 3485SOL    HW221918   4.098   1.567  11.608 -0.8153 -1.1776  1.1057
 3486SOL     OW21919   0.213   2.400   8.764 -0.5094  0.8090  0.2504
 3486SOL    HW121920   0.124   2.432   8.756 -1.5060 -1.9610  0.2842
 3486SOL    HW221921   0.203   2.307   8.743  0.7780  0.8734 -0.6937
 3487SOL     OW21922   0.390   1.510   6.559  0.0513  0.1166  0.1211
 3487SOL    HW121923   0.404   1.543   6.648  1.9453  0.1739 -0.1955
 3487SOL    HW221924   0.410   1.420   6.585 -2.1514 -0.0568  1.2024
 3488SOL     OW21925   2.106   0.270  10.628  0.2138  0.1489 -0.2384
 3488SOL    HW121926   2.185   0.220  10.650  0.1117  0.4183  0.7518
 3488SOL    HW221927   2.051   0.231  10.696  0.6934  0.1568  0.1545
 3489SOL     OW21928   4.418   3.837   7.756 -0.5133  0.0877  0.3484
 3489SOL    HW121929   4.393   3.895   7.828  2.8861  0.1952  1.4486
 3489SOL    HW221930   4.367   3.757   7.771 -1.0118  0.1409 -1.0418
 3490SOL     OW21931   0.748   2.050   3.930 -0.3216  0.2773  0.1362
 3490SOL    HW121932   0.757   1.955   3.936 -2.6623 -0.0680 -2.0372
 3490SOL    HW221933   0.662   2.057   3.971 -1.5432 -0.1476 -2.4000
 3491SOL     OW21934   1.866   3.717   9.000  0.3569  0.2191  0.4673
 3491SOL    HW121935   1.827   3.631   9.010  0.5067  0.3799  2.3912
 3491SOL    HW221936   1.842   3.736   8.909  3.0858 -0.5192 -0.4102
 3492SOL     OW21937   2.437   1.180   5.474  0.0018  0.4180  0.3721
 3492SOL    HW121938   2.381   1.103   5.462  0.6680 -0.2568  1.6757
 3492SOL    HW221939   2.524   1.140   5.479  0.5777  1.6122 -0.1807
 3493SOL     OW21940   2.122   3.885   7.719  0.2358 -0.9796 -0.3213
 3493SOL    HW121941   2.127   3.889   7.624  1.4521  0.8868 -0.1782
 3493SOL    HW221942   2.050   3.940   7.750 -0.7942 -1.7329 -1.3776
 3494SOL     OW21943   3.398   1.011   0.367 -0.0051  0.4053 -0.2212
 3494SOL    HW121944   3.352   1.016   0.283  0.5698 -2.4849 -0.7126
 3494SOL    HW221945   3.375   1.095   0.407  1.8753  0.9877 -0.3943
 3495SOL     OW21946   0.735   3.702   6.330 -0.4172  0.3409  0.4321
 3495SOL    HW121947   0.650   3.745   6.318  0.2286  1.0269 -1.6251
 3495SOL    HW221948   0.714   3.609   6.318 -1.3344  0.7861 -1.2799
 3496SOL     OW21949   3.827   2.471  13.055 -0.3126 -0.4021 -0.5748
 3496SOL    HW121950   3.852   2.496  12.966  1.6401  0.1414  0.1450
 3496SOL    HW221951   3.772   2.544  13.082  0.3150 -0.1700  0.0778
 3497SOL     OW21952   2.705   3.443   7.618  0.3068  0.1147 -0.3175
 3497SOL    HW121953   2.751   3.525   7.639  0.4419  0.1497 -0.7470
 3497SOL    HW221954   2.634   3.487   7.571 -0.0333  0.6192  0.6760
 3498SOL     OW21955   2.756   1.605   0.904 -0.3927  0.6502 -0.5248
 3498SOL    HW121956   2.809   1.633   0.979 -0.0293  0.7796 -0.8312
 3498SOL    HW221957   2.679   1.578   0.955  0.8040  0.2354  1.0938
 3499SOL     OW21958   4.178   1.008   4.418 -0.1264  0.1017  0.3719
 3499SOL    HW121959   4.247   1.071   4.397 -0.3051  0.2287  0.1696
 3499SOL    HW221960   4.116   1.019   4.346 -2.7608 -1.9094  2.3283
 3500SOL     OW21961   2.384   4.428   5.814 -0.6236 -0.1386 -0.5370
 3500SOL    HW121962   2.444   4.419   5.887 -0.1649  1.3190 -0.7339
 3500SOL    HW221963   2.440   4.383   5.751  2.5886 -0.1398  2.3289
 3501SOL     OW21964   2.977   0.101   6.516 -0.0510 -0.0461 -0.4700
 3501SOL    HW121965   3.012   0.090   6.428  3.8492 -0.8638  1.1945
 3501SOL    HW221966   3.036   0.050   6.571  1.7836  0.8440 -1.6171
 3502SOL     OW21967   4.323   3.705   9.762 -0.6465  0.1150 -0.3627
 3502SOL    HW121968   4.287   3.738   9.680  1.3473 -1.7366 -1.9855
 3502SOL    HW221969   4.244   3.677   9.809 -0.9244  1.6408  0.0645
 3503SOL     OW21970   2.620   2.697   6.035  0.1243 -0.3900 -0.3635
 3503SOL    HW121971   2.551   2.720   5.973  0.5897  0.7790 -0.4565
 3503SOL    HW221972   2.666   2.781   6.025 -0.4526 -0.0504 -0.1851
 3504SOL     OW21973   0.226   4.478   8.459  0.3664 -0.1258  0.1593
 3504SOL    HW121974   0.234   4.524   8.542  3.1318  0.8319 -0.6638
 3504SOL    HW221975   0.240   4.553   8.402  0.3463 -2.3614 -2.8045
 3505SOL     OW21976   3.252   3.093   9.797  0.1580  0.3448  0.1566
 3505SOL    HW121977   3.206   3.069   9.877 -1.6324  0.9615 -0.6928
 3505SOL    HW221978   3.184   3.143   9.753 -0.0416  0.0054  0.0851
 3506SOL     OW21979   1.328   0.220   0.759  0.6502  0.3130 -0.3433
 3506SOL    HW121980   1.267   0.192   0.691 -1.0955  2.9471  0.1323
 3506SOL    HW221981   1.408   0.172   0.738 -0.2210 -1.4648  0.4202
 3507SOL     OW21982   0.260   3.114   8.312  0.3199 -0.0946  0.2747
 3507SOL    HW121983   0.193   3.173   8.347 -1.3745 -0.2258 -2.7878
 3507SOL    HW221984   0.318   3.179   8.272  0.6422 -0.6515 -0.1669
 3508SOL     OW21985   2.606   2.023  10.622 -0.3389 -0.2425  0.3904
 3508SOL    HW121986   2.618   1.985  10.709  1.5794  0.6728  0.5324
 3508SOL    HW221987   2.689   2.010  10.575 -0.8361  2.4996 -1.2513
 3509SOL     OW21988   3.473   1.153   1.673  0.4436 -0.2946 -0.6915
 3509SOL    HW121989   3.543   1.114   1.725 -1.3874  0.4489  2.3815
 3509SOL    HW221990   3.493   1.102   1.595 -1.4656  0.6949 -1.8204
 3510SOL     OW21991   3.467   4.460   4.397 -0.4330 -0.4097 -0.4996
 3510SOL    HW121992   3.415   4.508   4.331 -0.4238 -2.7068 -2.1796
 3510SOL    HW221993   3.554   4.480   4.362 -1.0905  1.1258 -1.3027
 3511SOL     OW21994   4.134   0.521   3.946  0.0350 -0.0290 -0.4863
 3511SOL    HW121995   4.173   0.482   3.868  1.4015  0.3900 -0.0082
 3511SOL    HW221996   4.049   0.542   3.907  0.8142  1.4615 -1.3989
 3512SOL     OW21997   0.150   3.002   9.812 -0.1481  0.1828  0.1942
 3512SOL    HW121998   0.082   3.052   9.858 -2.1365 -0.6582 -1.8643
 3512SOL    HW221999   0.098   2.933   9.772 -2.5607  0.6507  2.4561
 3513SOL     OW22000   0.919   3.484   7.947 -0.6801 -0.0110 -0.4895
 3513SOL    HW122001   0.985   3.524   8.003 -0.5937  0.5524 -1.0040
 3513SOL    HW222002   0.849   3.457   8.007  1.2640  0.2943  1.9096
 3514SOL     OW22003   3.784   2.268   6.888 -0.6655 -0.6504 -0.4752
 3514SOL    HW122004   3.868   2.258   6.843 -1.0141 -1.0543 -1.0370
 3514SOL    HW222005   3.788   2.356   6.927 -0.0726 -0.6634 -0.5021
 3515SOL     OW22006   1.712   3.809   0.039  0.2626  0.1531 -0.2551
 3515SOL    HW122007   1.781   3.762  17.692  0.2169 -0.0343 -0.1340
 3515SOL    HW222008   1.691   3.740   0.102  0.2250  1.8045  1.5494
 3516SOL     OW22009   3.365   4.202  11.760 -0.2530 -0.1452  0.1788
 3516SOL    HW122010   3.375   4.265  11.688 -0.3755 -0.8249 -0.4327
 3516SOL    HW222011   3.393   4.260  11.831  1.1455 -1.1997  0.4875
 3517SOL     OW22012   2.966   1.171  13.261 -0.1163 -0.2627  0.1978
 3517SOL    HW122013   2.889   1.114  13.268 -0.6707  0.6924  1.8098
 3517SOL    HW222014   2.930   1.236  13.202 -1.9781 -0.5483  1.0135
 3518SOL     OW22015   1.177   0.079   4.115  0.2208  0.7227 -0.1374
 3518SOL    HW122016   1.239   0.051   4.182  0.4726 -0.0520 -0.6839
 3518SOL    HW222017   1.120   0.002   4.110 -1.1747  1.8749 -1.7983
 3519SOL     OW22018   1.390   4.618   1.755 -0.2711 -0.3569  0.0478
 3519SOL    HW122019   1.390   4.541   1.813 -2.2646 -1.1554 -1.0104
 3519SOL    HW222020   1.465   4.600   1.699  0.7997  1.7019  0.8203
 3520SOL     OW22021   1.282   1.277   1.548 -0.1715 -0.5499 -0.6909
 3520SOL    HW122022   1.355   1.274   1.485  2.5083 -1.1792  2.4668
 3520SOL    HW222023   1.287   1.190   1.588 -0.3268 -0.1985  0.0880
 3521SOL     OW22024   3.479   2.432  14.540  0.2126 -0.4513  0.1069
 3521SOL    HW122025   3.393   2.430  14.581 -0.4302  0.7584 -1.1714
 3521SOL    HW222026   3.499   2.524  14.522  2.1679 -0.4080  2.4647
 3522SOL     OW22027   0.581   3.163  17.244  0.0695  0.0770 -0.3016
 3522SOL    HW122028   0.593   3.248  17.202 -0.6444  0.5027  0.3511
 3522SOL    HW222029   0.520   3.188  17.314 -0.9113 -0.5920 -0.9052
 3523SOL     OW22030   1.671   2.862   8.771  0.0291  0.6416  0.0246
 3523SOL    HW122031   1.650   2.812   8.692 -1.0916 -1.7619  1.8686
 3523SOL    HW222032   1.591   2.845   8.820  0.7194  1.4543  1.4451
 3524SOL     OW22033   2.077   3.472   5.526 -0.2248  0.1167 -0.4957
 3524SOL    HW122034   2.052   3.440   5.439  1.1309 -2.0753 -0.0738
 3524SOL    HW222035   2.141   3.541   5.509 -0.2329  0.4990  1.0473
 3525SOL     OW22036   2.847   1.762  10.616 -0.0793  0.3105 -0.2072
 3525SOL    HW122037   2.911   1.834  10.611 -0.0010  0.1349 -1.6983
 3525SOL    HW222038   2.789   1.789  10.545 -2.1355 -1.1522  0.8984
 3526SOL     OW22039   2.663   1.339   5.202  0.1497  0.3753 -0.0704
 3526SOL    HW122040   2.570   1.328   5.186  0.4485 -1.5888 -0.4421
 3526SOL    HW222041   2.692   1.382   5.121 -0.2788  1.7173  0.4827
 3527SOL     OW22042   0.578   0.788  10.432  0.3369  0.1537  0.3150
 3527SOL    HW122043   0.660   0.837  10.435 -0.2956  1.1806  0.9846
 3527SOL    HW222044   0.603   0.703  10.397 -0.9885  0.1607 -0.6464
 3528SOL     OW22045   4.589   0.073  12.303  0.0592  0.0776 -0.2306
 3528SOL    HW122046   4.640   0.062  12.383 -3.3012  0.4318  1.9633
 3528SOL    HW222047   4.516   0.015  12.325  2.5764 -2.4473  1.5034
 3529SOL     OW22048   3.214   1.441   4.086 -0.0108 -0.1974  0.0433
 3529SOL    HW122049   3.261   1.518   4.054 -0.2927 -0.0262  0.0382
 3529SOL    HW222050   3.234   1.438   4.180 -1.5239  0.5781  0.3880
 3530SOL     OW22051   0.227   4.693   3.002 -0.2972 -0.3384  0.4819
 3530SOL    HW122052   0.205   0.062   2.999  0.0601 -0.3096 -1.3606
 3530SOL    HW222053   0.152   4.644   2.968  1.6928 -2.9213 -0.1334
 3531SOL     OW22054   3.447   3.392   3.325  0.0237  0.0642  0.1143
 3531SOL    HW122055   3.516   3.359   3.267 -0.1418 -2.1403  1.1774
 3531SOL    HW222056   3.498   3.419   3.402 -0.9842  2.3843 -0.0294
 3532SOL     OW22057   2.938   0.853   7.342 -0.2428 -0.2600  0.2572
 3532SOL    HW122058   2.931   0.935   7.391  2.1243  0.2469 -0.2752
 3532SOL    HW222059   2.927   0.782   7.406  0.7756 -0.1778  0.5136
 3533SOL     OW22060   1.625   0.350   4.507  0.7934 -0.3027  0.1313
 3533SOL    HW122061   1.669   0.432   4.485  0.8164 -0.8922 -2.0390
 3533SOL    HW222062   1.641   0.340   4.601 -0.7254 -0.7522  0.3441
 3534SOL     OW22063   1.677   3.839  15.640 -0.1945 -0.0728 -0.5936
 3534SOL    HW122064   1.711   3.914  15.592 -0.0808  0.5564  0.4630
 3534SOL    HW222065   1.754   3.811  15.689 -2.7092 -0.8548  2.9213
 3535SOL     OW22066   4.070   0.563   1.213 -0.0078  0.2035 -0.4970
 3535SOL    HW122067   4.163   0.547   1.201  0.5638  2.7582  0.5000
 3535SOL    HW222068   4.044   0.591   1.125 -1.3105  2.5965  0.6371
 3536SOL     OW22069   3.112   3.491   7.766  0.3432  0.0419 -0.2348
 3536SOL    HW122070   3.097   3.566   7.824  2.1034  0.6236 -0.5323
 3536SOL    HW222071   3.198   3.463   7.796 -1.2270  1.1432  5.2796
 3537SOL     OW22072   2.959   0.987   0.323 -0.2238 -0.6163  0.3456
 3537SOL    HW122073   2.986   0.979   0.415 -1.0526 -1.0868  0.5413
 3537SOL    HW222074   2.969   1.083   0.323  2.6462 -0.9037  1.5147
 3538SOL     OW22075   1.882   0.310   2.648 -0.1349  0.1537 -0.2249
 3538SOL    HW122076   1.926   0.283   2.567 -0.7677 -2.1688  0.2120
 3538SOL    HW222077   1.932   0.391   2.654  1.4842 -0.8693 -0.1050
 3539SOL     OW22078   0.412   3.144   3.594 -0.1119 -0.4007  0.6395
 3539SOL    HW122079   0.318   3.135   3.575 -0.0162  1.2356 -0.6023
 3539SOL    HW222080   0.437   3.223   3.545 -1.2811  0.2807  1.1348
 3540SOL     OW22081   3.937   2.489   9.510  0.4712  0.1322  0.3441
 3540SOL    HW122082   3.905   2.514   9.597  0.2323  0.2556  0.2235
 3540SOL    HW222083   3.989   2.566   9.487  0.2451  0.7212  1.8347
 3541SOL     OW22084   0.598   0.129   1.078  0.1081 -0.6916  0.1680
 3541SOL    HW122085   0.634   0.217   1.066  1.1117 -1.1743 -0.3442
 3541SOL    HW222086   0.633   0.079   1.004  1.2749 -0.3424  0.4859
 3542SOL     OW22087   4.392   4.574   3.401  0.4259  0.8260 -0.1987
 3542SOL    HW122088   4.397   4.556   3.307  0.0511 -0.0946 -0.0465
 3542SOL    HW222089   4.474   4.536   3.431 -0.3008  0.7403  1.6856
 3543SOL     OW22090   3.759   3.156   7.503  0.0380  0.0794  0.1542
 3543SOL    HW122091   3.783   3.248   7.500  0.2840  0.0792  2.0206
 3543SOL    HW222092   3.770   3.141   7.597 -1.5048 -1.8342  0.0507
 3544SOL     OW22093   2.697   0.658   5.149  0.0797  0.2757  0.2224
 3544SOL    HW122094   2.712   0.585   5.089  0.5727  0.2599  0.3645
 3544SOL    HW222095   2.781   0.663   5.195  1.1238  1.4721 -1.8013
 3545SOL     OW22096   0.849   2.171   1.128 -0.1717 -0.3339  0.2398
 3545SOL    HW122097   0.926   2.169   1.071 -0.5637  0.5090 -0.3292
 3545SOL    HW222098   0.799   2.221   1.064  0.1373  1.0506  1.0704
 3546SOL     OW22099   3.963   1.112  16.132 -0.3478  0.0704 -0.0450
 3546SOL    HW122100   4.038   1.107  16.191 -0.2907  0.0123 -0.1226
 3546SOL    HW222101   3.913   1.188  16.163 -0.8192 -0.4779  0.5382
 3547SOL     OW22102   3.003   0.289   2.610  0.2448  0.3075 -0.6471
 3547SOL    HW122103   3.002   0.363   2.549 -0.2730  0.0997 -0.8912
 3547SOL    HW222104   3.098   0.276   2.610  0.1057 -0.6925  2.1370
 3548SOL     OW22105   0.264   0.782   7.651  0.1926  0.5315  0.8693
 3548SOL    HW122106   0.234   0.704   7.697 -1.1069  0.1958 -0.5488
 3548SOL    HW222107   0.358   0.766   7.662 -0.1547 -2.1643 -0.0026
 3549SOL     OW22108   3.720   0.802   7.247  0.3377 -0.4831 -0.3680
 3549SOL    HW122109   3.773   0.784   7.169  0.9178 -1.9248  0.3631
 3549SOL    HW222110   3.767   0.747   7.309 -0.2117 -1.2197 -0.6125
 3550SOL     OW22111   3.024   2.824  17.241 -0.3244  0.0379  0.5416
 3550SOL    HW122112   2.971   2.772  17.301  0.7414 -0.6499  0.8943
 3550SOL    HW222113   2.953   2.876  17.203 -0.2566 -0.0322  0.3210
 3551SOL     OW22114   0.584   2.299  12.597  0.2717 -0.3988 -0.2385
 3551SOL    HW122115   0.672   2.333  12.613 -0.7352  1.0529  2.2215
 3551SOL    HW222116   0.599   2.231  12.532 -0.6372 -0.3889 -0.4541
 3552SOL     OW22117   0.811   0.181  15.718  0.1945  0.1026  0.0039
 3552SOL    HW122118   0.780   0.265  15.751  0.3117  0.4895 -0.8841
 3552SOL    HW222119   0.897   0.176  15.760  1.3324 -0.9411 -2.4371
 3553SOL     OW22120   1.126   1.548   6.199 -0.2053  0.0523 -0.0686
 3553SOL    HW122121   1.049   1.604   6.191 -0.3845 -0.2181 -0.2245
 3553SOL    HW222122   1.085   1.479   6.148 -0.8202 -0.1773  0.7316
 3554SOL     OW22123   0.272   0.662   6.875  0.0538  0.3593 -0.2613
 3554SOL    HW122124   0.260   0.677   6.969  1.2017  0.0428 -0.0633
 3554SOL    HW222125   0.192   0.703   6.844 -1.0770 -1.1406  0.6568
 3555SOL     OW22126   2.433   3.901   3.069  0.5159 -0.4113 -0.3011
 3555SOL    HW122127   2.510   3.895   3.013  1.5677 -1.6238  1.3030
 3555SOL    HW222128   2.371   3.838   3.033  1.2774 -1.8392  0.8928
 3556SOL     OW22129   1.382   4.690   0.269  0.2862 -0.5538 -0.2367
 3556SOL    HW122130   1.362   4.597   0.277 -1.4834 -0.1056  0.6451
 3556SOL    HW222131   1.467   4.694   0.314 -0.1952 -2.3369  0.8324
 3557SOL     OW22132   3.913   0.970   1.344 -0.0919  0.8074 -0.3872
 3557SOL    HW122133   3.882   0.885   1.376  2.2391  0.1363  0.0945
 3557SOL    HW222134   4.003   0.945   1.321  0.0677  1.2098 -0.1954
 3558SOL     OW22135   4.431   0.726   5.998  0.7021  0.1926  0.4942
 3558SOL    HW122136   4.463   0.660   6.059  1.8991  1.0284  0.7808
 3558SOL    HW222137   4.486   0.798   6.028 -0.6656  0.0594  3.3158
 3559SOL     OW22138   2.544   0.481   6.389  0.4172 -0.1020  0.1649
 3559SOL    HW122139   2.611   0.441   6.335 -0.3475 -2.3194  0.8546
 3559SOL    HW222140   2.583   0.567   6.400 -0.1872 -0.1539  2.6973
 3560SOL     OW22141   0.423   1.975   9.114  0.1718  1.0420 -1.0378
 3560SOL    HW122142   0.390   1.941   9.197  1.0478  2.3135 -0.1728
 3560SOL    HW222143   0.439   2.064   9.145 -0.5011 -0.5268  3.8341
 3561SOL     OW22144   2.168   3.512  12.330 -0.0779  0.9737 -0.2804
 3561SOL    HW122145   2.142   3.592  12.285 -2.0110  0.0608 -0.7905
 3561SOL    HW222146   2.259   3.499  12.302 -0.3265 -0.9761 -0.2148
 3562SOL     OW22147   2.877   4.680   3.663  0.1978 -0.0864  0.2005
 3562SOL    HW122148   2.804   4.628   3.630 -1.0570  2.6071 -1.2462
 3562SOL    HW222149   2.893   4.627   3.741 -1.2964  0.2661  0.7690
 3563SOL     OW22150   1.528   1.488   1.634 -0.1218 -0.6962  0.2720
 3563SOL    HW122151   1.545   1.578   1.606 -1.7037 -0.1302  1.1739
 3563SOL    HW222152   1.453   1.460   1.582  0.8276  0.6436 -1.8382
 3564SOL     OW22153   3.806   1.990   6.501 -1.0424 -0.1494 -0.8845
 3564SOL    HW122154   3.817   1.918   6.563  2.4773  1.7101  0.6700
 3564SOL    HW222155   3.888   2.014   6.457  0.7583  0.1985  2.6893
 3565SOL     OW22156   0.897   2.159   3.556  0.1730 -0.5751  0.2734
 3565SOL    HW122157   0.848   2.230   3.515  2.0354  0.5987  0.0804
 3565SOL    HW222158   0.987   2.185   3.537  0.1789 -0.2969  0.6941
 3566SOL     OW22159   3.114   3.732   6.959 -0.6013 -0.1239  0.2710
 3566SOL    HW122160   3.164   3.651   6.944 -0.4186  0.2572 -1.1695
 3566SOL    HW222161   3.033   3.718   6.909 -0.3632 -1.0719  0.1397
 3567SOL     OW22162   1.620   0.169  11.197  0.3735  0.8082 -0.1303
 3567SOL    HW122163   1.671   0.161  11.278 -0.2139  0.7781  0.2366
 3567SOL    HW222164   1.686   0.141  11.133  0.5819 -0.2810  0.5688
 3568SOL     OW22165   2.950   3.540   5.399  0.1625  0.0870 -0.1971
 3568SOL    HW122166   2.955   3.450   5.432  0.9545  0.3820  0.4873
 3568SOL    HW222167   2.932   3.583   5.482  0.2159 -0.4207  0.0819
 3569SOL     OW22168   1.779   0.211   5.021  0.0793 -0.1847  0.1832
 3569SOL    HW122169   1.860   0.161   5.036  0.8360  0.7388 -0.8253
 3569SOL    HW222170   1.729   0.189   5.100 -1.3321 -0.1218 -0.6994
 3570SOL     OW22171   4.112   3.341   6.726 -0.0095 -0.1752 -0.4928
 3570SOL    HW122172   4.066   3.288   6.661 -0.3140 -0.7038  0.1448
 3570SOL    HW222173   4.064   3.316   6.806 -1.7410  0.0496 -1.4534
 3571SOL     OW22174   0.506   0.927  16.108 -0.6057 -0.4629  0.3860
 3571SOL    HW122175   0.580   0.866  16.099 -0.3670 -0.2826  1.1225
 3571SOL    HW222176   0.526   0.987  16.037 -1.4007  0.2665  0.7844
 3572SOL     OW22177   0.900   2.991   9.989  0.1929  0.4024  0.0587
 3572SOL    HW122178   0.813   3.026   9.969  0.8266  1.2734 -1.1066
 3572SOL    HW222179   0.929   2.975   9.900 -2.8501 -1.7527 -0.5455
 3573SOL     OW22180   3.322   0.036  12.087 -0.5719  0.7802  0.2949
 3573SOL    HW122181   3.251   0.032  12.152 -0.4187 -0.7333  0.3506
 3573SOL    HW222182   3.357   4.672  12.086 -1.1493  0.5850 -1.4481
 3574SOL     OW22183   3.458   4.396   3.205  0.8261  0.0334  0.5102
 3574SOL    HW122184   3.544   4.432   3.182  0.7869  0.2862  0.7585
 3574SOL    HW222185   3.398   4.441   3.144  2.3905  2.2798  0.6235
 3575SOL     OW22186   3.844   4.595   3.932 -0.5253  0.3257 -0.5592
 3575SOL    HW122187   3.918   4.565   3.879 -1.3337  2.3298 -2.7840
 3575SOL    HW222188   3.796   4.512   3.925 -3.1013  1.5781  2.0613
 3576SOL     OW22189   0.538   1.025  15.830  0.5463  0.0935 -0.1349
 3576SOL    HW122190   0.511   1.106  15.785 -0.8826  0.1687  0.8453
 3576SOL    HW222191   0.486   0.967  15.775 -1.8591  0.8148  1.3574
 3577SOL     OW22192   0.765   4.067   6.297  0.2158 -0.3282 -0.5709
 3577SOL    HW122193   0.699   3.997   6.291 -1.0254  0.9177 -1.6438
 3577SOL    HW222194   0.719   4.134   6.246 -1.3760 -1.6155 -0.8735
 3578SOL     OW22195   2.724   2.193   8.366 -0.5232  0.1526  0.1154
 3578SOL    HW122196   2.687   2.240   8.442  1.6672  0.2431  1.1102
 3578SOL    HW222197   2.643   2.172   8.319 -1.0238  0.6764  0.7234
 3579SOL     OW22198   1.768   0.106  13.321  0.2106 -0.1256  0.0348
 3579SOL    HW122199   1.767   0.012  13.338 -2.0717  0.3541  2.3621
 3579SOL    HW222200   1.803   0.103  13.232 -0.6904  1.1237 -0.3646
 3580SOL     OW22201   2.804   2.257  11.803  0.2785 -0.5556 -0.2317
 3580SOL    HW122202   2.887   2.301  11.822 -0.3657  0.6935 -0.3657
 3580SOL    HW222203   2.788   2.212  11.886 -1.5321  1.4653  0.4906
 3581SOL     OW22204   1.367   0.267   4.196  0.1665 -0.4687 -0.5353
 3581SOL    HW122205   1.335   0.307   4.276 -0.6697 -1.2381 -0.4850
 3581SOL    HW222206   1.324   0.315   4.125  1.2861  3.5587  1.5121
 3582SOL     OW22207   1.897   2.033   8.553 -0.0235 -0.0130 -0.1189
 3582SOL    HW122208   1.989   2.031   8.527  0.3810 -2.0110  1.3855
 3582SOL    HW222209   1.851   2.079   8.484  1.5167  0.2181 -0.9927
 3583SOL     OW22210   4.573   4.102   1.053  0.2870  0.4086 -0.3257
 3583SOL    HW122211   4.581   4.054   1.135 -1.5777 -0.0223 -0.4015
 3583SOL    HW222212   4.492   4.066   1.019  0.6913 -1.0242  0.2530
 3584SOL     OW22213   4.367   2.665  10.576  0.0318 -0.4353  0.1663
 3584SOL    HW122214   4.343   2.620  10.495  0.6426 -1.5398  0.6039
 3584SOL    HW222215   4.337   2.754  10.558 -0.0998 -0.4141  0.5066
 3585SOL     OW22216   0.676   2.135  11.435  0.1928  0.2846 -0.0273
 3585SOL    HW122217   0.696   2.043  11.420 -0.9386  0.1231 -0.5702
 3585SOL    HW222218   0.590   2.160  11.399 -0.3472 -1.2211  0.2199
 3586SOL     OW22219   1.095   3.761   9.507 -0.0871 -0.4793  0.8216
 3586SOL    HW122220   1.094   3.810   9.589 -0.8640  0.4399  0.2595
 3586SOL    HW222221   1.188   3.750   9.487  0.5906  2.0596  2.7069
 3587SOL     OW22222   1.223   0.019   8.348  0.1650  0.3024  0.1444
 3587SOL    HW122223   1.309   0.021   8.305 -0.2042 -1.8518 -0.6792
 3587SOL    HW222224   1.222   0.104   8.393 -2.5677 -0.0475  0.7224
 3588SOL     OW22225   0.355   1.899  14.213  0.2136  0.3702 -0.4455
 3588SOL    HW122226   0.393   1.934  14.133  1.2834  1.3508  0.5048
 3588SOL    HW222227   0.414   1.942  14.274 -0.4310 -0.2484  0.6208
 3589SOL     OW22228   0.107   4.506   5.112 -0.2989 -0.1793 -0.2451
 3589SOL    HW122229   0.078   4.419   5.085  0.0095 -0.6542  0.9248
 3589SOL    HW222230   0.087   4.566   5.041 -0.2445 -1.1438 -1.0724
 3590SOL     OW22231   1.961   2.258   2.903  0.6177  0.4664 -0.2527
 3590SOL    HW122232   1.943   2.306   2.822 -1.7741 -0.2397 -0.1658
 3590SOL    HW222233   2.033   2.200   2.877  0.1079  0.2433 -1.1942
 3591SOL     OW22234   3.354   3.420   5.240 -0.5284  0.3090 -0.3377
 3591SOL    HW122235   3.305   3.391   5.317 -0.1178  1.8097  0.4811
 3591SOL    HW222236   3.418   3.352   5.220 -0.3508  0.5971 -0.7348
 3592SOL     OW22237   1.402   4.457   8.618  0.0917 -0.3290 -0.1414
 3592SOL    HW122238   1.493   4.481   8.635 -1.0545  3.2074  1.0173
 3592SOL    HW222239   1.365   4.541   8.593  2.7557  0.3106 -1.9236
 3593SOL     OW22240   4.319   3.953   7.512  0.6267 -0.4393 -0.8619
 3593SOL    HW122241   4.354   3.897   7.581 -1.2625 -0.3983  0.1212
 3593SOL    HW222242   4.301   4.023   7.576  0.9900 -0.0313 -1.2057
 3594SOL     OW22243   4.493   1.596   8.918  0.1051 -0.2203  0.5544
 3594SOL    HW122244   4.520   1.688   8.922 -0.2516  0.0093 -2.6134
 3594SOL    HW222245   4.577   1.562   8.889 -0.8286 -1.0120 -1.1595
 3595SOL     OW22246   0.608   1.190   7.009  0.7374  0.6149  0.2656
 3595SOL    HW122247   0.574   1.114   7.056 -0.6925  0.1901 -1.4402
 3595SOL    HW222248   0.702   1.173   7.014  0.6803 -0.4960 -2.2706
 3596SOL     OW22249   3.579   0.015  11.049  0.7979  1.0724  0.6499
 3596SOL    HW122250   3.529   0.089  11.084  1.2227  0.0457  3.4386
 3596SOL    HW222251   3.593   4.678  11.120 -0.0718  0.7090  0.5063
 3597SOL     OW22252   1.296   0.511   5.827  0.1957  0.0212 -0.7285
 3597SOL    HW122253   1.275   0.547   5.741  0.2602 -0.4496 -0.9424
 3597SOL    HW222254   1.356   0.576   5.863  1.3439 -1.2996 -0.2381
 3598SOL     OW22255   1.321   1.082  10.840 -0.4128 -0.5609  0.0173
 3598SOL    HW122256   1.257   1.131  10.893  0.5615  0.0145  0.6487
 3598SOL    HW222257   1.390   1.068  10.905  0.0272  1.5843 -0.0117
 3599SOL     OW22258   4.527   3.674   3.997  0.4858  0.4898 -0.3584
 3599SOL    HW122259   4.496   3.626   4.073  0.1115  0.4922 -0.5115
 3599SOL    HW222260   4.614   3.702   4.029  0.3944  1.7390 -1.2083
 3600SOL     OW22261   2.601   3.562  16.650  0.1441 -0.2386 -0.0022
 3600SOL    HW122262   2.589   3.542  16.557  0.8662 -2.3464  0.3673
 3600SOL    HW222263   2.684   3.520  16.673  0.5892  0.0134 -1.1644
 3601SOL     OW22264   1.942   1.176  15.998 -0.0894 -0.2001 -0.2216
 3601SOL    HW122265   1.854   1.147  15.972 -0.8111  1.9346 -0.1020
 3601SOL    HW222266   1.931   1.268  15.975 -1.2591 -0.5712 -1.1252
 3602SOL     OW22267   2.438   3.871   1.550 -0.2949  0.6310  0.5366
 3602SOL    HW122268   2.436   3.864   1.454 -2.7383  2.9763  0.3902
 3602SOL    HW222269   2.427   3.782   1.583 -1.5172 -0.0388 -1.6398
 3603SOL     OW22270   1.046   4.448   7.918 -0.2287 -0.2470  0.2832
 3603SOL    HW122271   1.096   4.447   8.000  0.9627 -1.8710 -0.4702
 3603SOL    HW222272   1.115   4.476   7.858 -1.7609  3.1285  0.0800
 3604SOL     OW22273   4.080   3.603   4.523  0.3963  0.2897  0.1643
 3604SOL    HW122274   4.058   3.674   4.582  0.4179  1.3093 -1.0706
 3604SOL    HW222275   4.055   3.529   4.579  1.3892 -3.4138 -4.2884
 3605SOL     OW22276   1.640   0.981   7.761 -0.2329 -0.1674 -0.1545
 3605SOL    HW122277   1.660   1.043   7.832 -0.0026  1.1389 -1.3636
 3605SOL    HW222278   1.578   1.024   7.702 -1.2194 -0.4875  0.6361
 3606SOL     OW22279   0.172   1.708   7.812  0.2478 -0.1661  0.0183
 3606SOL    HW122280   0.251   1.667   7.777  0.4943  1.8172 -1.7299
 3606SOL    HW222281   0.202   1.792   7.846  3.5075 -0.7019 -1.4902
 3607SOL     OW22282   0.035   4.288   3.696 -0.1277  0.2182  0.2286
 3607SOL    HW122283   0.010   4.212   3.749 -2.2279 -0.0635 -1.2070
 3607SOL    HW222284   0.096   4.249   3.634 -2.9097  0.6998 -2.7800
 3608SOL     OW22285   4.598   0.423   3.846 -0.1457  0.6378 -0.3625
 3608SOL    HW122286   4.522   0.368   3.827 -0.2358  2.1411 -4.4320
 3608SOL    HW222287   4.576   0.497   3.790 -1.6876 -0.6738 -1.4796
 3609SOL     OW22288   3.287   2.160   1.968  0.0650 -0.7563 -0.2445
 3609SOL    HW122289   3.346   2.185   1.897  0.5555  0.8500  0.7346
 3609SOL    HW222290   3.310   2.067   1.964 -3.2629 -1.7204  3.2654
 3610SOL     OW22291   0.828   0.576   1.931 -0.8112 -0.1464  0.1827
 3610SOL    HW122292   0.761   0.576   1.863 -0.4877  1.8433 -0.1573
 3610SOL    HW222293   0.910   0.593   1.884 -0.9726 -1.7775 -0.6757
 3611SOL     OW22294   3.416   2.371  14.046 -0.1870 -0.3701 -0.0041
 3611SOL    HW122295   3.453   2.409  14.126  0.3190  0.0423 -0.4323
 3611SOL    HW222296   3.385   2.286  14.079 -1.0722 -0.8807 -2.1466
 3612SOL     OW22297   3.870   0.609   3.452  0.0692 -0.3317 -0.4012
 3612SOL    HW122298   3.867   0.668   3.377  1.0654  0.4749  0.2018
 3612SOL    HW222299   3.793   0.631   3.504 -0.0709 -0.0804 -0.7075
 3613SOL     OW22300   0.368   3.684   4.679  0.3744 -0.0680  0.4711
 3613SOL    HW122301   0.396   3.775   4.687  1.6918 -0.6730  2.4635
 3613SOL    HW222302   0.374   3.668   4.585 -1.7497  1.7862  0.0167
 3614SOL     OW22303   4.500   2.525   1.542  0.2399 -0.2060 -0.1339
 3614SOL    HW122304   4.547   2.605   1.519 -0.0954 -0.1181 -0.5096
 3614SOL    HW222305   4.567   2.460   1.521  0.4887 -0.2268  0.6840
 3615SOL     OW22306   0.025   4.054   3.812 -0.6582  0.6406  0.1621
 3615SOL    HW122307   0.062   3.990   3.751 -1.1169  0.9388 -0.4246
 3615SOL    HW222308   0.097   4.061   3.875  0.3860 -0.5912 -0.8872
 3616SOL     OW22309   0.488   0.966   2.406  0.8159  0.2836  0.7524
 3616SOL    HW122310   0.414   0.906   2.411  0.7396  0.2591 -0.8033
 3616SOL    HW222311   0.492   0.981   2.312 -0.3383 -1.7277  0.3794
 3617SOL     OW22312   2.528   0.770   8.044 -0.2246  0.4797  0.3957
 3617SOL    HW122313   2.608   0.740   8.087  0.1004 -1.1762 -1.3711
 3617SOL    HW222314   2.558   0.769   7.953 -1.5883  0.1978 -0.0591
 3618SOL     OW22315   3.051   0.220   4.228  0.7206  0.3879 -0.2151
 3618SOL    HW122316   3.042   0.279   4.153  1.0890  1.9114  0.9489
 3618SOL    HW222317   3.118   0.255   4.286  1.8670 -2.7873  0.3636
 3619SOL     OW22318   3.251   3.142  17.592 -0.0391 -0.8714  0.3433
 3619SOL    HW122319   3.340   3.123  17.563  0.2341 -0.1180  0.6976
 3619SOL    HW222320   3.199   3.099  17.524 -1.5731  0.9691  0.3672
 3620SOL     OW22321   3.522   2.705  14.778 -0.0100 -0.3831 -0.2620
 3620SOL    HW122322   3.581   2.679  14.708 -1.8735 -0.9117 -1.6360
 3620SOL    HW222323   3.461   2.762  14.731  0.0233 -1.5043 -1.6560
 3621SOL     OW22324   3.534   0.091   5.163 -0.1414 -0.5651 -0.0903
 3621SOL    HW122325   3.610   0.144   5.140 -0.8912  0.2139 -0.7641
 3621SOL    HW222326   3.540   0.025   5.094 -3.4999 -1.0151  0.0332
 3622SOL     OW22327   3.386   2.691   3.880 -0.0626  0.6116 -0.0663
 3622SOL    HW122328   3.398   2.605   3.922 -1.1356  0.9753  0.9772
 3622SOL    HW222329   3.295   2.686   3.851 -0.1570 -1.6867  0.6280
 3623SOL     OW22330   2.600   1.252   0.807 -0.1194  0.1074  0.0937
 3623SOL    HW122331   2.562   1.323   0.755  1.1009 -0.1871 -1.2110
 3623SOL    HW222332   2.518   1.224   0.849  0.6790 -0.1293  1.4828
 3624SOL     OW22333   3.030   0.279  10.574 -0.3453  1.0163  0.7321
 3624SOL    HW122334   3.005   0.187  10.574 -1.2519  1.2537  0.4945
 3624SOL    HW222335   2.964   0.327  10.523 -1.8243  0.1301  1.8088
 3625SOL     OW22336   1.145   3.326   8.687  0.0593  0.0898  0.6283
 3625SOL    HW122337   1.088   3.345   8.612 -0.2965  1.1077  1.1649
 3625SOL    HW222338   1.099   3.257   8.734 -0.9427  0.3280 -0.0031
 3626SOL     OW22339   4.489   0.883   8.920 -0.2037  0.5180  0.2064
 3626SOL    HW122340   4.517   0.880   9.012 -1.8843 -1.1252  0.6634
 3626SOL    HW222341   4.508   0.791   8.902 -0.7666  0.3613  0.4239
 3627SOL     OW22342   0.831   0.224   3.138  0.0718  0.3945 -0.3851
 3627SOL    HW122343   0.923   0.211   3.161 -0.0332 -2.0058 -1.2404
 3627SOL    HW222344   0.806   0.272   3.216 -1.2941  1.3272 -1.3958
 3628SOL     OW22345   3.090   0.715  11.898 -0.3269 -0.5742 -0.2453
 3628SOL    HW122346   3.069   0.791  11.952 -0.4804  0.7542 -2.1938
 3628SOL    HW222347   3.099   0.761  11.815 -0.1757 -1.2461 -0.6064
 3629SOL     OW22348   2.952   2.962   3.914 -0.8042 -0.0591  0.3126
 3629SOL    HW122349   2.957   2.928   4.003  0.0122 -2.3325 -0.5890
 3629SOL    HW222350   2.878   2.914   3.877 -2.6874  1.9227  1.5513
 3630SOL     OW22351   2.370   3.374   1.088 -0.2771 -0.2913 -0.5415
 3630SOL    HW122352   2.354   3.409   1.175  1.6987 -1.3944  0.2555
 3630SOL    HW222353   2.306   3.427   1.040 -1.8486 -0.4799  1.3743
 3631SOL     OW22354   3.150   2.177   2.773 -0.4543  0.4554  0.2382
 3631SOL    HW122355   3.080   2.127   2.730  0.6511 -0.3571 -0.6246
 3631SOL    HW222356   3.102   2.253   2.806 -1.5951 -0.6905  1.2193
 3632SOL     OW22357   2.518   3.727   5.196 -0.0096 -0.0074  0.1084
 3632SOL    HW122358   2.510   3.660   5.264 -0.1179  1.1446  1.2126
 3632SOL    HW222359   2.543   3.669   5.123  1.4869 -0.3328  0.8797
 3633SOL     OW22360   2.855   1.698   6.511 -0.4868  0.1522  0.0577
 3633SOL    HW122361   2.909   1.653   6.445  0.2968  0.1476  0.6996
 3633SOL    HW222362   2.786   1.636   6.534 -1.8963  1.5805 -0.3129
 3634SOL     OW22363   0.035   0.884   1.966  0.0371 -0.6028  0.2769
 3634SOL    HW122364   0.112   0.836   1.937  1.4194  1.3269  0.7164
 3634SOL    HW222365   0.017   0.821   2.036  1.3999  0.5307  1.6508
 3635SOL     OW22366   2.718   3.895   4.873 -0.0711  0.6227  0.6416
 3635SOL    HW122367   2.804   3.879   4.835 -0.2955  0.2171  0.3120
 3635SOL    HW222368   2.657   3.836   4.829  0.6495  1.7657 -1.8671
 3636SOL     OW22369   1.027   0.296   4.161 -0.2672 -0.1285  0.1714
 3636SOL    HW122370   1.076   0.222   4.127 -2.0409 -1.6336  0.8827
 3636SOL    HW222371   0.948   0.243   4.172 -0.3425 -0.4898 -2.1496
 3637SOL     OW22372   1.645   2.083   6.431  0.0304  0.0281 -0.0781
 3637SOL    HW122373   1.553   2.102   6.414 -0.1054 -1.6710 -1.2211
 3637SOL    HW222374   1.646   1.987   6.433 -0.2825  0.0420  0.4992
 3638SOL     OW22375   2.308   3.024   8.812  0.7151 -0.3118 -0.6112
 3638SOL    HW122376   2.290   2.931   8.797  0.0659 -0.1797 -0.6622
 3638SOL    HW222377   2.403   3.018   8.813  0.7353  0.4126  1.4262
 3639SOL     OW22378   0.955   4.051   1.169  0.5524  0.3333  0.1044
 3639SOL    HW122379   0.968   4.103   1.249  0.9581  1.9352 -0.9973
 3639SOL    HW222380   0.860   4.040   1.175  0.5589 -0.0433 -0.5804
 3640SOL     OW22381   2.707   2.548   8.849  0.4196 -0.2170  0.2578
 3640SOL    HW122382   2.659   2.607   8.908  0.6367 -0.7851  1.0057
 3640SOL    HW222383   2.735   2.475   8.904 -0.0364 -0.4905  0.1250
 3641SOL     OW22384   4.621   0.940   3.086  0.7942 -0.4742  0.4872
 3641SOL    HW122385   4.532   0.949   3.053 -0.0160 -3.1910  1.9643
 3641SOL    HW222386   4.608   0.955   3.180 -1.0199  2.6626 -0.2739
 3642SOL     OW22387   2.602   3.525   1.724 -0.1916 -1.1371  0.2672
 3642SOL    HW122388   2.637   3.447   1.768 -2.0239 -1.6840  0.7591
 3642SOL    HW222389   2.684   3.573   1.716 -0.8065 -0.2833 -0.8926
 3643SOL     OW22390   0.754   0.681  12.387 -0.4086 -0.2790 -0.2643
 3643SOL    HW122391   0.686   0.717  12.329  1.5979 -1.2889 -3.2520
 3643SOL    HW222392   0.714   0.612  12.439 -1.4646  1.3199  1.0281
 3644SOL     OW22393   0.383   1.704   8.831  0.0271 -0.0591 -0.1372
 3644SOL    HW122394   0.391   1.628   8.773 -0.8444  1.1905 -1.8815
 3644SOL    HW222395   0.328   1.674   8.902 -0.4150 -1.5980 -1.1314
 3645SOL     OW22396   4.151   3.453   2.656 -0.2525 -0.1694  0.0686
 3645SOL    HW122397   4.061   3.429   2.634  0.5284 -1.4847 -1.6291
 3645SOL    HW222398   4.176   3.372   2.701 -2.1087 -1.4906 -1.2774
 3646SOL     OW22399   4.314   0.268   3.961  0.5614 -0.4091  0.0545
 3646SOL    HW122400   4.261   0.282   3.883 -0.3564 -1.9118  0.3993
 3646SOL    HW222401   4.255   0.216   4.016  0.2334  0.9334  0.9453
 3647SOL     OW22402   1.690   3.743   1.680  0.4912 -0.1022 -0.1942
 3647SOL    HW122403   1.746   3.687   1.626  0.0277  0.2042 -0.9933
 3647SOL    HW222404   1.660   3.680   1.746  0.8841 -1.8679 -1.7050
 3648SOL     OW22405   1.232   4.667   8.020 -0.2706 -0.0030 -0.1807
 3648SOL    HW122406   1.323   4.640   8.024 -0.3379  0.0489  1.6201
 3648SOL    HW222407   1.197   4.619   8.095 -0.6548 -0.2610 -0.5199
 3649SOL     OW22408   0.387   0.354  10.568 -0.2144 -0.3324 -0.1304
 3649SOL    HW122409   0.414   0.346  10.477  0.8376 -1.5669  0.2891
 3649SOL    HW222410   0.343   0.269  10.572  2.7178 -1.9653 -2.4375
 3650SOL     OW22411   3.362   3.716   7.172  0.1138 -0.2338  0.2347
 3650SOL    HW122412   3.449   3.705   7.210  0.2538  0.4652  0.1199
 3650SOL    HW222413   3.369   3.801   7.128  1.1707  0.2044  1.2602
 3651SOL     OW22414   2.995   1.565  14.753 -0.4301  0.6908  0.3146
 3651SOL    HW122415   3.084   1.533  14.736 -0.8992 -0.8945  0.8619
 3651SOL    HW222416   2.997   1.660  14.736 -0.2791  0.2390 -2.1377
 3652SOL     OW22417   2.626   4.590   6.904 -0.0322  0.4626  0.0295
 3652SOL    HW122418   2.570   4.547   6.840 -0.0731 -2.7974  2.2788
 3652SOL    HW222419   2.658   4.510   6.946  0.4827  0.6694  0.0331
 3653SOL     OW22420   1.433   1.662   7.382 -0.1646 -0.0057  0.0162
 3653SOL    HW122421   1.397   1.594   7.439 -0.4993  0.2008  0.0509
 3653SOL    HW222422   1.363   1.676   7.317  1.2610  2.1044 -1.0863
 3654SOL     OW22423   4.227   0.638  17.470 -0.0174 -0.4562  0.1627
 3654SOL    HW122424   4.206   0.688  17.549 -0.2534 -0.7263  0.2694
 3654SOL    HW222425   4.181   0.685  17.401  0.3390  0.1258  0.3110
 3655SOL     OW22426   1.239   3.341  12.080 -0.0101 -0.1125 -0.1111
 3655SOL    HW122427   1.278   3.389  12.006 -0.0719  1.4614  0.8934
 3655SOL    HW222428   1.262   3.250  12.059 -2.7763 -0.6173 -1.0098
 3656SOL     OW22429   0.091   2.882  11.204 -0.1255  0.0678  0.2257
 3656SOL    HW122430   0.185   2.880  11.225 -0.5652 -1.3755  2.1373
 3656SOL    HW222431   0.057   2.876  11.294  0.3790 -1.3507  0.3191
 3657SOL     OW22432   2.367   1.201  10.259  0.1395 -0.1621 -0.3713
 3657SOL    HW122433   2.318   1.133  10.213  1.7865 -0.6846 -1.3674
 3657SOL    HW222434   2.424   1.149  10.317 -0.0003 -0.0559 -0.1408
 3658SOL     OW22435   1.734   2.302  17.033 -0.1198  0.0577  0.2795
 3658SOL    HW122436   1.776   2.362  16.972 -0.8017  1.5279  1.2325
 3658SOL    HW222437   1.714   2.352  17.113 -2.4121 -1.2789  0.5573
 3659SOL     OW22438   0.467   2.020  11.721 -0.2608  0.1886  0.1230
 3659SOL    HW122439   0.504   2.105  11.698  1.2895 -0.8165 -1.1282
 3659SOL    HW222440   0.444   2.034  11.813  1.2883  0.3056  0.5078
 3660SOL     OW22441   3.516   4.119   0.213  0.0350  0.2242  0.1980
 3660SOL    HW122442   3.513   4.083   0.302  1.3475 -1.2044 -0.3339
 3660SOL    HW222443   3.586   4.183   0.217  1.6802 -1.7196  2.6943
 3661SOL     OW22444   1.439   0.256   7.541  0.3070  0.1138 -0.0349
 3661SOL    HW122445   1.414   0.227   7.628  0.8096 -0.3687 -0.0529
 3661SOL    HW222446   1.535   0.264   7.547  0.1060  4.2673 -2.3332
 3662SOL     OW22447   1.401   1.275   7.988  0.1844 -0.0297 -0.0561
 3662SOL    HW122448   1.353   1.210   7.937  0.4700  0.0998 -0.4885
 3662SOL    HW222449   1.461   1.230   8.047  0.7707 -0.3228 -0.8788
 3663SOL     OW22450   3.853   2.167   8.029  0.2226  0.5115 -0.0768
 3663SOL    HW122451   3.902   2.168   8.112 -0.5280  0.5881  0.3710
 3663SOL    HW222452   3.908   2.239   7.999 -0.2983  0.7515 -0.4545
 3664SOL     OW22453   2.393   1.132   6.137 -0.1147  0.3577 -0.2658
 3664SOL    HW122454   2.466   1.122   6.076 -0.2501 -2.3341  0.0058
 3664SOL    HW222455   2.404   1.223   6.163  1.9992  0.1265 -0.3913
 3665SOL     OW22456   2.111   4.075   6.124 -0.4480  0.0104  0.1367
 3665SOL    HW122457   2.028   4.116   6.099 -0.9089 -2.5216 -2.4755
 3665SOL    HW222458   2.108   4.079   6.219  0.0035  0.8277  0.1204
 3666SOL     OW22459   0.553   4.272   6.602 -0.1433  0.4760 -0.0045
 3666SOL    HW122460   0.630   4.219   6.582  1.8102  3.7755 -1.3956
 3666SOL    HW222461   0.518   4.283   6.514 -1.2461 -1.3080  0.2245
 3667SOL     OW22462   3.658   0.324   5.029 -0.0154 -0.0358  0.4885
 3667SOL    HW122463   3.721   0.396   5.036  0.8492 -0.6359 -0.9693
 3667SOL    HW222464   3.574   0.360   5.056 -0.4586 -1.3427  0.7971
 3668SOL     OW22465   0.801   0.949   9.938 -0.2282  0.3149  0.2552
 3668SOL    HW122466   0.811   0.919   9.848 -0.7663 -0.7477  0.5559
 3668SOL    HW222467   0.725   1.007   9.948 -0.2117  0.3068  0.4310
 3669SOL     OW22468   4.347   3.079   5.397  0.4665 -0.3876 -0.1723
 3669SOL    HW122469   4.318   3.053   5.485 -2.1466 -1.7245 -1.4359
 3669SOL    HW222470   4.273   3.050   5.344 -0.6759 -0.7971  1.6325
 3670SOL     OW22471   1.647   0.525   6.996 -0.5951  0.0814  0.2508
 3670SOL    HW122472   1.692   0.453   6.951  2.4070  1.3725  1.2261
 3670SOL    HW222473   1.630   0.487   7.082 -0.2745 -0.4417  0.0813
 3671SOL     OW22474   1.101   3.473   5.743  0.1935 -0.1781  0.1176
 3671SOL    HW122475   1.121   3.386   5.709  1.1015  0.0841 -0.0084
 3671SOL    HW222476   1.167   3.521   5.693 -1.4122  0.8270 -1.0248
 3672SOL     OW22477   3.981   2.162  13.379 -0.3557 -0.6821 -0.2405
 3672SOL    HW122478   3.902   2.197  13.339  1.0899  3.6838  0.7222
 3672SOL    HW222479   3.985   2.215  13.459 -1.4199 -1.6834  0.4770
 3673SOL     OW22480   0.422   2.224   5.953 -0.3035 -0.2596  0.8812
 3673SOL    HW122481   0.338   2.257   5.921 -0.4372  0.0363  1.5216
 3673SOL    HW222482   0.433   2.150   5.893 -1.1743 -0.8034  1.3875
 3674SOL     OW22483   2.696   1.085   1.552  0.5235 -0.3579  0.6921
 3674SOL    HW122484   2.646   1.129   1.620 -1.6113  0.9466 -1.7378
 3674SOL    HW222485   2.685   0.994   1.581  0.3381 -0.9327 -1.1372
 3675SOL     OW22486   2.612   0.275  16.663  0.4005  0.2916 -0.2340
 3675SOL    HW122487   2.542   0.301  16.722  1.4384 -1.7972  1.9832
 3675SOL    HW222488   2.629   0.184  16.688  3.1264  0.7423 -0.3527
 3676SOL     OW22489   1.335   4.559  16.197 -0.2132 -0.5297 -0.2877
 3676SOL    HW122490   1.321   4.465  16.200 -2.1178 -0.2387  0.0423
 3676SOL    HW222491   1.338   4.587  16.289  1.2423 -1.9212  0.0908
 3677SOL     OW22492   1.246   3.547   2.380 -0.2534 -0.3722 -0.4526
 3677SOL    HW122493   1.275   3.560   2.290 -1.5650  2.4741 -0.4752
 3677SOL    HW222494   1.281   3.458   2.385  0.4245 -0.0690  0.1882
 3678SOL     OW22495   4.207   0.872   0.756  0.0152 -0.2655 -0.7418
 3678SOL    HW122496   4.176   0.802   0.698 -0.1182 -0.8648  0.0475
 3678SOL    HW222497   4.250   0.938   0.702 -1.5018 -0.8575 -2.6689
 3679SOL     OW22498   0.175   4.341   6.458 -0.0223  0.2391 -0.0788
 3679SOL    HW122499   0.227   4.420   6.447  0.3932  0.4521  3.4684
 3679SOL    HW222500   0.206   4.309   6.542 -0.2964  0.7844  0.2229
 3680SOL     OW22501   4.226   0.836   4.627  0.5200  0.2783  0.5480
 3680SOL    HW122502   4.310   0.877   4.607 -1.2208  2.3017 -2.7088
 3680SOL    HW222503   4.180   0.830   4.543 -0.0108 -1.3765  0.9478
 3681SOL     OW22504   4.667   1.466   3.905  0.3251 -0.1998 -0.0903
 3681SOL    HW122505   4.621   1.549   3.916  1.7780  0.5224  0.5994
 3681SOL    HW222506   0.001   1.489   3.833  1.2601  0.2272  0.7994
 3682SOL     OW22507   1.069   2.056   4.643  0.1739  0.2917 -0.0237
 3682SOL    HW122508   1.155   2.084   4.613 -0.0285  1.9038  0.8844
 3682SOL    HW222509   1.091   1.975   4.689  0.4076  0.1997 -0.3026
 3683SOL     OW22510   3.971   0.121   9.017 -0.2617  0.1889 -0.1440
 3683SOL    HW122511   3.986   0.215   9.020  0.5458  0.1092 -2.0772
 3683SOL    HW222512   3.891   0.118   9.070  0.7100 -0.6608  1.2923
 3684SOL     OW22513   0.970   3.033  15.256 -0.0212  0.1859  0.4162
 3684SOL    HW122514   0.997   3.009  15.345 -0.2351 -1.7335 -0.0267
 3684SOL    HW222515   0.961   2.948  15.212  1.7470 -0.5337  1.4752
 3685SOL     OW22516   3.542   1.818  14.732  0.7266  0.0116  0.0270
 3685SOL    HW122517   3.580   1.755  14.793  0.4756 -0.3543 -0.1934
 3685SOL    HW222518   3.610   1.833  14.666  0.0719 -1.4561 -0.9883
 3686SOL     OW22519   1.331   0.685   4.365 -0.1374 -0.2118  0.3048
 3686SOL    HW122520   1.263   0.689   4.433 -0.1786  0.5559  0.2280
 3686SOL    HW222521   1.300   0.614   4.310  0.8308 -0.5489  0.2054
 3687SOL     OW22522   2.034   3.859   1.385  0.2474 -0.0084 -0.2322
 3687SOL    HW122523   2.097   3.813   1.330 -2.4607 -2.1481 -1.5530
 3687SOL    HW222524   2.032   3.945   1.344 -0.6027  0.9082  1.6991
 3688SOL     OW22525   3.526   1.483   7.538  0.1349 -0.6909 -0.5104
 3688SOL    HW122526   3.496   1.528   7.617 -2.2674 -1.9058 -0.7545
 3688SOL    HW222527   3.501   1.549   7.474  0.2646 -2.1442 -2.0510
 3689SOL     OW22528   4.118   4.500   3.783  0.3211 -0.0088  0.3290
 3689SOL    HW122529   4.145   4.589   3.807 -0.4358  0.7866 -1.7261
 3689SOL    HW222530   4.159   4.495   3.696  1.4286 -3.5276  1.0571
 3690SOL     OW22531   3.772   2.901  15.722  0.2065 -0.4403 -0.5198
 3690SOL    HW122532   3.735   2.892  15.635  0.8170  0.1433 -0.8432
 3690SOL    HW222533   3.701   2.918  15.783  0.5729  1.5255 -0.6426
 3691SOL     OW22534   0.603   0.897   0.302  0.4398 -0.1454  0.2315
 3691SOL    HW122535   0.566   0.809   0.299  0.3641 -0.1076  0.0588
 3691SOL    HW222536   0.691   0.860   0.307  0.2474 -0.5037  1.0047
 3692SOL     OW22537   1.471   2.100  12.092  0.8053 -0.1810 -0.0713
 3692SOL    HW122538   1.494   2.148  12.013 -1.3272 -1.8464 -1.6884
 3692SOL    HW222539   1.539   2.117  12.157  0.7144 -0.3418  0.0650
 3693SOL     OW22540   1.922   4.124   8.738  0.6200  0.5304  0.4981
 3693SOL    HW122541   1.947   4.174   8.815  0.6615 -1.8116  1.9997
 3693SOL    HW222542   1.909   4.187   8.667  1.3571 -0.2960 -0.3782
 3694SOL     OW22543   0.823   3.482  16.365  0.2129  0.1313 -0.0009
 3694SOL    HW122544   0.906   3.497  16.320  1.5267 -1.1503  1.9992
 3694SOL    HW222545   0.808   3.559  16.419 -1.4425 -2.4566  3.2062
 3695SOL     OW22546   3.413   2.014  10.326 -0.4250 -0.1207 -0.4452
 3695SOL    HW122547   3.342   1.965  10.366 -0.1987 -1.4847 -1.6971
 3695SOL    HW222548   3.372   2.097  10.302  1.1584  1.3538  1.9718
 3696SOL     OW22549   2.719   2.227   3.889  0.4775 -0.0423  0.2408
 3696SOL    HW122550   2.682   2.216   3.801 -0.1464 -0.8650  0.6135
 3696SOL    HW222551   2.711   2.323   3.893 -1.1051 -0.0987 -1.2462
 3697SOL     OW22552   1.460   2.628   2.380  0.2689  0.6051 -0.1415
 3697SOL    HW122553   1.440   2.536   2.399 -0.6170  0.9968  0.8791
 3697SOL    HW222554   1.451   2.654   2.472 -1.6084 -3.8121  0.9288
 3698SOL     OW22555   4.226   4.056  17.537 -0.1300  0.3365 -0.3572
 3698SOL    HW122556   4.174   4.000  17.593 -0.8697  0.0540 -1.3322
 3698SOL    HW222557   4.275   4.106  17.603 -1.3193 -0.6476  1.2582
 3699SOL     OW22558   0.192   1.314   3.185 -0.0397 -0.0267 -0.3236
 3699SOL    HW122559   0.166   1.372   3.113  0.2045 -0.3101 -0.6439
 3699SOL    HW222560   0.255   1.263   3.133  2.2638  2.1036  0.3951
 3700SOL     OW22561   2.576   2.215   4.945  0.8553 -0.4219  0.2483
 3700SOL    HW122562   2.501   2.228   4.887  0.1546  2.2330  1.7553
 3700SOL    HW222563   2.551   2.273   5.017  1.5248 -1.0564  0.9928
 3701SOL     OW22564   2.836   1.607   5.484 -0.1212 -0.2159 -0.4299
 3701SOL    HW122565   2.744   1.628   5.501  0.2257  0.6242  0.4056
 3701SOL    HW222566   2.883   1.648   5.557 -0.8779 -0.9623  0.4772
 3702SOL     OW22567   0.546   0.745   7.697  0.3986 -0.6059 -0.0238
 3702SOL    HW122568   0.546   0.684   7.623  1.3458 -0.2114 -0.3476
 3702SOL    HW222569   0.600   0.815   7.660 -0.3556  0.4933  0.9679
 3703SOL     OW22570   1.209   2.105  14.851  0.1306  0.2895  1.1216
 3703SOL    HW122571   1.183   2.057  14.772  0.8340  1.3236  0.2715
 3703SOL    HW222572   1.175   2.194  14.842  0.0027  0.0634 -0.5975
 3704SOL     OW22573   0.420   3.374   3.853  0.6269  0.2229 -0.2722
 3704SOL    HW122574   0.334   3.338   3.830  0.7722  1.8098 -3.1939
 3704SOL    HW222575   0.448   3.421   3.775 -0.1415  1.5343  0.2407
 3705SOL     OW22576   4.435   1.072  11.998 -0.0843 -0.3157  0.0857
 3705SOL    HW122577   4.473   0.988  11.972 -1.2326 -0.2980 -1.6680
 3705SOL    HW222578   4.507   1.108  12.049  0.4874  0.9931 -1.6744
 3706SOL     OW22579   3.784   3.147   8.261  0.2686  0.5280  0.4675
 3706SOL    HW122580   3.817   3.224   8.215  1.7238  0.1287  0.8612
 3706SOL    HW222581   3.755   3.187   8.343 -0.5558 -0.5817  0.7241
 3707SOL     OW22582   4.577   1.724   5.809  0.0610 -0.7326 -0.5841
 3707SOL    HW122583   4.508   1.687   5.754 -0.5467 -2.4475  1.3690
 3707SOL    HW222584   4.544   1.680   5.887 -1.1737  2.0127  0.4353
 3708SOL     OW22585   3.068   3.435   3.786  0.3903  0.3005  0.3979
 3708SOL    HW122586   3.084   3.392   3.870 -0.0809 -0.7353 -0.0368
 3708SOL    HW222587   3.025   3.515   3.815  2.4476  0.9998  1.5640
 3709SOL     OW22588   4.145   2.602   4.121 -0.0009 -0.1009 -0.8028
 3709SOL    HW122589   4.106   2.589   4.034 -1.5480 -0.8043 -0.0069
 3709SOL    HW222590   4.168   2.694   4.109 -0.8339  0.2186  0.1282
 3710SOL     OW22591   2.567   2.322   0.743 -0.7243  0.4975 -0.1568
 3710SOL    HW122592   2.578   2.256   0.675 -0.9306 -0.4555  0.7460
 3710SOL    HW222593   2.542   2.401   0.693  1.8206  1.1449 -0.3942
 3711SOL     OW22594   2.351   2.092   7.934 -0.8748 -0.0717 -0.5800
 3711SOL    HW122595   2.313   2.180   7.928  0.3120  0.5836  1.4173
 3711SOL    HW222596   2.276   2.042   7.904 -1.7017 -0.6787  2.5164
 3712SOL     OW22597   3.117   2.661  13.130  0.3304 -0.0780 -0.5916
 3712SOL    HW122598   3.034   2.681  13.173  1.6144 -0.5121  2.0712
 3712SOL    HW222599   3.173   2.645  13.207 -0.2211  0.3411 -0.1074
 3713SOL     OW22600   4.609   1.369  15.747 -0.0524  0.4060  0.6303
 3713SOL    HW122601   4.538   1.331  15.695  0.7541  2.2435 -1.8106
 3713SOL    HW222602   4.624   1.296  15.807 -0.5370  0.8385  1.2766
 3714SOL     OW22603   1.220   3.216   3.890  0.0073  0.2204  0.1643
 3714SOL    HW122604   1.201   3.129   3.924  1.1421 -0.9918 -2.3066
 3714SOL    HW222605   1.200   3.204   3.797  0.4243  0.4423  0.0449
 3715SOL     OW22606   2.992   4.699   6.174  0.2743 -0.5634  0.6259
 3715SOL    HW122607   3.071   0.022   6.150 -0.5981  0.5688  0.0215
 3715SOL    HW222608   3.029   4.613   6.194 -0.3802 -1.4475 -2.0395
 3716SOL     OW22609   3.109   2.517   8.572 -0.2136  0.1885  0.9165
 3716SOL    HW122610   3.131   2.538   8.662  0.8265  1.1567  0.4355
 3716SOL    HW222611   3.156   2.435   8.557 -2.1748 -1.1677  2.2066
 3717SOL     OW22612   3.682   1.437   6.268  0.3141  0.1640  0.0810
 3717SOL    HW122613   3.684   1.526   6.234  1.7642  0.1176  0.0438
 3717SOL    HW222614   3.646   1.442   6.357 -1.2534  0.8603 -0.6042
 3718SOL     OW22615   0.262   2.127   5.043  0.0209  0.1537 -0.2873
 3718SOL    HW122616   0.223   2.214   5.048 -1.6286 -0.6347  0.4626
 3718SOL    HW222617   0.333   2.142   4.980  0.7559 -0.7411  0.3170
 3719SOL     OW22618   1.862   2.336  14.611 -0.1484  0.8836 -0.2716
 3719SOL    HW122619   1.810   2.393  14.667  0.9763  1.4582  0.1930
 3719SOL    HW222620   1.823   2.250  14.627  1.1750  0.3846  0.2923
 3720SOL     OW22621   2.112   0.525   4.542  0.6446 -0.2995 -0.0314
 3720SOL    HW122622   2.107   0.474   4.623  1.9499  0.4179  0.5036
 3720SOL    HW222623   2.202   0.504   4.519  0.5043 -0.1261 -0.7364
 3721SOL     OW22624   3.320   1.902   2.700  0.2797 -0.3373 -0.3107
 3721SOL    HW122625   3.403   1.860   2.676  1.0819  1.7817 -1.2691
 3721SOL    HW222626   3.349   1.988   2.733  1.9626 -0.9010 -0.3024
 3722SOL     OW22627   4.548   0.529   6.149  0.1109 -0.2698 -0.0651
 3722SOL    HW122628   4.481   0.463   6.165  0.8186 -1.1648 -0.7825
 3722SOL    HW222629   4.609   0.479   6.095  1.8726  0.9117  0.8025
 3723SOL     OW22630   1.995   4.530  14.453 -0.0125  0.0632 -0.4113
 3723SOL    HW122631   2.088   4.511  14.461 -0.3306 -1.3258 -0.0562
 3723SOL    HW222632   1.983   4.608  14.508  0.8423 -1.0878  1.3959
 3724SOL     OW22633   0.550   0.062   4.950 -0.1868 -0.5572  0.1145
 3724SOL    HW122634   0.497   0.086   4.874 -1.3060 -1.3072  0.6623
 3724SOL    HW222635   0.598   4.707   4.929 -1.1247 -1.2576  0.5945
 3725SOL     OW22636   2.444   0.545   6.062 -0.3490 -0.3710 -0.4247
 3725SOL    HW122637   2.510   0.576   6.124 -0.6580 -1.1217  0.2730
 3725SOL    HW222638   2.414   0.630   6.029  1.7600  0.7757  0.6183
 3726SOL     OW22639   0.324   4.639   5.215  0.0883 -0.4957  0.2270
 3726SOL    HW122640   0.257   4.582   5.178 -1.4473  1.3557  0.1550
 3726SOL    HW222641   0.401   4.632   5.158  0.1389  1.2588  0.0556
 3727SOL     OW22642   4.535   3.603  14.988 -0.2733  0.5620  0.6671
 3727SOL    HW122643   4.456   3.641  14.948  0.4696  0.0900 -1.2610
 3727SOL    HW222644   4.577   3.683  15.018  2.0106 -0.8385  1.1170
 3728SOL     OW22645   3.086   3.259   3.026 -0.0503 -0.1879 -0.0127
 3728SOL    HW122646   3.175   3.277   2.997  0.5383  1.1344  2.6493
 3728SOL    HW222647   3.093   3.193   3.095  1.0220 -1.4119 -1.3003
 3729SOL     OW22648   0.483   4.227   8.296  0.3972  0.3701  0.5902
 3729SOL    HW122649   0.561   4.176   8.315  0.1084 -1.0104 -1.9640
 3729SOL    HW222650   0.424   4.205   8.368  0.8720 -1.2614  0.4677
 3730SOL     OW22651   1.268   1.837   1.649  0.0124 -0.2637  0.3611
 3730SOL    HW122652   1.211   1.816   1.723  0.2036 -2.0200  0.0104
 3730SOL    HW222653   1.203   1.843   1.580  1.7188  0.7053 -1.1607
 3731SOL     OW22654   2.892   4.421  13.940  0.4344  1.1229  0.6818
 3731SOL    HW122655   2.905   4.435  14.034  0.5041  1.4455  0.6247
 3731SOL    HW222656   2.900   4.326  13.934 -1.6293  0.9906 -0.1201
 3732SOL     OW22657   2.467   0.818   1.275 -0.3954 -0.0952 -0.1870
 3732SOL    HW122658   2.528   0.891   1.259 -0.7117 -0.2352 -2.0306
 3732SOL    HW222659   2.417   0.845   1.352 -0.0215  0.5731 -0.1705
 3733SOL     OW22660   3.613   3.838   7.771  0.2772 -0.1313  0.3885
 3733SOL    HW122661   3.535   3.866   7.723  0.3781  0.8943  0.8199
 3733SOL    HW222662   3.656   3.923   7.780 -0.8743  0.4471  0.4595
 3734SOL     OW22663   0.950   1.006   3.345 -0.3794 -0.4302  0.3095
 3734SOL    HW122664   1.035   1.038   3.316 -1.2853  0.4832 -1.3921
 3734SOL    HW222665   0.949   0.914   3.319 -0.0577 -0.5292  0.6510
 3735SOL     OW22666   0.766   3.748   3.154 -0.3279  0.2188  0.0043
 3735SOL    HW122667   0.687   3.799   3.173 -1.8863 -2.4193  0.6614
 3735SOL    HW222668   0.832   3.807   3.191  0.5473 -1.5160  1.1830
 3736SOL     OW22669   3.124   2.948  11.110 -0.4316 -0.2474  0.1963
 3736SOL    HW122670   3.049   2.892  11.127 -1.4547  1.3205  0.7678
 3736SOL    HW222671   3.193   2.884  11.092  1.3536  1.0591  2.3879
 3737SOL     OW22672   3.085   2.131  13.003  0.3301 -0.3333  1.0029
 3737SOL    HW122673   2.999   2.115  12.962  0.6487  2.3538 -0.7143
 3737SOL    HW222674   3.073   2.224  13.017  0.8161  0.1306 -1.5593
 3738SOL     OW22675   0.169   0.001   4.444  0.1930  0.2628 -0.0296
 3738SOL    HW122676   0.088   4.687   4.477 -0.2688  2.0164  0.8599
 3738SOL    HW222677   0.194   4.667   4.372 -0.4578  0.4145 -0.3794
 3739SOL     OW22678   1.718   2.594   7.786 -0.0190 -0.9284  0.1965
 3739SOL    HW122679   1.804   2.612   7.748  0.6643 -2.3862  1.0565
 3739SOL    HW222680   1.673   2.610   7.703 -2.0303 -4.0543  0.7018
 3740SOL     OW22681   2.901   0.636   8.525  0.1246  0.1008 -0.2423
 3740SOL    HW122682   2.986   0.645   8.483 -0.0843 -2.3360 -1.1990
 3740SOL    HW222683   2.899   0.541   8.510  0.0295 -0.0623  0.8211
 3741SOL     OW22684   2.617   1.841   4.701 -0.1119  0.5878 -0.0686
 3741SOL    HW122685   2.598   1.916   4.644  1.1186  0.7426 -0.2896
 3741SOL    HW222686   2.571   1.771   4.656 -1.1098 -1.3666  4.0920
 3742SOL     OW22687   1.799   1.153   6.891 -0.6242  0.2150 -0.2852
 3742SOL    HW122688   1.829   1.089   6.956  0.3117  0.1888 -0.7446
 3742SOL    HW222689   1.853   1.131   6.815 -2.2702 -0.0459 -1.3995
 3743SOL     OW22690   2.057   0.654   3.144 -1.0777  0.4375 -0.3284
 3743SOL    HW122691   2.148   0.624   3.149 -1.2943 -0.3204 -0.9507
 3743SOL    HW222692   2.029   0.639   3.234 -0.7745  1.9021  0.0191
 3744SOL     OW22693   1.003   4.555   4.970  0.2057 -0.6625  0.1738
 3744SOL    HW122694   0.928   4.598   5.011 -0.3519  2.3898 -4.0154
 3744SOL    HW222695   0.958   4.503   4.904  0.9929 -0.4814 -0.5106
 3745SOL     OW22696   3.452   0.398  11.856  0.0073 -0.4531 -0.5064
 3745SOL    HW122697   3.543   0.424  11.842 -0.2841  0.1444 -1.2911
 3745SOL    HW222698   3.417   0.487  11.856  1.0927 -0.0313 -1.7299
 3746SOL     OW22699   2.296   0.445   4.744 -0.2966 -0.0678  0.1113
 3746SOL    HW122700   2.322   0.449   4.652  0.9730 -0.3779  0.4503
 3746SOL    HW222701   2.356   0.499   4.796  0.2571 -0.4035 -0.1874
 3747SOL     OW22702   3.567   0.394  11.247 -0.3085 -0.1182 -0.3802
 3747SOL    HW122703   3.503   0.454  11.286  2.2535  2.1104  0.3767
 3747SOL    HW222704   3.508   0.330  11.207  0.4234  0.2298 -2.0144
 3748SOL     OW22705   0.067   4.175  16.696 -0.3647 -0.5285 -0.2345
 3748SOL    HW122706   0.001   4.130  16.644  0.5374 -1.1388 -0.8545
 3748SOL    HW222707   0.023   4.188  16.780  3.2187  0.3998  1.5015
 3749SOL     OW22708   0.408   1.343   7.829  0.5632 -0.2903 -0.0170
 3749SOL    HW122709   0.438   1.261   7.866  0.0217 -1.5285 -2.3065
 3749SOL    HW222710   0.327   1.348   7.879 -0.1738 -0.3282 -1.1865
 3750SOL     OW22711   3.754   2.994   8.033  0.0662  0.5062  0.0848
 3750SOL    HW122712   3.829   2.936   8.044  0.4042  0.9982  0.3379
 3750SOL    HW222713   3.773   3.045   8.111 -0.3426  2.1513 -0.8842
 3751SOL     OW22714   4.185   2.320   9.223 -0.2363  0.2233 -0.5182
 3751SOL    HW122715   4.166   2.282   9.137  1.1566 -0.4619 -0.5310
 3751SOL    HW222716   4.214   2.407   9.195 -2.1046  0.9239 -0.2358
 3752SOL     OW22717   0.470   3.695   8.409 -0.2035  0.0318 -0.3278
 3752SOL    HW122718   0.550   3.657   8.446 -0.1516  0.4898  0.0201
 3752SOL    HW222719   0.507   3.776   8.376  0.8399 -0.0556  0.5948
 3753SOL     OW22720   0.013   4.253   4.315 -0.2362  0.3285 -0.2981
 3753SOL    HW122721   4.673   4.286   4.253  0.4544  3.0737  0.4462
 3753SOL    HW222722   0.074   4.218   4.250  3.9238  2.3855  2.4847
 3754SOL     OW22723   0.178   2.425  13.770  0.1392 -0.6852  0.9053
 3754SOL    HW122724   0.181   2.330  13.781  2.0233 -0.4743  2.3256
 3754SOL    HW222725   0.092   2.418  13.728 -0.2111  0.2655  1.4682
 3755SOL     OW22726   3.740   2.659  16.251 -0.1348 -0.1927  0.2301
 3755SOL    HW122727   3.697   2.683  16.169 -2.1881 -3.0646  0.4906
 3755SOL    HW222728   3.693   2.585  16.289 -3.0343  1.7302  0.4412
 3756SOL     OW22729   4.163   4.081   8.716  0.4292  0.0365 -1.0865
 3756SOL    HW122730   4.083   4.133   8.708  0.1916 -0.1498  0.0757
 3756SOL    HW222731   4.164   4.052   8.808 -1.4292 -1.7538 -1.6483
 3757SOL     OW22732   4.071   4.699  11.530 -0.3553  0.1124 -0.6378
 3757SOL    HW122733   4.104   4.709  11.441 -0.4486 -1.1116 -0.8068
 3757SOL    HW222734   3.992   4.646  11.515  0.4163 -1.0480 -0.5675
 3758SOL     OW22735   2.121   2.603  13.724  0.1780  0.4999  0.2854
 3758SOL    HW122736   2.109   2.549  13.802 -1.1161 -0.3287 -0.4949
 3758SOL    HW222737   2.064   2.571  13.653  1.6877 -0.8586 -0.3247
 3759SOL     OW22738   4.714   4.368   2.251 -0.0224 -0.1137  0.1403
 3759SOL    HW122739   4.694   4.458   2.279  0.1500 -0.8025  2.4401
 3759SOL    HW222740   4.688   4.378   2.159  0.5823 -1.0541 -0.1311
 3760SOL     OW22741   3.610   0.462   6.967  0.4524 -0.8013 -0.5445
 3760SOL    HW122742   3.659   0.544   6.962 -0.1144 -0.4669 -0.6918
 3760SOL    HW222743   3.525   0.493   6.998  1.7457  1.4991  0.6662
 3761SOL     OW22744   3.599   3.347  15.267  0.3918  0.3562 -0.2279
 3761SOL    HW122745   3.518   3.334  15.317  0.6734  1.0990  0.4371
 3761SOL    HW222746   3.598   3.273  15.207 -1.4633 -0.0548  0.2883
 3762SOL     OW22747   0.707   2.854   3.149  0.0526 -0.1409 -0.3630
 3762SOL    HW122748   0.716   2.759   3.163  1.2783  0.3106  1.8624
 3762SOL    HW222749   0.760   2.886   3.222 -1.0480 -0.1591  0.4369
 3763SOL     OW22750   2.172   0.498   5.766  0.5200 -0.5227  0.3449
 3763SOL    HW122751   2.088   0.454   5.756 -0.0955  0.8682 -0.6152
 3763SOL    HW222752   2.214   0.440   5.829  1.0585 -0.2275  0.2607
 3764SOL     OW22753   3.987   4.670   3.002  0.3163 -0.5753 -0.5860
 3764SOL    HW122754   3.994   0.028   2.954 -0.0303  0.0220  0.4049
 3764SOL    HW222755   3.992   4.605   2.932  0.5097 -1.0217 -0.1528
 3765SOL     OW22756   0.607   3.443   6.285  0.1755  0.1116  0.0769
 3765SOL    HW122757   0.546   3.499   6.334 -0.3342 -1.3209  1.0914
 3765SOL    HW222758   0.548   3.372   6.261  0.4388  0.3960 -1.3972
 3766SOL     OW22759   0.040   2.266   0.758  0.3673 -0.0233  0.4493
 3766SOL    HW122760   4.702   2.296   0.692 -0.3329  0.9418  1.5567
 3766SOL    HW222761   0.043   2.337   0.822  0.8686 -0.8781  1.3577
 3767SOL     OW22762   1.554   1.680   3.668  0.0794  0.2600  0.4258
 3767SOL    HW122763   1.494   1.755   3.667  2.0244  1.8432  1.8068
 3767SOL    HW222764   1.598   1.684   3.583 -1.1175  0.6380 -0.1799
 3768SOL     OW22765   3.116   3.692   8.845 -0.1635 -0.3017  0.0416
 3768SOL    HW122766   3.100   3.752   8.918 -0.8706  0.5803 -0.8334
 3768SOL    HW222767   3.192   3.640   8.870  0.3188  0.3240 -0.1311
 3769SOL     OW22768   0.462   0.532   5.734  0.5327 -0.1890 -0.1462
 3769SOL    HW122769   0.540   0.478   5.717  0.0348 -0.8002 -0.5059
 3769SOL    HW222770   0.500   0.601   5.788  0.3495 -1.4487  1.6060
 3770SOL     OW22771   2.798   4.403   1.200  0.1634  0.0467  0.8548
 3770SOL    HW122772   2.802   4.308   1.209 -0.1969 -0.0444  0.0109
 3770SOL    HW222773   2.827   4.423   1.111 -2.4615  1.5583  0.3398
 3771SOL     OW22774   3.381   3.156   0.786 -0.7383  0.5888  0.4770
 3771SOL    HW122775   3.357   3.239   0.828  1.6850  1.1155  0.8043
 3771SOL    HW222776   3.471   3.151   0.818 -0.5675 -1.8668 -0.3680
 3772SOL     OW22777   3.253   1.530  14.169 -0.5046 -0.2911 -0.6876
 3772SOL    HW122778   3.340   1.552  14.202 -1.2334 -1.5285  2.0695
 3772SOL    HW222779   3.250   1.611  14.119  1.1385  0.8823  1.1056
 3773SOL     OW22780   0.317   4.352  14.905  0.4630 -0.2721 -0.0609
 3773SOL    HW122781   0.279   4.264  14.904  1.8931 -0.8975 -0.6677
 3773SOL    HW222782   0.400   4.322  14.867  1.2841  1.0155  0.6929
 3774SOL     OW22783   0.506   2.536   0.946 -0.3129  0.1738  0.4640
 3774SOL    HW122784   0.417   2.556   0.917  0.0649 -0.8169 -1.3751
 3774SOL    HW222785   0.498   2.552   1.039 -0.2843 -0.1776  0.5283
 3775SOL     OW22786   1.642   3.027   6.227  0.5062 -0.2119 -0.4952
 3775SOL    HW122787   1.720   3.021   6.282 -0.9076 -2.5833  1.2358
 3775SOL    HW222788   1.632   3.120   6.207  1.6576  0.5821  2.6435
 3776SOL     OW22789   2.644   2.435  12.938 -0.3737  0.6498 -0.0318
 3776SOL    HW122790   2.688   2.385  13.007 -1.9355  0.0684  0.5576
 3776SOL    HW222791   2.555   2.426  12.975 -0.3868 -3.5156 -1.0929
 3777SOL     OW22792   0.260   2.301   8.078 -0.5560  0.2259  0.6148
 3777SOL    HW122793   0.327   2.349   8.126 -1.7147 -0.1069  2.5844
 3777SOL    HW222794   0.308   2.218   8.074 -1.1227 -0.0999  0.5874
 3778SOL     OW22795   0.533   0.108   2.125 -0.1876 -0.2495 -0.4714
 3778SOL    HW122796   0.533   0.042   2.057 -1.2194 -0.8893  0.1544
 3778SOL    HW222797   0.555   0.052   2.200  2.9956 -1.0601 -2.0158
 3779SOL     OW22798   2.864   4.034   5.307 -0.5035 -0.1667  0.4743
 3779SOL    HW122799   2.827   3.975   5.241 -0.1990 -0.4493  0.5604
 3779SOL    HW222800   2.870   4.113   5.253  1.0287 -0.7407 -0.1873
 3780SOL     OW22801   3.935   0.951   9.711 -0.5273 -0.0949  0.2877
 3780SOL    HW122802   4.015   0.967   9.762 -0.6920 -0.8118  0.7724
 3780SOL    HW222803   3.862   0.971   9.770 -1.1153  1.9238 -1.1424
 3781SOL     OW22804   0.657   2.086   7.396 -0.6247  0.2416  0.2731
 3781SOL    HW122805   0.626   2.030   7.466 -0.1743  0.3270  0.5376
 3781SOL    HW222806   0.698   2.018   7.343 -0.9545 -0.0090  0.3391
 3782SOL     OW22807   0.792   0.741   4.964 -0.4677 -0.1162  0.6134
 3782SOL    HW122808   0.763   0.708   5.049  0.0028 -1.1592  0.3789
 3782SOL    HW222809   0.707   0.758   4.924  0.4464  0.8880 -0.8743
 3783SOL     OW22810   1.439   1.586   8.163  0.3301 -0.1034 -0.0535
 3783SOL    HW122811   1.535   1.591   8.156  0.1859 -0.1830 -2.0024
 3783SOL    HW222812   1.415   1.597   8.071  0.6527 -1.5892 -0.3138
 3784SOL     OW22813   3.851   1.528   1.918  0.0672  0.1899  0.5427
 3784SOL    HW122814   3.815   1.538   1.829  0.2594  1.4819  0.6202
 3784SOL    HW222815   3.942   1.538   1.891 -0.6815  1.9748 -1.3071
 3785SOL     OW22816   3.921   2.939   0.784 -0.2760  0.0890 -0.3071
 3785SOL    HW122817   3.948   2.958   0.874  0.6194 -0.1276 -0.5301
 3785SOL    HW222818   4.006   2.934   0.740 -0.7717  0.2789 -1.2837
 3786SOL     OW22819   0.333   4.715   7.078  0.0324  0.2844  0.2892
 3786SOL    HW122820   0.275   0.047   7.128 -1.4037 -0.5762 -0.4129
 3786SOL    HW222821   0.269   4.697   7.010  0.1057  1.4149 -0.0767
 3787SOL     OW22822   4.558   2.639   5.746  0.2433  0.3297  0.2879
 3787SOL    HW122823   4.517   2.726   5.750 -1.3899 -0.4470  0.6397
 3787SOL    HW222824   4.651   2.654   5.761  0.0846  1.1460  0.4760
 3788SOL     OW22825   3.577   3.642  16.682  0.5574  0.2339 -0.0165
 3788SOL    HW122826   3.509   3.699  16.718  0.8252  0.2627  0.4404
 3788SOL    HW222827   3.642   3.651  16.752  0.2197  0.9418  0.2045
 3789SOL     OW22828   2.187   2.792  13.169  0.4478 -0.1026  0.1496
 3789SOL    HW122829   2.101   2.765  13.137 -0.1775  1.3613  0.5890
 3789SOL    HW222830   2.207   2.848  13.095 -0.6498  0.4468  0.2610
 3790SOL     OW22831   0.065   1.171   8.619 -0.5303  0.7283 -0.4934
 3790SOL    HW122832   0.035   1.210   8.701 -0.0522  1.9471 -0.8955
 3790SOL    HW222833   4.713   1.175   8.562 -1.0656  1.7210  0.3099
 3791SOL     OW22834   0.180   1.009   9.155 -0.1108  0.1338  0.4133
 3791SOL    HW122835   0.261   0.958   9.159 -1.2408 -1.6397  0.7032
 3791SOL    HW222836   0.185   1.047   9.067 -3.9795  0.7501  0.4513
 3792SOL     OW22837   0.880   1.355   3.183  0.1352 -0.3087 -0.0828
 3792SOL    HW122838   0.898   1.427   3.242  1.8329 -1.0437  0.2991
 3792SOL    HW222839   0.797   1.383   3.145  1.1015  1.4671 -0.8829
 3793SOL     OW22840   1.084   1.007  11.711 -0.4954 -0.2825 -0.0323
 3793SOL    HW122841   1.100   0.951  11.787  0.2228  0.3532  0.2754
 3793SOL    HW222842   1.156   1.068  11.720 -2.8937  2.5499  0.0465
 3794SOL     OW22843   2.520   0.753   8.951 -0.8275 -0.0118  0.1106
 3794SOL    HW122844   2.434   0.717   8.932 -0.0392 -1.6050 -0.5369
 3794SOL    HW222845   2.513   0.820   9.018 -0.0473 -0.7559  0.9469
 3795SOL     OW22846   2.014   4.669   5.854  0.6668  0.5286  0.1790
 3795SOL    HW122847   1.982   4.616   5.927 -2.0028  0.9288 -0.7144
 3795SOL    HW222848   2.104   4.683   5.882  0.9040 -0.6134 -0.0026
 3796SOL     OW22849   4.260   1.568  15.994 -0.5914  0.0193 -0.1153
 3796SOL    HW122850   4.268   1.619  16.075  0.1329  0.5572 -0.5248
 3796SOL    HW222851   4.345   1.524  15.995 -2.0340 -2.7415 -0.9710
 3797SOL     OW22852   1.944   2.129   4.094 -0.0807 -0.7046  0.4232
 3797SOL    HW122853   1.912   2.057   4.039 -0.7594  1.7803 -2.4457
 3797SOL    HW222854   1.861   2.175   4.106  0.3306  0.2797 -0.4149
 3798SOL     OW22855   4.211   3.182   4.994  0.2539  0.3309 -0.1373
 3798SOL    HW122856   4.223   3.217   4.906  2.5896  0.2967  0.1689
 3798SOL    HW222857   4.172   3.096   4.977 -1.9287  1.3553 -0.3358
 3799SOL     OW22858   2.890   3.009   1.622 -0.5321 -0.0312 -0.3735
 3799SOL    HW122859   2.926   3.089   1.583  1.9693  0.5350  3.0877
 3799SOL    HW222860   2.972   2.969   1.650 -1.0324  0.9783  2.5505
 3800SOL     OW22861   0.951   3.070   8.539 -0.3075 -0.1374  0.6143
 3800SOL    HW122862   0.968   2.998   8.599  1.7145 -0.4882 -0.3991
 3800SOL    HW222863   0.855   3.077   8.546 -0.4330  1.1694 -2.3306
 3801SOL     OW22864   1.952   4.093  11.732  0.1358  0.0528 -0.5938
 3801SOL    HW122865   2.048   4.090  11.737  0.2193  2.7093 -0.5949
 3801SOL    HW222866   1.934   4.114  11.823  1.4440  0.2069 -0.3714
 3802SOL     OW22867   1.892   4.570   2.568 -0.1485  0.7749  0.3058
 3802SOL    HW122868   1.828   4.634   2.535 -0.2566  1.2019  1.3291
 3802SOL    HW222869   1.973   4.619   2.585 -0.4087  0.4282  2.5235
 3803SOL     OW22870   4.448   1.486   3.445  0.4925  0.4391 -0.2765
 3803SOL    HW122871   4.449   1.412   3.384 -0.1596  0.2096 -0.0068
 3803SOL    HW222872   4.532   1.527   3.424  0.6387  0.6884  0.8262
 3804SOL     OW22873   2.292   2.869   9.148 -0.5608 -0.5117  0.1761
 3804SOL    HW122874   2.267   2.958   9.122 -1.7289 -0.8824  0.0279
 3804SOL    HW222875   2.218   2.819   9.115  0.3394 -0.4637 -1.9387
 3805SOL     OW22876   1.598   4.067  14.405  0.4173 -0.0152 -0.3467
 3805SOL    HW122877   1.538   3.996  14.428 -0.8164  1.3993  0.7746
 3805SOL    HW222878   1.543   4.145  14.411 -0.8095 -0.6395 -3.0061
 3806SOL     OW22879   4.270   0.791   7.386 -0.1893 -0.0986 -0.2952
 3806SOL    HW122880   4.359   0.757   7.395 -0.8589 -1.6886  0.2578
 3806SOL    HW222881   4.234   0.728   7.323  0.5131  0.9242 -1.7280
 3807SOL     OW22882   2.133   2.676   2.573 -0.0959  0.6157 -0.4104
 3807SOL    HW122883   2.219   2.688   2.533 -0.9934  2.8827 -1.5882
 3807SOL    HW222884   2.134   2.583   2.598 -0.9531  0.3629 -1.3162
 3808SOL     OW22885   0.689   0.748   2.128  0.2665 -0.2568  0.3571
 3808SOL    HW122886   0.716   0.686   2.061  1.7324 -0.3926  1.0735
 3808SOL    HW222887   0.759   0.744   2.193 -0.9420 -0.9022  1.6257
 3809SOL     OW22888   0.250   2.431  11.820 -0.4700 -0.4063  0.5831
 3809SOL    HW122889   0.174   2.467  11.775  1.5457  1.8617 -1.0339
 3809SOL    HW222890   0.308   2.400  11.750 -1.4894  0.2320 -0.5478
 3810SOL     OW22891   3.376   3.331   6.536 -0.0498  0.5327 -0.1047
 3810SOL    HW122892   3.363   3.299   6.626  0.1510 -0.2763 -0.3600
 3810SOL    HW222893   3.454   3.287   6.503 -0.0027 -0.7115  1.6225
 3811SOL     OW22894   4.245   1.752   9.148 -0.1098 -0.1924 -0.4702
 3811SOL    HW122895   4.323   1.702   9.173  1.2007  1.0249 -2.1029
 3811SOL    HW222896   4.286   1.811   9.085 -1.5153  0.1525 -1.0745
 3812SOL     OW22897   0.805   3.890   3.629 -0.3261  0.6036 -0.5304
 3812SOL    HW122898   0.751   3.935   3.694  1.2696  0.0975  1.1428
 3812SOL    HW222899   0.757   3.808   3.614  2.7714 -1.4324  0.7329
 3813SOL     OW22900   0.304   2.715   9.789  0.4052  0.1267  0.2089
 3813SOL    HW122901   0.243   2.666   9.843  0.6827 -0.2623  0.1684
 3813SOL    HW222902   0.381   2.659   9.800  1.8418  1.9840 -0.3746
 3814SOL     OW22903   0.520   3.820   2.661 -0.1217 -0.9110  0.1710
 3814SOL    HW122904   0.607   3.781   2.655  0.0594 -0.1807 -2.0708
 3814SOL    HW222905   0.490   3.772   2.738 -3.2987 -0.3507 -0.6955
 3815SOL     OW22906   4.501   0.643   3.706 -0.2427 -0.6472  0.5440
 3815SOL    HW122907   4.544   0.724   3.682  0.2260 -0.8839  0.5835
 3815SOL    HW222908   4.445   0.624   3.630  1.4978  1.8980 -1.3258
 3816SOL     OW22909   0.522   1.807   3.870 -0.1071  0.0769  0.1719
 3816SOL    HW122910   0.572   1.764   3.940  0.6827 -1.2002 -1.1646
 3816SOL    HW222911   0.451   1.745   3.855 -0.3067  0.0259  1.3312
 3817SOL     OW22912   4.402   1.808   5.081  0.0399  0.1794  0.1325
 3817SOL    HW122913   4.396   1.715   5.056 -0.9496  0.2465  0.1110
 3817SOL    HW222914   4.352   1.855   5.014  0.3731 -0.0676 -0.2974
 3818SOL     OW22915   0.564   1.471  15.297  0.4623 -0.2289 -0.2821
 3818SOL    HW122916   0.606   1.429  15.222  0.7121  1.0794 -0.8804
 3818SOL    HW222917   0.624   1.486  15.371 -1.2481  1.9689  0.6654
 3819SOL     OW22918   1.798   3.114   6.954 -0.3709  0.0763 -0.0233
 3819SOL    HW122919   1.818   3.093   6.862  2.0807 -0.6027  0.6597
 3819SOL    HW222920   1.704   3.096   6.950  0.0204 -2.2318  0.6741
 3820SOL     OW22921   0.747   0.087   5.454  0.1963 -0.5976  0.4553
 3820SOL    HW122922   0.670   0.143   5.443  0.0464 -0.8653  0.1441
 3820SOL    HW222923   0.707   0.013   5.499 -1.3789  0.4685  0.8006
 3821SOL     OW22924   2.037   0.802  15.413 -0.1349 -0.0577  0.3135
 3821SOL    HW122925   2.005   0.878  15.462 -0.7143 -0.2312  0.1928
 3821SOL    HW222926   1.959   0.747  15.417  0.6571 -1.3080 -1.3623
 3822SOL     OW22927   3.425   2.921  15.864  0.0923  0.1163  0.2899
 3822SOL    HW122928   3.447   2.844  15.812  1.2357  0.0760  0.8375
 3822SOL    HW222929   3.459   2.985  15.802  0.0195 -0.4206 -0.2987
 3823SOL     OW22930   1.627   4.172   7.437 -0.3779 -0.3949  0.2672
 3823SOL    HW122931   1.559   4.114   7.403  0.3043 -0.6821 -0.6042
 3823SOL    HW222932   1.693   4.104   7.454 -0.3044 -0.7888 -1.5912
 3824SOL     OW22933   1.473   1.286   1.855 -0.2963  0.1904  0.0660
 3824SOL    HW122934   1.413   1.228   1.807 -0.3063  2.3384 -2.5573
 3824SOL    HW222935   1.497   1.349   1.787  2.1235 -0.7666  0.0341
 3825SOL     OW22936   2.224   0.855  13.241 -0.1019 -0.5947  0.2677
 3825SOL    HW122937   2.289   0.892  13.182 -0.5691 -0.7995 -0.3888
 3825SOL    HW222938   2.233   0.768  13.203  0.8337 -1.0119  1.4532
 3826SOL     OW22939   1.369   0.420   6.247  0.2704  0.0598 -0.1919
 3826SOL    HW122940   1.327   0.505   6.238 -0.8872 -0.4924 -0.0291
 3826SOL    HW222941   1.341   0.363   6.175 -0.6810  0.6505 -0.2825
 3827SOL     OW22942   3.779   4.651  17.497  0.2194  0.2199 -0.0410
 3827SOL    HW122943   3.829   4.688  17.424  0.1738  0.6726  0.1589
 3827SOL    HW222944   3.836   4.658  17.574 -0.7122  1.4788  0.5278
 3828SOL     OW22945   4.243   1.588   3.231  0.1294 -0.3266 -0.1999
 3828SOL    HW122946   4.299   1.511   3.244 -0.9541 -1.0003  0.4306
 3828SOL    HW222947   4.305   1.655   3.200  0.1956 -0.0128  0.6029
 3829SOL     OW22948   3.541   2.522  16.402 -0.4759 -0.9607  0.4358
 3829SOL    HW122949   3.448   2.522  16.426 -0.4686 -0.9061  0.4664
 3829SOL    HW222950   3.536   2.466  16.325  2.0293  0.3683 -0.6896
 3830SOL     OW22951   0.277   2.832   7.120 -0.1309 -0.4208  0.1893
 3830SOL    HW122952   0.239   2.906   7.167 -1.8219 -0.9740 -0.3343
 3830SOL    HW222953   0.369   2.860   7.123 -0.7500  1.4752  1.6969
 3831SOL     OW22954   2.892   0.917   2.095 -0.0919 -0.4212  0.3769
 3831SOL    HW122955   2.900   0.842   2.037 -0.8686  0.2873 -0.6386
 3831SOL    HW222956   2.975   0.961   2.078 -0.3485  0.6652  1.8501
 3832SOL     OW22957   3.922   2.286   9.333 -0.2429 -0.4392  0.0442
 3832SOL    HW122958   4.006   2.272   9.290 -0.3610 -0.3841 -0.2034
 3832SOL    HW222959   3.936   2.348   9.405  0.5956 -0.8288  0.2202
 3833SOL     OW22960   1.076   2.826   7.574  0.1269  0.2192  0.0071
 3833SOL    HW122961   1.115   2.811   7.488 -0.9241 -0.6358 -0.3202
 3833SOL    HW222962   1.115   2.908   7.602 -0.2756  0.4508 -0.1106
 3834SOL     OW22963   4.583   2.720   8.377  0.0011 -0.3600  0.6130
 3834SOL    HW122964   4.617   2.809   8.388  2.0899 -1.3684  2.3473
 3834SOL    HW222965   4.545   2.724   8.289  2.2106 -1.9556 -0.4162
 3835SOL     OW22966   1.269   3.590   7.016  0.0961 -0.0882  0.4104
 3835SOL    HW122967   1.346   3.646   7.004 -0.4229  0.4721 -0.3826
 3835SOL    HW222968   1.243   3.599   7.107  0.6797 -0.8621  0.6536
 3836SOL     OW22969   1.010   1.188   4.131  0.6135 -0.3282  0.4582
 3836SOL    HW122970   1.013   1.110   4.076  1.7612  1.4177 -1.9398
 3836SOL    HW222971   0.963   1.159   4.210  0.3426 -4.5224 -1.2455
 3837SOL     OW22972   0.648   3.011  10.429 -0.1915 -0.2168 -0.1065
 3837SOL    HW122973   0.654   3.025  10.334 -1.0618 -1.8774 -0.4008
 3837SOL    HW222974   0.567   3.060  10.444 -0.4692 -0.5574 -0.4921
 3838SOL     OW22975   1.256   4.330   0.043 -0.3394 -0.1476  0.0881
 3838SOL    HW122976   1.239   4.402  17.682  0.5368  1.5120  1.8144
 3838SOL    HW222977   1.342   4.296   0.016 -0.7449 -1.7280  0.8287
 3839SOL     OW22978   3.721   0.350   1.476  0.0552  0.4461  0.2572
 3839SOL    HW122979   3.660   0.416   1.446  0.0644  0.9407  1.3516
 3839SOL    HW222980   3.731   0.371   1.569  1.8648  0.5247  0.0462
 3840SOL     OW22981   0.806   3.605   4.735  0.6511  0.0631 -0.2112
 3840SOL    HW122982   0.728   3.651   4.767  0.5742 -0.2019 -0.0228
 3840SOL    HW222983   0.841   3.565   4.815  2.4103  1.9518 -0.0308
 3841SOL     OW22984   2.337   4.647   8.529  0.0335  0.8574  0.0594
 3841SOL    HW122985   2.376   4.661   8.615 -0.6753  0.2446  0.4814
 3841SOL    HW222986   2.287   0.002   8.514  1.3348  1.6994  0.1939
 3842SOL     OW22987   3.367   2.032   6.585  0.1996 -0.2910 -0.4781
 3842SOL    HW122988   3.423   2.031   6.662 -2.1333 -0.5744  1.2408
 3842SOL    HW222989   3.289   1.997   6.629 -0.3312  2.7051  0.9782
 3843SOL     OW22990   2.552   0.053   3.402 -0.3155 -0.0522 -0.3427
 3843SOL    HW122991   2.523   0.127   3.348 -0.0526  1.0765  1.0682
 3843SOL    HW222992   2.571   0.099   3.484 -0.6194 -0.3856 -0.0874
 3844SOL     OW22993   2.770   4.393   7.048  0.4333 -0.2916  0.2267
 3844SOL    HW122994   2.841   4.329   7.043  0.1499 -0.4430 -1.8517
 3844SOL    HW222995   2.812   4.459   7.103 -1.2152  1.5275 -0.6966
 3845SOL     OW22996   0.365   3.185   0.982 -0.5071 -0.6907 -0.4382
 3845SOL    HW122997   0.334   3.272   0.954 -0.9826 -0.8903 -0.5368
 3845SOL    HW222998   0.455   3.208   1.004 -0.8244  0.9481 -0.8061
 3846SOL     OW22999   3.183   2.992  15.650  0.4727 -0.1314  0.5111
 3846SOL    HW123000   3.266   2.967  15.692  1.5830 -0.6034 -1.9780
 3846SOL    HW223001   3.197   2.968  15.559 -2.1183  1.4707 -0.2790
 3847SOL     OW23002   4.264   4.330   7.154 -0.0748  0.3216 -0.1627
 3847SOL    HW123003   4.232   4.245   7.186  2.7653 -0.6936 -0.0461
 3847SOL    HW223004   4.307   4.358   7.234 -1.6635 -1.0107  1.1706
 3848SOL     OW23005   3.354   0.145   4.063  0.1448 -0.3883  0.6679
 3848SOL    HW123006   3.333   0.235   4.089  1.5836  0.7113 -2.0870
 3848SOL    HW223007   3.405   0.160   3.983 -2.1127  1.6658 -0.3614
 3849SOL     OW23008   1.308   1.557  12.805 -0.3723  0.4192  0.1361
 3849SOL    HW123009   1.395   1.595  12.802 -0.2251  0.0846  0.1807
 3849SOL    HW223010   1.315   1.517  12.892  0.3333  1.3494  0.5143
 3850SOL     OW23011   0.157   3.488   6.925  0.6310 -0.4019  0.1848
 3850SOL    HW123012   0.153   3.496   7.020 -0.2861  3.9296 -0.2205
 3850SOL    HW223013   0.085   3.425   6.922  2.7174 -2.8451  1.0520
 3851SOL     OW23014   0.107   0.619   8.052  0.3988 -0.2956  0.4436
 3851SOL    HW123015   0.083   0.527   8.039  0.3258 -0.3995  1.3081
 3851SOL    HW223016   0.044   0.663   7.995 -0.4628 -2.2611 -0.1284
 3852SOL     OW23017   3.376   1.606  11.223  0.4947 -0.2958 -0.4038
 3852SOL    HW123018   3.307   1.617  11.288  0.6926  2.2560 -0.6529
 3852SOL    HW223019   3.404   1.697  11.217  3.9922 -1.4346 -1.8425
 3853SOL     OW23020   3.864   3.948   5.048  0.0568 -0.1841 -0.0429
 3853SOL    HW123021   3.954   3.945   5.017 -0.8542  0.2884 -2.7413
 3853SOL    HW223022   3.822   3.922   4.965  0.8359  1.7806 -1.0631
 3854SOL     OW23023   3.188   1.813  10.435 -0.3614 -0.0805  0.0889
 3854SOL    HW123024   3.131   1.798  10.359  0.0156 -0.7122 -0.0690
 3854SOL    HW223025   3.260   1.751  10.423  0.2191  0.2919  1.7299
 3855SOL     OW23026   2.730   0.491   2.856  0.1536  0.2004  0.3467
 3855SOL    HW123027   2.702   0.441   2.779 -1.5988  1.9322 -0.1416
 3855SOL    HW223028   2.641   0.486   2.893 -0.2283  0.9021 -0.4933
 3856SOL     OW23029   1.794   2.670   3.421  0.1874  0.0365 -0.4848
 3856SOL    HW123030   1.744   2.735   3.471  0.1896  0.7706 -1.4506
 3856SOL    HW223031   1.847   2.631   3.491  1.3234  1.7560 -0.3823
 3857SOL     OW23032   2.407   0.275   7.366 -0.0013 -0.4869 -0.1930
 3857SOL    HW123033   2.390   0.202   7.306 -0.4505  0.0807 -0.7568
 3857SOL    HW223034   2.322   0.295   7.406  1.0224 -1.6555  2.5291
 3858SOL     OW23035   2.130   4.313   5.105 -0.2972  0.2518 -0.1710
 3858SOL    HW123036   2.077   4.239   5.135 -1.1683  1.1123  0.3743
 3858SOL    HW223037   2.087   4.315   5.019 -2.2055 -0.9438  0.7564
 3859SOL     OW23038   4.692   4.610   8.073 -0.5195  0.2739 -0.2868
 3859SOL    HW123039   4.717   4.518   8.082 -2.4311 -0.1075  1.1114
 3859SOL    HW223040   4.638   4.617   8.152 -0.1322 -2.8396  0.2678
 3860SOL     OW23041   1.015   4.392  16.056  0.0684  0.4890  0.3203
 3860SOL    HW123042   0.987   4.483  16.071  0.6042  0.5108  1.2035
 3860SOL    HW223043   0.949   4.346  16.108 -1.5074  0.2204 -1.9528
 3861SOL     OW23044   0.016   2.777   4.194 -0.7595  0.1517 -0.3971
 3861SOL    HW123045   0.024   2.691   4.153 -0.0396 -0.0685  0.2255
 3861SOL    HW223046   0.032   2.833   4.118 -2.3679  3.7914  1.9398
 3862SOL     OW23047   0.044   3.926   0.233 -0.1412  0.1687 -0.5347
 3862SOL    HW123048   0.131   3.932   0.193 -0.4773  1.8771 -1.0247
 3862SOL    HW223049   4.718   3.967   0.163 -0.3420 -0.0434 -0.5117
 3863SOL     OW23050   3.366   0.987  12.462  0.0718  0.0394 -0.1345
 3863SOL    HW123051   3.398   0.927  12.395 -1.2717 -1.1118  0.2583
 3863SOL    HW223052   3.345   0.924  12.531  1.7033 -0.3458  0.0097
 3864SOL     OW23053   0.252   0.232   5.631 -0.5535 -0.2091  0.1266
 3864SOL    HW123054   0.173   0.181   5.645 -1.0951  0.2286 -1.3270
 3864SOL    HW223055   0.291   0.189   5.555 -0.5124  0.5607 -0.2946
 3865SOL     OW23056   0.877   0.027   1.236  0.1045 -0.2591  0.5868
 3865SOL    HW123057   0.972   0.014   1.241 -0.1902 -2.5570  0.1350
 3865SOL    HW223058   0.847   4.662   1.222 -1.9266  0.6136 -0.6386
 3866SOL     OW23059   1.749   4.091  15.591  0.4327 -0.2863  0.6402
 3866SOL    HW123060   1.825   4.081  15.648  1.2300 -0.8129 -0.5253
 3866SOL    HW223061   1.732   4.183  15.611  0.9916 -0.1164  0.3210
 3867SOL     OW23062   3.222   2.653   5.689  0.0791  1.2806  0.0218
 3867SOL    HW123063   3.185   2.641   5.777 -1.7419 -2.2448 -1.1974
 3867SOL    HW223064   3.161   2.603   5.634  2.0204 -2.4490  1.2585
 3868SOL     OW23065   2.125   3.896   7.430 -0.0592  0.2848 -0.3024
 3868SOL    HW123066   2.158   3.926   7.345  1.3556 -3.5740 -1.0978
 3868SOL    HW223067   2.156   3.806   7.432 -1.4888 -0.2125 -1.2610
 3869SOL     OW23068   0.227   2.525   1.499 -0.4220  0.5754 -0.0356
 3869SOL    HW123069   0.271   2.500   1.418 -3.3779 -2.0046 -0.8236
 3869SOL    HW223070   0.176   2.600   1.470  1.5050  1.2797 -1.5385
 3870SOL     OW23071   4.225   4.242   5.065 -0.1051  0.4286  0.3508
 3870SOL    HW123072   4.221   4.306   5.136  0.9332 -0.5123  1.2468
 3870SOL    HW223073   4.273   4.289   4.997  0.2494  0.6736  0.7744
 3871SOL     OW23074   1.522   3.164   8.116 -0.2795 -0.0909 -0.3288
 3871SOL    HW123075   1.617   3.159   8.118 -0.3263 -0.8413  0.3900
 3871SOL    HW223076   1.517   3.245   8.166 -2.0019  0.2286 -1.0325
 3872SOL     OW23077   3.337   0.123   5.770  0.3789  0.3227 -0.4340
 3872SOL    HW123078   3.289   0.197   5.732  2.5261  1.8105 -0.2153
 3872SOL    HW223079   3.418   0.167   5.795  0.5752 -0.3416  0.0873
 3873SOL     OW23080   1.929   1.975   6.197 -0.8512 -0.5660 -0.2690
 3873SOL    HW123081   1.940   2.062   6.234 -0.5558 -0.8853  0.3938
 3873SOL    HW223082   1.841   1.952   6.228 -0.7766 -1.0007 -0.3786
 3874SOL     OW23083   1.055   1.022  15.298  0.2249 -0.4487 -0.3535
 3874SOL    HW123084   1.068   1.001  15.206 -1.4805  0.5003 -0.8124
 3874SOL    HW223085   1.072   1.116  15.300  1.8063 -0.7750  1.6422
 3875SOL     OW23086   4.225   3.035   3.577  0.6707 -0.0868  0.4235
 3875SOL    HW123087   4.253   3.113   3.529  1.2674 -1.6458 -1.7619
 3875SOL    HW223088   4.228   3.061   3.669  1.1412  2.5147 -0.3293
 3876SOL     OW23089   3.214   3.506  17.663  0.0183 -0.7641 -0.8797
 3876SOL    HW123090   3.186   3.559  17.588 -0.3632  2.1099  1.2749
 3876SOL    HW223091   3.243   3.573   0.025 -1.4193 -0.7039 -0.2698
 3877SOL     OW23092   4.413   0.010   2.097 -0.0682  0.1584  0.8064
 3877SOL    HW123093   4.507   0.021   2.083 -0.1625  0.5521  0.4906
 3877SOL    HW223094   4.411   4.639   2.100 -1.3013  0.1186 -0.8745
 3878SOL     OW23095   0.017   0.216   2.751 -0.0155  0.1236 -0.2064
 3878SOL    HW123096   0.015   0.199   2.845 -2.0004  2.8476  0.2304
 3878SOL    HW223097   4.673   0.281   2.738 -0.2882 -0.5272 -2.1275
 3879SOL     OW23098   1.316   0.215   3.846 -0.1853 -0.0531  0.0111
 3879SOL    HW123099   1.278   0.154   3.909 -3.1253 -0.1235 -1.8167
 3879SOL    HW223100   1.275   0.300   3.861 -0.2226  0.0093 -0.4315
 3880SOL     OW23101   3.187   4.405   5.356 -0.3686 -0.6114  0.0771
 3880SOL    HW123102   3.190   4.491   5.399  1.2703  1.3768 -4.0134
 3880SOL    HW223103   3.280   4.398   5.332 -0.5960 -3.0667 -0.0943
 3881SOL     OW23104   0.137   3.480   7.189 -0.1803 -0.1796  0.1952
 3881SOL    HW123105   0.074   3.410   7.203 -1.4622  0.7607 -0.8561
 3881SOL    HW223106   0.217   3.428   7.198  0.9507  1.7654  1.4047
 3882SOL     OW23107   1.718   3.223  12.940 -0.3926  0.4410 -0.0286
 3882SOL    HW123108   1.748   3.134  12.956 -0.6878  0.4900  0.8279
 3882SOL    HW223109   1.722   3.272  13.022 -1.6711  1.0547 -0.3347
 3883SOL     OW23110   0.573   2.014   6.751 -0.0993 -0.5786  0.2184
 3883SOL    HW123111   0.536   1.951   6.689 -0.1369 -1.5178  1.2202
 3883SOL    HW223112   0.622   2.077   6.697 -0.1148  0.2854  1.2077
 3884SOL     OW23113   0.001   3.868   6.490 -0.0330 -0.4003  0.8728
 3884SOL    HW123114   0.074   3.910   6.535 -0.1429  0.8638 -0.1216
 3884SOL    HW223115   0.016   3.901   6.401 -2.2818  0.2336  0.7277
 3885SOL     OW23116   0.050   4.462   3.018  0.0843  0.5187 -0.5584
 3885SOL    HW123117   0.110   4.389   3.004 -0.1975  0.1448  0.1582
 3885SOL    HW223118   4.691   4.423   2.991  1.8232 -2.7593 -1.1910
 3886SOL     OW23119   2.873   0.563   7.759 -0.0036  0.2025 -0.4430
 3886SOL    HW123120   2.924   0.636   7.724  0.1189  0.9944  1.3702
 3886SOL    HW223121   2.868   0.509   7.680 -0.9939 -0.9935  0.4355
 3887SOL     OW23122   2.486   3.311   2.864  0.1421 -0.0689 -0.1186
 3887SOL    HW123123   2.574   3.346   2.880  0.7335  0.3114 -4.1634
 3887SOL    HW223124   2.469   3.236   2.921  0.3975  0.6195  0.8550
 3888SOL     OW23125   4.557   2.095   4.449  0.0573 -0.2899 -0.1597
 3888SOL    HW123126   4.469   2.072   4.418  0.2139 -1.1836  0.0530
 3888SOL    HW223127   4.559   2.029   4.519 -2.3050 -1.2651 -1.0019
 3889SOL     OW23128   1.111   1.893   3.281  0.7173 -0.2396  0.0522
 3889SOL    HW123129   1.113   1.988   3.270 -0.3696 -0.0442  1.6589
 3889SOL    HW223130   1.064   1.881   3.363  1.5316 -3.0590  0.1076
 3890SOL     OW23131   0.632   4.376   4.162 -0.3336 -0.4064 -0.7525
 3890SOL    HW123132   0.654   4.335   4.078  1.9646  0.6001 -0.6564
 3890SOL    HW223133   0.545   4.410   4.143  0.4885  1.0197 -1.9803
 3891SOL     OW23134   4.053   0.949  15.084  0.2338 -0.2730  0.1460
 3891SOL    HW123135   4.028   0.929  15.173  1.4255  0.8336  0.7355
 3891SOL    HW223136   3.969   0.941  15.039  0.0877  0.9398  0.1931
 3892SOL     OW23137   3.182   4.681   9.812  0.6518  0.3718 -0.5317
 3892SOL    HW123138   3.167   4.624   9.888  0.9700 -0.4749 -1.1049
 3892SOL    HW223139   3.091   4.697   9.786  0.2095 -1.0291  0.1423
 3893SOL     OW23140   3.285   1.129  16.154  0.4233  0.5408  0.6736
 3893SOL    HW123141   3.369   1.174  16.148  1.7386 -2.0017 -0.3112
 3893SOL    HW223142   3.315   1.071  16.224 -2.1110  2.5747  3.4397
 3894SOL     OW23143   2.919   4.155  13.843  0.3869 -0.2314 -0.2336
 3894SOL    HW123144   3.005   4.116  13.860  1.0162  0.7674 -1.0739
 3894SOL    HW223145   2.892   4.096  13.773  0.4199 -0.7125  0.1633
 3895SOL     OW23146   1.586   4.011  12.248 -0.3393 -0.2341  0.0944
 3895SOL    HW123147   1.648   4.004  12.321 -1.8226  0.8495  1.4429
 3895SOL    HW223148   1.581   4.106  12.257  0.6660 -0.2318  0.6868
 3896SOL     OW23149   0.960   1.163   3.050 -0.4542  0.0950  0.2472
 3896SOL    HW123150   0.961   1.085   3.105  3.0664  0.1002  0.1950
 3896SOL    HW223151   0.936   1.232   3.112  1.8396 -1.0461  2.3968
 3897SOL     OW23152   1.042   3.055   8.229  0.0302  0.5521 -0.1130
 3897SOL    HW123153   0.983   3.126   8.203 -0.3470  1.0077  1.9343
 3897SOL    HW223154   0.974   2.990   8.246 -0.0990  0.6339 -0.3134
 3898SOL     OW23155   1.502   4.589   2.327 -0.4322 -0.0913 -0.0321
 3898SOL    HW123156   1.476   4.508   2.283 -0.5342  0.0222 -0.1815
 3898SOL    HW223157   1.464   4.573   2.413  1.2059 -0.4802  0.6156
 3899SOL     OW23158   2.682   2.101   1.108  0.2930 -0.2265 -0.4848
 3899SOL    HW123159   2.701   2.190   1.137 -2.2310  0.2194 -0.1664
 3899SOL    HW223160   2.602   2.080   1.156  0.5468 -0.3048 -0.0974
 3900SOL     OW23161   1.927   4.507   1.991 -0.4640 -0.5105  0.5149
 3900SOL    HW123162   1.995   4.569   1.964  2.5014 -2.4240  3.6084
 3900SOL    HW223163   1.968   4.421   1.985  0.7058  0.2594 -2.6883
 3901SOL     OW23164   2.857   0.877   1.064  0.4545 -0.4616 -0.3415
 3901SOL    HW123165   2.907   0.958   1.069 -2.2558  1.1540  0.8407
 3901SOL    HW223166   2.768   0.912   1.065  0.1100 -1.3046 -1.1426
 3902SOL     OW23167   1.845   3.356   5.969  0.1022 -0.2897 -0.5784
 3902SOL    HW123168   1.855   3.331   5.877 -1.5910 -0.1994 -0.7786
 3902SOL    HW223169   1.936   3.363   6.000 -0.9930 -0.2829  2.5826
 3903SOL     OW23170   3.535   0.389   9.222 -0.4253  0.2730  0.2275
 3903SOL    HW123171   3.505   0.427   9.304 -0.7063  1.7709 -0.5583
 3903SOL    HW223172   3.515   0.299   9.245  1.1256 -0.4266 -1.0805
 3904SOL     OW23173   1.439   0.953   4.684  0.3523  0.7104 -0.0075
 3904SOL    HW123174   1.380   0.973   4.612 -1.2184  1.7158  1.5678
 3904SOL    HW223175   1.522   0.926   4.643 -0.5902 -1.7121 -0.3466
 3905SOL     OW23176   2.286   3.323  17.601 -0.1950 -0.0406 -0.1588
 3905SOL    HW123177   2.294   3.408  17.645  1.9518 -0.2474 -0.1472
 3905SOL    HW223178   2.190   3.319  17.601 -0.1541 -0.9390  0.3794
 3906SOL     OW23179   0.938   2.458   7.182 -0.0661 -0.0610  0.2828
 3906SOL    HW123180   0.862   2.422   7.226 -1.6050  1.0307 -1.4780
 3906SOL    HW223181   0.930   2.416   7.096  0.2936 -0.2008  0.3173
 3907SOL     OW23182   2.063   0.930   3.148  0.5438  0.1076  0.4028
 3907SOL    HW123183   2.059   0.835   3.150  0.2235  0.1104 -0.1399
 3907SOL    HW223184   2.154   0.939   3.122 -0.2937  1.4149 -2.1205
 3908SOL     OW23185   2.873   3.654   7.671  0.6319 -0.1046 -0.1081
 3908SOL    HW123186   2.961   3.618   7.679 -1.3916 -5.0662 -0.4773
 3908SOL    HW223187   2.852   3.664   7.578  0.3364  0.8365  0.0575
 3909SOL     OW23188   4.302   3.832  11.026  0.1651 -0.0727  0.0199
 3909SOL    HW123189   4.370   3.868  11.083 -0.2778  1.3801 -0.3859
 3909SOL    HW223190   4.244   3.806  11.097 -0.1644 -0.2400 -0.3057
 3910SOL     OW23191   2.037   1.954   4.744  0.7987  0.1830 -0.1098
 3910SOL    HW123192   2.086   2.036   4.750  0.9308  0.0505  0.6180
 3910SOL    HW223193   1.956   1.984   4.702 -0.5391 -1.5797  1.2057
 3911SOL     OW23194   2.929   0.397   8.375 -0.2557  0.0691 -0.3225
 3911SOL    HW123195   2.956   0.464   8.312  0.7481  1.5517  1.7045
 3911SOL    HW223196   2.951   0.315   8.330 -0.1289  0.9429 -1.8766
 3912SOL     OW23197   4.309   2.640   7.736  0.0266  0.1809  0.0989
 3912SOL    HW123198   4.246   2.578   7.700 -0.3099 -0.3905  1.6923
 3912SOL    HW223199   4.375   2.584   7.776 -1.8668 -0.0515  2.9506
 3913SOL     OW23200   4.033   3.296   7.884  0.2108 -0.6458  0.0225
 3913SOL    HW123201   4.111   3.267   7.932 -0.6526  0.0911  1.8780
 3913SOL    HW223202   3.967   3.306   7.953 -0.4328 -0.8237 -0.5623
 3914SOL     OW23203   2.802   1.561   0.593 -0.2955 -0.3257 -0.0101
 3914SOL    HW123204   2.834   1.647   0.619  0.7957 -0.9190  0.5880
 3914SOL    HW223205   2.772   1.517   0.672 -1.2143 -0.7561 -0.5866
 3915SOL     OW23206   4.604   1.977   4.097  0.2919 -0.2821 -0.2423
 3915SOL    HW123207   4.597   1.957   4.003  1.8164  2.8525 -1.0164
 3915SOL    HW223208   4.528   2.032   4.115  1.5520  0.9707  1.1811
 3916SOL     OW23209   3.458   1.848   0.753 -0.0103 -0.3405  1.0768
 3916SOL    HW123210   3.477   1.754   0.747  0.9123  0.0019 -1.3467
 3916SOL    HW223211   3.392   1.841   0.821 -1.5366  0.9396 -0.2859
 3917SOL     OW23212   3.831   3.239   5.716  0.3918  0.0319  0.1833
 3917SOL    HW123213   3.775   3.176   5.761 -1.5447  1.8572  0.3492
 3917SOL    HW223214   3.785   3.240   5.631 -0.3824  2.3265  0.6325
 3918SOL     OW23215   4.324   3.587  17.227  0.4678 -0.4360  0.0106
 3918SOL    HW123216   4.239   3.630  17.232  0.7002  0.1772 -1.3442
 3918SOL    HW223217   4.340   3.574  17.320  0.1079 -0.8799  0.0087
 3919SOL     OW23218   2.413   4.384  17.237  0.3030  0.3564 -0.3291
 3919SOL    HW123219   2.422   4.329  17.159  0.8694  1.0458 -0.7577
 3919SOL    HW223220   2.503   4.416  17.239  1.1678 -2.1001 -0.3761
 3920SOL     OW23221   3.877   2.333   4.083  0.0312 -0.2934 -0.0135
 3920SOL    HW123222   3.816   2.393   4.041 -0.7605  0.1768  1.7990
 3920SOL    HW223223   3.936   2.394   4.127  2.5376 -2.7659  0.0076
 3921SOL     OW23224   4.396   3.862   3.862 -0.2939  0.1152  0.4172
 3921SOL    HW123225   4.426   3.793   3.922 -0.1592  0.6995  1.0225
 3921SOL    HW223226   4.459   3.929   3.887  0.2227 -0.3515  0.3854
 3922SOL     OW23227   1.056   3.979   4.563 -0.5438  0.1000 -0.4877
 3922SOL    HW123228   1.099   3.972   4.648 -1.8029  0.0799  0.1440
 3922SOL    HW223229   0.966   3.998   4.591  0.0412 -0.9093  2.1050
 3923SOL     OW23230   3.519   0.144  16.781 -0.4775  0.1265  0.0296
 3923SOL    HW123231   3.453   0.115  16.718  0.5446 -0.2352 -0.8780
 3923SOL    HW223232   3.466   0.162  16.858  0.0072  1.2716  0.0935
 3924SOL     OW23233   0.422   0.389   7.024 -0.2344  0.5247 -0.5424
 3924SOL    HW123234   0.404   0.473   7.066  0.1503  0.5777 -0.4866
 3924SOL    HW223235   0.475   0.423   6.953 -0.6211  0.4188 -0.8815
 3925SOL     OW23236   0.324   3.450   6.048 -0.2226  0.3927  0.4143
 3925SOL    HW123237   0.269   3.466   6.125 -2.5022 -1.0522 -0.8993
 3925SOL    HW223238   0.275   3.373   6.018 -0.5728  0.7721  0.0014
 3926SOL     OW23239   4.569   1.543   8.616 -0.5451 -0.1025 -0.0832
 3926SOL    HW123240   4.553   1.476   8.550  2.4532 -0.2685 -0.6406
 3926SOL    HW223241   4.655   1.576   8.587 -0.4737  1.0131  1.3744
 3927SOL     OW23242   3.323   2.544  13.318 -0.4599 -0.4909 -0.1770
 3927SOL    HW123243   3.393   2.482  13.335 -1.9269 -1.7555  1.2616
 3927SOL    HW223244   3.330   2.597  13.398 -1.8034 -0.1195 -0.3093
 3928SOL     OW23245   2.695   1.603   3.510  0.0892 -0.3328 -0.0560
 3928SOL    HW123246   2.745   1.613   3.429 -1.4351 -0.8960 -1.0544
 3928SOL    HW223247   2.755   1.548   3.561 -0.5954  0.0922  1.2162
 3929SOL     OW23248   4.491   3.077   6.006  0.2152  0.0884 -0.4664
 3929SOL    HW123249   4.551   3.117   6.068 -1.5564  0.3432  1.0894
 3929SOL    HW223250   4.552   3.006   5.987 -1.1657 -0.9469 -1.0675
 3930SOL     OW23251   3.948   2.793   8.153 -0.3681 -0.2439  0.0183
 3930SOL    HW123252   3.962   2.742   8.072  0.2331  1.8782 -1.2088
 3930SOL    HW223253   4.018   2.858   8.161  1.4842 -2.0264 -1.3425
 3931SOL     OW23254   4.053   0.597   5.704  0.1561  0.0385  0.5384
 3931SOL    HW123255   3.988   0.578   5.636  0.6172 -1.2296  0.4492
 3931SOL    HW223256   4.108   0.519   5.702 -0.3297 -0.3071  0.5617
 3932SOL     OW23257   1.154   4.350  16.378  0.3268 -0.7856  0.2737
 3932SOL    HW123258   1.065   4.340  16.343  0.6619  0.1217 -0.8291
 3932SOL    HW223259   1.209   4.313  16.309 -1.7695  0.8734 -2.3020
 3933SOL     OW23260   0.182   3.744   7.147 -0.2958  0.2255  0.4607
 3933SOL    HW123261   0.165   3.652   7.166  0.0482 -0.4284 -2.3505
 3933SOL    HW223262   0.232   3.768   7.225  0.9730 -2.1691  0.3864
 3934SOL     OW23263   3.701   3.348   2.013 -0.6870 -0.0390  0.1753
 3934SOL    HW123264   3.753   3.372   1.937 -1.0390 -0.0588 -0.0742
 3934SOL    HW223265   3.770   3.315   2.070 -0.0426  0.7907 -0.1254
 3935SOL     OW23266   4.621   3.813   7.136 -0.2434  0.2132  0.4791
 3935SOL    HW123267   4.624   3.852   7.223 -0.2792  3.9518 -1.1843
 3935SOL    HW223268   4.714   3.797   7.121 -0.4714  0.6615 -1.4496
 3936SOL     OW23269   3.571   0.063   9.947  0.4124 -0.5343 -0.4308
 3936SOL    HW123270   3.650   0.117   9.940 -0.0067  0.2884  1.2276
 3936SOL    HW223271   3.502   0.129   9.955  0.4737 -0.5491  0.2486
 3937SOL     OW23272   3.115   2.619  16.381  0.4473 -0.2984  0.3578
 3937SOL    HW123273   3.170   2.577  16.447 -0.5292 -2.5459 -0.2553
 3937SOL    HW223274   3.148   2.709  16.386 -1.6994  0.5113  0.0777
 3938SOL     OW23275   0.340   2.631   6.010  0.1359  0.0199  0.1089
 3938SOL    HW123276   0.354   2.585   5.927  3.2321  0.5257  0.3335
 3938SOL    HW223277   0.245   2.628   6.012  0.0679  1.3480 -1.3110
 3939SOL     OW23278   0.938   2.368   4.759 -0.3569  0.4930 -0.1284
 3939SOL    HW123279   0.859   2.318   4.780  1.1459 -2.2741 -1.1030
 3939SOL    HW223280   0.918   2.414   4.677  0.0892 -0.1448 -0.5950
 3940SOL     OW23281   1.203   0.128  12.161 -0.0837 -0.4201  0.3394
 3940SOL    HW123282   1.257   0.110  12.084  1.2760  0.6749  1.0228
 3940SOL    HW223283   1.210   0.224  12.166 -0.1392 -0.5046  2.2035
 3941SOL     OW23284   2.917   4.704   4.008  0.0827  0.0459 -0.2324
 3941SOL    HW123285   2.887   4.634   3.950  1.0784  0.5997 -1.4144
 3941SOL    HW223286   3.010   4.695   3.989  0.3886 -0.2013  1.4022
 3942SOL     OW23287   1.263   2.738  15.394 -0.7760  0.6488  0.2310
 3942SOL    HW123288   1.168   2.745  15.400 -0.9278 -0.5332 -0.7581
 3942SOL    HW223289   1.291   2.766  15.481  0.1757 -0.9471  0.4513
 3943SOL     OW23290   3.212   4.502   4.904  0.3093 -0.9733  0.6965
 3943SOL    HW123291   3.182   4.505   4.995  0.8444 -0.4390  0.8528
 3943SOL    HW223292   3.128   4.498   4.858 -0.3591 -0.8464  1.9093
 3944SOL     OW23293   0.615   1.386   8.460 -0.2577 -0.5005 -0.1398
 3944SOL    HW123294   0.687   1.409   8.518 -0.4420 -1.8594  0.6389
 3944SOL    HW223295   0.621   1.453   8.392 -1.1902  0.1498  0.4214
 3945SOL     OW23296   0.996   3.672  14.468 -0.7643  0.3456 -0.4381
 3945SOL    HW123297   0.999   3.763  14.439 -1.4718  0.9434  1.3743
 3945SOL    HW223298   0.985   3.678  14.563 -0.8715  4.9424 -0.7318
 3946SOL     OW23299   3.279   4.542   8.240 -0.0620  0.0255  0.3921
 3946SOL    HW123300   3.215   4.473   8.219 -1.1387  0.7380  1.3599
 3946SOL    HW223301   3.306   4.533   8.331  2.9214  2.9265 -0.2126
 3947SOL     OW23302   3.434   0.503   0.465  0.4030  0.1197  0.5308
 3947SOL    HW123303   3.472   0.488   0.379 -1.5090  1.2929 -0.5228
 3947SOL    HW223304   3.511   0.547   0.500  0.5345 -0.1146  0.5402
 3948SOL     OW23305   0.924   2.155  12.930  0.2092  0.5421 -0.4163
 3948SOL    HW123306   0.892   2.102  12.857 -0.1022 -0.0164  0.1236
 3948SOL    HW223307   0.961   2.089  12.988  1.0055  2.2171  1.0089
 3949SOL     OW23308   0.783   4.294   1.492 -0.2482  0.2692 -0.0604
 3949SOL    HW123309   0.770   4.232   1.563  0.6530  0.1968  0.0485
 3949SOL    HW223310   0.787   4.371   1.549 -0.0749  0.1680  0.0639
 3950SOL     OW23311   0.820   4.061   7.822 -0.5128  0.1552  0.0269
 3950SOL    HW123312   0.799   3.972   7.793 -0.2024  0.0493  0.1247
 3950SOL    HW223313   0.867   4.085   7.742  1.2321 -0.3619  0.9078
 3951SOL     OW23314   3.801   0.365   7.773 -0.0035  0.1099 -0.4957
 3951SOL    HW123315   3.713   0.383   7.738 -0.0641  2.2830  0.7968
 3951SOL    HW223316   3.850   0.355   7.691 -1.4404 -0.2803 -1.3071
 3952SOL     OW23317   1.313   1.508   2.176 -0.7523  0.5060  0.6169
 3952SOL    HW123318   1.261   1.519   2.096 -2.4349 -1.4980  1.4228
 3952SOL    HW223319   1.341   1.418   2.159  0.4316  1.0161 -0.0823
 3953SOL     OW23320   0.785   2.710   7.470  0.2915  0.1986  0.1211
 3953SOL    HW123321   0.824   2.770   7.533  2.2810  0.1263 -1.0637
 3953SOL    HW223322   0.697   2.747   7.478 -0.0244 -0.5891  0.3126
 3954SOL     OW23323   2.322   4.587   5.378  0.0882 -0.3530 -0.3080
 3954SOL    HW123324   2.416   4.608   5.371  0.2353 -0.8744  0.1090
 3954SOL    HW223325   2.322   4.619   5.469  1.1470 -3.0289  0.6545
 3955SOL     OW23326   2.555   3.906   9.087  0.1495  0.3744  0.1520
 3955SOL    HW123327   2.505   3.827   9.109 -1.4068  0.5349 -2.8698
 3955SOL    HW223328   2.641   3.879   9.121  0.2431 -2.0314 -1.9961
 3956SOL     OW23329   0.527   2.113   8.713  0.0700  0.4221 -0.1923
 3956SOL    HW123330   0.450   2.122   8.769 -1.3250 -2.9110 -1.5541
 3956SOL    HW223331   0.525   2.018   8.701 -2.8249  0.5063 -0.3898
 3957SOL     OW23332   3.323   2.694  10.152  0.3683 -0.6105  0.2502
 3957SOL    HW123333   3.243   2.742  10.173  0.4649 -0.0767 -0.6116
 3957SOL    HW223334   3.320   2.624  10.217  0.6522 -1.0352 -0.1936
 3958SOL     OW23335   3.753   0.000   7.647  0.0569 -0.1661 -0.1697
 3958SOL    HW123336   3.809   0.067   7.607 -1.1039  0.0271 -1.4416
 3958SOL    HW223337   3.746   4.664   7.574 -1.2829  1.7557 -1.6215
 3959SOL     OW23338   3.893   4.364  12.855 -0.2633  0.2209 -0.1010
 3959SOL    HW123339   3.903   4.438  12.914 -1.1028  1.4875 -1.5708
 3959SOL    HW223340   3.805   4.366  12.818 -0.5711 -2.5682  0.4429
 3960SOL     OW23341   4.155   2.815   5.156 -0.0519  0.7530  0.0572
 3960SOL    HW123342   4.072   2.769   5.165  1.3673 -1.7491  0.4367
 3960SOL    HW223343   4.207   2.768   5.223  0.8570 -0.7874 -1.7242
 3961SOL     OW23344   2.572   4.223   7.156 -0.0501 -0.0227  0.0582
 3961SOL    HW123345   2.568   4.224   7.251 -2.1589  1.2615 -0.0480
 3961SOL    HW223346   2.649   4.275   7.132  2.2116 -2.3253  2.2629
 3962SOL     OW23347   1.649   2.709   7.515  0.3579 -0.2906  0.5206
 3962SOL    HW123348   1.691   2.795   7.511 -0.3573  0.1177  1.8286
 3962SOL    HW223349   1.718   2.655   7.477 -0.7092 -1.8348  0.7979
 3963SOL     OW23350   2.790   2.893  10.158  0.7094 -0.2089 -0.1494
 3963SOL    HW123351   2.797   2.935  10.244 -0.8115 -2.0683  0.8940
 3963SOL    HW223352   2.811   2.802  10.183  1.4719  0.4031  1.4747
 3964SOL     OW23353   4.022   1.081   4.184  0.5032  0.4112 -0.2551
 3964SOL    HW123354   4.016   1.048   4.094  1.1128  2.4446 -1.0507
 3964SOL    HW223355   4.057   1.171   4.179 -3.0617  1.8751  1.0306
 3965SOL     OW23356   3.099   3.879   9.057  0.3483 -0.7309  0.0315
 3965SOL    HW123357   3.124   3.967   9.084 -0.8660 -1.3271  3.1921
 3965SOL    HW223358   3.127   3.824   9.131  1.1198 -1.1193 -0.5471
 3966SOL     OW23359   2.604   1.183   4.240 -0.6683  0.1433  0.3111
 3966SOL    HW123360   2.577   1.254   4.182  1.8915  0.8653  0.0451
 3966SOL    HW223361   2.523   1.136   4.262  0.2224 -1.2265  0.6338
 3967SOL     OW23362   3.239   2.876   6.524 -0.3795  0.0618  0.0689
 3967SOL    HW123363   3.279   2.903   6.606 -0.0456 -0.8359  0.1946
 3967SOL    HW223364   3.307   2.907   6.464 -0.4754  1.7436  0.8077
 3968SOL     OW23365   2.277   0.409   3.479  0.3598 -0.0496  0.4381
 3968SOL    HW123366   2.284   0.471   3.407 -0.5993 -0.5566 -0.0843
 3968SOL    HW223367   2.254   0.458   3.558 -0.4468  2.0368 -1.1042
 3969SOL     OW23368   0.958   0.943   1.467 -0.5848 -0.0869  0.1038
 3969SOL    HW123369   1.010   0.889   1.526 -0.1515 -0.8564 -0.9812
 3969SOL    HW223370   0.869   0.911   1.474 -0.9327  0.8852  0.1391
 3970SOL     OW23371   0.558   0.286   8.244  0.3173 -0.1322 -0.2405
 3970SOL    HW123372   0.525   0.233   8.316  0.8376  0.5119  0.4768
 3970SOL    HW223373   0.648   0.299   8.272  0.6910 -2.1474 -0.5144
 3971SOL     OW23374   3.986   2.239   7.639 -0.2978  0.0515  0.4447
 3971SOL    HW123375   3.998   2.293   7.717  1.7838  1.3569 -0.7826
 3971SOL    HW223376   4.023   2.157   7.672 -1.4326 -0.8459 -0.4838
 3972SOL     OW23377   2.264   3.183   2.270 -0.0914  0.1546 -0.1015
 3972SOL    HW123378   2.253   3.204   2.363 -0.2190  1.6505 -0.4579
 3972SOL    HW223379   2.336   3.120   2.270 -0.4065 -0.2051  1.9048
 3973SOL     OW23380   1.174   3.868  14.629 -0.2779  0.3696 -0.1642
 3973SOL    HW123381   1.226   3.811  14.573 -0.4746  0.7948 -0.7763
 3973SOL    HW223382   1.154   3.938  14.568 -1.3909  0.2990  0.1044
 3974SOL     OW23383   2.107   2.875  13.679 -0.5147 -0.0949 -0.1229
 3974SOL    HW123384   2.101   2.780  13.689 -2.3279 -0.3430 -3.4598
 3974SOL    HW223385   2.158   2.864  13.599 -0.5223 -0.8172 -0.0350
 3975SOL     OW23386   0.635   3.103   7.372  0.7893 -0.0022 -0.0646
 3975SOL    HW123387   0.725   3.082   7.399  0.4439 -0.2411  0.8911
 3975SOL    HW223388   0.643   3.198   7.358 -2.8135  0.8838  3.9747
 3976SOL     OW23389   4.563   2.729   2.275  0.3811 -0.2339 -0.5246
 3976SOL    HW123390   4.492   2.684   2.320  1.7028 -1.7001  0.1055
 3976SOL    HW223391   4.632   2.662   2.276  0.9268  0.3390  0.9052
 3977SOL     OW23392   1.390   3.202   0.717  0.0443  0.1940 -0.0304
 3977SOL    HW123393   1.339   3.282   0.699 -1.2823 -0.6249  0.0526
 3977SOL    HW223394   1.400   3.203   0.812 -0.0691  0.2659 -0.0180
 3978SOL     OW23395   1.563   0.526   2.475 -0.7522  0.2357  0.1617
 3978SOL    HW123396   1.655   0.552   2.477 -1.3044  2.0871  1.3042
 3978SOL    HW223397   1.539   0.522   2.383  0.5837 -1.6397 -0.1073
 3979SOL     OW23398   1.985   3.478   3.560 -0.2907  0.0641  1.0377
 3979SOL    HW123399   1.951   3.394   3.590 -4.1595  1.6957  1.2016
 3979SOL    HW223400   1.967   3.478   3.466  1.4591  1.1353  0.7066
 3980SOL     OW23401   0.797   1.299   9.349 -0.2258  0.4401 -0.1423
 3980SOL    HW123402   0.862   1.302   9.279 -1.8567 -1.0089 -1.7327
 3980SOL    HW223403   0.780   1.205   9.362  0.1629  0.1355 -1.8093
 3981SOL     OW23404   2.730   3.005   6.593 -0.5089 -0.1215 -0.3811
 3981SOL    HW123405   2.644   3.032   6.562 -0.4049  0.3704 -0.2439
 3981SOL    HW223406   2.708   2.930   6.649 -1.7216 -0.6155 -1.5338
 3982SOL     OW23407   1.117   0.381   4.591 -0.6308 -0.4500  0.0254
 3982SOL    HW123408   1.169   0.306   4.621 -1.7286 -1.0831  0.3243
 3982SOL    HW223409   1.182   0.409   4.526  0.8347  0.5627  1.9162
 3983SOL     OW23410   4.155   3.188   2.758  0.0880 -0.8043 -0.1107
 3983SOL    HW123411   4.246   3.163   2.775  0.6108  2.1238  1.2350
 3983SOL    HW223412   4.139   3.128   2.685 -1.1303 -0.7522  0.1102
 3984SOL     OW23413   4.346   3.696   2.216  0.3260 -1.0016  0.1167
 3984SOL    HW123414   4.276   3.642   2.178 -1.1234  0.7589  0.2596
 3984SOL    HW223415   4.314   3.690   2.307 -2.0095  0.3155 -0.6037
 3985SOL     OW23416   2.845   0.942   5.360  0.2794 -0.3716 -0.6426
 3985SOL    HW123417   2.750   0.932   5.363  0.5432 -2.0943  1.2535
 3985SOL    HW223418   2.864   0.965   5.451  1.2816 -1.1980 -0.6514
 3986SOL     OW23419   0.476   0.376  12.117 -0.4120  0.2379 -0.6070
 3986SOL    HW123420   0.458   0.448  12.177 -0.0698 -0.8078  0.7655
 3986SOL    HW223421   0.388   0.356  12.085 -0.7056  1.7221 -0.7008
 3987SOL     OW23422   1.295   0.357   7.977 -0.2733  0.4394  0.3971
 3987SOL    HW123423   1.359   0.393   8.039  2.3123  1.3628 -2.7877
 3987SOL    HW223424   1.231   0.428   7.976 -0.8509 -0.0793  0.5902
 3988SOL     OW23425   2.354   2.150   3.748  0.0670  0.0904  0.9328
 3988SOL    HW123426   2.331   2.161   3.840  1.4690 -0.3659  1.3509
 3988SOL    HW223427   2.303   2.070   3.732 -1.2078  1.1731 -0.4799
 3989SOL     OW23428   1.974   4.312   1.769 -0.5033 -0.2164  0.2410
 3989SOL    HW123429   2.015   4.388   1.727  1.1234 -0.3057  1.6690
 3989SOL    HW223430   2.027   4.239   1.738  1.0762  0.2568  1.8108
 3990SOL     OW23431   0.524   0.169   7.186  0.0302 -0.0392  0.0165
 3990SOL    HW123432   0.454   0.109   7.159 -0.0167 -0.2860  0.6864
 3990SOL    HW223433   0.498   0.242   7.129  0.3619  0.3011  0.3039
 3991SOL     OW23434   3.848   1.015   7.597 -0.0383 -0.0170  0.0522
 3991SOL    HW123435   3.930   0.984   7.558 -0.2812  0.5593 -0.9278
 3991SOL    HW223436   3.788   1.012   7.523 -1.0227 -0.8193  0.8842
 3992SOL     OW23437   2.415   1.691  11.298 -0.4623 -0.1144 -0.3974
 3992SOL    HW123438   2.388   1.665  11.386  1.2227 -0.0920  0.1237
 3992SOL    HW223439   2.407   1.786  11.306  0.4356  0.1576 -2.8462
 3993SOL     OW23440   0.891   2.077   4.451 -0.1872 -0.1395  0.3162
 3993SOL    HW123441   0.949   2.064   4.526 -3.6312 -1.3191  2.7903
 3993SOL    HW223442   0.809   2.101   4.493  1.1343  1.1919  2.1021
 3994SOL     OW23443   0.236   4.694   2.465  0.3757 -0.0331  0.2405
 3994SOL    HW123444   0.263   0.024   2.391  0.5272 -2.1631 -1.2905
 3994SOL    HW223445   0.153   4.653   2.440  0.7134 -1.4681  1.4355
 3995SOL     OW23446   2.045   4.210   9.127 -0.1715  0.5664  0.0830
 3995SOL    HW123447   2.086   4.151   9.064 -2.4373  0.5233 -1.3761
 3995SOL    HW223448   2.029   4.289   9.076 -0.7508  1.0482  1.0025
 3996SOL     OW23449   3.153   1.796   1.652 -0.3819 -0.2270  0.1535
 3996SOL    HW123450   3.097   1.718   1.649  0.0401 -0.4663 -2.1938
 3996SOL    HW223451   3.234   1.746   1.639  0.2425  0.4494  1.4780
 3997SOL     OW23452   0.293   3.066   2.591 -0.0185  0.0914 -0.1405
 3997SOL    HW123453   0.227   3.000   2.568  1.4132 -0.4666 -2.5497
 3997SOL    HW223454   0.282   3.121   2.514 -3.2196 -1.3434 -0.6959
 3998SOL     OW23455   4.087   3.961   3.341  0.0440  0.0701  0.1285
 3998SOL    HW123456   3.992   3.959   3.342  0.0789 -1.4534 -0.1793
 3998SOL    HW223457   4.114   3.884   3.391  2.0600  0.3007 -0.5682
 3999SOL     OW23458   4.480   0.869   3.907  0.4157  0.5040 -0.5245
 3999SOL    HW123459   4.459   0.958   3.877  1.9026  1.5056  1.4030
 3999SOL    HW223460   4.462   0.822   3.826  0.3299 -0.4491  0.0421
 4000SOL     OW23461   0.734   2.234   0.673  0.2125  0.0308  0.2460
 4000SOL    HW123462   0.700   2.166   0.731 -0.3204 -0.4419 -0.6256
 4000SOL    HW223463   0.658   2.289   0.653  1.2166  0.9767 -0.9327
 4001SOL     OW23464   3.921   2.414   5.768  0.5125  0.1106  0.2184
 4001SOL    HW123465   4.010   2.380   5.763  0.8132  0.8927  0.3785
 4001SOL    HW223466   3.888   2.402   5.679  1.0829  0.1083  0.0130
 4002SOL     OW23467   4.720   2.424   7.992 -0.3162  0.3004  0.9083
 4002SOL    HW123468   0.036   2.503   8.028  0.6317  0.0046  0.5036
 4002SOL    HW223469   0.042   2.349   8.029  0.2596  0.3910  0.3855
 4003SOL     OW23470   3.969   0.045  17.327 -0.2807  0.2222  0.5680
 4003SOL    HW123471   3.915   0.123  17.318 -2.5736 -1.4605 -0.5129
 4003SOL    HW223472   4.051   0.090  17.308  0.3392 -0.6907  1.1085
 4004SOL     OW23473   2.040   3.772   0.429  0.3582  0.0271 -0.7676
 4004SOL    HW123474   2.112   3.728   0.474  0.6291  1.3820  0.1249
 4004SOL    HW223475   2.067   3.766   0.338 -3.6923  0.0941 -1.9612
 4005SOL     OW23476   4.092   4.676   6.772  0.4861  0.3136 -0.0126
 4005SOL    HW123477   4.046   0.028   6.804  5.0648  1.5172  3.7015
 4005SOL    HW223478   4.050   4.608   6.824  0.9893 -0.6072 -0.7900
 4006SOL     OW23479   3.038   2.581   8.002 -0.5653  0.3622  0.0325
 4006SOL    HW123480   3.065   2.662   7.959  1.5471  0.9867  2.5535
 4006SOL    HW223481   2.985   2.612   8.076  0.6455  0.5997  0.8155
 4007SOL     OW23482   4.614   4.607   5.252  0.1294 -0.1565 -0.0904
 4007SOL    HW123483   4.585   4.527   5.208 -0.4582  0.1400 -0.2437
 4007SOL    HW223484   4.701   4.596   5.213  0.4550  1.3156  0.2140
 4008SOL     OW23485   4.168   0.563   7.761  0.5759  0.0940  0.4637
 4008SOL    HW123486   4.078   0.538   7.779  0.7716 -1.4380 -0.6686
 4008SOL    HW223487   4.172   0.637   7.820  0.1992  1.1898 -0.8825
 4009SOL     OW23488   4.475   0.099  15.285  0.3421  0.7958  0.2863
 4009SOL    HW123489   4.521   0.085  15.368 -0.0545 -1.8494  0.0655
 4009SOL    HW223490   4.546   0.141  15.236  0.6703  0.8841  0.8345
 4010SOL     OW23491   0.556   1.080   2.922 -0.5710  0.2662  0.4469
 4010SOL    HW123492   0.605   1.032   2.856  1.4464  1.4555  1.0642
 4010SOL    HW223493   0.500   1.012   2.960 -0.5330  0.9458  1.7516
 4011SOL     OW23494   3.395   2.755   8.750  0.5859 -0.0658  0.0686
 4011SOL    HW123495   3.325   2.801   8.796  0.3624  0.1134 -0.4588
 4011SOL    HW223496   3.393   2.665   8.784  0.0432 -0.3597 -0.7462
 4012SOL     OW23497   1.409   4.508  17.317 -0.3111 -0.4436 -0.5231
 4012SOL    HW123498   1.331   4.554  17.288 -0.4274 -0.0136  0.4763
 4012SOL    HW223499   1.456   4.567  17.376 -2.0254 -0.0955  0.4699
 4013SOL     OW23500   1.526   4.312  14.500 -0.0638  0.0559 -0.2771
 4013SOL    HW123501   1.468   4.385  14.477  0.3618 -0.1163 -1.9228
 4013SOL    HW223502   1.601   4.362  14.532 -1.2843  1.6221  0.1831
 4014SOL     OW23503   0.496   0.198   0.662  0.0097  0.0815  0.2539
 4014SOL    HW123504   0.579   0.215   0.619 -0.9939 -1.7248 -2.3504
 4014SOL    HW223505   0.504   0.104   0.680  1.8236  0.2565  0.3532
 4015SOL     OW23506   0.241   1.892   2.703  0.4825 -0.3060 -0.0700
 4015SOL    HW123507   0.231   1.796   2.701  0.1599 -0.3039  2.2211
 4015SOL    HW223508   0.174   1.907   2.768 -0.1281  0.0359 -0.7813
 4016SOL     OW23509   3.309   4.582   7.319 -0.0538 -0.0061  0.0362
 4016SOL    HW123510   3.231   4.526   7.311  1.0974 -1.6335  0.2175
 4016SOL    HW223511   3.313   4.619   7.407  0.1595  2.4850 -1.0336
 4017SOL     OW23512   3.117   2.148   0.156 -0.2330  0.1351  0.0980
 4017SOL    HW123513   3.038   2.202   0.142  0.3188  0.5648 -1.4187
 4017SOL    HW223514   3.152   2.149   0.067 -0.4675  2.3889  0.0268
 4018SOL     OW23515   2.039   0.458   9.076 -0.8734 -0.2979  0.2312
 4018SOL    HW123516   2.087   0.469   9.158  0.5195 -2.4927 -0.2827
 4018SOL    HW223517   1.994   0.373   9.083 -0.6659 -0.5645 -1.7283
 4019SOL     OW23518   0.670   3.224   3.401  0.7008  0.2795 -0.1849
 4019SOL    HW123519   0.740   3.275   3.359 -0.7659  0.9814 -1.7306
 4019SOL    HW223520   0.596   3.284   3.408  0.2441 -0.4179  0.9214
 4020SOL     OW23521   3.044   1.991   8.520  0.3383  0.1627  0.0233
 4020SOL    HW123522   2.963   1.942   8.504 -0.5961  2.2100 -1.4678
 4020SOL    HW223523   3.023   2.073   8.476  0.4056  1.2029  1.9369
 4021SOL     OW23524   4.263   1.026  14.837  0.1512 -0.3975 -0.8743
 4021SOL    HW123525   4.256   1.084  14.761  3.3288 -1.6649 -2.1301
 4021SOL    HW223526   4.185   0.973  14.822 -0.6076  0.6343 -0.5632
 4022SOL     OW23527   0.419   1.100  15.219 -0.4816  0.4752 -0.0381
 4022SOL    HW123528   0.398   1.171  15.279 -1.9364 -1.0889  1.2924
 4022SOL    HW223529   0.509   1.121  15.193 -0.6081  0.1856 -0.7280
 4023SOL     OW23530   1.108   0.227   3.520 -0.5682 -0.5093 -0.2327
 4023SOL    HW123531   1.195   0.229   3.481  0.5208 -1.3462  2.1131
 4023SOL    HW223532   1.091   0.132   3.524 -2.8460 -0.1492 -1.5317
 4024SOL     OW23533   0.626   0.690  15.802 -0.1701  0.0065 -0.2878
 4024SOL    HW123534   0.544   0.672  15.756 -0.8359  0.8741  0.5623
 4024SOL    HW223535   0.639   0.770  15.752  1.6857  0.0197  0.2171
 4025SOL     OW23536   4.407   0.691  16.188  0.1297  0.5591  0.1139
 4025SOL    HW123537   4.373   0.688  16.098  0.9472 -1.2637 -0.1162
 4025SOL    HW223538   4.322   0.693  16.234  0.2433  1.1055  0.3078
 4026SOL     OW23539   3.294   4.720   1.296 -0.2861  0.0803  0.0479
 4026SOL    HW123540   3.214   0.039   1.269  0.1575  0.2449 -1.0060
 4026SOL    HW223541   3.282   4.724   1.391  2.5465  1.6007  0.3433
 4027SOL     OW23542   4.376   0.896  11.208  0.1135  0.1368 -0.6415
 4027SOL    HW123543   4.408   0.806  11.211 -2.1554 -0.6562 -0.3117
 4027SOL    HW223544   4.284   0.889  11.234  0.1965 -2.2981 -1.0264
 4028SOL     OW23545   0.192   4.570   4.212 -0.1589  0.1084  0.2345
 4028SOL    HW123546   0.124   4.587   4.146  1.3277 -2.3334 -1.9376
 4028SOL    HW223547   0.237   4.496   4.171 -0.1817 -0.6662  1.6148
 4029SOL     OW23548   0.482   2.326   1.487 -0.0736  0.9233  0.2090
 4029SOL    HW123549   0.522   2.391   1.545  0.9343 -0.3421  0.9297
 4029SOL    HW223550   0.553   2.314   1.424 -1.6095 -1.3562 -1.0652
 4030SOL     OW23551   2.197   0.615   5.011 -0.3415 -0.2153  0.3479
 4030SOL    HW123552   2.191   0.532   5.059  0.7590 -0.6223 -0.2099
 4030SOL    HW223553   2.285   0.622   4.974 -1.0194 -1.8836 -1.5685
 4031SOL     OW23554   1.476   0.532   5.513 -0.3716 -0.2976 -0.2606
 4031SOL    HW123555   1.524   0.566   5.588  0.3209 -0.3668 -0.6779
 4031SOL    HW223556   1.410   0.601   5.503 -1.0008 -0.3813  3.3209
 4032SOL     OW23557   3.134   4.368   9.681 -1.0125  0.1534  0.2708
 4032SOL    HW123558   3.047   4.334   9.700 -1.1274 -0.2902 -1.0941
 4032SOL    HW223559   3.111   4.422   9.606  1.7024 -0.0817 -0.7523
 4033SOL     OW23560   0.400   3.452  10.662 -0.3084  0.0083  0.8193
 4033SOL    HW123561   0.441   3.538  10.671 -1.0582  0.0787  3.4930
 4033SOL    HW223562   0.361   3.426  10.746  0.0673 -1.4714  0.5407
 4034SOL     OW23563   4.193   4.424   8.525  0.0071 -0.9855  0.2997
 4034SOL    HW123564   4.120   4.484   8.536  1.5214  1.0552 -0.8243
 4034SOL    HW223565   4.250   4.448   8.598  0.0917 -1.3226  0.3458
 4035SOL     OW23566   4.330   2.508   2.153  0.0511 -0.0616  0.4891
 4035SOL    HW123567   4.277   2.448   2.100  0.4984  0.3675 -0.4459
 4035SOL    HW223568   4.398   2.527   2.088  1.7330 -3.8038  1.1453
 4036SOL     OW23569   3.158   1.262   6.484  0.1519  0.5533 -0.1567
 4036SOL    HW123570   3.116   1.224   6.407  2.1723  0.6623 -1.2993
 4036SOL    HW223571   3.110   1.216   6.553 -0.1392  0.7815 -0.2090
 4037SOL     OW23572   0.677   4.062   7.313  0.6273  0.2295 -0.1168
 4037SOL    HW123573   0.666   4.138   7.255  2.6214  0.0325 -0.7637
 4037SOL    HW223574   0.707   4.105   7.393 -0.4776 -0.0498  0.4465
 4038SOL     OW23575   2.935   0.302   5.716 -0.3242  0.5498  0.3330
 4038SOL    HW123576   2.916   0.317   5.623 -2.7440 -1.4433  0.4974
 4038SOL    HW223577   2.855   0.257   5.742  0.3692  0.0958  1.6983
 4039SOL     OW23578   4.148   0.181   7.692 -0.6009  0.0585 -0.3900
 4039SOL    HW123579   4.089   0.116   7.731 -0.3688  0.2112  0.2123
 4039SOL    HW223580   4.184   0.224   7.770  0.3425 -0.8621 -0.3196
 4040SOL     OW23581   4.632   4.381   6.566  0.4355  0.1642 -0.3538
 4040SOL    HW123582   4.609   4.473   6.550  1.4701  0.4542 -0.1758
 4040SOL    HW223583   4.703   4.365   6.503 -0.5197 -0.1485 -1.3549
 4041SOL     OW23584   2.026   4.003   8.391  0.0461  0.1953  0.4241
 4041SOL    HW123585   2.068   3.917   8.385  1.6540  0.8499  2.5915
 4041SOL    HW223586   1.933   3.981   8.391  0.4741 -1.6266 -1.0334
 4042SOL     OW23587   0.665   1.545   9.294 -0.4399 -0.0030  0.5287
 4042SOL    HW123588   0.697   1.458   9.318  0.6367  0.1419 -0.3957
 4042SOL    HW223589   0.670   1.540   9.199 -0.9182  0.5445  0.4743
 4043SOL     OW23590   1.938   2.480   8.490 -0.5307  0.2076  0.7662
 4043SOL    HW123591   1.969   2.567   8.462  0.1105  0.4125  2.0991
 4043SOL    HW223592   1.961   2.425   8.416 -0.4803  1.0028  0.1814
 4044SOL     OW23593   3.218   1.544   9.191  0.1860 -0.0972 -0.1046
 4044SOL    HW123594   3.192   1.635   9.202  3.6652  0.9267 -0.3500
 4044SOL    HW223595   3.305   1.560   9.228  0.4994 -1.1915 -0.3672
 4045SOL     OW23596   3.541   2.551   4.236  0.0370 -0.7174  0.5053
 4045SOL    HW123597   3.627   2.521   4.264 -0.4294 -2.0414  0.5245
 4045SOL    HW223598   3.549   2.646   4.235 -1.9452 -0.5581 -0.4964
 4046SOL     OW23599   4.465   4.560   4.312 -0.2295  0.1919  0.2138
 4046SOL    HW123600   4.382   4.513   4.301 -0.3447  0.4903 -0.2070
 4046SOL    HW223601   4.466   4.619   4.236  1.3840 -0.1046  0.0021
 4047SOL     OW23602   3.118   3.575   6.560  0.0681 -0.5113  0.0337
 4047SOL    HW123603   3.125   3.615   6.472  1.7319  1.2213  0.9428
 4047SOL    HW223604   3.135   3.481   6.552 -1.3277 -0.8531  1.1471
 4048SOL     OW23605   4.091   0.425   6.958  0.1153  0.1415  0.8660
 4048SOL    HW123606   4.072   0.506   6.910  2.2200 -1.3496 -2.5022
 4048SOL    HW223607   4.005   0.386   6.944 -0.1596  0.2870  2.1193
 4049SOL     OW23608   2.835   2.587   6.938  0.1668  0.1348 -0.4131
 4049SOL    HW123609   2.930   2.598   6.931 -0.0472 -0.0263 -3.6049
 4049SOL    HW223610   2.819   2.511   6.883  1.1586  0.1429 -0.7026
 4050SOL     OW23611   2.113   4.449   6.681 -0.1508 -0.1578  0.3947
 4050SOL    HW123612   2.081   4.538   6.695  1.9490  0.4759  1.2282
 4050SOL    HW223613   2.181   4.445   6.748  0.6161 -0.4028 -0.3818
 4051SOL     OW23614   2.296   1.863   5.211 -0.0075  0.0244 -0.2413
 4051SOL    HW123615   2.360   1.797   5.183  0.6570 -0.1610  1.6448
 4051SOL    HW223616   2.268   1.894   5.125  0.4926  0.5387 -0.2167
 4052SOL     OW23617   3.540   0.199   6.472 -0.2308 -0.3325  0.4465
 4052SOL    HW123618   3.585   0.144   6.408  1.4622 -0.9679  2.1861
 4052SOL    HW223619   3.495   0.131   6.520 -1.9835 -0.1215 -0.8939
 4053SOL     OW23620   0.543   3.574   3.251  0.0636  0.1532  0.2174
 4053SOL    HW123621   0.482   3.605   3.183 -0.7775 -0.0108  0.8951
 4053SOL    HW223622   0.626   3.604   3.215  0.5472 -0.3686  0.9059
 4054SOL     OW23623   2.519   2.518  17.213  0.1644 -0.3661 -0.1901
 4054SOL    HW123624   2.563   2.550  17.134 -1.0549  1.4038 -0.1628
 4054SOL    HW223625   2.534   2.587  17.278 -0.3169  0.3507 -0.8366
 4055SOL     OW23626   4.534   2.072   1.988 -0.2059  0.1929  0.2163
 4055SOL    HW123627   4.488   1.991   1.966  0.2548  0.0738 -0.3101
 4055SOL    HW223628   4.625   2.042   1.986 -0.4802 -0.6597  0.6118
 4056SOL     OW23629   0.558   3.835  16.193 -0.1210 -0.5770  0.3618
 4056SOL    HW123630   0.643   3.848  16.234 -0.0370  1.7928 -0.5975
 4056SOL    HW223631   0.516   3.767  16.245 -1.0052 -0.8296 -0.6874
 4057SOL     OW23632   0.111   2.619   5.089 -0.7215  0.3294 -0.0756
 4057SOL    HW123633   0.039   2.679   5.108  0.8631  1.3274  2.8832
 4057SOL    HW223634   0.095   2.541   5.142  1.3491  1.4423  2.1799
 4058SOL     OW23635   1.677   3.118   8.499  0.8047 -0.2295 -0.3320
 4058SOL    HW123636   1.689   3.132   8.593  1.1160 -4.5014  0.2406
 4058SOL    HW223637   1.591   3.080   8.486  0.7777 -0.4944  0.6861
 4059SOL     OW23638   0.877   0.173   7.926 -0.5404  0.3852  0.5591
 4059SOL    HW123639   0.807   0.114   7.900  1.0669 -0.6339 -1.4753
 4059SOL    HW223640   0.895   0.168   8.020  0.9819  0.3709  0.2676
 4060SOL     OW23641   3.961   2.968  11.993  0.1222 -0.5853  0.7975
 4060SOL    HW123642   3.919   3.026  11.931  0.2201 -2.7397 -1.2812
 4060SOL    HW223643   3.899   2.935  12.059 -0.1714 -0.3620  0.6297
 4061SOL     OW23644   3.311   2.817   7.255  0.1142  0.0358 -0.2834
 4061SOL    HW123645   3.221   2.841   7.233 -0.0840 -1.5134 -1.1250
 4061SOL    HW223646   3.336   2.842   7.344 -2.6195  1.3522  0.1133
 4062SOL     OW23647   1.907   1.501  10.428  0.2415 -0.4330  0.0522
 4062SOL    HW123648   1.954   1.554  10.491 -0.5821  0.2044  0.1338
 4062SOL    HW223649   1.823   1.509  10.474  1.1090  0.2175  1.5154
 4063SOL     OW23650   3.837   1.245   3.888 -0.3985 -0.7234 -0.4459
 4063SOL    HW123651   3.837   1.269   3.796  0.1661  0.0764 -0.2348
 4063SOL    HW223652   3.922   1.203   3.888 -0.0823 -0.0895  2.0934
 4064SOL     OW23653   3.106   2.120  14.064  0.0025  0.0842  0.7091
 4064SOL    HW123654   3.158   2.179  14.119  1.7308  0.3842 -1.2270
 4064SOL    HW223655   3.176   2.079  14.013  0.6178  2.2678 -0.2224
 4065SOL     OW23656   4.281   0.963  16.065  0.7555  0.3589  0.3951
 4065SOL    HW123657   4.288   1.042  16.118  1.3496  0.1848  0.5757
 4065SOL    HW223658   4.240   0.905  16.130 -1.8163  2.7386  0.8992
 4066SOL     OW23659   2.981   0.565   5.791 -0.5379 -0.1162 -0.2761
 4066SOL    HW123660   2.956   0.475   5.771 -2.2784  0.0493  1.1395
 4066SOL    HW223661   3.076   0.568   5.798 -0.5959  0.1433  0.4657
 4067SOL     OW23662   1.344   0.729  14.627 -0.0666  0.3209 -0.3940
 4067SOL    HW123663   1.349   0.634  14.615  1.3747  0.3273  0.1542
 4067SOL    HW223664   1.433   0.748  14.597  0.6696  0.9177  2.1731
 4068SOL     OW23665   3.853   2.808  16.509 -0.3362 -0.3318 -0.1731
 4068SOL    HW123666   3.860   2.770  16.422  2.2834 -0.3223  0.0216
 4068SOL    HW223667   3.848   2.903  16.502 -2.7915 -0.4691 -0.3717
 4069SOL     OW23668   1.971   0.169  10.842 -0.1624  0.2591 -0.8587
 4069SOL    HW123669   1.963   0.161  10.937 -2.9355 -1.6042 -1.2478
 4069SOL    HW223670   1.909   0.240  10.824 -3.2402 -1.7665  1.7317
 4070SOL     OW23671   2.860   0.974   3.032  0.4559 -0.3363  0.1618
 4070SOL    HW123672   2.825   1.044   2.977 -0.0162 -0.2427  0.5945
 4070SOL    HW223673   2.839   0.895   2.982  0.2608 -0.4712  0.4616
 4071SOL     OW23674   2.011   0.065   5.063  0.0615 -0.1703  0.2930
 4071SOL    HW123675   2.044   4.723   5.124  1.0014  1.7498  1.8794
 4071SOL    HW223676   2.006   0.000   4.993 -1.5007 -0.0026  0.2602
 4072SOL     OW23677   0.220   2.793  16.085  0.0936 -0.2364 -0.6137
 4072SOL    HW123678   0.165   2.759  16.015 -2.6185  1.0902  0.8762
 4072SOL    HW223679   0.293   2.732  16.095  0.1704  0.0514  0.6329
 4073SOL     OW23680   2.443   0.574  15.042 -0.6058  0.6272  0.1451
 4073SOL    HW123681   2.411   0.661  15.016  0.3273  1.1263  0.6583
 4073SOL    HW223682   2.378   0.560  15.112  0.8465 -0.0146  1.3638
 4074SOL     OW23683   3.545   2.301  14.289  0.1055  0.0390  0.1612
 4074SOL    HW123684   3.484   2.227  14.295  1.0572 -0.6974  0.8552
 4074SOL    HW223685   3.529   2.353  14.368 -1.0040  0.7874 -0.5512
 4075SOL     OW23686   1.491   3.988   6.935 -0.3301 -0.0736  0.2881
 4075SOL    HW123687   1.450   4.010   6.852  2.1871  0.1476 -0.8927
 4075SOL    HW223688   1.578   4.029   6.926  0.2376 -1.4392 -0.3392
 4076SOL     OW23689   4.253   4.413   6.471 -0.4493  0.0518 -0.4943
 4076SOL    HW123690   4.314   4.347   6.436  0.3775 -0.8943  2.7275
 4076SOL    HW223691   4.222   4.386   6.557 -0.9751 -1.1752 -1.0627
 4077SOL     OW23692   0.601   3.090   7.746  0.4023 -0.0486  0.3197
 4077SOL    HW123693   0.644   3.141   7.814 -0.3934  3.7506 -2.0078
 4077SOL    HW223694   0.676   3.033   7.728  0.7645  1.1688 -2.0387
 4078SOL     OW23695   3.543   4.615   8.807 -0.3985  0.2651 -0.0583
 4078SOL    HW123696   3.593   4.695   8.789 -0.8013  0.3388 -0.8346
 4078SOL    HW223697   3.615   4.566   8.848 -0.8806 -0.8470 -0.5417
 4079SOL     OW23698   0.655   3.110   4.066 -0.3592  0.3251 -1.0043
 4079SOL    HW123699   0.678   3.052   3.993  1.0111  0.1601 -0.4456
 4079SOL    HW223700   0.724   3.176   4.056  0.9847 -0.9970 -0.4227
 4080SOL     OW23701   0.568   4.659  11.816  0.0561 -0.3568  0.1223
 4080SOL    HW123702   0.657   4.642  11.786  0.1636 -0.9122  0.7588
 4080SOL    HW223703   0.573   4.710  11.896  1.3763  1.1324 -0.9022
 4081SOL     OW23704   3.970   0.127  10.991 -0.2223  0.6388  0.1196
 4081SOL    HW123705   3.895   0.104  10.935  1.0273 -2.5957 -0.2439
 4081SOL    HW223706   3.931   0.194  11.046  0.5567  0.2389  1.1707
 4082SOL     OW23707   1.363   3.724   2.961 -0.1072 -0.2787 -0.7721
 4082SOL    HW123708   1.419   3.724   2.884  1.8284  1.6645  0.6514
 4082SOL    HW223709   1.328   3.813   2.956 -1.5976 -0.6616  2.6569
 4083SOL     OW23710   2.516   1.217   8.454 -0.1895 -0.3089 -0.4014
 4083SOL    HW123711   2.556   1.170   8.527  0.6596  0.1261 -0.5864
 4083SOL    HW223712   2.457   1.147   8.427  0.3907 -1.1271  0.4360
 4084SOL     OW23713   3.769   0.353  10.017  0.4019 -0.0807  0.7294
 4084SOL    HW123714   3.774   0.425  10.080 -0.7062  0.9878 -0.4097
 4084SOL    HW223715   3.775   0.285  10.084 -0.0355  1.6658  2.5436
 4085SOL     OW23716   4.488   1.578   3.700 -0.0360  0.2030 -0.5967
 4085SOL    HW123717   4.579   1.601   3.683  0.5936 -0.5189  1.7902
 4085SOL    HW223718   4.467   1.514   3.632  3.2175 -1.7239  0.2269
 4086SOL     OW23719   3.555   3.899  13.264 -0.4697 -0.0236  0.4101
 4086SOL    HW123720   3.649   3.893  13.248  0.0294  4.1743  1.7199
 4086SOL    HW223721   3.526   3.937  13.181 -1.3481  0.0371  0.7361
 4087SOL     OW23722   2.785   1.818   1.786 -0.1922 -0.1705  0.3943
 4087SOL    HW123723   2.761   1.889   1.846  0.5553 -0.2299  0.7741
 4087SOL    HW223724   2.699   1.801   1.749 -0.9106 -0.1815  2.0959
 4088SOL     OW23725   0.619   1.214   5.577  0.2882 -0.2672  0.8097
 4088SOL    HW123726   0.651   1.190   5.664 -1.3834  1.3254  1.8623
 4088SOL    HW223727   0.529   1.182   5.579  0.0804  0.2681  0.1756
 4089SOL     OW23728   4.390   3.923   8.861 -0.7645  0.8273 -0.1834
 4089SOL    HW123729   4.475   3.967   8.861 -0.7343  0.7762  1.0170
 4089SOL    HW223730   4.340   3.988   8.910  2.3886  1.4818  2.1637
 4090SOL     OW23731   2.547   1.683   9.344  0.3685  0.0343  0.5017
 4090SOL    HW123732   2.574   1.616   9.281  1.9130  1.3736 -0.2378
 4090SOL    HW223733   2.478   1.638   9.393  0.2736  0.4425  0.7429
 4091SOL     OW23734   4.475   0.145   9.884 -0.3929  0.3995 -0.4535
 4091SOL    HW123735   4.553   0.187   9.920  0.6207 -1.1188 -0.8856
 4091SOL    HW223736   4.407   0.206   9.912 -0.8113 -0.2438 -0.0542
 4092SOL     OW23737   4.149   0.873  15.372 -0.0471 -0.2883 -0.1603
 4092SOL    HW123738   4.147   0.805  15.441 -0.5659 -0.0011  0.1049
 4092SOL    HW223739   4.239   0.902  15.387  0.1775 -0.2524 -1.6378
 4093SOL     OW23740   1.260   4.447   4.290  0.5939 -0.0930 -0.3459
 4093SOL    HW123741   1.240   4.397   4.369  1.3151  0.2756  0.0640
 4093SOL    HW223742   1.307   4.517   4.335 -0.1490 -2.1260  3.6032
 4094SOL     OW23743   0.545   2.805   5.964 -0.1280 -0.1587 -0.1118
 4094SOL    HW123744   0.486   2.731   5.981 -0.4008  0.0371 -0.2112
 4094SOL    HW223745   0.624   2.784   6.014  1.1155 -0.7591 -2.3241
 4095SOL     OW23746   2.477   3.183   4.875  0.1500  0.0348  0.3618
 4095SOL    HW123747   2.490   3.264   4.825 -0.0970  0.8659  1.6386
 4095SOL    HW223748   2.485   3.217   4.965  1.9932 -1.3717  0.7251
 4096SOL     OW23749   2.837   2.810   2.631 -0.2303 -0.3376 -0.1516
 4096SOL    HW123750   2.796   2.799   2.545 -1.9809  1.9217  0.4027
 4096SOL    HW223751   2.911   2.754   2.605 -0.8460 -1.5099  0.6149
 4097SOL     OW23752   2.717   2.408   6.761  0.0468 -0.3896 -0.3288
 4097SOL    HW123753   2.746   2.432   6.673  0.8025  0.2727  0.1090
 4097SOL    HW223754   2.710   2.316   6.737 -2.4150 -0.5221  0.9122
 4098SOL     OW23755   2.265   0.699   8.133 -0.0167 -0.0379  0.5588
 4098SOL    HW123756   2.322   0.635   8.176  1.1138 -1.0148 -2.3879
 4098SOL    HW223757   2.327   0.768   8.112 -1.5035  0.2461 -2.9290
 4099SOL     OW23758   1.305   2.191  10.732 -0.2034  0.0232  0.2567
 4099SOL    HW123759   1.397   2.198  10.755 -0.0746  0.5733 -0.4297
 4099SOL    HW223760   1.303   2.245  10.653  0.5028 -0.6411 -0.1999
 4100SOL     OW23761   4.321   3.462  13.617 -0.2234 -0.1278  0.0629
 4100SOL    HW123762   4.414   3.476  13.632 -0.6250  0.7789  1.7145
 4100SOL    HW223763   4.288   3.531  13.674 -0.0795 -1.4541  1.7218
 4101SOL     OW23764   2.791   3.835  13.859  0.2670 -0.1091  0.0564
 4101SOL    HW123765   2.703   3.874  13.851 -0.9358 -2.7864  0.2598
 4101SOL    HW223766   2.820   3.839  13.768  1.0421  0.8832  0.3576
 4102SOL     OW23767   1.416   4.618   6.237 -0.5156  0.4911  0.2454
 4102SOL    HW123768   1.456   4.701   6.209 -0.9893  0.1396 -1.4247
 4102SOL    HW223769   1.489   4.598   6.295  2.8159  1.4977 -3.6445
 4103SOL     OW23770   3.841   2.919   1.105 -0.1962 -0.3260 -0.3863
 4103SOL    HW123771   3.804   2.898   1.191  0.1220  1.6054  0.2142
 4103SOL    HW223772   3.819   2.841   1.054  0.3905  0.8933 -2.5059
 4104SOL     OW23773   4.642   2.833   7.261 -0.1246 -0.3784 -0.3153
 4104SOL    HW123774   0.008   2.861   7.250 -0.3748  0.3775 -0.5045
 4104SOL    HW223775   4.643   2.765   7.328  2.0790  0.5476  0.5831
 4105SOL     OW23776   2.051   1.661   8.226 -0.0678 -0.4236  0.4780
 4105SOL    HW123777   1.992   1.590   8.254  0.2224 -0.0160  2.1157
 4105SOL    HW223778   2.132   1.645   8.273 -0.7878  0.2208  1.9365
 4106SOL     OW23779   0.398   0.574   6.632  0.0307 -0.6689 -0.4073
 4106SOL    HW123780   0.485   0.585   6.672 -0.4043 -0.2955  0.4453
 4106SOL    HW223781   0.340   0.562   6.707 -0.6052  1.1669 -0.6120
 4107SOL     OW23782   2.382   1.861   9.061 -0.7168  0.2205  0.1831
 4107SOL    HW123783   2.449   1.919   9.025  1.6492 -2.9640 -0.5906
 4107SOL    HW223784   2.308   1.883   9.004 -1.8722 -3.5000  0.2524
 4108SOL     OW23785   1.820   2.820  12.813 -0.0028 -0.0672  0.0677
 4108SOL    HW123786   1.869   2.815  12.731 -0.9287 -3.1837 -0.3145
 4108SOL    HW223787   1.856   2.901  12.848  2.5478 -0.9939 -0.4584
 4109SOL     OW23788   0.848   2.117   6.127  0.0608 -0.4590 -0.1601
 4109SOL    HW123789   0.755   2.109   6.144 -0.4226 -0.7887 -2.9451
 4109SOL    HW223790   0.834   2.128   6.033  2.3727 -2.0117 -0.6828
 4110SOL     OW23791   2.278   4.037  11.739  0.6190 -0.2442  0.0126
 4110SOL    HW123792   2.373   4.031  11.752  0.3726 -0.8913  1.5281
 4110SOL    HW223793   2.257   4.129  11.756 -0.5525  0.0955 -3.2542
 4111SOL     OW23794   4.105   4.637   8.184 -0.2589  0.1071  0.0956
 4111SOL    HW123795   4.146   4.582   8.118 -1.4545 -0.2153 -0.3787
 4111SOL    HW223796   4.052   4.571   8.230 -1.1332  0.5086 -0.3305
 4112SOL     OW23797   4.165   0.424   8.214  0.0007 -0.1380  0.0462
 4112SOL    HW123798   4.115   0.350   8.249 -2.5034  2.2268  1.4875
 4112SOL    HW223799   4.089   0.476   8.189 -0.8795 -0.7789  1.4204
 4113SOL     OW23800   0.595   4.265  14.794  0.6069 -0.1953 -0.2626
 4113SOL    HW123801   0.629   4.180  14.765  0.4821 -0.2059 -0.3772
 4113SOL    HW223802   0.665   4.278  14.858 -0.4703  1.3058  0.6196
 4114SOL     OW23803   2.035   1.335   3.769  0.0211 -0.5263  0.9342
 4114SOL    HW123804   1.943   1.359   3.761 -0.7162 -3.3693  0.8933
 4114SOL    HW223805   2.070   1.365   3.685  1.2760  0.2068  1.7129
 4115SOL     OW23806   0.400   0.751  16.854 -0.1842 -0.7110  0.4260
 4115SOL    HW123807   0.322   0.799  16.828  1.1235  0.8442 -0.6528
 4115SOL    HW223808   0.424   0.787  16.939  0.3181 -1.4990  0.6186
 4116SOL     OW23809   1.770   3.080   0.386 -0.4296  0.3034 -0.1707
 4116SOL    HW123810   1.804   3.149   0.443  0.8559 -0.7481  0.3215
 4116SOL    HW223811   1.695   3.053   0.439  0.0534  2.5355  1.6274
 4117SOL     OW23812   1.910   3.650  17.586  0.1072  0.8422 -0.2838
 4117SOL    HW123813   1.912   3.654  17.490 -1.1193 -0.7539 -0.3767
 4117SOL    HW223814   1.990   3.599  17.599  0.2547  1.0821 -0.2549
 4118SOL     OW23815   0.197   3.306   2.750 -0.0643 -0.3639  0.1272
 4118SOL    HW123816   0.267   3.307   2.685 -0.3606 -1.8191 -0.2169
 4118SOL    HW223817   0.202   3.212   2.769  2.8133 -0.0354  1.0407
 4119SOL     OW23818   1.139   0.470   0.844 -0.1857 -0.0460 -0.2721
 4119SOL    HW123819   1.089   0.397   0.808 -1.1706  0.0679  0.8686
 4119SOL    HW223820   1.141   0.429   0.930  1.2697  0.0781 -0.2542
 4120SOL     OW23821   4.570   1.135   6.373  0.0428  0.7286 -0.2134
 4120SOL    HW123822   4.525   1.051   6.367 -0.0678  0.8573 -1.1120
 4120SOL    HW223823   4.655   1.112   6.335 -1.7758 -2.6578 -2.2316
 4121SOL     OW23824   1.423   3.694   0.337  0.2544 -0.2180 -0.2397
 4121SOL    HW123825   1.436   3.760   0.269 -1.5565 -0.5069 -0.8642
 4121SOL    HW223826   1.363   3.640   0.286  1.4557 -1.5733 -0.2145
 4122SOL     OW23827   0.403   1.520   8.197  0.5123 -0.3190  0.2648
 4122SOL    HW123828   0.397   1.609   8.162  0.3077 -0.3521  0.2170
 4122SOL    HW223829   0.496   1.510   8.217  0.5609  0.0599  0.2325
 4123SOL     OW23830   0.620   4.275  15.949  0.0454  0.0522 -0.7377
 4123SOL    HW123831   0.550   4.215  15.925  0.3748 -0.9123  0.6693
 4123SOL    HW223832   0.620   4.326  15.868  1.2908  2.9700  1.0867
 4124SOL     OW23833   2.223   0.767   8.665 -0.4182  0.0693 -0.0730
 4124SOL    HW123834   2.194   0.752   8.755 -0.7428  0.7628 -0.0662
 4124SOL    HW223835   2.148   0.731   8.617 -0.2341  0.3952 -0.5978
 4125SOL     OW23836   4.172   2.880   4.086  0.3077 -0.4333 -1.0398
 4125SOL    HW123837   4.213   2.958   4.123  1.7345 -2.0892  0.8691
 4125SOL    HW223838   4.084   2.894   4.119  1.3154  0.0044  1.4053
 4126SOL     OW23839   2.030   2.622   2.297  0.0327 -0.1933  0.3389
 4126SOL    HW123840   2.048   2.701   2.349  2.7852 -2.0871  2.2196
 4126SOL    HW223841   2.115   2.580   2.288  0.5859  0.6786  1.4021
 4127SOL     OW23842   2.761   2.244  13.438 -0.8879 -0.0479  0.0474
 4127SOL    HW123843   2.681   2.224  13.487 -0.8371  0.3797  0.2979
 4127SOL    HW223844   2.790   2.319  13.490 -1.0932  0.5360 -0.6782
 4128SOL     OW23845   1.186   1.580   9.223 -0.4767 -0.4736 -0.0891
 4128SOL    HW123846   1.192   1.632   9.303 -0.0216 -1.0538  0.2580
 4128SOL    HW223847   1.097   1.603   9.199 -0.5224  0.8210  1.3211
 4129SOL     OW23848   3.285   1.663   3.960 -0.1707 -0.3210 -0.1251
 4129SOL    HW123849   3.377   1.683   3.978 -0.6106 -0.1778  1.9879
 4129SOL    HW223850   3.284   1.637   3.868  0.3070 -1.0797  0.0824
 4130SOL     OW23851   3.547   0.591   3.429  0.3521  0.0008 -0.2065
 4130SOL    HW123852   3.539   0.637   3.345  0.4391  1.3442  0.5136
 4130SOL    HW223853   3.519   0.665   3.484  0.5703  0.2005 -0.3639
 4131SOL     OW23854   4.075   3.238   7.345  0.2539 -0.3433  0.8221
 4131SOL    HW123855   3.990   3.265   7.380 -0.1073  1.2290 -1.2069
 4131SOL    HW223856   4.128   3.303   7.391  0.3845  0.8007 -0.9239
 4132SOL     OW23857   4.498   0.588   8.388  0.3464 -0.0891 -0.0635
 4132SOL    HW123858   4.403   0.592   8.397  0.4588 -1.2000  1.5721
 4132SOL    HW223859   4.514   0.500   8.422  0.2222  0.4006  1.2579
 4133SOL     OW23860   2.323   3.365   0.314 -0.0884  0.2040 -0.0433
 4133SOL    HW123861   2.343   3.444   0.365 -0.0711  0.5649 -0.6087
 4133SOL    HW223862   2.309   3.301   0.384  1.8406  1.4811  1.5094
 4134SOL     OW23863   4.717   4.372  13.441 -0.5712 -0.2951 -0.4138
 4134SOL    HW123864   0.081   4.356  13.409 -0.1503  0.2506  0.4639
 4134SOL    HW223865   4.688   4.283  13.423 -0.9450  0.4938 -3.6911
 4135SOL     OW23866   2.680   1.902   6.472 -0.1004 -0.2591 -0.6761
 4135SOL    HW123867   2.649   1.842   6.404 -1.3787  1.5781 -1.7184
 4135SOL    HW223868   2.743   1.841   6.510  1.6070  1.7555 -0.2706
 4136SOL     OW23869   0.336   4.157   2.427 -0.4415 -0.1866 -0.4516
 4136SOL    HW123870   0.430   4.159   2.412 -0.5259 -3.0683 -1.3004
 4136SOL    HW223871   0.328   4.112   2.511  1.1488 -0.7825 -0.6400
 4137SOL     OW23872   3.487   2.906   6.413 -0.4159  0.4391 -0.2327
 4137SOL    HW123873   3.514   2.848   6.342 -0.7373 -0.6557  0.5406
 4137SOL    HW223874   3.498   2.847   6.488  0.5564  2.1134  0.9786
 4138SOL     OW23875   1.823   3.694   3.608 -0.8259 -0.7644 -0.0524
 4138SOL    HW123876   1.740   3.698   3.560 -2.9342 -0.5940  3.5917
 4138SOL    HW223877   1.854   3.605   3.587 -2.0101 -1.3999  0.8756
 4139SOL     OW23878   4.454   1.748   8.192  0.0648 -0.5183  0.1128
 4139SOL    HW123879   4.508   1.783   8.122  1.2213  0.6956  1.6101
 4139SOL    HW223880   4.469   1.824   8.249  1.4931 -0.5566 -0.2077
 4140SOL     OW23881   2.949   4.674   0.540  0.0242 -0.0022  0.7002
 4140SOL    HW123882   2.889   0.021   0.517  1.9752  1.3993 -0.0564
 4140SOL    HW223883   3.030   4.718   0.566  0.5953 -1.0817  0.7631
 4141SOL     OW23884   2.688   1.930  11.597 -0.1310  0.2072 -0.7271
 4141SOL    HW123885   2.749   1.888  11.658 -1.3134 -1.6243 -0.8062
 4141SOL    HW223886   2.715   1.874  11.524  2.3184  0.2790  0.1038
 4142SOL     OW23887   0.188   3.931   7.365  0.5794  0.1607 -0.2113
 4142SOL    HW123888   0.226   3.996   7.424  1.0518  1.1362 -1.6029
 4142SOL    HW223889   0.149   3.985   7.296  1.5110 -0.1277 -0.9631
 4143SOL     OW23890   1.588   1.602   4.215  0.0848 -0.1269  0.1174
 4143SOL    HW123891   1.650   1.560   4.156 -2.3547 -2.0821 -1.0768
 4143SOL    HW223892   1.621   1.692   4.211  0.2481 -0.2438 -1.4405
 4144SOL     OW23893   4.300   4.576  14.533 -0.5376 -0.3467  0.8072
 4144SOL    HW123894   4.300   4.558  14.439 -0.0284  3.5081  0.0471
 4144SOL    HW223895   4.230   4.642  14.526  0.4290  0.3616 -2.1563
 4145SOL     OW23896   1.741   3.473   8.999 -0.5412 -0.1309  0.8467
 4145SOL    HW123897   1.714   3.406   8.937  1.1722  1.7420 -1.8979
 4145SOL    HW223898   1.790   3.410   9.053 -0.0356  0.6313  1.2803
 4146SOL     OW23899   0.665   1.555   3.279  0.1834  0.9517 -0.3059
 4146SOL    HW123900   0.603   1.484   3.296  0.2857  0.8882 -0.1957
 4146SOL    HW223901   0.615   1.632   3.308  0.9753  1.2802  0.1967
 4147SOL     OW23902   3.050   1.946   5.137  0.3116 -0.2176  0.3856
 4147SOL    HW123903   3.055   2.029   5.090 -0.3464 -0.5623 -0.2944
 4147SOL    HW223904   3.115   1.889   5.095  1.4081  2.2690 -1.3031
 4148SOL     OW23905   3.666   4.205  14.326 -0.2410  0.2317  0.1828
 4148SOL    HW123906   3.706   4.127  14.287 -2.2004 -2.0867  2.7760
 4148SOL    HW223907   3.694   4.277  14.270  1.1818 -1.4646 -1.3012
 4149SOL     OW23908   0.419   2.345   3.391 -0.1526  0.6447  0.6453
 4149SOL    HW123909   0.385   2.256   3.379 -0.7967  1.2200 -1.5952
 4149SOL    HW223910   0.428   2.379   3.302  1.0558  0.0352  0.5261
 4150SOL     OW23911   1.035   0.226  13.284 -0.0358 -0.2752  0.4869
 4150SOL    HW123912   1.131   0.225  13.280  0.0067  0.4259  1.3594
 4150SOL    HW223913   1.015   0.168  13.358 -1.9866 -0.7587 -0.4168
 4151SOL     OW23914   1.872   0.977   4.596  0.3081  0.2793 -0.6759
 4151SOL    HW123915   1.800   0.918   4.573 -1.4645  1.9955  0.3808
 4151SOL    HW223916   1.819   1.052   4.625  0.0082  0.2755 -1.2227
 4152SOL     OW23917   3.128   3.396  11.342  0.1812  0.0661  0.8428
 4152SOL    HW123918   3.064   3.342  11.388 -0.3719  0.0887  0.1036
 4152SOL    HW223919   3.119   3.476  11.394 -0.5537  0.4028  0.2015
 4153SOL     OW23920   0.150   1.921   5.197  0.4289  0.3100 -0.7618
 4153SOL    HW123921   0.178   1.855   5.133  1.7927 -0.1111  0.2700
 4153SOL    HW223922   0.153   2.004   5.151 -0.6557 -0.8852 -2.9868
 4154SOL     OW23923   3.432   3.991   7.038 -0.0586  0.3828  0.3462
 4154SOL    HW123924   3.497   3.967   6.973 -0.2132 -0.7181  0.5935
 4154SOL    HW223925   3.355   3.983   6.981  1.4915 -0.0941 -1.6608
 4155SOL     OW23926   3.570   0.714   9.408  0.5526 -0.4724 -0.2392
 4155SOL    HW123927   3.533   0.626   9.416 -2.1013  0.6602 -0.3524
 4155SOL    HW223928   3.664   0.694   9.408  0.1367 -2.3857 -1.9099
 4156SOL     OW23929   2.257   0.680   4.210  0.1717 -0.2060 -0.0329
 4156SOL    HW123930   2.234   0.770   4.186 -0.6099 -0.9994 -2.2250
 4156SOL    HW223931   2.180   0.657   4.262  0.7439 -1.1565  0.3882
 4157SOL     OW23932   2.067   1.715   1.621 -0.1275  0.5129  0.5458
 4157SOL    HW123933   2.088   1.645   1.559  3.0583  1.1898  0.8334
 4157SOL    HW223934   2.159   1.730   1.644  0.8233 -2.1353 -1.4711
 4158SOL     OW23935   4.199   1.457   6.834 -0.6882  0.2187 -0.4569
 4158SOL    HW123936   4.205   1.547   6.865 -2.7305 -0.0784  0.8387
 4158SOL    HW223937   4.244   1.473   6.752  1.8440  0.2859  0.9570
 4159SOL     OW23938   0.463   1.120   6.222  0.8117 -0.1966  0.1522
 4159SOL    HW123939   0.427   1.195   6.270 -1.0559 -1.2968  0.4509
 4159SOL    HW223940   0.415   1.045   6.258  1.5689 -1.0254 -0.5573
 4160SOL     OW23941   2.331   1.054   9.487  0.0924 -0.6615 -0.6308
 4160SOL    HW123942   2.246   1.031   9.525  0.1746  0.5271  0.2799
 4160SOL    HW223943   2.309   1.143   9.460 -0.4278 -1.0103 -1.3318
 4161SOL     OW23944   0.518   0.754   8.744  0.1485 -0.2194  0.7754
 4161SOL    HW123945   0.578   0.709   8.803  1.4141 -1.7662 -1.6659
 4161SOL    HW223946   0.430   0.723   8.765  0.5453 -2.0385 -0.1970
 4162SOL     OW23947   0.285   1.367   6.919 -0.4584  0.2026  0.4966
 4162SOL    HW123948   0.332   1.449   6.907  2.5122 -0.8867  4.6832
 4162SOL    HW223949   0.349   1.296   6.917  0.2452  0.8086  1.5258
 4163SOL     OW23950   4.561   0.672   1.415  0.0254 -0.0939  0.1755
 4163SOL    HW123951   4.594   0.603   1.357  2.7742  0.6415  0.8807
 4163SOL    HW223952   4.639   0.717   1.448 -0.4163  2.0005 -1.6298
 4164SOL     OW23953   4.668   2.191   5.735 -0.0740  0.1425 -0.1893
 4164SOL    HW123954   4.603   2.121   5.742 -0.0927 -0.0187 -1.9552
 4164SOL    HW223955   4.609   2.257   5.774 -1.2303 -0.6731 -0.5521
 4165SOL     OW23956   4.076   1.317  11.181  0.3568  0.1191  0.4319
 4165SOL    HW123957   4.107   1.400  11.215  0.2300  0.1303  0.5190
 4165SOL    HW223958   3.998   1.303  11.236 -0.4455 -4.1503 -1.7353
 4166SOL     OW23959   3.198   0.889   5.994  0.1923  0.2577  0.0038
 4166SOL    HW123960   3.153   0.964   5.956  2.1197  0.8814 -1.0537
 4166SOL    HW223961   3.245   0.860   5.916  0.0012  0.2042 -0.0913
 4167SOL     OW23962   4.475   0.317   5.815 -0.3611 -0.6289  0.2583
 4167SOL    HW123963   4.530   0.277   5.883  1.3642 -0.9973 -1.3395
 4167SOL    HW223964   4.498   0.280   5.730 -0.5721 -0.0440 -0.0528
 4168SOL     OW23965   2.998   1.825   2.052  0.4579  0.3266 -0.0477
 4168SOL    HW123966   2.981   1.746   2.000  1.5296  2.2792 -3.3936
 4168SOL    HW223967   2.967   1.894   1.993 -0.5199  0.2619  0.3924
 4169SOL     OW23968   1.452   1.033   8.159 -0.3813  0.5355 -0.0619
 4169SOL    HW123969   1.402   0.998   8.085 -0.9933  2.9246 -0.7654
 4169SOL    HW223970   1.382   1.034   8.224  0.0181  0.3427  0.3797
 4170SOL     OW23971   2.320   3.110   2.998 -0.2015  0.5825  0.5741
 4170SOL    HW123972   2.315   3.061   2.916  0.5439  1.6835 -0.1225
 4170SOL    HW223973   2.255   3.059   3.046  0.2052  0.3548  0.8884
 4171SOL     OW23974   4.460   1.582   1.279 -0.2273 -0.1086 -0.1815
 4171SOL    HW123975   4.469   1.503   1.331  1.4049 -0.9782 -1.7809
 4171SOL    HW223976   4.539   1.573   1.225 -1.0721 -0.2545 -1.3828
 4172SOL     OW23977   3.216   4.066   3.534 -0.2794 -0.7031  0.4573
 4172SOL    HW123978   3.266   4.040   3.610 -0.2488  1.3162  1.1172
 4172SOL    HW223979   3.267   4.141   3.505  1.0694 -0.6465  3.0661
 4173SOL     OW23980   2.549   2.969   2.562  0.0369  0.8562 -0.1083
 4173SOL    HW123981   2.506   2.885   2.546  0.4747  0.3280  1.4814
 4173SOL    HW223982   2.522   3.004   2.647 -0.7303 -0.5516  0.2142
 4174SOL     OW23983   2.160   0.375   9.424  0.0266  0.7225  0.5538
 4174SOL    HW123984   2.144   0.466   9.398  0.8638  0.3038 -1.4838
 4174SOL    HW223985   2.073   0.343   9.445  0.7811 -1.5860  0.1470
 4175SOL     OW23986   1.344   3.764   5.039  0.4288 -0.8164  0.6666
 4175SOL    HW123987   1.371   3.842   5.087  0.5516 -0.7650  0.5129
 4175SOL    HW223988   1.266   3.729   5.083  1.1580 -0.1395  2.4861
 4176SOL     OW23989   2.265   2.430   4.547 -0.5028  0.4328  0.1709
 4176SOL    HW123990   2.264   2.503   4.484 -1.5134 -0.2836 -0.6373
 4176SOL    HW223991   2.348   2.388   4.526 -0.3071  0.6586  0.4872
 4177SOL     OW23992   3.165   0.056   3.422 -0.1668 -0.1723  0.0320
 4177SOL    HW123993   3.212   4.709   3.467 -0.2145  0.2929  0.8212
 4177SOL    HW223994   3.153   0.012   3.338  1.9248  2.8534 -1.8361
 4178SOL     OW23995   4.143   2.205   2.602 -0.0306  0.1538 -0.4715
 4178SOL    HW123996   4.192   2.139   2.553  1.2083 -0.0310  1.0191
 4178SOL    HW223997   4.079   2.240   2.540 -1.3189  0.9587  1.2901
 4179SOL     OW23998   4.663   2.698   1.431  0.5667 -0.4877 -0.0347
 4179SOL    HW123999   0.003   2.762   1.460 -0.3734  0.3909  0.1333
 4179SOL    HW224000   4.694   2.680   1.342 -0.6031  0.6440 -0.6663
 4180SOL     OW24001   1.558   3.597  11.202 -0.1975 -0.1639 -1.0662
 4180SOL    HW124002   1.618   3.671  11.212 -0.4041 -0.5201  2.4742
 4180SOL    HW224003   1.541   3.600  11.107  0.0335 -1.9049 -1.1516
 4181SOL     OW24004   3.675   1.665   6.136  0.3317  0.4297 -0.4592
 4181SOL    HW124005   3.706   1.743   6.181  0.2025  2.1525 -3.3433
 4181SOL    HW224006   3.586   1.687   6.109 -0.0701 -0.3396  0.2365
 4182SOL     OW24007   1.801   3.607   0.253  0.5680 -0.5662  0.2058
 4182SOL    HW124008   1.888   3.645   0.240  0.4999 -0.7176 -0.6966
 4182SOL    HW224009   1.796   3.607   0.349 -0.1951 -3.2587  0.1444
 4183SOL     OW24010   2.630   2.196  13.075 -0.1996  0.0125 -0.4412
 4183SOL    HW124011   2.567   2.237  13.015 -1.8697  0.9653  1.9735
 4183SOL    HW224012   2.566   2.171  13.142 -0.6693 -0.8450 -1.2033
 4184SOL     OW24013   1.535   0.470   2.996  0.3143  0.0969 -0.1036
 4184SOL    HW124014   1.509   0.414   2.923  1.5450  0.7158 -1.0078
 4184SOL    HW224015   1.624   0.436   2.988  0.3715  0.1372  0.3352
 4185SOL     OW24016   0.683   0.429   4.026 -0.3338  0.8782 -0.4200
 4185SOL    HW124017   0.704   0.517   4.057  0.9388  0.4530 -0.1031
 4185SOL    HW224018   0.589   0.429   4.044 -0.3501  1.0127 -0.5050
 4186SOL     OW24019   3.334   0.810   8.696 -0.3677 -0.4169 -0.6684
 4186SOL    HW124020   3.382   0.857   8.764 -0.8018  2.2775 -2.2620
 4186SOL    HW224021   3.345   0.870   8.622 -1.7199 -1.4682 -1.7234
 4187SOL     OW24022   1.654   2.756   4.245 -0.5400  0.1620 -0.1712
 4187SOL    HW124023   1.622   2.832   4.197  0.0785 -0.9590 -2.3662
 4187SOL    HW224024   1.705   2.783   4.322  0.3144  1.4336 -1.2048
 4188SOL     OW24025   3.293   1.292   3.863  0.7484 -0.2651  0.0369
 4188SOL    HW124026   3.273   1.321   3.952  1.9743 -0.4338  0.3722
 4188SOL    HW224027   3.376   1.333   3.841  1.0196 -0.4346  0.7247
 4189SOL     OW24028   4.559   4.524  17.355  0.0823  0.1721  1.0275
 4189SOL    HW124029   4.629   4.481  17.404  0.8097  0.2639  0.0748
 4189SOL    HW224030   4.612   4.569  17.288  1.4779 -0.3807  1.7466
 4190SOL     OW24031   2.957   2.147   6.109  0.2129 -0.5140 -0.3292
 4190SOL    HW124032   3.011   2.144   6.030  0.1805 -0.4844 -0.3523
 4190SOL    HW224033   2.885   2.204   6.084 -0.2457 -1.7927 -1.8993
 4191SOL     OW24034   0.355   2.345   3.117  0.0303  0.3874 -0.0298
 4191SOL    HW124035   0.393   2.419   3.069  1.0680  0.7596  1.3595
 4191SOL    HW224036   0.372   2.277   3.051 -0.8272  0.0077  0.1539
 4192SOL     OW24037   0.195   4.269  16.076 -0.2770 -0.2046 -0.1858
 4192SOL    HW124038   0.201   4.296  16.167 -3.0549 -0.2939  0.0349
 4192SOL    HW224039   0.260   4.327  16.037  0.8852 -1.4256 -0.0890
 4193SOL     OW24040   3.245   2.259   6.529  0.1782  0.2810  0.4151
 4193SOL    HW124041   3.172   2.247   6.469  0.5421 -0.7327  0.1754
 4193SOL    HW224042   3.272   2.169   6.549 -0.5384 -0.4255 -1.7316
 4194SOL     OW24043   1.155   3.845  15.855 -0.1101 -0.1771 -0.3097
 4194SOL    HW124044   1.150   3.759  15.813  0.2182  1.8459 -4.4444
 4194SOL    HW224045   1.068   3.860  15.892  0.5149  2.1424  0.2486
 4195SOL     OW24046   0.334   2.794   0.365  0.2578  0.2990  0.0744
 4195SOL    HW124047   0.350   2.738   0.289  0.7487 -0.4183  0.7012
 4195SOL    HW224048   0.420   2.801   0.407 -1.0902  2.0565  2.5189
 4196SOL     OW24049   1.025   3.489   1.463 -0.1288  0.3876 -0.2872
 4196SOL    HW124050   0.948   3.480   1.519  0.0852 -1.3814 -0.2559
 4196SOL    HW224051   1.024   3.583   1.444  0.3958  0.2342 -1.1001
 4197SOL     OW24052   2.303   4.102   3.752 -0.4323 -0.0673 -0.1781
 4197SOL    HW124053   2.291   4.192   3.723 -0.4296  0.2149  0.7124
 4197SOL    HW224054   2.257   4.063   3.678  1.6866  1.8373 -2.4845
 4198SOL     OW24055   1.020   1.282   4.977 -0.3470 -0.4631  0.5452
 4198SOL    HW124056   0.932   1.261   5.008 -1.5443  3.2645 -0.2453
 4198SOL    HW224057   1.042   1.203   4.928  1.0432  0.8474 -0.9557
 4199SOL     OW24058   2.644   3.186  11.184  0.2248 -0.3357 -0.2448
 4199SOL    HW124059   2.657   3.273  11.145  2.5919  0.0767  1.4945
 4199SOL    HW224060   2.558   3.198  11.225  0.6559  1.0329  0.2591
 4200SOL     OW24061   3.239   2.058  11.083 -0.3294 -0.3496  0.1110
 4200SOL    HW124062   3.308   1.993  11.071  1.4711  1.2858  1.6348
 4200SOL    HW224063   3.170   2.018  11.030  0.8021  1.5215 -2.7793
 4201SOL     OW24064   1.671   2.716   6.087 -0.3583 -0.3356 -0.0953
 4201SOL    HW124065   1.648   2.808   6.095 -3.1190 -0.9705 -0.9020
 4201SOL    HW224066   1.583   2.678   6.092  0.4855 -2.3763 -0.7974
 4202SOL     OW24067   0.334   3.398  10.919  0.2363  0.2176 -0.1022
 4202SOL    HW124068   0.394   3.327  10.898 -2.3669 -1.9741 -0.0980
 4202SOL    HW224069   0.366   3.418  11.007 -3.8064 -1.4880  1.7417
 4203SOL     OW24070   0.456   2.991   8.437  0.2365 -0.7055 -0.0668
 4203SOL    HW124071   0.419   2.911   8.475 -1.4279 -0.3566 -0.9553
 4203SOL    HW224072   0.379   3.046   8.424  0.2028 -0.6232  0.4810
 4204SOL     OW24073   0.161   0.030  15.051 -0.3456 -0.2113 -0.1076
 4204SOL    HW124074   0.149   4.690  14.982 -3.2356 -2.0225  2.0839
 4204SOL    HW224075   0.245   0.070  15.027 -1.6058  1.2975 -2.0059
 4205SOL     OW24076   1.868   2.438  15.780  0.0690  0.1092  0.8012
 4205SOL    HW124077   1.800   2.413  15.718  0.7318  1.1346 -0.3437
 4205SOL    HW224078   1.815   2.470  15.853  1.2180  2.4678  0.6196
 4206SOL     OW24079   3.240   0.005   6.426 -0.0281 -0.1080  0.1074
 4206SOL    HW124080   3.320   0.015   6.479 -1.1045  0.4441  1.6274
 4206SOL    HW224081   3.248   4.638   6.400 -0.4121 -0.8428  2.5798
 4207SOL     OW24082   1.898   4.114  15.160  0.6001 -0.4230 -0.1373
 4207SOL    HW124083   1.898   4.067  15.076  0.6570  0.9042 -0.8867
 4207SOL    HW224084   1.902   4.202  15.123  0.0611 -0.2372  0.2592
 4208SOL     OW24085   3.850   1.137   5.860  0.3922 -1.1299  0.8517
 4208SOL    HW124086   3.839   1.070   5.927  1.5917 -1.4172  0.7525
 4208SOL    HW224087   3.795   1.207   5.896 -0.4674 -1.5187  0.3033
 4209SOL     OW24088   4.530   4.380  14.606 -0.0113 -0.2216 -0.0707
 4209SOL    HW124089   4.442   4.349  14.629 -0.4942 -0.9614 -2.9845
 4209SOL    HW224090   4.533   4.473  14.628 -0.2358 -0.3111  0.3360
 4210SOL     OW24091   1.859   3.822   3.277  0.1227 -0.2741 -0.1119
 4210SOL    HW124092   1.924   3.832   3.346 -0.5582 -2.1975  0.8487
 4210SOL    HW224093   1.907   3.861   3.205 -0.7842 -0.5839 -0.8838
 4211SOL     OW24094   2.228   0.201   3.263  0.5389  0.2429 -0.2220
 4211SOL    HW124095   2.264   0.270   3.319 -0.4188  0.4549  0.1209
 4211SOL    HW224096   2.156   0.172   3.318  1.3093  2.0255  1.7270
 4212SOL     OW24097   0.456   0.627   2.508 -0.2189  0.0913 -0.0750
 4212SOL    HW124098   0.479   0.675   2.428  0.5922 -0.2135 -0.0271
 4212SOL    HW224099   0.515   0.553   2.495  0.9195  0.7143  1.6374
 4213SOL     OW24100   1.437   3.369   4.421  0.1406  0.6521 -0.0851
 4213SOL    HW124101   1.424   3.431   4.494  0.4946 -0.5478  0.9872
 4213SOL    HW224102   1.373   3.307   4.455  1.4415 -1.4037 -1.4048
 4214SOL     OW24103   4.374   4.350   3.676 -0.4118 -0.0379  0.7839
 4214SOL    HW124104   4.284   4.347   3.643 -0.2000  3.6755 -0.1503
 4214SOL    HW224105   4.393   4.258   3.695 -0.0352 -0.6944 -2.6913
 4215SOL     OW24106   0.875   2.428  13.991 -0.2929 -0.8488 -0.6381
 4215SOL    HW124107   0.888   2.519  14.017  1.9285 -0.8729 -1.6284
 4215SOL    HW224108   0.948   2.385  14.035  0.2224  2.0172  1.2767
 4216SOL     OW24109   4.652   1.505   3.108  0.3475 -0.2651  0.4155
 4216SOL    HW124110   0.003   1.509   3.048 -0.4106  1.2488 -0.4322
 4216SOL    HW224111   4.615   1.421   3.082 -3.1258  1.7979 -1.2372
 4217SOL     OW24112   3.305   3.515   3.648 -0.1124 -0.0151 -0.2718
 4217SOL    HW124113   3.313   3.601   3.606 -1.2394  1.9730  3.6079
 4217SOL    HW224114   3.210   3.499   3.644 -0.2378  0.9787 -1.1712
 4218SOL     OW24115   1.812   4.591   2.212 -0.1563 -0.8308  0.5414
 4218SOL    HW124116   1.858   4.571   2.130  1.5827  0.9105  1.1040
 4218SOL    HW224117   1.801   4.504   2.249  1.1515 -0.6494  1.3426
 4219SOL     OW24118   1.585   0.808   4.266 -0.7395 -0.1984 -0.7511
 4219SOL    HW124119   1.590   0.769   4.179  1.2870  0.8418 -1.1090
 4219SOL    HW224120   1.507   0.760   4.295 -0.0200 -0.9851 -0.1243
 4220SOL     OW24121   0.588   4.217   2.801  0.4872  0.0808 -0.3445
 4220SOL    HW124122   0.652   4.147   2.792  0.5725  0.0410  0.6278
 4220SOL    HW224123   0.517   4.168   2.761  0.7147 -2.0291  1.9090
 4221SOL     OW24124   2.854   3.213  10.133 -0.4032 -0.4436  0.0980
 4221SOL    HW124125   2.792   3.203  10.206  1.9841  0.4469  2.2386
 4221SOL    HW224126   2.891   3.295  10.164  0.3393 -0.5953 -0.3838
 4222SOL     OW24127   3.623   1.344   1.177 -0.4712  0.3517  0.0595
 4222SOL    HW124128   3.583   1.364   1.261  0.1253 -0.6377  0.5848
 4222SOL    HW224129   3.667   1.425   1.152  1.3616  0.2169  2.8916
 4223SOL     OW24130   0.952   1.416   6.930  0.1364  0.0964  0.4338
 4223SOL    HW124131   0.922   1.505   6.912  0.4126  0.4953  1.9715
 4223SOL    HW224132   0.974   1.375   6.846 -2.0228 -1.9039  0.8170
 4224SOL     OW24133   1.782   1.688   6.073  0.0683 -0.2281  0.0505
 4224SOL    HW124134   1.694   1.663   6.102 -0.7417  1.0524 -1.2905
 4224SOL    HW224135   1.833   1.609   6.091  1.9765  1.0122  0.0877
 4225SOL     OW24136   3.365   0.962   5.420  0.3928 -0.5078 -0.1297
 4225SOL    HW124137   3.391   1.002   5.503  1.9362  1.5083 -1.5704
 4225SOL    HW224138   3.451   0.922   5.405  1.2993  2.3414 -2.4475
 4226SOL     OW24139   3.281   2.515  12.433 -0.0482 -0.7230 -0.2533
 4226SOL    HW124140   3.300   2.582  12.367 -1.7061 -0.0714 -0.0695
 4226SOL    HW224141   3.305   2.437  12.383 -0.9564 -1.8532  1.0897
 4227SOL     OW24142   4.679   0.407  13.451 -0.3386 -0.1147 -0.5234
 4227SOL    HW124143   4.607   0.465  13.427 -1.1449 -0.7720  0.2981
 4227SOL    HW224144   0.029   0.465  13.434  0.5581 -1.0773  0.0774
 4228SOL     OW24145   4.234   0.835   5.672 -0.4896 -0.2669 -0.1884
 4228SOL    HW124146   4.215   0.829   5.766  0.9620 -1.0128  0.0533
 4228SOL    HW224147   4.244   0.743   5.646  2.9456 -0.0795  0.5609
 4229SOL     OW24148   0.337   1.569  12.057 -0.2101  0.4545  0.1879
 4229SOL    HW124149   0.394   1.605  11.990 -0.1910  2.8215  1.4685
 4229SOL    HW224150   0.372   1.480  12.051  1.6438  1.0626  1.9262
 4230SOL     OW24151   4.074   1.670  15.537 -0.5545  0.1366  0.4212
 4230SOL    HW124152   4.085   1.576  15.523  0.1561  0.3427 -0.4198
 4230SOL    HW224153   4.126   1.690  15.615  0.8346  2.9093 -1.1933
 4231SOL     OW24154   2.472   0.910   6.305  0.1997  0.3742 -0.0408
 4231SOL    HW124155   2.519   0.954   6.376  0.0280  0.0824  0.2526
 4231SOL    HW224156   2.499   0.958   6.226 -0.6363 -0.4148 -0.8015
 4232SOL     OW24157   4.311   1.189   4.714  0.1251  0.3586 -0.6901
 4232SOL    HW124158   4.316   1.167   4.621  1.1964 -1.7978 -0.1142
 4232SOL    HW224159   4.388   1.144   4.749 -0.3443  1.0940  1.2840
 4233SOL     OW24160   0.697   3.175  14.267 -0.0500  0.1752 -0.1540
 4233SOL    HW124161   0.684   3.089  14.226 -0.7968  0.2239 -0.0058
 4233SOL    HW224162   0.656   3.227  14.198  1.7460  1.5548 -0.1615
 4234SOL     OW24163   1.001   1.051   2.285 -0.3091  0.0112 -0.2383
 4234SOL    HW124164   0.927   1.082   2.232 -1.5390 -1.7742  0.4424
 4234SOL    HW224165   0.989   1.081   2.375  2.7611  2.4745 -0.6481
 4235SOL     OW24166   4.465   1.260   3.235  0.1113 -0.7768  0.2275
 4235SOL    HW124167   4.479   1.169   3.261  0.2214 -0.3378  1.7261
 4235SOL    HW224168   4.468   1.257   3.140  1.0677  0.2541  0.2226
 4236SOL     OW24169   2.361   1.016   7.947  0.3335  0.4357 -0.4731
 4236SOL    HW124170   2.413   0.946   7.907  1.0779  0.6438  0.1283
 4236SOL    HW224171   2.283   1.017   7.892 -1.2060  0.2373  1.7325
 4237SOL     OW24172   1.944   0.206   7.436 -0.4721  0.1450  0.2250
 4237SOL    HW124173   1.968   0.159   7.357 -0.4792 -0.4918  0.6043
 4237SOL    HW224174   2.028   0.193   7.479 -0.8378  2.8681  1.8254
 4238SOL     OW24175   2.841   4.580   7.248 -0.0990 -0.6775  0.4144
 4238SOL    HW124176   2.828   4.673   7.268 -1.8034 -0.7040 -0.5971
 4238SOL    HW224177   2.800   4.546   7.327  1.5806 -0.4488  1.4056
 4239SOL     OW24178   2.000   3.081   6.249  0.1582 -0.0988 -0.0851
 4239SOL    HW124179   1.913   3.120   6.253  0.0429 -0.2125 -1.3353
 4239SOL    HW224180   1.981   2.994   6.212  0.2441 -0.0808 -0.1711
 4240SOL     OW24181   3.160   1.867   2.256 -0.2010 -0.5877  0.1516
 4240SOL    HW124182   3.107   1.846   2.180 -2.5137 -1.3488  1.9526
 4240SOL    HW224183   3.242   1.897   2.218  0.1767  0.3708  1.7003
 4241SOL     OW24184   1.451   2.361   7.064 -0.1003  0.2853 -0.2432
 4241SOL    HW124185   1.491   2.434   7.018 -1.1774  0.3831 -1.0308
 4241SOL    HW224186   1.371   2.389   7.108 -0.4539  1.1942 -1.4604
 4242SOL     OW24187   0.752   4.187   8.388  0.2501  0.1958 -0.1633
 4242SOL    HW124188   0.748   4.209   8.481 -0.4537  1.7651 -0.5721
 4242SOL    HW224189   0.843   4.163   8.370  0.2298 -0.2728  0.3209
 4243SOL     OW24190   3.417   1.667   8.853  0.0112  0.1821 -0.6086
 4243SOL    HW124191   3.341   1.715   8.885 -0.0693 -0.4542  0.1375
 4243SOL    HW224192   3.461   1.661   8.938 -1.8100  0.6847  0.3634
 4244SOL     OW24193   4.524   4.408   7.858  0.4491 -0.4525  0.3136
 4244SOL    HW124194   4.587   4.475   7.832  2.2451 -2.1295  0.3480
 4244SOL    HW224195   4.523   4.410   7.953 -0.0983  2.4237  0.2482
 4245SOL     OW24196   1.715   1.381   3.803 -0.5320  0.1354 -0.0300
 4245SOL    HW124197   1.624   1.376   3.832 -0.5712 -0.9263 -0.3343
 4245SOL    HW224198   1.750   1.326   3.873 -1.0221  0.4870  0.4975
 4246SOL     OW24199   0.117   3.531  10.861 -0.1948 -0.4281 -0.0316
 4246SOL    HW124200   0.124   3.612  10.912 -1.5771 -0.4247  0.1540
 4246SOL    HW224201   0.199   3.494  10.892 -0.1574 -1.5979 -1.4980
 4247SOL     OW24202   3.857   3.413   7.436 -0.6574 -0.3969 -0.0850
 4247SOL    HW124203   3.921   3.480   7.459 -0.7642 -1.0052  1.9808
 4247SOL    HW224204   3.775   3.457   7.461 -1.6988 -3.7066  2.4300
 4248SOL     OW24205   2.218   1.320  10.648 -0.4513 -0.3421  0.5234
 4248SOL    HW124206   2.236   1.338  10.741  1.3875  1.0697 -0.1061
 4248SOL    HW224207   2.123   1.318  10.650 -0.5229  0.3392 -2.1677
 4249SOL     OW24208   3.259   4.397   8.502  0.2835  0.2903 -0.2040
 4249SOL    HW124209   3.225   4.470   8.555 -0.0329 -0.1648  0.2182
 4249SOL    HW224210   3.353   4.404   8.514  0.1697 -1.9175  1.9169
 4250SOL     OW24211   2.329   1.474   4.818 -0.1772 -0.4894 -0.0380
 4250SOL    HW124212   2.273   1.469   4.896 -0.0811 -1.7596 -0.0471
 4250SOL    HW224213   2.308   1.389   4.780 -0.4768 -1.1642  1.6472
 4251SOL     OW24214   1.755   2.900   8.308 -0.3566  0.0286 -0.1145
 4251SOL    HW124215   1.775   2.994   8.303  2.9274 -0.6359  0.6114
 4251SOL    HW224216   1.742   2.887   8.214 -0.6397  1.9799 -0.3553
 4252SOL     OW24217   0.884   4.049   2.464  0.0560 -0.2372  0.6473
 4252SOL    HW124218   0.830   3.991   2.410  0.8167 -1.2036  0.9311
 4252SOL    HW224219   0.821   4.050   2.536 -1.8717 -0.8561 -1.0426
 4253SOL     OW24220   0.737   3.875   2.305 -0.1979  1.1778 -0.3556
 4253SOL    HW124221   0.757   3.861   2.213 -0.0951 -3.5246  0.4163
 4253SOL    HW224222   0.649   3.840   2.311 -0.1688  1.2078  0.3128
 4254SOL     OW24223   4.521   3.216   5.014 -0.0458 -0.1332 -0.3150
 4254SOL    HW124224   4.434   3.192   5.046  0.3503  0.3382  1.1386
 4254SOL    HW224225   4.540   3.136   4.965 -0.2573  0.2227 -0.9812
 4255SOL     OW24226   4.261   3.997   8.260 -0.4165 -0.2340 -0.1031
 4255SOL    HW124227   4.318   3.952   8.322  1.2132  0.6129 -1.0005
 4255SOL    HW224228   4.210   4.042   8.328  0.6229  0.0047  0.5096
 4256SOL     OW24229   4.237   2.542   1.488 -0.1290  0.7886  0.3825
 4256SOL    HW124230   4.332   2.543   1.483 -0.2166  1.5454 -1.0865
 4256SOL    HW224231   4.218   2.629   1.453 -0.2304  0.2879 -0.8243
 4257SOL     OW24232   0.763   2.009  14.775  0.0863  0.6426  0.2052
 4257SOL    HW124233   0.683   1.960  14.792 -0.0473  1.0566  0.7981
 4257SOL    HW224234   0.817   1.931  14.766  1.7278  1.9490 -1.2513
 4258SOL     OW24235   2.680   0.850   1.715  0.2231  0.0175  0.2464
 4258SOL    HW124236   2.638   0.886   1.793  1.0044  2.6336 -0.5359
 4258SOL    HW224237   2.648   0.761   1.729 -0.6327  0.5658  1.8313
 4259SOL     OW24238   0.551   0.280  14.564 -0.0458  0.1486 -0.1128
 4259SOL    HW124239   0.464   0.247  14.586  0.0786  1.8466  2.8559
 4259SOL    HW224240   0.607   0.202  14.555  0.7078  0.9891 -2.7158
 4260SOL     OW24241   2.764   3.856  14.909 -0.0790  0.1612  0.3225
 4260SOL    HW124242   2.814   3.870  14.829 -0.9353  2.0066  0.1089
 4260SOL    HW224243   2.809   3.917  14.968 -0.3834  0.3408  0.3658
 4261SOL     OW24244   4.121   2.228   8.604  0.4595  0.3407 -0.1698
 4261SOL    HW124245   4.142   2.319   8.583  1.1868 -0.3786 -2.4306
 4261SOL    HW224246   4.194   2.180   8.565  0.3753 -0.1047  0.2191
 4262SOL     OW24247   2.194   3.497   8.286  0.3162  0.2886 -0.8760
 4262SOL    HW124248   2.192   3.543   8.370  1.1224  2.9071 -2.2896
 4262SOL    HW224249   2.243   3.416   8.295 -1.1510 -0.5879 -0.6448
 4263SOL     OW24250   3.304   0.476   7.979  0.0036  0.0353 -0.3500
 4263SOL    HW124251   3.310   0.489   8.073  1.5019  0.1665 -0.4627
 4263SOL    HW224252   3.215   0.442   7.969  0.1356 -0.4461  0.1072
 4264SOL     OW24253   1.446   3.039   7.871 -1.1169 -0.2363 -0.2034
 4264SOL    HW124254   1.510   3.095   7.827  0.6775 -0.6389  1.8836
 4264SOL    HW224255   1.447   3.073   7.961  3.9834 -1.1804  0.1264
 4265SOL     OW24256   4.035   2.634   7.943  0.5915 -0.1058 -0.4483
 4265SOL    HW124257   3.988   2.670   7.868 -0.1179  1.5465  0.7742
 4265SOL    HW224258   4.125   2.652   7.915  0.9516  1.0388  1.4022
 4266SOL     OW24259   0.985   2.010   7.121  0.4584  0.6768  0.1517
 4266SOL    HW124260   0.896   2.036   7.142  0.2626 -1.1332  1.5666
 4266SOL    HW224261   0.963   1.963   7.040  4.3150 -0.4949 -0.2160
 4267SOL     OW24262   3.942   3.601   3.408  0.7792  0.3807 -0.9549
 4267SOL    HW124263   4.024   3.628   3.367  1.3752 -0.2830 -0.2105
 4267SOL    HW224264   3.930   3.657   3.485  0.8586  0.1788 -0.7941
 4268SOL     OW24265   0.559   3.029   5.547  0.3610 -0.0950 -0.2905
 4268SOL    HW124266   0.639   3.021   5.598 -1.0464  0.3094  1.9787
 4268SOL    HW224267   0.493   3.006   5.612  0.4159  0.0592 -0.1795
 4269SOL     OW24268   3.650   2.874   8.790 -0.2926 -0.5530  0.5493
 4269SOL    HW124269   3.669   2.859   8.882  1.8648 -1.1854  0.0134
 4269SOL    HW224270   3.566   2.831   8.778 -0.8326  0.1770  1.8072
 4270SOL     OW24271   0.238   2.041   3.105 -0.4269  0.1403  0.2185
 4270SOL    HW124272   0.273   2.098   3.037  0.8315 -1.1690 -0.2522
 4270SOL    HW224273   0.145   2.046   3.085  0.1222  3.1259 -1.4944
 4271SOL     OW24274   2.131   2.524   5.622  0.0986  0.4407  0.2554
 4271SOL    HW124275   2.152   2.469   5.698 -0.9737 -1.6206 -0.9509
 4271SOL    HW224276   2.215   2.567   5.606 -0.0995  0.7297  0.0140
 4272SOL     OW24277   3.038   2.041  11.865 -0.0420 -0.0434 -0.1076
 4272SOL    HW124278   2.997   2.015  11.783  1.5136 -0.0109 -0.9009
 4272SOL    HW224279   3.123   2.066  11.829 -1.0035  5.2579  1.1879
 4273SOL     OW24280   3.045   2.733   3.660 -0.7539 -0.1023  0.7094
 4273SOL    HW124281   3.074   2.713   3.749 -0.8645  0.0612  0.7808
 4273SOL    HW224282   2.951   2.716   3.658 -0.6660 -0.4340 -0.5671
 4274SOL     OW24283   4.666   0.508   6.482  0.1442 -0.0149 -0.0470
 4274SOL    HW124284   4.580   0.471   6.460  1.0850 -1.8533 -0.5842
 4274SOL    HW224285   4.663   0.602   6.464  0.8708  0.0821  0.3506
 4275SOL     OW24286   1.917   2.270   7.004  0.1333  0.2827 -0.0634
 4275SOL    HW124287   1.889   2.326   6.931  3.1511 -0.0539 -1.4683
 4275SOL    HW224288   1.873   2.193   6.968  1.8340 -0.4033 -0.6668
 4276SOL     OW24289   4.319   4.487   9.109 -0.4387 -0.3919 -0.5668
 4276SOL    HW124290   4.245   4.539   9.076  0.5399  0.4040 -1.5122
 4276SOL    HW224291   4.279   4.402   9.093  1.0945 -0.8174 -2.2549
 4277SOL     OW24292   0.617   1.119  10.032  0.0555 -0.3362 -0.1674
 4277SOL    HW124293   0.594   1.203  10.073  1.6993  0.4861 -0.9231
 4277SOL    HW224294   0.548   1.129   9.966  0.2024 -0.3255 -0.3201
 4278SOL     OW24295   1.794   0.079   1.113 -0.4513  0.4189 -0.2392
 4278SOL    HW124296   1.860   0.105   1.049  0.1519 -1.7093 -0.4797
 4278SOL    HW224297   1.716   0.094   1.059 -1.8146 -1.0985  1.3357
 4279SOL     OW24298   3.956   4.291  17.358  0.1991  0.2012  1.0590
 4279SOL    HW124299   3.969   4.301  17.263 -2.8894 -0.4561  0.5865
 4279SOL    HW224300   4.005   4.372  17.377 -1.8652  2.3565 -2.8301
 4280SOL     OW24301   2.218   1.224   7.634 -0.5851  0.2950 -0.2871
 4280SOL    HW124302   2.157   1.183   7.572 -0.4279  0.3501 -0.4809
 4280SOL    HW224303   2.162   1.256   7.704  0.4436  1.1607  0.1348
 4281SOL     OW24304   2.554   2.854   9.258  0.3751  0.1497 -0.6035
 4281SOL    HW124305   2.549   2.950   9.256  1.2848  0.1918 -0.6904
 4281SOL    HW224306   2.460   2.836   9.251  0.1879 -0.0639  2.3695
 4282SOL     OW24307   2.455   3.015   6.548  0.4946 -0.0954  0.2898
 4282SOL    HW124308   2.431   3.074   6.477  1.1730 -0.3376 -0.1388
 4282SOL    HW224309   2.387   2.947   6.545  0.7119 -0.3177  0.3807
 4283SOL     OW24310   3.384   4.663   1.814 -0.2550 -0.2718 -0.1576
 4283SOL    HW124311   3.462   4.622   1.778  1.7909  2.1371  1.5554
 4283SOL    HW224312   3.423   0.016   1.854 -2.2530  1.1703 -0.9887
 4284SOL     OW24313   1.414   2.911   8.165 -0.2350  0.1609 -0.3679
 4284SOL    HW124314   1.466   2.988   8.185 -0.4231  0.0583  0.5398
 4284SOL    HW224315   1.478   2.842   8.151 -1.2228 -1.2545  2.0416
 4285SOL     OW24316   0.443   0.077   6.382 -0.1694 -0.4155  0.2717
 4285SOL    HW124317   0.419   0.159   6.425 -0.3557  1.2546 -2.9960
 4285SOL    HW224318   0.416   0.006   6.441 -0.2262  1.0898  2.0326
 4286SOL     OW24319   0.362   0.480  12.637  0.0278  0.2295 -0.5257
 4286SOL    HW124320   0.290   0.541  12.651 -1.6804 -1.1952 -2.9790
 4286SOL    HW224321   0.339   0.440  12.552  0.8439 -0.7102 -0.3105
 4287SOL     OW24322   0.592   3.324   1.982 -0.9894 -0.3208  0.3405
 4287SOL    HW124323   0.684   3.347   1.969 -0.4908 -2.5758 -0.1608
 4287SOL    HW224324   0.575   3.335   2.075  1.2420  0.3698  0.6746
 4288SOL     OW24325   0.453   4.010  10.125  0.3025  0.3051  0.1782
 4288SOL    HW124326   0.407   4.091  10.148  2.2416  1.2404  0.7504
 4288SOL    HW224327   0.516   4.009  10.197  0.7482  1.9441 -0.1825
 4289SOL     OW24328   4.557   0.161  14.398 -0.1138  0.6808 -0.4174
 4289SOL    HW124329   4.507   0.136  14.476 -2.4000 -0.2635 -2.1756
 4289SOL    HW224330   4.611   0.082  14.392  1.2950  1.6189 -0.1713
 4290SOL     OW24331   0.045   3.119   7.013 -0.4079 -0.0471  0.0746
 4290SOL    HW124332   0.004   3.147   6.931 -1.9825  1.6999  1.4607
 4290SOL    HW224333   0.139   3.133   7.002 -0.3481  0.4687  1.2094
 4291SOL     OW24334   1.925   3.427   8.544 -0.0220 -0.3408  0.3152
 4291SOL    HW124335   2.014   3.393   8.539 -0.5021 -1.9444  2.4721
 4291SOL    HW224336   1.887   3.382   8.469  1.9658 -1.9344  0.2577
 4292SOL     OW24337   3.497   2.367  13.410 -0.6799  0.0388  0.1789
 4292SOL    HW124338   3.588   2.351  13.383  0.1677  2.0784  1.7918
 4292SOL    HW224339   3.485   2.276  13.383  0.5687  0.6004 -2.2612
 4293SOL     OW24340   4.551   3.078   7.367  0.1672  0.0266  0.1567
 4293SOL    HW124341   4.591   2.998   7.333 -0.8290 -0.3839 -0.0613
 4293SOL    HW224342   4.468   3.081   7.320  1.1420  0.4069 -1.5191
 4294SOL     OW24343   1.398   0.162   1.703 -0.1283 -0.0854  0.7396
 4294SOL    HW124344   1.379   0.068   1.701 -0.5551  0.0123  0.3455
 4294SOL    HW224345   1.456   0.165   1.779 -0.2301 -1.3527  0.8660
 4295SOL     OW24346   1.431   0.744   1.658  0.0012 -0.0569  0.5871
 4295SOL    HW124347   1.414   0.791   1.576  1.4084  0.1630  0.4320
 4295SOL    HW224348   1.377   0.665   1.655  2.0327 -1.2654 -3.0048
 4296SOL     OW24349   2.309   3.242   5.482  0.4089  0.3001 -0.6017
 4296SOL    HW124350   2.232   3.289   5.450  1.5829  1.6321 -1.5144
 4296SOL    HW224351   2.325   3.272   5.571  2.0210 -2.6689  0.1078
 4297SOL     OW24352   0.541   0.802   6.193 -0.3500  0.4830 -0.1191
 4297SOL    HW124353   0.626   0.760   6.204 -0.3180  0.7231  0.5634
 4297SOL    HW224354   0.476   0.747   6.236  0.5547 -0.1160  0.4705
 4298SOL     OW24355   2.268   4.724   4.694 -0.1525 -0.3235  0.2240
 4298SOL    HW124356   2.179   4.705   4.665  0.0531 -1.4647  0.3269
 4298SOL    HW224357   2.301   0.030   4.609  0.7545  0.8925  1.0158
 4299SOL     OW24358   4.637   3.106  14.659 -0.6358  0.4783 -0.1965
 4299SOL    HW124359   4.699   3.059  14.714 -0.9786  0.0556 -0.1685
 4299SOL    HW224360   4.686   3.155  14.593  2.0631  0.4881  1.8168
 4300SOL     OW24361   2.932   3.930  14.686 -0.0254  0.0507  0.2041
 4300SOL    HW124362   3.002   3.902  14.627 -1.4389  0.3194 -1.6178
 4300SOL    HW224363   2.855   3.916  14.631  0.4715 -1.0203 -0.2161
 4301SOL     OW24364   2.248   2.848  15.220  0.0880  0.2363 -0.0542
 4301SOL    HW124365   2.243   2.763  15.176  2.0843  0.3689 -0.5279
 4301SOL    HW224366   2.342   2.865  15.219 -0.0675  1.0504 -0.7043
 4302SOL     OW24367   0.178   4.568   0.290  0.2645  0.5133  0.0320
 4302SOL    HW124368   0.149   4.578   0.199 -0.2637 -3.0050 -0.1861
 4302SOL    HW224369   0.155   4.654   0.326  3.4154  1.5194 -0.4084
 4303SOL     OW24370   4.568   4.019   4.020  0.2494  0.4542  0.0962
 4303SOL    HW124371   4.643   4.018   3.960 -0.6878  1.6967 -1.1037
 4303SOL    HW224372   4.561   4.112   4.042  2.3900  0.8701 -0.9849
 4304SOL     OW24373   1.417   2.283  14.704  0.0502 -0.2580 -0.6170
 4304SOL    HW124374   1.330   2.323  14.711 -0.2703 -1.2368  1.0356
 4304SOL    HW224375   1.467   2.362  14.683  0.3624 -0.6205 -1.2388
 4305SOL     OW24376   0.692   4.163   2.163  0.1132  0.0845  0.0937
 4305SOL    HW124377   0.656   4.215   2.091 -0.6363 -0.4681  0.0673
 4305SOL    HW224378   0.652   4.076   2.153  0.0605  0.3107 -1.5760
 4306SOL     OW24379   4.101   2.399  10.568  0.3276  0.2573  0.4891
 4306SOL    HW124380   4.081   2.387  10.475 -1.5221 -0.1233  0.9308
 4306SOL    HW224381   4.025   2.356  10.607  1.5753 -0.4687  2.0980
 4307SOL     OW24382   1.070   0.302   9.231 -0.2428 -0.0909  0.0030
 4307SOL    HW124383   0.980   0.278   9.212 -0.7944 -0.2805  2.8963
 4307SOL    HW224384   1.065   0.384   9.280  0.3700 -0.1081  0.0973
 4308SOL     OW24385   2.923   2.287  10.643 -0.2598 -0.3073  0.0791
 4308SOL    HW124386   2.854   2.258  10.583 -1.0228  0.0720  0.7856
 4308SOL    HW224387   2.974   2.347  10.589 -0.2763  0.1453  0.5705
 4309SOL     OW24388   1.940   4.459   3.260  0.3244  0.3841 -0.8109
 4309SOL    HW124389   1.961   4.429   3.172 -0.1095  3.2406 -1.8898
 4309SOL    HW224390   1.908   4.549   3.251  0.3449  0.5913  1.1280
 4310SOL     OW24391   0.958   3.461   6.284 -0.2341 -0.4110  0.1087
 4310SOL    HW124392   0.928   3.423   6.201  1.1705 -1.9727  0.3121
 4310SOL    HW224393   0.874   3.454   6.330 -0.2133  0.3529  0.2674
 4311SOL     OW24394   0.255   0.083   1.853  0.8562 -0.3831 -0.4775
 4311SOL    HW124395   0.251   0.179   1.858  0.9300 -0.3113 -1.9903
 4311SOL    HW224396   0.247   0.069   1.759  1.0984  0.1432 -0.5738
 4312SOL     OW24397   3.705   0.612  13.858 -0.6024  0.1158  0.5057
 4312SOL    HW124398   3.673   0.695  13.893  0.1666  1.6265 -2.3742
 4312SOL    HW224399   3.705   0.553  13.933 -0.2130  0.9664  1.1749
 4313SOL     OW24400   2.151   3.839   4.116 -0.1418 -0.1733 -0.3765
 4313SOL    HW124401   2.210   3.797   4.052 -1.2422 -0.5013 -1.1791
 4313SOL    HW224402   2.064   3.825   4.078 -0.0970 -0.5242 -0.3569
 4314SOL     OW24403   0.996   3.091   6.189 -0.8400 -0.4456  0.3024
 4314SOL    HW124404   1.026   3.043   6.112  1.5264  0.4806  0.6570
 4314SOL    HW224405   0.919   3.133   6.150 -0.7256  0.7357  1.3553
 4315SOL     OW24406   0.442   4.329   4.907  0.5282 -0.0174  0.5252
 4315SOL    HW124407   0.402   4.275   4.976  0.2673 -0.5002 -0.0022
 4315SOL    HW224408   0.475   4.398   4.965  0.4498  0.7348 -0.3281
 4316SOL     OW24409   2.585   3.040   7.234 -0.6322  0.1693 -0.2204
 4316SOL    HW124410   2.619   2.962   7.191 -2.7281 -1.9801  2.0803
 4316SOL    HW224411   2.627   3.033   7.320  1.8262 -0.6448 -1.4729
 4317SOL     OW24412   0.492   1.357   8.978 -0.0604 -0.1406  0.0203
 4317SOL    HW124413   0.471   1.417   8.906  1.4826  0.9740  0.4940
 4317SOL    HW224414   0.557   1.410   9.025 -0.7581  0.8731 -0.1468
 4318SOL     OW24415   1.033   4.326  15.198  0.5568 -0.2142 -0.1390
 4318SOL    HW124416   1.083   4.402  15.167  0.4506 -0.5333 -1.0802
 4318SOL    HW224417   1.017   4.274  15.120  2.3296 -1.4392  0.3175
 4319SOL     OW24418   2.295   3.088   5.921  0.2464 -0.1914  0.1898
 4319SOL    HW124419   2.332   3.142   5.851  0.2345 -1.4037 -0.7555
 4319SOL    HW224420   2.222   3.144   5.946 -0.0020  1.0173 -3.1470
 4320SOL     OW24421   1.643   0.018   4.248 -0.3415  0.5740  0.4947
 4320SOL    HW124422   1.637   0.098   4.197 -1.1023 -0.7382 -1.4500
 4320SOL    HW224423   1.685   0.057   4.325  1.1134 -0.7039  0.3463
 4321SOL     OW24424   2.752   3.390   5.798  0.2366 -0.0402 -0.2084
 4321SOL    HW124425   2.752   3.477   5.837 -1.1704 -0.3124  0.3800
 4321SOL    HW224426   2.705   3.344   5.867  0.9522  0.6731  0.7691
 4322SOL     OW24427   2.443   0.003  13.406  0.0806 -0.2929  0.4757
 4322SOL    HW124428   2.481   0.091  13.398 -0.7382  0.0064 -0.0330
 4322SOL    HW224429   2.483   4.694  13.486  0.6716  0.8587  0.6640
 4323SOL     OW24430   2.843   2.986  15.128 -0.9001  0.0403  0.0086
 4323SOL    HW124431   2.915   2.981  15.190 -0.7962  1.7596  0.0225
 4323SOL    HW224432   2.800   2.903  15.152 -2.2688  0.9663  0.7319
 4324SOL     OW24433   3.174   1.003  13.291  0.5055  0.2332 -0.0304
 4324SOL    HW124434   3.112   1.073  13.274  0.6481  0.7481  1.6637
 4324SOL    HW224435   3.259   1.040  13.315  0.7493 -0.5561  0.3238
 4325SOL     OW24436   3.809   2.743   2.381  0.2463 -0.1940 -0.4123
 4325SOL    HW124437   3.772   2.656   2.398  0.0141 -0.2335 -1.1270
 4325SOL    HW224438   3.899   2.720   2.360  0.5966  1.3147 -0.5658
 4326SOL     OW24439   2.370   1.825  11.964 -0.0373 -0.2048  0.6758
 4326SOL    HW124440   2.322   1.744  11.977  2.7266 -2.1236 -1.2512
 4326SOL    HW224441   2.439   1.811  12.029 -0.7912  1.2851  1.8031
 4327SOL     OW24442   0.540   0.408   4.347 -0.3042  0.2657 -0.1099
 4327SOL    HW124443   0.498   0.322   4.355  1.1444 -0.5055 -0.7413
 4327SOL    HW224444   0.634   0.392   4.355 -0.1742 -0.4447 -2.9494
 4328SOL     OW24445   4.012   1.054   7.079 -0.0889 -0.8300 -0.2989
 4328SOL    HW124446   4.000   1.124   7.143  0.5526 -0.0840 -0.9904
 4328SOL    HW224447   3.967   1.089   7.002 -2.1929 -1.2414  0.7365
 4329SOL     OW24448   3.052   2.451   0.889 -0.4389  0.7961  0.0906
 4329SOL    HW124449   3.000   2.513   0.941 -0.6232  2.3137 -1.9123
 4329SOL    HW224450   3.138   2.451   0.932  0.0949 -0.5481 -1.0173
 4330SOL     OW24451   2.986   0.397  10.297  0.1904  0.1215 -0.2671
 4330SOL    HW124452   2.916   0.334  10.279  0.4330 -0.0818 -0.5108
 4330SOL    HW224453   2.937   0.468  10.336 -0.1597 -0.1542 -0.2034
 4331SOL     OW24454   0.042   1.806  16.750 -0.5376  0.1516  0.0709
 4331SOL    HW124455   4.717   1.886  16.768 -0.9502  0.2283 -1.3994
 4331SOL    HW224456   0.038   1.768  16.837  0.7536  0.1704  0.1332
 4332SOL     OW24457   1.600   0.556   7.832 -0.5745  0.0419 -0.3428
 4332SOL    HW124458   1.616   0.514   7.747 -2.1669  0.7416 -0.9858
 4332SOL    HW224459   1.657   0.632   7.822  1.4667 -1.4391  0.0564
 4333SOL     OW24460   1.668   0.999  11.546  0.5654 -0.3443  0.4946
 4333SOL    HW124461   1.728   0.992  11.472 -0.4249 -0.5276 -0.2981
 4333SOL    HW224462   1.607   1.067  11.516 -0.3138 -1.7198 -0.7868
 4334SOL     OW24463   1.737   3.716  14.485  0.1025 -0.3467 -0.2553
 4334SOL    HW124464   1.681   3.766  14.544  0.6167 -0.7339  0.5609
 4334SOL    HW224465   1.689   3.633  14.484  0.3704 -0.5075  0.3125
 4335SOL     OW24466   0.600   4.163   7.982 -0.1243  0.1617 -0.6959
 4335SOL    HW124467   0.643   4.158   8.068 -1.4599 -1.1699 -0.1121
 4335SOL    HW224468   0.682   4.162   7.932 -0.0321  1.2785 -0.5767
 4336SOL     OW24469   0.625   3.378   2.593 -0.5355  0.5660 -0.0855
 4336SOL    HW124470   0.648   3.297   2.639 -1.1435  0.2018 -0.4281
 4336SOL    HW224471   0.710   3.422   2.588  0.3111 -0.9191  1.3525
 4337SOL     OW24472   1.142   4.415   0.516 -0.5311  0.3017  0.1207
 4337SOL    HW124473   1.204   4.427   0.444  0.7802  0.3690  1.2813
 4337SOL    HW224474   1.067   4.467   0.484 -1.5200 -2.9886 -2.8562
 4338SOL     OW24475   3.995   3.527   1.010  0.5967  0.0932 -0.3800
 4338SOL    HW124476   4.049   3.553   0.935  2.8830 -0.9322  0.9090
 4338SOL    HW224477   4.048   3.554   1.084  0.6346 -0.0698 -0.3474
 4339SOL     OW24478   2.881   2.659   5.297  0.5603 -0.2155 -0.2301
 4339SOL    HW124479   2.969   2.661   5.260  0.1409  0.2625 -1.1914
 4339SOL    HW224480   2.838   2.741   5.272  4.1444  2.1567  1.3869
 4340SOL     OW24481   3.493   2.204   3.445  0.0666 -0.2134 -0.0290
 4340SOL    HW124482   3.511   2.150   3.522 -1.4260  0.0044  0.4632
 4340SOL    HW224483   3.435   2.276   3.467  0.5971 -0.0599  0.8663
 4341SOL     OW24484   2.949   2.144  13.650 -0.3086 -0.0579 -0.3126
 4341SOL    HW124485   2.932   2.223  13.701  0.7679 -0.3397  0.4919
 4341SOL    HW224486   2.874   2.134  13.592 -1.1675 -0.7544  0.9163
 4342SOL     OW24487   0.838   3.280   2.386 -0.4172  0.0815  0.1593
 4342SOL    HW124488   0.913   3.253   2.332  1.8066  1.1401  2.6801
 4342SOL    HW224489   0.872   3.266   2.474 -1.4255 -0.7369  0.4132
 4343SOL     OW24490   3.795   3.479   7.839 -0.0173 -0.1485 -0.2468
 4343SOL    HW124491   3.721   3.526   7.877 -0.3797 -1.3203  0.4701
 4343SOL    HW224492   3.821   3.526   7.759 -1.1596  1.3426  0.2620
 4344SOL     OW24493   2.907   0.588  12.685  0.4415 -0.3113  0.4660
 4344SOL    HW124494   2.858   0.669  12.675 -1.1516 -1.5341 -1.8032
 4344SOL    HW224495   2.985   0.614  12.636 -1.5866  2.2155 -1.3783
 4345SOL     OW24496   1.701   4.280   3.165  0.4903 -0.1356  0.5778
 4345SOL    HW124497   1.712   4.250   3.075 -0.3139 -2.9271  1.4156
 4345SOL    HW224498   1.792   4.296   3.190  0.0158  1.8904  0.9980
 4346SOL     OW24499   4.048   2.876   6.330  0.3921 -0.1434 -0.3975
 4346SOL    HW124500   4.017   2.834   6.250 -1.5845 -0.7134  0.6574
 4346SOL    HW224501   4.119   2.924   6.288  1.0164 -0.9075 -0.1990
 4347SOL     OW24502   0.256   3.430  17.242 -0.5263  0.2083  0.1849
 4347SOL    HW124503   0.223   3.342  17.224  0.3061 -0.0917  0.1503
 4347SOL    HW224504   0.248   3.472  17.157 -0.9937  2.5574  1.3699
 4348SOL     OW24505   1.850   0.527  16.107  0.3005 -0.1515 -0.0724
 4348SOL    HW124506   1.883   0.443  16.137 -0.6105 -1.1543 -1.8524
 4348SOL    HW224507   1.774   0.504  16.054  0.1230 -0.0908  0.1603
 4349SOL     OW24508   1.054   3.694   8.149  0.1976 -0.0546  0.7512
 4349SOL    HW124509   1.033   3.763   8.086  1.1136 -0.2446  0.2361
 4349SOL    HW224510   0.968   3.661   8.175 -0.7316 -0.5961 -2.9970
 4350SOL     OW24511   1.633   2.625   6.662 -0.3607  0.1238  0.0081
 4350SOL    HW124512   1.702   2.691   6.665 -0.5986  0.3110  1.1888
 4350SOL    HW224513   1.589   2.648   6.580 -0.8572  0.1672  0.2890
 4351SOL     OW24514   4.673   0.188  14.719 -0.1003  0.4064 -0.6735
 4351SOL    HW124515   4.636   0.169  14.805  1.0686  0.2452 -0.2153
 4351SOL    HW224516   4.597   0.159  14.668 -0.8668 -0.1367  0.7708
 4352SOL     OW24517   1.729   4.088   3.369 -0.2966 -0.3921 -0.6141
 4352SOL    HW124518   1.689   4.156   3.315 -0.3751  0.6689  0.7579
 4352SOL    HW224519   1.729   4.008   3.317 -2.9122 -0.6605 -0.1565
 4353SOL     OW24520   4.163   1.910   8.562  0.2384 -0.1394 -0.3523
 4353SOL    HW124521   4.256   1.885   8.558  0.1832 -0.8571  2.5358
 4353SOL    HW224522   4.134   1.940   8.476 -3.0863 -0.5022  0.6667
 4354SOL     OW24523   4.611   1.927   8.023 -0.5898 -0.0733 -0.3524
 4354SOL    HW124524   4.574   1.992   7.963 -1.8210 -0.1940  0.2746
 4354SOL    HW224525   4.656   1.987   8.084 -0.3043 -0.8395  0.1896
 4355SOL     OW24526   1.741   0.526   3.248 -0.3244 -0.5162  0.3154
 4355SOL    HW124527   1.827   0.505   3.283  0.7299  0.6015 -1.6058
 4355SOL    HW224528   1.738   0.494   3.159 -3.1701  0.3955  0.0784
 4356SOL     OW24529   1.425   2.803   8.840 -0.0607  0.1915  0.2562
 4356SOL    HW124530   1.378   2.818   8.758 -0.1256  0.9338  0.4318
 4356SOL    HW224531   1.346   2.778   8.888 -0.6792  1.4183 -0.1288
 4357SOL     OW24532   4.251   3.056  15.126 -0.0579 -0.2281  0.0297
 4357SOL    HW124533   4.344   3.040  15.118  0.1713  0.5397  1.0665
 4357SOL    HW224534   4.214   2.969  15.116 -1.5950  0.5530 -1.2237
 4358SOL     OW24535   3.353   1.237   6.838 -0.0496  0.3290 -0.1614
 4358SOL    HW124536   3.354   1.149   6.875  1.7033  0.1416 -0.6385
 4358SOL    HW224537   3.292   1.234   6.764  2.3629  3.0260 -2.2639
 4359SOL     OW24538   2.369   3.862  13.675  0.7530 -0.3378 -0.3126
 4359SOL    HW124539   2.415   3.779  13.668  0.0121 -0.5705 -2.4106
 4359SOL    HW224540   2.427   3.897  13.743  0.8213  1.1378 -1.1332
 4360SOL     OW24541   2.669   4.093  10.876  0.1994 -0.0917  0.4906
 4360SOL    HW124542   2.636   4.036  10.945 -0.2504  0.5578  0.8113
 4360SOL    HW224543   2.652   4.034  10.802 -0.1901 -0.2483  0.7055
 4361SOL     OW24544   0.959   1.589   3.306 -0.2209  0.0466 -0.0415
 4361SOL    HW124545   0.866   1.611   3.313 -0.4586 -1.0837  0.4696
 4361SOL    HW224546   1.009   1.654   3.355  0.8773 -1.1880  0.4799
 4362SOL     OW24547   0.997   1.391  11.197 -0.8402 -0.3559 -0.4076
 4362SOL    HW124548   1.015   1.483  11.179 -0.3296 -0.2758  0.5358
 4362SOL    HW224549   1.011   1.384  11.291  2.1975 -1.3512 -0.9158
 4363SOL     OW24550   2.106   1.982   7.809  0.0463  1.2116 -0.6833
 4363SOL    HW124551   2.025   1.958   7.764  1.3827 -0.9128 -1.9753
 4363SOL    HW224552   2.107   1.898   7.853  4.2477  2.2362  1.1797
 4364SOL     OW24553   0.028   3.812   0.477 -0.5484  0.5365  0.3808
 4364SOL    HW124554   0.044   3.875   0.406 -2.4977  0.7337  0.1127
 4364SOL    HW224555   4.673   3.766   0.448  0.5866 -0.9029 -0.4635
 4365SOL     OW24556   3.192   1.677   8.617  0.6752 -0.7026  0.2127
 4365SOL    HW124557   3.264   1.614   8.614  0.2940 -1.1055 -0.3979
 4365SOL    HW224558   3.157   1.700   8.531 -0.5423 -1.2752  0.5476
 4366SOL     OW24559   0.056   1.960  14.010  0.1178 -0.1272  0.5676
 4366SOL    HW124560   4.708   2.020  14.026 -1.8111 -2.5852  1.0088
 4366SOL    HW224561   0.128   2.014  13.975  0.2598 -0.1844  0.7713
 4367SOL     OW24562   3.223   1.523   5.283  0.0809 -0.2769  0.5693
 4367SOL    HW124563   3.300   1.479   5.247 -0.0855  0.2640 -0.4463
 4367SOL    HW224564   3.178   1.543   5.201  0.2347  0.8424  0.7564
 4368SOL     OW24565   2.757   4.207  10.290  0.0674 -0.7697  0.3090
 4368SOL    HW124566   2.826   4.244  10.345 -0.8677 -1.1087  1.6954
 4368SOL    HW224567   2.705   4.160  10.355  0.1520  0.8640  1.5370
 4369SOL     OW24568   4.626   0.246   6.050 -0.1304  0.4399  0.0921
 4369SOL    HW124569   4.610   0.229   6.143 -0.1806 -2.0283 -0.3574
 4369SOL    HW224570   4.691   0.182   6.022  0.4805  0.2459  1.9840
 4370SOL     OW24571   3.444   2.992   0.521 -0.1023  0.0110  0.1547
 4370SOL    HW124572   3.525   2.954   0.554 -0.4002 -0.2598  0.5728
 4370SOL    HW224573   3.382   2.929   0.556  0.8342 -1.6858 -1.2178
 4371SOL     OW24574   3.326   0.040  11.427  0.1470  0.4488 -0.0839
 4371SOL    HW124575   3.299   4.695  11.367 -1.1880 -0.0525  1.0808
 4371SOL    HW224576   3.252   0.042  11.488 -0.7009 -1.8069 -1.0299
 4372SOL     OW24577   1.046   4.150   6.968  0.1166 -0.4805 -0.2686
 4372SOL    HW124578   1.054   4.215   7.038 -0.2544 -1.8316  1.0455
 4372SOL    HW224579   1.060   4.069   7.017 -0.7688 -1.0684 -0.9979
 4373SOL     OW24580   0.568   4.293   3.618 -0.6144  0.4151 -0.2162
 4373SOL    HW124581   0.486   4.302   3.667 -0.1432  0.3538  0.5990
 4373SOL    HW224582   0.541   4.276   3.528  2.3133  1.6190 -1.2993
 4374SOL     OW24583   0.258   4.078   3.980  0.1959  0.1831 -0.0543
 4374SOL    HW124584   0.302   3.996   3.960 -1.4251 -0.4059 -1.2389
 4374SOL    HW224585   0.313   4.112   4.051  1.0442 -0.8353 -0.2251
 4375SOL     OW24586   2.563   2.070   8.938  0.5749 -0.4890 -0.4048
 4375SOL    HW124587   2.627   2.138   8.959 -0.2124  0.8004 -2.1891
 4375SOL    HW224588   2.514   2.109   8.866  0.3161 -0.6992 -0.3434
 4376SOL     OW24589   2.988   2.403  13.003 -0.6541 -0.4662  0.6180
 4376SOL    HW124590   2.939   2.387  13.084  1.1025  1.7496  2.1348
 4376SOL    HW224591   3.071   2.440  13.032 -1.2163 -0.1633  1.8593
 4377SOL     OW24592   4.163   3.503   4.280  0.0735 -0.1004  0.1443
 4377SOL    HW124593   4.204   3.439   4.339  1.1052  0.1719 -0.2825
 4377SOL    HW224594   4.120   3.559   4.345  3.3390 -1.2328  3.3609
 4378SOL     OW24595   1.192   2.999   7.748  0.0180  0.3755 -0.3635
 4378SOL    HW124596   1.129   3.037   7.810 -0.7423 -0.2577 -0.7593
 4378SOL    HW224597   1.260   2.979   7.812 -1.0000 -1.4178  0.1571
 4379SOL     OW24598   2.261   4.264  12.329 -0.2919 -0.3278  0.3685
 4379SOL    HW124599   2.338   4.232  12.283 -0.7039 -1.1799  0.2610
 4379SOL    HW224600   2.278   4.249  12.422  0.5743 -1.3379  0.0416
 4380SOL     OW24601   0.321   1.106   0.747  0.1282 -0.1708  0.0323
 4380SOL    HW124602   0.331   1.145   0.834 -0.6165  0.9976 -0.4028
 4380SOL    HW224603   0.306   1.183   0.692  2.0405  0.0101 -0.2270
 4381SOL     OW24604   1.363   0.251   4.490  0.6948 -0.5699 -0.1876
 4381SOL    HW124605   1.450   0.289   4.501  1.3003 -1.7135 -1.0432
 4381SOL    HW224606   1.344   0.236   4.583  1.3421 -3.4753 -0.5249
 4382SOL     OW24607   0.303   4.207   8.484 -0.3903 -0.8456  0.1040
 4382SOL    HW124608   0.278   4.299   8.494 -0.9814 -0.6549 -3.0378
 4382SOL    HW224609   0.286   4.174   8.572  2.1978 -0.7841  0.6256
 4383SOL     OW24610   0.257   2.101  11.498 -0.4392  0.3498 -0.3032
 4383SOL    HW124611   0.211   2.175  11.538 -2.4070 -1.2122  0.3624
 4383SOL    HW224612   0.188   2.035  11.484 -0.7592  0.1773  2.1414
 4384SOL     OW24613   3.470   1.533  15.895  0.0357 -0.7110 -0.2473
 4384SOL    HW124614   3.511   1.619  15.897  1.4698 -1.3624 -1.6868
 4384SOL    HW224615   3.377   1.553  15.901  0.2720  0.6999 -1.3041
 4385SOL     OW24616   3.592   3.173  14.988 -0.0204 -0.1425  0.3060
 4385SOL    HW124617   3.685   3.157  14.969  0.3062 -2.3931  3.6857
 4385SOL    HW224618   3.561   3.084  14.969  1.7918 -0.6316 -0.4072
 4386SOL     OW24619   2.065   0.523   2.548 -0.1121 -0.0844 -0.1706
 4386SOL    HW124620   2.030   0.537   2.460  1.5043  0.5456 -0.7310
 4386SOL    HW224621   2.115   0.604   2.561  1.8354 -1.0904 -1.2096
 4387SOL     OW24622   1.446   3.676  15.637 -0.3013 -0.2974  0.1612
 4387SOL    HW124623   1.478   3.638  15.555  0.8033 -0.1190  0.4981
 4387SOL    HW224624   1.490   3.760  15.633 -0.6598 -0.1593 -0.8778
 4388SOL     OW24625   1.580   2.746   2.169 -0.4577  0.5389 -0.0365
 4388SOL    HW124626   1.510   2.718   2.227  0.5903 -2.6607 -0.2868
 4388SOL    HW224627   1.650   2.682   2.182  1.2350  2.3422 -0.2576
 4389SOL     OW24628   4.237   1.728  15.760  0.2679  1.1269  0.3565
 4389SOL    HW124629   4.235   1.681  15.844  0.6541  1.0336  0.3142
 4389SOL    HW224630   4.327   1.759  15.749  0.6693  0.4358  1.6277
 4390SOL     OW24631   3.877   1.625  15.893  0.4752 -0.2611  0.2149
 4390SOL    HW124632   3.911   1.709  15.924 -0.2327 -0.1565  0.7006
 4390SOL    HW224633   3.796   1.659  15.856  1.7466  1.2252 -1.2105
 4391SOL     OW24634   3.807   3.203   7.771 -0.2222  0.1665 -0.3626
 4391SOL    HW124635   3.896   3.210   7.806  0.1237  1.5805 -1.5415
 4391SOL    HW224636   3.770   3.286   7.801 -0.3234  0.4811 -1.3458
 4392SOL     OW24637   1.973   2.701   2.865 -0.6839  0.3009 -0.5127
 4392SOL    HW124638   2.046   2.682   2.923 -0.2149  2.8172 -0.2572
 4392SOL    HW224639   1.902   2.656   2.910  0.4289  0.1382  1.0687
 4393SOL     OW24640   1.747   0.011   1.381 -0.3883  0.0161  0.0756
 4393SOL    HW124641   1.657   0.041   1.391 -0.3353 -0.4995  2.0969
 4393SOL    HW224642   1.765   0.021   1.288  0.4089  1.2690  0.3804
 4394SOL     OW24643   0.840   4.156  15.294  0.6402  0.3595  0.0137
 4394SOL    HW124644   0.873   4.177  15.207  1.3877 -1.6055 -0.1944
 4394SOL    HW224645   0.805   4.242  15.315 -3.3010 -1.1183 -0.5693
 4395SOL     OW24646   1.969   0.115   4.268  0.4592  0.2572  0.3231
 4395SOL    HW124647   2.049   0.118   4.321  0.4352 -0.2369  0.3842
 4395SOL    HW224648   1.915   0.086   4.341 -0.1429  0.5197 -0.0122
 4396SOL     OW24649   1.473   0.718  11.267 -0.3635  0.2718 -0.2094
 4396SOL    HW124650   1.392   0.765  11.287 -2.7216 -3.7177 -0.2147
 4396SOL    HW224651   1.514   0.786  11.213  0.8933 -0.2574  0.0880
 4397SOL     OW24652   3.577   1.051   3.943 -0.0024  0.3437  0.3352
 4397SOL    HW124653   3.619   1.012   4.021 -1.2331 -1.4801  0.1093
 4397SOL    HW224654   3.646   1.109   3.912 -0.7919 -0.0726 -2.1508
 4398SOL     OW24655   2.799   0.027   1.708 -0.2332 -0.1261 -0.1383
 4398SOL    HW124656   2.867   0.036   1.641 -1.4102 -2.5117 -1.6455
 4398SOL    HW224657   2.846   4.688   1.763  0.4429  1.1578  0.7832
 4399SOL     OW24658   0.742   0.952   3.876  0.2576 -0.4337 -0.0941
 4399SOL    HW124659   0.679   0.952   3.804  0.1897 -0.1726 -0.0359
 4399SOL    HW224660   0.691   0.932   3.954  0.8192 -1.0715  0.1055
 4400SOL     OW24661   1.753   3.990   8.432 -0.1382  0.6261 -0.1436
 4400SOL    HW124662   1.703   4.000   8.514 -0.2885 -0.1436 -0.1382
 4400SOL    HW224663   1.771   3.896   8.428  0.3327  0.6597  1.0582
 4401SOL     OW24664   3.988   2.248   0.441  0.3614 -0.0035 -0.6071
 4401SOL    HW124665   3.975   2.164   0.486 -0.0894  0.8396  0.8484
 4401SOL    HW224666   3.901   2.279   0.418 -0.1474  0.0659  1.4423
 4402SOL     OW24667   2.593   2.802   8.939 -0.1623  0.7445  0.4871
 4402SOL    HW124668   2.580   2.895   8.926  1.4893  0.8355 -0.5704
 4402SOL    HW224669   2.620   2.803   9.031  0.3880 -2.5869  0.3821
 4403SOL     OW24670   2.497   0.856   0.165 -0.0759  0.0243 -0.3933
 4403SOL    HW124671   2.485   0.873   0.071  0.8840 -2.7898 -1.0305
 4403SOL    HW224672   2.591   0.874   0.171  0.0126 -0.0800 -1.4743
 4404SOL     OW24673   3.803   0.977   3.576 -0.1917  0.5642  1.2878
 4404SOL    HW124674   3.760   1.061   3.595  1.8695  2.1194 -0.9395
 4404SOL    HW224675   3.854   0.993   3.497 -0.1945  0.3090  1.2350
 4405SOL     OW24676   1.866   2.793  12.006 -0.4875  0.0869  0.5991
 4405SOL    HW124677   1.884   2.848  11.929 -0.7413  0.0918  0.5416
 4405SOL    HW224678   1.927   2.720  11.994  0.1971  0.6171  0.9041
 4406SOL     OW24679   4.105   1.221  13.733 -0.4511 -0.5040  0.2889
 4406SOL    HW124680   4.117   1.277  13.810 -1.2198 -1.2661  0.9599
 4406SOL    HW224681   4.050   1.272  13.674 -0.7819 -2.3490 -0.9873
 4407SOL     OW24682   1.858   2.032  12.184  0.4192 -0.4225 -0.0637
 4407SOL    HW124683   1.937   2.034  12.238  0.0624 -2.3060  0.5407
 4407SOL    HW224684   1.891   1.998  12.101  1.1313  0.8403 -0.2960
 4408SOL     OW24685   0.320   0.751   4.051 -0.1329 -0.1436  0.2223
 4408SOL    HW124686   0.235   0.773   4.091 -0.7849 -2.1311 -0.0581
 4408SOL    HW224687   0.361   0.688   4.109 -0.3816  0.4712  1.0726
 4409SOL     OW24688   4.214   1.673   8.324 -0.0394  0.0875  0.2649
 4409SOL    HW124689   4.298   1.680   8.278 -0.0246 -1.4112  0.0489
 4409SOL    HW224690   4.228   1.703   8.414  0.9452 -0.0228  0.1529
 4410SOL     OW24691   1.376   2.266   3.708  0.1609 -0.2832 -0.3048
 4410SOL    HW124692   1.343   2.210   3.638 -0.0795 -0.8027  0.2267
 4410SOL    HW224693   1.437   2.315   3.653 -0.2731  1.7020  0.9750
 4411SOL     OW24694   4.264   1.979   8.859  0.1298  0.3181  0.2882
 4411SOL    HW124695   4.219   1.937   8.786  0.3436 -1.4245  1.1583
 4411SOL    HW224696   4.347   1.931   8.858 -0.6561 -1.0917  1.9761
 4412SOL     OW24697   3.523   2.896   4.669  0.1158  0.0668 -1.2715
 4412SOL    HW124698   3.473   2.939   4.600 -0.8127  1.1390  0.0831
 4412SOL    HW224699   3.574   2.829   4.622  0.4898 -2.1201  2.2220
 4413SOL     OW24700   4.623   1.045   1.738  0.4440  0.2598 -0.3530
 4413SOL    HW124701   4.650   0.956   1.762 -1.1063 -0.3251 -0.7683
 4413SOL    HW224702   4.681   1.102   1.788 -1.2796  0.7013  1.1200
 4414SOL     OW24703   3.610   2.675   7.109 -0.8396  0.1443 -0.2617
 4414SOL    HW124704   3.677   2.696   7.174 -0.9881 -2.2361  0.6241
 4414SOL    HW224705   3.652   2.731   7.043  0.2062  2.2361  2.1704
 4415SOL     OW24706   4.581   1.673  12.440 -0.8757  0.3414  0.1470
 4415SOL    HW124707   4.673   1.650  12.425 -1.2351  0.2249 -1.9368
 4415SOL    HW224708   4.582   1.681  12.535  0.1506  0.1192  0.1634
 4416SOL     OW24709   0.037   3.218  15.056  0.3732  0.1175 -0.1414
 4416SOL    HW124710   0.089   3.151  15.100 -0.6060 -1.4867 -1.4411
 4416SOL    HW224711   0.106   3.244  14.995  0.7330 -0.9361 -0.1830
 4417SOL     OW24712   3.263   3.416   4.217 -0.0007 -0.1248  0.0468
 4417SOL    HW124713   3.258   3.379   4.129 -0.4701  0.9032 -0.3571
 4417SOL    HW224714   3.168   3.414   4.224 -0.0487  1.3455 -0.0258
 4418SOL     OW24715   0.571   3.640  10.934 -0.4464 -0.1890  0.4688
 4418SOL    HW124716   0.613   3.685  10.861 -1.8124 -1.3349 -1.0144
 4418SOL    HW224717   0.629   3.565  10.946 -1.1376 -0.9489 -1.0069
 4419SOL     OW24718   0.609   0.794   3.276 -0.3376 -0.5807 -0.4086
 4419SOL    HW124719   0.687   0.786   3.331 -1.0035  1.5477  0.8837
 4419SOL    HW224720   0.625   0.865   3.214 -1.3134  1.3819  1.5358
 4420SOL     OW24721   2.002   1.682   8.914  0.1005 -0.4972  0.2582
 4420SOL    HW124722   2.031   1.771   8.894 -0.1277 -0.7504 -1.1737
 4420SOL    HW224723   2.075   1.652   8.969 -0.6524  1.5617  2.3782
 4421SOL     OW24724   4.156   0.982   9.867  0.3263  0.0270  0.4812
 4421SOL    HW124725   4.208   0.926   9.809 -0.4554 -1.3912  1.1404
 4421SOL    HW224726   4.228   1.041   9.886  1.3257 -1.4771  1.3091
 4422SOL     OW24727   2.655   2.346   9.495 -0.1327  0.1737 -0.3055
 4422SOL    HW124728   2.612   2.361   9.411 -1.0505 -2.3887 -0.2850
 4422SOL    HW224729   2.703   2.427   9.509  1.3517 -0.6977 -0.3753
 4423SOL     OW24730   3.014   4.272   3.364 -0.1694 -0.6148  0.4377
 4423SOL    HW124731   3.086   4.222   3.402  0.5270  0.2656  0.2750
 4423SOL    HW224732   2.956   4.264   3.440 -0.7285  1.6998  0.2582
 4424SOL     OW24733   3.709   2.299  14.588  0.2128 -0.1488  0.0673
 4424SOL    HW124734   3.626   2.341  14.564 -0.2328 -1.3019 -0.3867
 4424SOL    HW224735   3.763   2.321  14.513 -1.3284  3.2373 -0.0535
 4425SOL     OW24736   0.884   4.058   4.242 -0.0906  0.5005 -0.0320
 4425SOL    HW124737   0.968   4.086   4.206  0.5766  0.6119  1.5819
 4425SOL    HW224738   0.861   4.111   4.319 -1.7523 -2.0513  1.2473
 4426SOL     OW24739   1.191   3.500   3.859  0.1791 -0.0160 -0.2002
 4426SOL    HW124740   1.224   3.419   3.896  1.2171 -0.3272 -1.7911
 4426SOL    HW224741   1.118   3.473   3.803 -0.8451 -1.0524  1.6273
 4427SOL     OW24742   4.153   1.062  10.269  0.0332  0.0973  0.2320
 4427SOL    HW124743   4.131   1.041  10.359 -0.3420  1.2075  0.3960
 4427SOL    HW224744   4.092   1.004  10.223  1.1117 -0.2026 -0.8267
 4428SOL     OW24745   4.464   2.093   6.062 -0.3973  0.3958  0.0782
 4428SOL    HW124746   4.404   2.057   5.996 -1.7563  0.1530  1.4228
 4428SOL    HW224747   4.394   2.130   6.117  0.6982  0.4066  1.4592
 4429SOL     OW24748   3.370   2.606   7.511 -0.3338 -0.4113 -0.6611
 4429SOL    HW124749   3.371   2.700   7.531  0.5194  0.4406 -4.6965
 4429SOL    HW224750   3.301   2.601   7.444 -2.8538 -0.4559  1.9467
 4430SOL     OW24751   0.432   4.678   4.274  0.2338  0.1042 -0.4217
 4430SOL    HW124752   0.473   0.019   4.218  1.1463 -0.2535 -0.1769
 4430SOL    HW224753   0.358   4.644   4.225  0.8810 -2.5773  0.4444
 4431SOL     OW24754   1.512   4.188   1.825  0.0004 -0.8129 -0.2691
 4431SOL    HW124755   1.580   4.255   1.823  0.3492 -1.1327  0.9152
 4431SOL    HW224756   1.542   4.153   1.909  0.6398  0.4582  0.0322
 4432SOL     OW24757   4.047   1.609   5.587 -0.4460 -1.0260  0.0413
 4432SOL    HW124758   4.039   1.697   5.550  2.2151 -0.2320  1.3816
 4432SOL    HW224759   4.142   1.601   5.596 -0.4949 -1.9216 -0.2038
 4433SOL     OW24760   3.068   2.468   6.588  0.2548 -0.2806 -0.2071
 4433SOL    HW124761   3.122   2.391   6.607 -1.0385 -0.9019  1.0179
 4433SOL    HW224762   3.120   2.536   6.630 -1.0090 -0.3776  1.5222
 4434SOL     OW24763   4.187   1.171  12.029 -0.4512  0.1317  0.1399
 4434SOL    HW124764   4.190   1.240  12.095  0.2156 -0.5782  0.8373
 4434SOL    HW224765   4.280   1.162  12.009 -0.6729  1.6543 -1.6332
 4435SOL     OW24766   0.294   4.450   6.861 -0.2402 -1.0006  0.0097
 4435SOL    HW124767   0.261   4.539   6.858  1.5280 -0.4184 -1.8758
 4435SOL    HW224768   0.381   4.451   6.820 -1.1918  1.9457 -1.9319
 4436SOL     OW24769   1.570   3.517   3.916  0.0562 -0.0914 -0.4265
 4436SOL    HW124770   1.500   3.521   3.982  1.8945  0.4287  1.4921
 4436SOL    HW224771   1.597   3.609   3.916  0.5074 -0.2085  2.5863
 4437SOL     OW24772   0.410   3.866   3.922  0.2739  0.3548 -0.1204
 4437SOL    HW124773   0.463   3.788   3.909 -0.4148  0.1072 -1.5632
 4437SOL    HW224774   0.330   3.817   3.940  0.7428 -0.9904 -1.6807
 4438SOL     OW24775   4.532   2.981   4.860  0.3880 -0.2373 -0.3080
 4438SOL    HW124776   4.503   2.911   4.919  1.0046 -1.8936 -1.9846
 4438SOL    HW224777   4.565   2.934   4.784  0.9941  1.2545 -0.9743
 4439SOL     OW24778   0.623   3.949   0.778 -0.5802 -0.2360 -0.6866
 4439SOL    HW124779   0.539   3.923   0.816 -0.0870 -0.8458 -0.0225
 4439SOL    HW224780   0.654   4.018   0.837  1.1125 -0.5813 -1.1771
 4440SOL     OW24781   3.567   3.388  10.340 -0.2116  0.2371 -0.1907
 4440SOL    HW124782   3.556   3.370  10.433  0.2328 -0.5651 -0.2934
 4440SOL    HW224783   3.541   3.303  10.303 -3.9638  0.8552  1.0978
 4441SOL     OW24784   3.935   2.221   4.349  0.4029 -0.5742 -0.3778
 4441SOL    HW124785   3.892   2.202   4.265  3.1822  0.6302 -2.0880
 4441SOL    HW224786   4.023   2.243   4.319  1.1783 -0.9196  1.7187
 4442SOL     OW24787   0.199   2.415   0.976 -0.2460 -0.3939 -0.3399
 4442SOL    HW124788   0.220   2.324   0.952 -2.2948 -0.7825 -0.6794
 4442SOL    HW224789   0.230   2.473   0.907  0.0071 -1.2742 -0.9732
 4443SOL     OW24790   2.899   3.647  14.615 -0.0568  0.0010 -0.0646
 4443SOL    HW124791   2.820   3.696  14.596  0.4266  1.1996  1.0333
 4443SOL    HW224792   2.933   3.620  14.530  0.0738 -1.0437  0.3189
 4444SOL     OW24793   1.539   3.042   2.302 -0.1134 -0.2857 -0.2043
 4444SOL    HW124794   1.547   2.975   2.371 -1.7378 -0.2115  0.0553
 4444SOL    HW224795   1.545   3.118   2.359  0.2754  1.1722 -2.1917
 4445SOL     OW24796   4.591   1.385   4.778 -0.3030 -0.3129 -0.0751
 4445SOL    HW124797   4.560   1.377   4.869 -0.6948 -1.6381 -0.3265
 4445SOL    HW224798   4.637   1.469   4.777  1.2570 -1.1614  0.9720
 4446SOL     OW24799   4.486   2.724   5.056  0.2680 -0.4525 -0.1448
 4446SOL    HW124800   4.484   2.643   5.005 -1.1625 -2.6642  3.4317
 4446SOL    HW224801   4.392   2.743   5.049 -0.0047 -0.7502  2.4709
 4447SOL     OW24802   3.311   3.169  10.109 -0.1445  0.0667 -0.0910
 4447SOL    HW124803   3.378   3.233  10.085 -0.5204  0.0638 -1.1516
 4447SOL    HW224804   3.368   3.116  10.165  1.2888  1.5793 -0.1152
 4448SOL     OW24805   1.266   2.112   7.499 -0.1892  0.0270 -0.0741
 4448SOL    HW124806   1.243   2.120   7.407 -0.0647 -0.0188 -0.1097
 4448SOL    HW224807   1.304   2.024   7.493 -0.7421 -0.4075  2.7471
 4449SOL     OW24808   4.438   3.490  16.226 -0.1649  0.3769 -0.2422
 4449SOL    HW124809   4.520   3.449  16.252 -0.7693  0.7213  2.1910
 4449SOL    HW224810   4.455   3.573  16.270 -0.6805  0.0650  0.5391
 4450SOL     OW24811   2.103   2.999   8.172 -0.1096 -0.0825  0.2365
 4450SOL    HW124812   2.190   2.960   8.178  0.0808  0.5428  1.5184
 4450SOL    HW224813   2.094   3.050   8.252 -3.1970  0.4165 -0.4220
 4451SOL     OW24814   1.863   4.666   0.441 -0.2584 -0.3613 -0.1188
 4451SOL    HW124815   1.864   4.598   0.509  1.1954  0.9226  1.1384
 4451SOL    HW224816   1.814   4.624   0.369  1.2816 -0.1335 -1.2955
 4452SOL     OW24817   3.467   2.405  15.261  0.3277  0.1611 -0.6039
 4452SOL    HW124818   3.555   2.371  15.249 -0.0159 -0.7613 -0.5224
 4452SOL    HW224819   3.422   2.390  15.177  0.5151  2.5760 -1.1317
 4453SOL     OW24820   3.802   2.468   6.041 -0.1627 -0.8733  0.2292
 4453SOL    HW124821   3.810   2.441   5.949 -1.1146  1.1297 -0.4607
 4453SOL    HW224822   3.711   2.492   6.056 -0.5757 -1.9775 -0.5659
 4454SOL     OW24823   4.372   3.696  13.418  0.2118  0.3857  0.1018
 4454SOL    HW124824   4.439   3.637  13.453  0.9416  0.9532 -0.3478
 4454SOL    HW224825   4.401   3.699  13.327  1.8857 -0.2109  0.6145
 4455SOL     OW24826   3.526   1.107  11.907  0.3653 -0.0777  0.1245
 4455SOL    HW124827   3.580   1.134  11.833  0.1069  0.4917  0.1435
 4455SOL    HW224828   3.486   1.190  11.931 -1.2515  0.3824 -4.1980
 4456SOL     OW24829   1.348   1.497   3.728 -0.4078  0.7965 -0.0756
 4456SOL    HW124830   1.439   1.527   3.719  0.6022 -2.3174 -0.3749
 4456SOL    HW224831   1.331   1.500   3.822 -0.5261 -0.2490 -0.0678
 4457SOL     OW24832   3.713   1.023   4.862  0.0137 -0.0981  0.0865
 4457SOL    HW124833   3.777   1.034   4.933  1.9373  2.3834 -2.0563
 4457SOL    HW224834   3.761   1.029   4.780 -0.0177 -0.0497  0.0718
 4458SOL     OW24835   1.399   2.601   4.518 -0.2510  0.2073 -0.5215
 4458SOL    HW124836   1.437   2.560   4.441  0.6995  1.5260 -0.7390
 4458SOL    HW224837   1.465   2.662   4.551  1.4463 -1.9584  0.1007
 4459SOL     OW24838   2.327   3.356   1.869 -0.4626 -0.4074 -0.2195
 4459SOL    HW124839   2.243   3.361   1.823 -1.0860  0.5611  1.0387
 4459SOL    HW224840   2.358   3.272   1.833  3.4452  0.4466  1.0855
 4460SOL     OW24841   1.369   4.362   8.243  0.0530  0.2688 -0.1908
 4460SOL    HW124842   1.412   4.311   8.312 -3.3553  0.3103  1.9573
 4460SOL    HW224843   1.403   4.325   8.161 -0.6744 -1.5271  0.3190
 4461SOL     OW24844   1.802   1.970   3.924  0.3387 -0.1366 -0.1423
 4461SOL    HW124845   1.729   2.022   3.890 -1.1798 -1.7419  0.7070
 4461SOL    HW224846   1.757   1.886   3.931 -2.3239  1.1157 -2.0952
 4462SOL     OW24847   1.828   0.897   5.986  0.0160  0.5414  0.1699
 4462SOL    HW124848   1.804   0.859   5.902 -2.3967 -0.5274  1.3511
 4462SOL    HW224849   1.924   0.899   5.984 -0.0030  1.2025 -0.2867
 4463SOL     OW24850   1.762   2.833   4.489  0.4156  0.4448 -0.8683
 4463SOL    HW124851   1.773   2.928   4.499 -1.9603  0.7130 -0.7689
 4463SOL    HW224852   1.695   2.821   4.557 -0.2515 -1.9700 -1.9726
 4464SOL     OW24853   2.779   2.337  13.720  0.3332 -0.3509  0.3563
 4464SOL    HW124854   2.690   2.309  13.741  0.7005 -0.6462  1.5115
 4464SOL    HW224855   2.817   2.351  13.806  1.0177 -1.5917  0.2613
 4465SOL     OW24856   4.277   1.948   4.866  0.7004 -1.0646 -0.3066
 4465SOL    HW124857   4.265   1.868   4.815  0.0913 -0.3468 -1.3066
 4465SOL    HW224858   4.351   1.983   4.816 -0.1572 -0.6258 -1.2801
 4466SOL     OW24859   2.054   2.410   8.908  0.4975  0.3111  0.0214
 4466SOL    HW124860   1.985   2.471   8.882 -0.7100 -2.1479 -2.5736
 4466SOL    HW224861   2.099   2.397   8.824 -0.3489  0.2802 -0.4226
 4467SOL     OW24862   3.329   1.033   0.106  0.0196  1.0011  0.1870
 4467SOL    HW124863   3.236   1.011   0.107  0.1322  0.5496  1.0763
 4467SOL    HW224864   3.360   1.029   0.016 -1.5121 -1.9502 -0.2049
 4468SOL     OW24865   0.770   1.576   7.856 -0.3884  0.1212  0.0491
 4468SOL    HW124866   0.756   1.481   7.860 -0.9278  0.3942  5.1100
 4468SOL    HW224867   0.835   1.586   7.925 -1.2158  0.4084  0.7942
 4469SOL     OW24868   1.716   4.003   1.602  0.0447 -0.0064  0.5027
 4469SOL    HW124869   1.724   3.910   1.620  5.0535  0.2756 -0.3628
 4469SOL    HW224870   1.731   4.043   1.688 -0.1170 -0.9014  0.9447
 4470SOL     OW24871   0.758   0.696   3.795 -0.0092  0.0251  0.4915
 4470SOL    HW124872   0.766   0.784   3.831  0.7659 -0.2496  0.9914
 4470SOL    HW224873   0.667   0.685   3.767 -0.2270 -1.1078  1.6280
 4471SOL     OW24874   4.299   3.748  16.882 -0.0005 -0.0818  0.3177
 4471SOL    HW124875   4.208   3.741  16.913 -0.6959 -1.7256 -2.0784
 4471SOL    HW224876   4.352   3.768  16.959 -0.0349 -1.0944  0.6056
 4472SOL     OW24877   1.195   3.922   5.689  0.0076  0.1419 -0.0962
 4472SOL    HW124878   1.262   3.925   5.758  0.6180  1.2092 -0.7289
 4472SOL    HW224879   1.171   3.829   5.691 -0.8694  0.4003  1.1103
 4473SOL     OW24880   1.074   1.806   7.292  0.6801  0.3559 -0.3231
 4473SOL    HW124881   1.034   1.880   7.247  0.5613  0.3005 -0.3086
 4473SOL    HW224882   1.154   1.786   7.244  1.1179 -1.4968  1.1738
 4474SOL     OW24883   2.344   2.353   6.635  0.4067  0.1115  0.3229
 4474SOL    HW124884   2.347   2.273   6.688  0.4816  0.2007  0.4545
 4474SOL    HW224885   2.395   2.332   6.558  0.5119  2.2591 -0.1871
 4475SOL     OW24886   4.215   3.606   5.238  0.2621 -0.3225  0.4929
 4475SOL    HW124887   4.146   3.541   5.254 -0.0860 -0.5122 -1.7178
 4475SOL    HW224888   4.178   3.692   5.259 -0.6237 -0.7235  0.5974
 4476SOL     OW24889   2.005   4.632   1.380 -0.7800  0.1783 -0.4648
 4476SOL    HW124890   1.967   4.564   1.324  0.7540  0.3182 -1.6833
 4476SOL    HW224891   1.933   4.694   1.393 -0.6118 -0.3221  2.7143
 4477SOL     OW24892   0.089   4.426  16.987  0.2178  0.8722 -0.1456
 4477SOL    HW124893   0.086   4.488  16.915  0.9787  0.4354 -0.5529
 4477SOL    HW224894   0.028   4.471  17.045 -1.6396 -1.9172  0.0915
 4478SOL     OW24895   3.547   1.778   2.624 -0.1088  0.2702 -0.0611
 4478SOL    HW124896   3.578   1.708   2.682  0.6305  1.1048  0.5579
 4478SOL    HW224897   3.571   1.735   2.542  1.7576 -2.4390  1.9213
 4479SOL     OW24898   3.606   4.476   7.849  0.1535 -0.1554  0.0532
 4479SOL    HW124899   3.555   4.429   7.916 -1.1693 -1.3247 -1.7790
 4479SOL    HW224900   3.662   4.403   7.823  0.3515 -0.1573  0.4757
 4480SOL     OW24901   2.250   4.162   1.096 -0.4557  0.2159  0.1011
 4480SOL    HW124902   2.295   4.215   1.030  2.2003 -3.0917 -0.7216
 4480SOL    HW224903   2.179   4.221   1.122 -1.2008 -0.8664  0.5346
 4481SOL     OW24904   3.023   0.047  13.130 -0.0424 -0.2497  0.4818
 4481SOL    HW124905   3.035   0.072  13.038  0.4897 -0.4906  0.4868
 4481SOL    HW224906   2.936   0.007  13.133 -0.5330  0.6659 -1.7914
 4482SOL     OW24907   2.102   2.744   8.777 -0.4203 -0.3570  0.0972
 4482SOL    HW124908   2.162   2.689   8.727  3.6632  1.3506  3.0899
 4482SOL    HW224909   2.026   2.765   8.724 -0.0545  2.2144  0.5694
 4483SOL     OW24910   1.978   3.312   0.923 -0.1207  0.5294 -0.1760
 4483SOL    HW124911   1.989   3.231   0.873 -0.5855  1.7271 -2.2035
 4483SOL    HW224912   1.897   3.299   0.973 -0.7500 -1.6403 -1.7658
 4484SOL     OW24913   2.350   4.546   0.487 -0.0717  0.5984 -0.2304
 4484SOL    HW124914   2.353   4.471   0.547 -4.3025 -1.4279 -2.5185
 4484SOL    HW224915   2.417   4.604   0.523 -1.7174  2.4539 -0.1681
 4485SOL     OW24916   4.582   0.609   0.966  0.3812  0.3166  0.8437
 4485SOL    HW124917   4.543   0.670   0.903  3.3838  2.1155  0.7692
 4485SOL    HW224918   4.553   0.651   1.047 -2.1267  2.0386 -0.9092
 4486SOL     OW24919   0.041   1.688  16.992  0.1144 -0.1150 -0.0180
 4486SOL    HW124920   0.045   1.600  16.955  0.6042  0.4845 -1.4192
 4486SOL    HW224921   0.105   1.685  17.062 -1.7386 -2.8423  1.5807
 4487SOL     OW24922   1.871   4.339   8.569  0.6258  0.6543  0.7746
 4487SOL    HW124923   1.962   4.360   8.589  0.7449  0.7704  0.1262
 4487SOL    HW224924   1.854   4.379   8.484  1.0128 -1.0600 -0.1064
 4488SOL     OW24925   2.994   1.049  12.443  0.2946  0.1982  0.1684
 4488SOL    HW124926   3.020   1.093  12.361  0.3091 -0.9436 -0.4477
 4488SOL    HW224927   2.936   1.112  12.484  0.4581  0.0445  0.6388
 4489SOL     OW24928   0.457   1.998   7.072 -0.0677  0.4475  0.2029
 4489SOL    HW124929   0.529   2.023   7.015 -1.9347  2.7333 -1.1769
 4489SOL    HW224930   0.480   1.909   7.100  3.2766  1.2893  0.0634
 4490SOL     OW24931   1.319   4.495   3.279  0.2657 -0.0567 -0.0900
 4490SOL    HW124932   1.229   4.489   3.247  0.3667 -2.7231  0.1314
 4490SOL    HW224933   1.354   4.406   3.280  1.0130  0.2580  1.7706
 4491SOL     OW24934   3.639   0.440  14.089 -0.1633 -0.6321  0.0302
 4491SOL    HW124935   3.619   0.351  14.062 -0.2141 -0.1037 -1.6679
 4491SOL    HW224936   3.690   0.409  14.164 -1.5296 -0.4826  1.0217
 4492SOL     OW24937   0.199   0.551  10.600  0.7617  0.5816 -0.3951
 4492SOL    HW124938   0.273   0.490  10.603 -1.1398 -1.7930 -1.1204
 4492SOL    HW224939   0.141   0.505  10.661  0.8544  0.0643 -0.6951
 4493SOL     OW24940   3.190   4.125  10.807 -0.4715  0.1169 -0.8304
 4493SOL    HW124941   3.202   4.038  10.846 -1.5106  0.1705 -0.4013
 4493SOL    HW224942   3.106   4.113  10.763 -0.1250 -1.5885 -1.0396
 4494SOL     OW24943   0.388   1.332   5.813 -0.2214  0.3734 -0.3937
 4494SOL    HW124944   0.483   1.339   5.824 -0.3813  0.1587  1.1763
 4494SOL    HW224945   0.385   1.246   5.772 -1.4190 -0.1831  0.8626
 4495SOL     OW24946   2.886   2.367   2.569  0.2785 -0.3403  0.2236
 4495SOL    HW124947   2.896   2.276   2.597  0.1164 -0.7325 -0.9748
 4495SOL    HW224948   2.959   2.406   2.616  0.2246  3.0882 -2.5438
 4496SOL     OW24949   0.006   1.097  16.936  0.0744  0.0379 -0.0182
 4496SOL    HW124950   0.088   1.115  16.982 -0.1862 -0.7659  0.7556
 4496SOL    HW224951   0.012   1.142  16.852  0.5426 -0.1577 -0.0843
 4497SOL     OW24952   1.021   2.574  11.599  0.1212 -0.3713 -0.7070
 4497SOL    HW124953   1.055   2.651  11.554  0.7880  0.0022  0.4294
 4497SOL    HW224954   1.094   2.518  11.573  0.5517  0.6236 -1.6278
 4498SOL     OW24955   0.963   2.596   2.592  0.2786 -0.5597  0.5863
 4498SOL    HW124956   0.913   2.551   2.523 -3.0428  0.6070  2.2053
 4498SOL    HW224957   0.993   2.665   2.534 -0.7790  2.1180  3.2166
 4499SOL     OW24958   0.511   0.959   3.547  0.1822 -0.9073  0.3899
 4499SOL    HW124959   0.448   0.888   3.550 -0.9554  0.0209 -1.3671
 4499SOL    HW224960   0.547   0.956   3.458 -0.3401 -1.4516  0.2047
 4500SOL     OW24961   3.012   0.270  12.084 -0.6072  0.2890 -0.0496
 4500SOL    HW124962   3.056   0.280  12.000  0.3116 -2.3818  0.1150
 4500SOL    HW224963   2.989   0.356  12.117  0.6162 -0.9336  4.0519
 4501SOL     OW24964   2.479   3.510   5.377  0.4114 -0.8363 -0.3030
 4501SOL    HW124965   2.481   3.419   5.404  4.9164 -0.8622 -0.7145
 4501SOL    HW224966   2.516   3.557   5.452  2.9591  0.5441 -2.4194
 4502SOL     OW24967   2.957   3.304   4.341  0.3233  0.2498 -0.0687
 4502SOL    HW124968   2.900   3.285   4.267 -0.9972 -0.1430  1.0371
 4502SOL    HW224969   3.026   3.238   4.327 -1.1778 -0.9607 -1.7882
 4503SOL     OW24970   2.617   0.446   7.351 -0.3153  0.5423  0.2896
 4503SOL    HW124971   2.557   0.377   7.379  0.3002  0.0092  0.2983
 4503SOL    HW224972   2.566   0.476   7.275 -2.3688 -1.7086  0.7786
 4504SOL     OW24973   4.447   0.911   6.389  0.4254  0.2120 -0.7195
 4504SOL    HW124974   4.365   0.959   6.376  0.5701  0.1198 -2.0011
 4504SOL    HW224975   4.421   0.831   6.345  0.9167 -0.2880 -0.0931
 4505SOL     OW24976   1.758   3.597  14.236 -0.3577 -1.0954 -0.0607
 4505SOL    HW124977   1.675   3.564  14.271  0.1486 -0.9672  1.2839
 4505SOL    HW224978   1.785   3.664  14.299 -1.8857 -0.6121  0.0969
 4506SOL     OW24979   4.563   4.281   4.102  0.4814  0.6571  1.2188
 4506SOL    HW124980   4.475   4.279   4.139 -0.0053 -0.0898  0.0346
 4506SOL    HW224981   4.556   4.358   4.046  0.8563  0.8968  1.5026
 4507SOL     OW24982   2.439   3.801   4.165  0.1391  0.1973 -0.1648
 4507SOL    HW124983   2.449   3.707   4.152  1.9206  0.6210 -1.7661
 4507SOL    HW224984   2.521   3.838   4.134 -1.2058  2.3916 -1.1770
 4508SOL     OW24985   4.643   0.147   9.389 -0.2496  0.1127 -0.3039
 4508SOL    HW124986   4.656   0.107   9.303 -2.1319 -3.4664  1.0813
 4508SOL    HW224987   4.720   0.203   9.399  0.2049 -0.4086 -0.9287
 4509SOL     OW24988   0.883   2.291  11.528  0.3934  0.3259 -0.3187
 4509SOL    HW124989   0.844   2.357  11.585 -0.0504  1.6402 -2.1219
 4509SOL    HW224990   0.809   2.245  11.488  0.7337  0.4971 -1.1366
 4510SOL     OW24991   3.961   1.561  11.974 -0.5595 -0.2822  0.4801
 4510SOL    HW124992   4.040   1.541  12.024 -0.3032 -3.0732 -1.0231
 4510SOL    HW224993   3.935   1.469  11.965  0.9281 -0.5929 -0.6752
 4511SOL     OW24994   1.791   3.999   1.151  0.0356 -0.3160  0.2817
 4511SOL    HW124995   1.789   3.912   1.192  0.6843 -1.2569 -1.6577
 4511SOL    HW224996   1.753   3.989   1.063 -2.0522 -0.4764  1.2184
 4512SOL     OW24997   4.516   3.132  16.938 -0.4463 -0.6081  0.3670
 4512SOL    HW124998   4.542   3.077  17.012  2.8195  1.5294  0.8203
 4512SOL    HW224999   4.422   3.119  16.946 -0.5212  0.1877  0.8262
 4513SOL     OW25000   2.178   1.870   3.347 -0.4510 -0.5918 -0.2953
 4513SOL    HW125001   2.121   1.945   3.325  1.4776  1.0528  0.3276
 4513SOL    HW225002   2.109   1.804   3.355  1.2306 -2.1523  1.2230
 4514SOL     OW25003   2.345   2.428   3.763  0.1296 -0.0606 -0.1117
 4514SOL    HW125004   2.353   2.333   3.755  3.3778  0.1729  0.4477
 4514SOL    HW225005   2.367   2.442   3.856 -2.3190 -1.7429  0.7149
 4515SOL     OW25006   2.137   3.475  10.167 -0.1712  0.0722  0.1267
 4515SOL    HW125007   2.044   3.486  10.147  0.5809  2.9174 -1.8148
 4515SOL    HW225008   2.184   3.470  10.084  2.3207 -2.0574  1.6311
 4516SOL     OW25009   0.229   1.083   4.528  0.0793 -0.1752  0.1630
 4516SOL    HW125010   0.235   1.031   4.609  2.4283 -2.2693 -1.3257
 4516SOL    HW225011   0.170   1.147   4.566  0.4087 -0.0235  0.4206
 4517SOL     OW25012   4.579   1.824  11.051 -0.2718 -0.0437  0.1611
 4517SOL    HW125013   4.663   1.787  11.078  0.0911 -1.9641 -3.7173
 4517SOL    HW225014   4.534   1.803  11.133  1.7011  0.0673  1.2717
 4518SOL     OW25015   0.123   0.826   4.244  0.3782  0.4914  0.2462
 4518SOL    HW125016   0.065   0.752   4.230  1.7939 -0.7531  0.9511
 4518SOL    HW225017   0.084   0.853   4.327 -1.8596 -1.9346 -0.0391
 4519SOL     OW25018   0.121   3.839   4.017 -0.4130  0.3057  0.0804
 4519SOL    HW125019   0.105   3.928   4.048 -0.5728  0.7968 -1.4028
 4519SOL    HW225020   0.086   3.781   4.085  0.6769 -0.3415  0.0925
 4520SOL     OW25021   2.726   3.205   8.600  0.1187 -0.1448 -0.1785
 4520SOL    HW125022   2.748   3.291   8.563  3.9456  0.2838  3.0708
 4520SOL    HW225023   2.762   3.150   8.531  1.0491 -0.1366  0.2972
 4521SOL     OW25024   0.610   2.049   3.177  0.1262 -0.3076 -0.0512
 4521SOL    HW125025   0.654   2.133   3.172 -2.3944  0.9424 -1.6960
 4521SOL    HW225026   0.534   2.055   3.235  0.1646  0.7945 -0.1178
 4522SOL     OW25027   4.450   3.493   1.892 -0.2445  0.0554 -0.5120
 4522SOL    HW125028   4.515   3.511   1.959 -1.8500  0.8439  0.8586
 4522SOL    HW225029   4.389   3.439   1.942  0.7932  0.6626  1.4019
 4523SOL     OW25030   0.994   3.005  16.529  0.3036 -0.1403  0.1479
 4523SOL    HW125031   1.022   3.079  16.583  1.4701  0.0281 -0.6866
 4523SOL    HW225032   0.931   3.050  16.473 -0.1423 -1.0466 -0.0815
 4524SOL     OW25033   1.365   2.376   2.457 -0.3012  0.0404  0.4916
 4524SOL    HW125034   1.292   2.362   2.396  0.4240  0.2054 -0.4215
 4524SOL    HW225035   1.336   2.313   2.522  2.2354  0.3932  1.9649
 4525SOL     OW25036   2.774   4.052   3.097 -0.2082 -0.1029  0.4238
 4525SOL    HW125037   2.753   4.145   3.082  0.0014  0.0042  0.7932
 4525SOL    HW225038   2.852   4.031   3.047  1.3299  3.5339  1.3019
 4526SOL     OW25039   2.538   1.006   4.916 -0.2373 -0.1446 -0.2453
 4526SOL    HW125040   2.513   1.097   4.901 -1.6752 -0.3894  0.6709
 4526SOL    HW225041   2.633   1.008   4.913 -0.4016  2.5414 -3.0906
 4527SOL     OW25042   1.064   0.821   9.998 -0.2433  0.4751 -0.2298
 4527SOL    HW125043   0.998   0.885   9.970 -0.0206  1.0352  0.5341
 4527SOL    HW225044   1.038   0.742   9.950 -0.2691  0.9039 -0.9058
 4528SOL     OW25045   3.453   4.009   6.619 -1.2048  0.5811 -0.5033
 4528SOL    HW125046   3.391   4.059   6.565  0.0782  0.8861 -1.6900
 4528SOL    HW225047   3.514   4.077   6.648 -0.9674 -0.3866  1.2683
 4529SOL     OW25048   4.655   3.514   4.411  0.0649 -0.0245 -0.2281
 4529SOL    HW125049   4.659   3.420   4.428 -0.0185  0.1122  0.5671
 4529SOL    HW225050   4.579   3.545   4.460  0.8755  2.9329 -0.8136
 4530SOL     OW25051   3.441   4.408   5.297 -0.1013  0.2843  0.6191
 4530SOL    HW125052   3.488   4.350   5.237  0.2564 -0.0787  1.2462
 4530SOL    HW225053   3.515   4.455   5.336  0.8844  0.3856 -1.3622
 4531SOL     OW25054   1.137   0.101   5.324 -0.3089  0.0322 -0.1896
 4531SOL    HW125055   1.195   0.168   5.359  0.4956 -2.1466  2.6724
 4531SOL    HW225056   1.192   0.022   5.323  1.4195  1.2259 -0.8452
 4532SOL     OW25057   0.590   3.627  17.651  0.1977 -0.0062  0.1773
 4532SOL    HW125058   0.574   3.589   0.037 -2.0764  2.7232  0.9562
 4532SOL    HW225059   0.684   3.623  17.632 -0.0300 -1.1978 -0.6647
 4533SOL     OW25060   2.453   1.539  11.063 -0.0097  0.3142 -0.4782
 4533SOL    HW125061   2.418   1.569  11.147  1.3763  3.3060 -0.9818
 4533SOL    HW225062   2.541   1.576  11.072  0.6821 -1.1836 -1.0127
 4534SOL     OW25063   3.965   0.037  14.437  0.1341 -1.1334  0.2917
 4534SOL    HW125064   4.006   0.048  14.523 -2.4255 -0.5841  1.4671
 4534SOL    HW225065   4.031   0.071  14.377 -0.2033 -0.3898  0.3445
 4535SOL     OW25066   1.955   1.459   4.434  0.8068  0.2740 -0.2435
 4535SOL    HW125067   1.977   1.406   4.358  0.9255 -0.9599  0.6550
 4535SOL    HW225068   1.867   1.422   4.442 -0.5322  2.9387 -2.6815
 4536SOL     OW25069   4.241   3.425   7.069  0.2903  0.6073  0.0745
 4536SOL    HW125070   4.209   3.503   7.024  1.3790  0.9010 -0.1943
 4536SOL    HW225071   4.160   3.375   7.060 -0.2960  1.2985  1.4661
 4537SOL     OW25072   0.752   0.778   9.710  0.2114 -0.0573 -0.3262
 4537SOL    HW125073   0.672   0.763   9.762  0.9708 -1.9400  0.3118
 4537SOL    HW225074   0.718   0.844   9.649 -2.9933 -0.1985  1.3224
 4538SOL     OW25075   1.904   2.232   9.058 -0.1247 -0.5102 -0.5020
 4538SOL    HW125076   1.953   2.287   8.996  0.8057 -0.2864  0.4266
 4538SOL    HW225077   1.838   2.197   8.998  0.5395 -1.0271 -0.9293
 4539SOL     OW25078   3.851   3.583   7.155 -0.3165  0.6099 -0.0564
 4539SOL    HW125079   3.862   3.550   7.244  0.9181  0.5539 -0.2228
 4539SOL    HW225080   3.790   3.515   7.127 -0.7533  0.5502  1.0613
 4540SOL     OW25081   3.431   2.784   1.771  0.1955 -0.4611 -0.3113
 4540SOL    HW125082   3.357   2.724   1.757 -1.1080  1.2516 -0.7549
 4540SOL    HW225083   3.498   2.717   1.786  1.5889  1.2824  1.2168
 4541SOL     OW25084   2.248   4.350   7.309 -0.0672  0.2833 -0.0173
 4541SOL    HW125085   2.221   4.298   7.233 -0.1351 -0.7881  0.7369
 4541SOL    HW225086   2.279   4.431   7.268  0.0089 -0.4114 -1.3420
 4542SOL     OW25087   4.342   3.051   3.121  0.0442  0.3207 -0.0683
 4542SOL    HW125088   4.369   3.114   3.055  0.2257 -0.7720 -1.0241
 4542SOL    HW225089   4.247   3.060   3.108 -0.1284 -2.3946 -0.5221
 4543SOL     OW25090   4.665   0.445  14.549  0.3421 -0.3461  0.0550
 4543SOL    HW125091   0.034   0.464  14.543  0.1458  0.8835  0.8251
 4543SOL    HW225092   4.674   0.371  14.609  1.1902  0.2559  0.6862
 4544SOL     OW25093   2.762   2.900   3.148 -0.1548  0.0020 -0.1856
 4544SOL    HW125094   2.845   2.946   3.141 -0.4551  0.2309 -2.0182
 4544SOL    HW225095   2.764   2.866   3.059  0.8513  0.1426 -0.2166
 4545SOL     OW25096   2.935   2.693   4.529  0.0046  0.4648  0.1334
 4545SOL    HW125097   2.936   2.718   4.621 -0.5918  0.2020  0.2090
 4545SOL    HW225098   2.841   2.696   4.515 -0.0847 -1.5120  0.3264
 4546SOL     OW25099   4.548   0.363   2.850  0.4430  0.3077 -0.1909
 4546SOL    HW125100   4.484   0.429   2.822  0.5006  0.0024 -1.0490
 4546SOL    HW225101   4.481   0.311   2.894  0.4242  2.0882  1.9005
 4547SOL     OW25102   2.050   1.889  16.033  0.2462 -0.6846  0.1462
 4547SOL    HW125103   2.057   1.928  16.120  2.5383  0.7212 -0.6917
 4547SOL    HW225104   2.081   1.958  15.976 -1.1841  1.2159  1.6707
 4548SOL     OW25105   0.217   2.467   0.360  0.2606 -0.5991 -1.0736
 4548SOL    HW125106   0.171   2.384   0.375  1.9892 -1.2929  0.3318
 4548SOL    HW225107   0.285   2.443   0.298  2.6225  2.2299  0.4151
 4549SOL     OW25108   2.424   4.219  17.031 -0.1764 -0.1891 -0.1238
 4549SOL    HW125109   2.512   4.245  17.003 -0.1769 -0.8870 -0.7728
 4549SOL    HW225110   2.433   4.124  17.036 -2.1314 -0.2849  1.3308
 4550SOL     OW25111   4.445   1.745   1.714 -0.4976 -0.4668  0.4710
 4550SOL    HW125112   4.506   1.676   1.739  1.8360  2.1729  2.1060
 4550SOL    HW225113   4.428   1.776   1.803  0.0352  1.1166  0.0176
 4551SOL     OW25114   1.905   4.129   1.427 -0.2558 -0.0840  0.1349
 4551SOL    HW125115   1.863   4.131   1.341  0.0625  0.4579 -0.0089
 4551SOL    HW225116   1.834   4.103   1.487 -0.1202  0.0798  0.3683
 4552SOL     OW25117   2.306   2.739   5.602  0.1146  0.2072  0.1492
 4552SOL    HW125118   2.285   2.762   5.512 -2.9322 -0.2869  0.7291
 4552SOL    HW225119   2.366   2.812   5.618 -1.0767  1.1378  0.3650
 4553SOL     OW25120   2.596   4.234   3.726 -0.0863  0.3637  0.1173
 4553SOL    HW125121   2.527   4.175   3.694 -0.9666  1.8062 -0.6919
 4553SOL    HW225122   2.541   4.285   3.786 -0.6582  0.2978 -0.3418
 4554SOL     OW25123   0.882   3.617   6.551 -0.1794  0.1392 -0.3186
 4554SOL    HW125124   0.866   3.657   6.466 -0.2838 -0.4269 -0.5656
 4554SOL    HW225125   0.838   3.683   6.604  2.1360  1.7409 -0.3951
 4555SOL     OW25126   2.081   0.803   5.968 -0.2378 -0.0757 -0.1298
 4555SOL    HW125127   2.136   0.844   5.901  0.4946  0.1991  0.6486
 4555SOL    HW225128   2.141   0.790   6.041  2.7646  2.7641 -2.1259
 4556SOL     OW25129   0.806   0.284   8.324  0.1230  0.2685  0.2874
 4556SOL    HW125130   0.878   0.284   8.262  0.6506 -0.3782  0.8981
 4556SOL    HW225131   0.823   0.367   8.369  1.1626 -0.0069  0.3817
 4557SOL     OW25132   2.512   2.383   4.393  0.5175  0.1494 -0.0184
 4557SOL    HW125133   2.548   2.331   4.321 -0.2628 -0.4665  0.0323
 4557SOL    HW225134   2.461   2.445   4.341 -1.9714 -0.6713  1.4342
 4558SOL     OW25135   0.373   3.325  16.746 -0.2421  0.1747  0.5130
 4558SOL    HW125136   0.319   3.272  16.687  0.3465 -0.5614  0.6306
 4558SOL    HW225137   0.449   3.270  16.764 -1.2530 -0.8815  1.5294
 4559SOL     OW25138   4.180   1.916   2.187  0.0101 -0.2450  0.7461
 4559SOL    HW125139   4.166   1.821   2.188 -0.2612 -0.2071  0.4316
 4559SOL    HW225140   4.126   1.954   2.118  2.8166  0.2556 -1.1585
 4560SOL     OW25141   0.779   3.920  16.342  0.8368 -0.0967  0.5171
 4560SOL    HW125142   0.809   3.836  16.376 -4.1530 -2.6827 -1.3212
 4560SOL    HW225143   0.702   3.948  16.391 -0.2757 -0.4584 -1.0214
 4561SOL     OW25144   0.107   0.973   7.248  1.0747 -0.4266  0.0544
 4561SOL    HW125145   0.041   1.022   7.297  0.7093 -0.1641 -0.6937
 4561SOL    HW225146   0.049   0.934   7.183 -0.0808  4.0395 -1.5972
 4562SOL     OW25147   2.317   1.660   8.346  0.0147 -0.0618 -0.0684
 4562SOL    HW125148   2.344   1.722   8.279 -0.0784 -0.0080 -0.0569
 4562SOL    HW225149   2.402   1.642   8.386 -1.1605  0.3209  2.6060
 4563SOL     OW25150   1.453   3.159   8.995 -0.2852  0.2595  0.3019
 4563SOL    HW125151   1.493   3.178   9.079  1.9326  0.9278 -0.9090
 4563SOL    HW225152   1.405   3.084   9.030 -1.1063  0.5525 -0.1924
 4564SOL     OW25153   2.736   2.319   9.038  0.5392 -0.5391 -0.2140
 4564SOL    HW125154   2.797   2.356   9.101 -0.9217  0.4840  0.5886
 4564SOL    HW225155   2.686   2.263   9.097 -0.7331 -1.7949 -2.4973
 4565SOL     OW25156   4.141   0.232   6.395 -0.1250 -0.1767 -0.3269
 4565SOL    HW125157   4.090   0.198   6.321 -1.5529  3.1877 -0.8793
 4565SOL    HW225158   4.129   0.166   6.464  0.2773 -0.3385 -0.4133
 4566SOL     OW25159   0.093   0.441   4.420 -0.2259  0.1755  0.0205
 4566SOL    HW125160   0.014   0.389   4.431 -0.7544  0.4035 -2.5399
 4566SOL    HW225161   0.156   0.369   4.415  0.3842  0.7316 -0.4177
 4567SOL     OW25162   1.032   0.563   6.793 -0.3517 -0.4799 -0.3762
 4567SOL    HW125163   0.994   0.651   6.788 -1.0896 -0.7450  0.6176
 4567SOL    HW225164   1.015   0.555   6.887  0.7962 -1.2230 -0.2330
 4568SOL     OW25165   2.807   3.984   5.567  0.2454 -0.4801 -0.5709
 4568SOL    HW125166   2.826   3.987   5.473  2.8331  0.6920 -0.0238
 4568SOL    HW225167   2.713   3.999   5.564  0.2052 -0.4915  0.4239
 4569SOL     OW25168   2.452   2.510   1.883 -0.6107 -0.3599  0.2391
 4569SOL    HW125169   2.399   2.576   1.926  0.1126  0.4342 -0.0904
 4569SOL    HW225170   2.441   2.442   1.950  1.3303 -1.5056 -0.5850
 4570SOL     OW25171   1.486   3.888   1.338  0.4957  0.1109  0.4721
 4570SOL    HW125172   1.470   3.976   1.301 -0.7482  0.7569  2.5744
 4570SOL    HW225173   1.578   3.880   1.311  0.3751  1.8294 -0.4747
 4571SOL     OW25174   1.183   0.499   4.232 -0.6643 -0.5903 -0.7133
 4571SOL    HW125175   1.131   0.424   4.202 -1.9263 -0.2153  0.5467
 4571SOL    HW225176   1.119   0.543   4.288  1.5663  0.2788  1.1569
 4572SOL     OW25177   0.932   0.238   7.228  0.0350 -0.0010 -0.2816
 4572SOL    HW125178   1.001   0.225   7.162  1.1845 -2.8812  1.4777
 4572SOL    HW225179   0.861   0.186   7.192 -3.0631  1.6063  3.4373
 4573SOL     OW25180   2.757   1.504   5.003  0.2128  0.0507 -0.5293
 4573SOL    HW125181   2.832   1.507   4.943  0.7924 -1.3204  0.1176
 4573SOL    HW225182   2.691   1.526   4.937 -0.9256 -1.1492  0.2076
 4574SOL     OW25183   0.508   3.992   6.675  0.9967  0.4172 -0.2917
 4574SOL    HW125184   0.489   4.058   6.741 -0.8729 -1.3048  0.9152
 4574SOL    HW225185   0.598   4.013   6.651  0.4453  0.2339 -2.4975
 4575SOL     OW25186   1.161   0.199  16.990  0.9547 -0.5382  0.0067
 4575SOL    HW125187   1.196   0.192  16.901 -0.4811  0.7237 -0.6666
 4575SOL    HW225188   1.070   0.230  16.983  0.7735 -0.8409  0.9960
 4576SOL     OW25189   2.475   3.691  11.689  0.1492 -0.5439  0.6429
 4576SOL    HW125190   2.411   3.716  11.623 -0.6519 -1.1113  1.2084
 4576SOL    HW225191   2.465   3.596  11.694 -3.9475 -0.2503 -1.5928
 4577SOL     OW25192   0.105   1.233   8.923  0.6249 -0.1897  0.5309
 4577SOL    HW125193   0.023   1.253   8.877  0.9476  1.9297  0.8515
 4577SOL    HW225194   0.167   1.292   8.880 -0.5284  0.1460 -0.6749
 4578SOL     OW25195   0.175   3.608   1.377 -0.1526 -0.2484  0.0746
 4578SOL    HW125196   0.263   3.630   1.344 -0.6971  0.3341 -0.9969
 4578SOL    HW225197   0.185   3.519   1.409 -1.0876 -0.3699  0.0336
 4579SOL     OW25198   0.689   3.175   2.765  0.9649 -0.2642 -0.1357
 4579SOL    HW125199   0.620   3.212   2.820  0.9662  0.2649 -0.4864
 4579SOL    HW225200   0.742   3.134   2.833  0.7060 -2.1768 -1.0902
 4580SOL     OW25201   0.105   2.547   4.010 -0.0223 -0.5822 -0.6627
 4580SOL    HW125202   0.120   2.621   3.952 -0.5431  0.0613  0.0315
 4580SOL    HW225203   0.016   2.535   3.978 -0.7958  2.7597  0.2542
 4581SOL     OW25204   1.928   0.877  15.857  0.3081 -0.3896  0.0236
 4581SOL    HW125205   1.916   0.852  15.949 -1.5296  1.3976  0.2730
 4581SOL    HW225206   1.982   0.953  15.879 -1.3758  0.1505  2.3151
 4582SOL     OW25207   4.704   1.816  14.218  0.0494 -1.0509  0.4961
 4582SOL    HW125208   0.038   1.866  14.274 -0.0267  0.9017 -1.1729
 4582SOL    HW225209   0.004   1.858  14.136 -2.0926 -1.1948 -0.2288
 4583SOL     OW25210   3.072   4.655   6.704  0.3315  0.0236  0.5207
 4583SOL    HW125211   3.044   4.566   6.724  0.8166 -0.4390 -0.8599
 4583SOL    HW225212   3.017   4.716   6.753 -0.2474  1.5465 -2.0099
 4584SOL     OW25213   1.914   4.331   6.839  0.1207  0.3279  0.6173
 4584SOL    HW125214   1.947   4.365   6.755 -0.3012 -0.4546  0.1346
 4584SOL    HW225215   1.906   4.241   6.808 -0.4195  0.0744  1.5285
 4585SOL     OW25216   0.212   1.636   9.062 -0.0174 -0.0961 -0.5628
 4585SOL    HW125217   0.188   1.695   9.134  1.8369  0.6180 -0.5309
 4585SOL    HW225218   0.197   1.547   9.093 -1.5249  0.3112 -0.1463
 4586SOL     OW25219   3.555   4.088   7.922  0.2506 -0.3519 -0.3532
 4586SOL    HW125220   3.594   4.167   7.885  1.2891 -0.6058  0.1824
 4586SOL    HW225221   3.464   4.099   7.893 -0.5920 -1.1672  1.9625
 4587SOL     OW25222   2.599   4.443   0.251  0.3678  0.7309  0.5901
 4587SOL    HW125223   2.634   4.514   0.198 -0.7643 -0.7479 -2.1319
 4587SOL    HW225224   2.631   4.469   0.337 -0.3202  1.0125  0.7627
 4588SOL     OW25225   0.272   2.373   2.217 -0.1677  0.0451  0.0312
 4588SOL    HW125226   0.258   2.287   2.255  1.1405  0.5790  1.7144
 4588SOL    HW225227   0.364   2.383   2.194  0.4852 -0.4336  2.3924
 4589SOL     OW25228   0.697   2.232   6.946  0.3149 -0.3369  0.1414
 4589SOL    HW125229   0.790   2.253   6.937  0.4740 -0.3876  1.7231
 4589SOL    HW225230   0.675   2.195   6.860 -1.2885 -0.5463  0.6452
 4590SOL     OW25231   0.039   4.522  15.179  0.2998 -0.4882 -0.9887
 4590SOL    HW125232   0.006   4.542  15.267  1.0873 -1.7525 -0.3983
 4590SOL    HW225233   0.097   4.594  15.157  1.8454 -0.9115  1.7156
 4591SOL     OW25234   2.246   1.087   3.552 -0.3080 -0.4000 -0.3145
 4591SOL    HW125235   2.195   1.142   3.493 -0.0524 -0.1428 -0.2987
 4591SOL    HW225236   2.281   1.154   3.611 -0.3290 -0.2311 -0.4954
 4592SOL     OW25237   4.174   0.185   4.748  0.1287  0.1294 -0.4485
 4592SOL    HW125238   4.227   0.259   4.776  0.2136 -0.9732  2.2842
 4592SOL    HW225239   4.084   0.211   4.767  0.1961  1.3642 -1.8031
 4593SOL     OW25240   2.320   3.078   6.863 -0.7434  0.2965 -0.0482
 4593SOL    HW125241   2.397   3.066   6.918 -0.0620 -1.1643 -1.3214
 4593SOL    HW225242   2.319   2.990   6.827 -2.8411  0.9658 -1.6091
 4594SOL     OW25243   1.209   1.058   8.680  0.2254 -0.4326 -0.1955
 4594SOL    HW125244   1.294   1.022   8.654  0.3716 -0.9309  0.9554
 4594SOL    HW225245   1.215   1.133   8.621  1.0176 -0.2661  0.0883
 4595SOL     OW25246   4.591   2.157   8.996 -0.1565  0.1715  0.2060
 4595SOL    HW125247   4.579   2.139   8.903  1.8216 -4.0602  0.7575
 4595SOL    HW225248   4.572   2.250   9.001 -0.6614 -0.0459  2.4045
 4596SOL     OW25249   1.352   1.176   0.277  0.4130  0.7818  0.0792
 4596SOL    HW125250   1.376   1.086   0.255  1.0446  0.8820  0.3479
 4596SOL    HW225251   1.419   1.205   0.339  1.2924 -1.6055  0.2449
 4597SOL     OW25252   3.330   4.224   7.866  0.3113  0.1819 -0.6744
 4597SOL    HW125253   3.247   4.255   7.903  1.1419  1.5419  0.0511
 4597SOL    HW225254   3.305   4.198   7.777  1.7691 -1.1046 -0.7165
 4598SOL     OW25255   0.640   1.917  14.141  0.7200 -0.0139  0.3089
 4598SOL    HW125256   0.691   1.922  14.222  0.8556 -1.4468  0.3025
 4598SOL    HW225257   0.709   1.925  14.075  0.5505  1.0309  0.2470
 4599SOL     OW25258   1.517   2.293  12.848  0.3239  0.2271 -0.3592
 4599SOL    HW125259   1.555   2.316  12.763 -0.9628  1.0351 -0.7102
 4599SOL    HW225260   1.423   2.307  12.837  0.2195  0.3131  0.6211
 4600SOL     OW25261   3.446   2.444   6.428  0.1657 -0.7165 -0.4097
 4600SOL    HW125262   3.412   2.400   6.505  0.9477 -0.7350 -0.0684
 4600SOL    HW225263   3.532   2.408   6.405  0.6040  0.7258 -1.0825
 4601SOL     OW25264   3.553   3.207   2.908 -0.4588 -0.6829  0.0056
 4601SOL    HW125265   3.457   3.204   2.903 -0.5294  1.0123  0.5813
 4601SOL    HW225266   3.572   3.257   2.987 -2.2932  1.1891 -0.7459
 4602SOL     OW25267   4.247   4.072   5.373  0.0839  0.0593 -0.2364
 4602SOL    HW125268   4.331   4.090   5.330 -0.5120  0.7138 -1.1447
 4602SOL    HW225269   4.212   4.158   5.396  0.2315 -0.2027  0.9741
 4603SOL     OW25270   4.629   2.953   4.402  0.4414 -0.0858  0.2477
 4603SOL    HW125271   4.642   2.914   4.316  0.4895  0.7412 -0.1193
 4603SOL    HW225272   4.685   2.901   4.460  1.7346  1.7200  0.6179
 4604SOL     OW25273   1.336   1.665   6.347 -0.3472  0.2747  0.3798
 4604SOL    HW125274   1.284   1.743   6.330  0.6994  0.4691 -1.9056
 4604SOL    HW225275   1.283   1.602   6.298  0.0197  2.2334 -2.5058
 4605SOL     OW25276   0.000   2.478   8.320  0.6647  0.1235  0.4472
 4605SOL    HW125277   0.062   2.498   8.250  1.6713 -0.3365  1.1911
 4605SOL    HW225278   4.690   2.564   8.342  0.4204  0.1577 -0.0762
 4606SOL     OW25279   3.133   1.053   0.904  0.3950  0.2873  0.4333
 4606SOL    HW125280   3.198   1.030   0.970  1.0155 -0.3134 -0.3810
 4606SOL    HW225281   3.073   0.979   0.894 -0.9699  1.4732 -0.1984
 4607SOL     OW25282   3.342   2.905   5.963 -0.2152 -0.0369  0.1906
 4607SOL    HW125283   3.395   2.922   6.040  0.9536  1.0270 -0.8475
 4607SOL    HW225284   3.295   2.831   6.000  0.4743 -0.8026 -0.4617
 4608SOL     OW25285   1.327   1.743   3.140  0.2180  0.2600  0.0989
 4608SOL    HW125286   1.393   1.810   3.121 -1.3332  2.4422  2.4067
 4608SOL    HW225287   1.245   1.780   3.173 -1.0018 -3.2544  1.0526
 4609SOL     OW25288   2.467   2.917  11.307  0.3687  0.1038 -0.0668
 4609SOL    HW125289   2.496   2.994  11.355 -0.2880 -0.7350  1.6669
 4609SOL    HW225290   2.540   2.858  11.326 -0.3664 -0.5449  0.7761
 4610SOL     OW25291   2.563   3.616  16.367 -0.2556  0.0558 -0.2846
 4610SOL    HW125292   2.636   3.643  16.312  0.3313  0.2683  0.6034
 4610SOL    HW225293   2.530   3.545  16.311 -0.6122 -0.7689  0.9530
 4611SOL     OW25294   2.304   1.174  12.312  0.1613  0.3360 -0.7090
 4611SOL    HW125295   2.218   1.191  12.275 -1.0455 -1.8367  1.1186
 4611SOL    HW225296   2.298   1.090  12.357 -1.8433  1.5619  1.2929
 4612SOL     OW25297   0.749   3.174   6.149  0.0101  0.4830  0.2758
 4612SOL    HW125298   0.665   3.172   6.102  0.0896 -2.4102  0.2369
 4612SOL    HW225299   0.718   3.154   6.238 -0.9506  0.2403 -0.1058
 4613SOL     OW25300   1.375   1.884  11.950  0.4547  0.4781 -0.2587
 4613SOL    HW125301   1.281   1.879  11.968  0.5661 -0.1339  0.1774
 4613SOL    HW225302   1.405   1.964  11.993 -0.3416 -0.7012  2.4581
 4614SOL     OW25303   0.194   0.924   8.745  0.6457 -0.7275 -0.5021
 4614SOL    HW125304   0.137   0.995   8.715 -0.2358 -1.4510 -0.5553
 4614SOL    HW225305   0.274   0.975   8.737 -0.9325  1.6314 -1.4079
 4615SOL     OW25306   3.808   3.610   6.480 -0.4578  0.2736 -0.4782
 4615SOL    HW125307   3.733   3.586   6.534 -0.7112  2.9820  0.3766
 4615SOL    HW225308   3.817   3.524   6.437  2.8327  2.1856 -3.6678
 4616SOL     OW25309   2.190   2.071   8.524 -0.2616 -0.2533 -0.1196
 4616SOL    HW125310   2.208   2.098   8.614  1.4572 -1.1000 -0.2110
 4616SOL    HW225311   2.192   1.976   8.537 -0.5837 -0.2917 -0.3674
 4617SOL     OW25312   3.198   2.835   2.322 -0.2709  0.0406 -0.0223
 4617SOL    HW125313   3.143   2.913   2.322  1.0613  0.9960 -1.6429
 4617SOL    HW225314   3.138   2.762   2.306  1.6598 -1.6365  0.3848
 4618SOL     OW25315   3.278   2.685   9.878 -0.0581 -0.2061 -0.1161
 4618SOL    HW125316   3.281   2.693   9.974  3.5591  0.7279 -0.2880
 4618SOL    HW225317   3.356   2.737   9.858 -1.3053  1.0074 -1.8222
 4619SOL     OW25318   4.435   3.430   4.114  0.4531  0.1096 -0.0403
 4619SOL    HW125319   4.484   3.388   4.185 -1.6705 -0.7493  0.9257
 4619SOL    HW225320   4.345   3.428   4.146  0.2417  0.3857 -0.6158
 4620SOL     OW25321   3.898   0.310   3.693  0.2513  0.6645 -0.1949
 4620SOL    HW125322   3.947   0.332   3.614  0.7367 -2.3655 -0.7405
 4620SOL    HW225323   3.821   0.270   3.653 -2.3661  3.6855  1.8840
 4621SOL     OW25324   4.615   1.479   1.594 -0.3980 -0.2070 -0.1178
 4621SOL    HW125325   4.683   1.546   1.600  2.0537 -2.8240  0.5891
 4621SOL    HW225326   4.631   1.456   1.503  0.4734 -0.4915  0.1171
 4622SOL     OW25327   2.710   3.550  10.137 -0.1939 -0.1778  0.1465
 4622SOL    HW125328   2.789   3.556  10.084  0.9370  1.1050  1.9411
 4622SOL    HW225329   2.751   3.556  10.224 -0.9578  0.8592  0.4437
 4623SOL     OW25330   3.738   0.215  10.732  0.1276 -0.3337 -0.0016
 4623SOL    HW125331   3.747   0.128  10.770  1.0281  0.1818  0.9935
 4623SOL    HW225332   3.649   0.239  10.756 -1.1182 -3.3909 -1.6079
 4624SOL     OW25333   0.299   2.190  11.947 -0.2456  0.1279  0.3358
 4624SOL    HW125334   0.216   2.146  11.928 -0.8106  1.2216  0.2329
 4624SOL    HW225335   0.293   2.269  11.892  1.4253 -0.0678 -0.1121
 4625SOL     OW25336   1.310   1.029   3.641  0.1411 -0.1364  0.1753
 4625SOL    HW125337   1.358   1.103   3.603 -0.2030 -0.3536 -0.6851
 4625SOL    HW225338   1.255   1.080   3.700 -0.9083 -0.6987 -0.3143
 4626SOL     OW25339   3.084   1.022   0.576 -0.0224  0.4903  0.1847
 4626SOL    HW125340   3.016   0.990   0.635  0.9261 -1.1321  0.4052
 4626SOL    HW225341   3.102   1.106   0.618  0.2570 -0.8418  2.7536
 4627SOL     OW25342   3.180   2.523   2.375  0.2936 -0.7505  0.1524
 4627SOL    HW125343   3.133   2.440   2.365  0.7142 -0.6741 -2.3705
 4627SOL    HW225344   3.251   2.488   2.428 -0.5837  0.0015  1.8250
 4628SOL     OW25345   2.877   3.099   0.967  0.2378 -0.0019  0.0925
 4628SOL    HW125346   2.796   3.151   0.968 -0.5791 -1.2672 -0.6114
 4628SOL    HW225347   2.921   3.115   1.050  0.2289 -1.8167  0.4275
 4629SOL     OW25348   3.247   4.506   6.106 -0.4122  0.6061  0.4621
 4629SOL    HW125349   3.245   4.417   6.072  1.2515  1.3136 -1.4882
 4629SOL    HW225350   3.176   4.501   6.170 -0.4617 -0.5418  0.3207
 4630SOL     OW25351   2.359   2.468  13.403 -0.2251  0.1810 -0.7363
 4630SOL    HW125352   2.373   2.432  13.490  1.8299 -3.4394 -2.5476
 4630SOL    HW225353   2.340   2.392  13.348 -0.5159 -0.3607  0.1213
 4631SOL     OW25354   3.812   0.363   8.801  0.3260 -0.4990 -0.1968
 4631SOL    HW125355   3.760   0.426   8.850 -1.3761 -1.0157 -1.3212
 4631SOL    HW225356   3.893   0.360   8.851 -0.6327 -1.0217  1.3161
 4632SOL     OW25357   4.331   0.071   7.295  0.0098 -0.0768  0.4167
 4632SOL    HW125358   4.318   0.004   7.228  0.1915  1.6356 -1.3519
 4632SOL    HW225359   4.273   0.047   7.366 -2.9705  4.1344 -0.5770
 4633SOL     OW25360   2.724   0.881   8.419  0.2090 -0.4322  0.0817
 4633SOL    HW125361   2.672   0.942   8.366 -0.3623 -0.0700  1.0541
 4633SOL    HW225362   2.689   0.795   8.396 -2.4371 -0.0740  2.7683
 4634SOL     OW25363   1.747   4.205   2.899 -0.0403 -0.6435  0.9682
 4634SOL    HW125364   1.751   4.295   2.866  0.6066 -0.5852  1.1989
 4634SOL    HW225365   1.832   4.167   2.878 -0.5722 -0.1483 -2.1303
 4635SOL     OW25366   0.611   0.426  11.859 -0.1685  0.3214  0.0325
 4635SOL    HW125367   0.642   0.335  11.855 -0.7889  0.1029  0.2561
 4635SOL    HW225368   0.643   0.441  11.947 -1.6234 -0.8265  0.7557
 4636SOL     OW25369   2.854   3.729   7.142 -0.4115  0.0734  0.8325
 4636SOL    HW125370   2.767   3.752   7.108 -0.6319 -1.5743  0.3035
 4636SOL    HW225371   2.875   3.683   7.062  1.3422  0.9124  0.8220
 4637SOL     OW25372   0.144   2.696  14.526 -0.2857  0.3411  0.2062
 4637SOL    HW125373   0.181   2.774  14.486  1.2424 -0.9568 -0.9269
 4637SOL    HW225374   0.133   2.636  14.452 -2.1982  0.1950  0.6263
 4638SOL     OW25375   0.312   0.945   6.726  0.0840  0.4075 -0.0329
 4638SOL    HW125376   0.230   0.896   6.714  1.9467 -2.2090 -2.1203
 4638SOL    HW225377   0.303   0.973   6.817 -0.3844  0.7568 -0.1850
 4639SOL     OW25378   4.311   0.832   9.677  0.1123 -0.2058 -0.1022
 4639SOL    HW125379   4.389   0.802   9.630  1.3083  3.7426 -0.5986
 4639SOL    HW225380   4.274   0.744   9.680  0.2719 -0.3445 -2.2631
 4640SOL     OW25381   1.500   0.820   6.825 -0.0781 -0.1973  0.6356
 4640SOL    HW125382   1.538   0.889   6.770 -2.2384  1.7210  1.5700
 4640SOL    HW225383   1.434   0.870   6.873  2.5155  1.5746  2.3357
 4641SOL     OW25384   1.833   4.705  12.455  0.2927 -0.1656 -0.2868
 4641SOL    HW125385   1.863   0.069  12.477  0.6892 -0.6856  1.2629
 4641SOL    HW225386   1.757   0.000  12.401 -0.5623 -1.6192  0.3870
 4642SOL     OW25387   0.963   3.742  14.740  0.0325 -0.1507 -0.3425
 4642SOL    HW125388   0.935   3.670  14.797  2.5299 -1.0044 -0.2024
 4642SOL    HW225389   0.873   3.774  14.730 -0.6649 -1.2384  2.3650
 4643SOL     OW25390   2.995   0.026  10.284 -0.0722 -0.1460  0.5633
 4643SOL    HW125391   2.921   0.079  10.253  0.1974  0.9446  1.7817
 4643SOL    HW225392   2.992   0.044  10.378  2.3164 -2.1789  1.0177
 4644SOL     OW25393   1.665   1.460   1.349  0.1641 -0.7403 -0.1162
 4644SOL    HW125394   1.665   1.556   1.352 -1.5334 -0.6901 -1.4117
 4644SOL    HW225395   1.574   1.445   1.373  0.1350  1.5409  1.1972
 4645SOL     OW25396   2.985   3.315   0.479  0.3830  0.2416 -0.6372
 4645SOL    HW125397   2.966   3.408   0.471 -1.9886 -0.0732  1.1109
 4645SOL    HW225398   2.907   3.276   0.518  0.8465 -0.1065 -0.0497
 4646SOL     OW25399   1.563   3.444   7.889 -0.8942  0.1313  0.1771
 4646SOL    HW125400   1.606   3.376   7.941 -1.3031  0.8155  1.4295
 4646SOL    HW225401   1.469   3.424   7.896 -0.7245 -0.0274  1.9419
 4647SOL     OW25402   1.897   0.623   2.811 -0.3563 -0.3499 -0.2025
 4647SOL    HW125403   1.839   0.610   2.736  1.8388  1.3542 -2.1771
 4647SOL    HW225404   1.870   0.548   2.863  1.0559 -1.4081 -1.0210
 4648SOL     OW25405   2.869   2.804  11.157 -0.4528 -0.2344  0.5545
 4648SOL    HW125406   2.834   2.871  11.099 -1.1081  0.2013  1.4431
 4648SOL    HW225407   2.799   2.777  11.218 -2.0843  1.4819 -0.5726
 4649SOL     OW25408   2.695   1.418   6.190 -0.0110 -0.1462  0.2217
 4649SOL    HW125409   2.608   1.381   6.203 -0.1910  1.0964  2.4566
 4649SOL    HW225410   2.692   1.480   6.117  1.4415 -1.3503 -0.8636
 4650SOL     OW25411   1.699   4.209   6.425  0.4391 -0.4696 -0.0263
 4650SOL    HW125412   1.711   4.260   6.346 -0.2658  0.5153  0.5042
 4650SOL    HW225413   1.648   4.135   6.391 -0.8357 -0.8556  2.6709
 4651SOL     OW25414   4.000   0.602   4.486 -0.1670 -0.4085 -0.7003
 4651SOL    HW125415   4.022   0.622   4.394  1.4788 -1.3200 -0.5207
 4651SOL    HW225416   3.944   0.528   4.463 -0.9075 -0.2502  0.6490
 4652SOL     OW25417   0.119   3.868   0.756 -0.0192 -0.1871 -0.1395
 4652SOL    HW125418   0.047   3.931   0.756  1.0066  0.9986  0.2421
 4652SOL    HW225419   0.099   3.838   0.668 -0.4038 -0.4007  0.0191
 4653SOL     OW25420   0.477   4.146  15.702  0.2286 -0.2051  0.2534
 4653SOL    HW125421   0.551   4.116  15.650  1.2690 -0.8451  2.0883
 4653SOL    HW225422   0.425   4.193  15.636 -0.5138  0.4059  1.2664
 4654SOL     OW25423   3.742   2.408   5.538 -0.2006 -0.0650  0.2750
 4654SOL    HW125424   3.762   2.497   5.568 -0.0719  0.0422 -0.1285
 4654SOL    HW225425   3.661   2.408   5.488 -0.5820  1.5937  0.9111
 4655SOL     OW25426   1.415   2.932   3.608  0.2523 -0.6018 -0.2776
 4655SOL    HW125427   1.483   2.871   3.578  0.4479 -0.8105  0.6007
 4655SOL    HW225428   1.450   2.993   3.672  1.2996  1.0991 -2.5074
 4656SOL     OW25429   1.144   0.542   8.860  0.4750 -0.3792  0.7161
 4656SOL    HW125430   1.143   0.546   8.955 -0.0755  0.8909  0.6549
 4656SOL    HW225431   1.134   0.636   8.847  0.1230 -0.3251  1.3833
 4657SOL     OW25432   2.868   3.354   7.035 -0.8144 -0.6283 -0.2993
 4657SOL    HW125433   2.925   3.293   6.989  1.9338 -0.7291  3.1910
 4657SOL    HW225434   2.886   3.334   7.127  2.6181 -0.6712 -0.9849
 4658SOL     OW25435   3.923   4.242   8.679  0.0218 -0.4691  0.3536
 4658SOL    HW125436   3.852   4.269   8.621  0.3278 -1.7149 -0.6078
 4658SOL    HW225437   3.954   4.322   8.722  0.4005  0.6738 -2.0495
 4659SOL     OW25438   0.219   1.700   6.234  0.7195  0.5354 -0.2352
 4659SOL    HW125439   0.193   1.690   6.142  0.7679 -0.9846 -0.0747
 4659SOL    HW225440   0.310   1.671   6.239 -0.2344 -2.3626  0.1030
 4660SOL     OW25441   0.879   2.717   7.216 -0.0312  0.0240 -0.1600
 4660SOL    HW125442   0.844   2.709   7.305 -1.1168  0.7163 -0.5278
 4660SOL    HW225443   0.931   2.639   7.194  0.2081  0.9334 -2.7762
 4661SOL     OW25444   4.323   1.266   8.728  0.2637  0.4431 -0.1755
 4661SOL    HW125445   4.301   1.263   8.634  0.4907  2.4843 -0.2810
 4661SOL    HW225446   4.315   1.175   8.757 -0.2362  0.6235  0.2562
 4662SOL     OW25447   2.549   3.110   9.234  0.1892  0.4063 -0.4624
 4662SOL    HW125448   2.495   3.172   9.184 -1.5643 -1.8121 -1.2853
 4662SOL    HW225449   2.543   3.140   9.324  0.1684 -2.3938  0.4577
 4663SOL     OW25450   1.207   1.941  15.090 -0.5597  0.0143  0.3673
 4663SOL    HW125451   1.204   2.006  15.020  0.5546 -1.5190 -1.0966
 4663SOL    HW225452   1.294   1.958  15.127 -0.5902 -2.2298  1.4690
 4664SOL     OW25453   3.046   3.286   6.672 -0.0995  0.1104 -0.3861
 4664SOL    HW125454   2.992   3.256   6.745 -1.4532  0.7444 -1.1016
 4664SOL    HW225455   3.126   3.245   6.703 -0.5275 -1.1279 -0.9504
 4665SOL     OW25456   4.555   0.935   8.651 -0.7067 -0.2107  0.2310
 4665SOL    HW125457   4.463   0.944   8.627 -0.2654 -2.2713 -2.1924
 4665SOL    HW225458   4.552   0.913   8.744 -2.1686  0.3511  0.3037
 4666SOL     OW25459   2.553   3.132   5.408  0.3393 -0.1028  0.6185
 4666SOL    HW125460   2.603   3.210   5.431  1.1053  0.0935 -1.7471
 4666SOL    HW225461   2.465   3.147   5.443  0.5865  1.8130  0.4052
 4667SOL     OW25462   0.942   4.664   0.775  0.1891 -0.5358 -0.3164
 4667SOL    HW125463   0.978   4.575   0.777  1.7163  0.1001  0.1852
 4667SOL    HW225464   0.995   4.698   0.704 -0.2849  1.0992  0.1307
 4668SOL     OW25465   0.675   3.316   4.464  0.0046  0.0496 -0.0815
 4668SOL    HW125466   0.621   3.262   4.521 -0.9758  2.0486  0.9008
 4668SOL    HW225467   0.734   3.247   4.434  0.3537 -0.0412  0.8125
 4669SOL     OW25468   1.197   2.329   7.741 -0.0853 -0.9090  0.4001
 4669SOL    HW125469   1.108   2.358   7.760 -0.5767 -2.2436  0.1539
 4669SOL    HW225470   1.190   2.299   7.650  0.2576  0.2325 -0.0083
 4670SOL     OW25471   4.014   3.569   5.582  0.0110 -0.4962  0.4428
 4670SOL    HW125472   3.950   3.576   5.511  0.8779  1.7601 -0.1095
 4670SOL    HW225473   3.953   3.549   5.653 -0.5646  2.9020  0.9234
 4671SOL     OW25474   3.567   4.476   6.532 -0.0899  0.1553  0.0743
 4671SOL    HW125475   3.641   4.478   6.594  1.5331  0.5278 -1.8864
 4671SOL    HW225476   3.499   4.498   6.596  0.8558  0.9331  0.8059
 4672SOL     OW25477   0.098   1.038   2.615  0.1969 -0.2438  0.2615
 4672SOL    HW125478   0.189   1.066   2.625  0.4082 -0.6524 -0.5163
 4672SOL    HW225479   0.081   1.079   2.530 -0.1194  0.3261  0.5986
 4673SOL     OW25480   4.200   3.753   3.506 -0.4456 -0.2563  0.0186
 4673SOL    HW125481   4.194   3.766   3.601 -1.1880  2.4899 -0.3963
 4673SOL    HW225482   4.275   3.695   3.496 -0.8276 -0.9213  0.9023
 4674SOL     OW25483   2.523   2.586   6.892  0.1676 -0.1146  0.2557
 4674SOL    HW125484   2.532   2.547   6.979  1.7227 -0.2499  0.0402
 4674SOL    HW225485   2.546   2.512   6.837  2.0298  1.5798 -1.2181
 4675SOL     OW25486   3.530   2.169   4.380 -0.1056 -0.7914  0.3615
 4675SOL    HW125487   3.608   2.149   4.328 -0.9874 -1.6939 -0.6239
 4675SOL    HW225488   3.562   2.239   4.436  0.2867 -0.0262 -0.8118
 4676SOL     OW25489   3.987   2.868  15.534 -0.8290 -0.2323  0.6362
 4676SOL    HW125490   4.018   2.956  15.513 -0.9943 -0.2383  0.3689
 4676SOL    HW225491   3.917   2.888  15.596 -2.9074 -0.8388 -1.5037
 4677SOL     OW25492   3.295   2.833   2.586 -0.0487  0.1721  0.0634
 4677SOL    HW125493   3.327   2.815   2.497  2.3589 -0.4051  1.0358
 4677SOL    HW225494   3.203   2.808   2.581  0.8465 -3.1583  0.3926
 4678SOL     OW25495   0.976   3.688  16.738  0.0832  0.5471 -0.5366
 4678SOL    HW125496   0.974   3.597  16.767  2.1088  1.1199  1.4048
 4678SOL    HW225497   1.069   3.698  16.757  0.6063 -0.7517 -2.4173
 4679SOL     OW25498   3.118   4.031   7.387 -0.2802 -0.1272  0.1299
 4679SOL    HW125499   3.042   3.993   7.343  0.0481  0.3819 -0.8848
 4679SOL    HW225500   3.188   4.015   7.323 -0.8263  2.3601 -1.0933
 4680SOL     OW25501   0.124   3.309   4.197  0.0071 -0.2420  0.3022
 4680SOL    HW125502   0.203   3.337   4.151  0.8064 -2.0425  0.5902
 4680SOL    HW225503   0.144   3.216   4.211 -0.1691 -0.3698 -0.3252
 4681SOL     OW25504   1.188   2.362   5.113  0.2079  0.1017  0.3531
 4681SOL    HW125505   1.191   2.457   5.117 -1.0919  0.2519 -3.0556
 4681SOL    HW225506   1.249   2.344   5.041 -0.5988 -0.2484 -0.2385
 4682SOL     OW25507   3.581   1.088   8.527  0.3306 -0.5862  0.4303
 4682SOL    HW125508   3.637   1.161   8.501  0.2747 -1.0576 -1.0091
 4682SOL    HW225509   3.614   1.015   8.475 -0.4678 -1.5955  1.3433
 4683SOL     OW25510   0.534   2.963   2.720 -0.0945  0.4922  0.3476
 4683SOL    HW125511   0.464   2.996   2.663 -0.1463 -0.8698 -0.3767
 4683SOL    HW225512   0.602   3.031   2.718  1.0518 -0.6201  1.8500
 4684SOL     OW25513   3.635   2.809   4.909 -0.1273 -0.1492 -0.4053
 4684SOL    HW125514   3.573   2.738   4.925  0.1489 -0.2144  0.4009
 4684SOL    HW225515   3.583   2.845   4.837 -3.7636 -0.5491  1.9822
 4685SOL     OW25516   2.618   2.745   4.487  0.2922  0.3637 -0.3233
 4685SOL    HW125517   2.606   2.673   4.549 -0.2758 -1.0165 -2.0211
 4685SOL    HW225518   2.524   2.761   4.480  0.3212  0.5706 -0.2454
 4686SOL     OW25519   2.390   3.408   2.133  0.1244 -0.1784 -0.1250
 4686SOL    HW125520   2.341   3.347   2.188  3.2866 -1.2280  1.5032
 4686SOL    HW225521   2.373   3.377   2.043  0.5289 -0.8262  0.0239
 4687SOL     OW25522   2.718   2.956  15.714 -0.7538  0.3871 -0.0462
 4687SOL    HW125523   2.797   2.968  15.765  0.3618  0.6219 -1.8245
 4687SOL    HW225524   2.758   2.925  15.633  0.7381  0.9463  0.4915
 4688SOL     OW25525   3.201   0.539   2.738  0.3366 -0.3568 -0.0889
 4688SOL    HW125526   3.165   0.627   2.727  0.7453 -0.2881 -0.8889
 4688SOL    HW225527   3.179   0.513   2.828 -0.0351  0.0253 -0.0706
 4689SOL     OW25528   2.428   3.349   8.315 -0.3172  0.1211  0.3324
 4689SOL    HW125529   2.451   3.341   8.407  1.6570 -1.4119 -0.2880
 4689SOL    HW225530   2.374   3.272   8.299 -1.7636  0.8494  1.7454
 4690SOL     OW25531   4.702   2.833   5.241 -0.5403 -0.5294 -0.1927
 4690SOL    HW125532   4.672   2.866   5.326  0.3457  0.3724 -0.2295
 4690SOL    HW225533   4.632   2.775   5.212  0.9668 -2.1550 -0.5561
 4691SOL     OW25534   4.066   1.631   9.001 -0.7641 -0.3562 -0.2484
 4691SOL    HW125535   4.109   1.552   8.969  0.0534 -0.8324  2.0340
 4691SOL    HW225536   4.130   1.678   9.055 -2.4420  1.3606  0.2688
 4692SOL     OW25537   1.158   2.656   4.639  0.1747  0.1417  0.1301
 4692SOL    HW125538   1.087   2.673   4.577 -0.0516 -0.2318  0.2847
 4692SOL    HW225539   1.211   2.590   4.594 -1.1763 -2.0468  1.8001
 4693SOL     OW25540   3.850   2.172  15.747 -0.4937 -0.2690 -0.4793
 4693SOL    HW125541   3.761   2.140  15.758 -0.8526  0.7018 -0.5232
 4693SOL    HW225542   3.882   2.145  15.833  2.2157  1.0324 -1.0386
 4694SOL     OW25543   0.476   1.574   2.340  0.3066 -0.1709 -0.4874
 4694SOL    HW125544   0.543   1.611   2.282 -0.4587 -1.9088 -2.4760
 4694SOL    HW225545   0.499   1.615   2.424 -1.6217 -2.5705  1.2097
 4695SOL     OW25546   2.789   0.447   1.953  0.6645 -0.2604  0.6946
 4695SOL    HW125547   2.808   0.408   2.039  1.2848 -0.0593  0.6470
 4695SOL    HW225548   2.746   0.376   1.906  0.3643  0.6964 -0.4581
 4696SOL     OW25549   1.321   4.420   0.312 -0.6018 -0.0888  0.4019
 4696SOL    HW125550   1.299   4.396   0.222  2.7565 -0.1335 -0.4028
 4696SOL    HW225551   1.395   4.363   0.334  1.8406  2.5772 -0.8883
 4697SOL     OW25552   3.574   2.089  15.025  0.1933 -0.2744 -0.3478
 4697SOL    HW125553   3.614   2.005  15.047 -2.1330 -0.8234  1.7574
 4697SOL    HW225554   3.643   2.124  14.967  0.5256  0.8332  0.7258
 4698SOL     OW25555   0.141   1.326   7.346 -0.1350 -0.4322 -0.3833
 4698SOL    HW125556   0.095   1.252   7.385 -0.6403  1.3538  2.4174
 4698SOL    HW225557   0.103   1.315   7.259  0.5757 -0.4048 -0.6971
 4699SOL     OW25558   0.900   1.684   6.182  0.2568 -0.0025  0.4002
 4699SOL    HW125559   0.832   1.714   6.122  0.5227  0.5093  0.3507
 4699SOL    HW225560   0.862   1.646   6.261  1.1379  0.4959  1.0694
 4700SOL     OW25561   2.590   4.261  16.019  0.0453  0.2272  0.2304
 4700SOL    HW125562   2.546   4.182  16.050  0.5932 -0.2830 -0.2948
 4700SOL    HW225563   2.609   4.307  16.101  0.6066 -2.8895  1.8385
 4701SOL     OW25564   3.713   0.930   8.336  0.0751 -0.8405 -0.1897
 4701SOL    HW125565   3.783   0.993   8.352 -1.3055  0.8735 -0.7839
 4701SOL    HW225566   3.762   0.849   8.343  1.3077 -0.2842 -2.5279
 4702SOL     OW25567   3.852   4.667   7.241 -0.2744 -0.5127 -0.3786
 4702SOL    HW125568   3.899   4.613   7.305 -2.3950 -1.4712  0.3620
 4702SOL    HW225569   3.773   4.690   7.290  0.2849 -1.7622  1.1253
 4703SOL     OW25570   1.258   2.077   5.680 -0.2471  0.3019 -0.3383
 4703SOL    HW125571   1.235   2.163   5.715  0.8371  0.2450  0.4981
 4703SOL    HW225572   1.176   2.028   5.682  0.3100 -0.7415 -2.7476
 4704SOL     OW25573   1.707   1.067   0.249  0.3892 -0.4796  0.0602
 4704SOL    HW125574   1.794   1.041   0.216  0.0727 -3.7637  1.7729
 4704SOL    HW225575   1.731   1.128   0.318  0.7631  0.3307 -0.7776
 4705SOL     OW25576   1.673   0.172   2.747 -0.4709  0.8369 -0.2002
 4705SOL    HW125577   1.746   0.215   2.702  0.5850 -0.6143  0.1146
 4705SOL    HW225578   1.606   0.233   2.716  0.8002  1.9826 -0.6822
 4706SOL     OW25579   0.366   1.548   5.462  0.0228  0.5212  0.0917
 4706SOL    HW125580   0.382   1.552   5.556 -0.2090  0.8139  0.1189
 4706SOL    HW225581   0.455   1.518   5.448 -0.0192  0.4688 -0.0603
 4707SOL     OW25582   4.554   2.445   0.331  0.1047  0.6427  0.9263
 4707SOL    HW125583   4.618   2.499   0.285 -0.1107  0.3336  0.2724
 4707SOL    HW225584   4.519   2.389   0.262  0.9336  0.1659  0.8898
 4708SOL     OW25585   3.580   0.228   5.915  0.5490  0.3194  0.4598
 4708SOL    HW125586   3.655   0.269   5.871 -1.2129  1.2818 -1.6484
 4708SOL    HW225587   3.585   0.273   6.000  0.8191  0.3335  0.4354
 4709SOL     OW25588   2.473   1.750  13.964 -0.1809  0.1714 -0.3308
 4709SOL    HW125589   2.414   1.686  13.925 -0.7797  0.4237  0.1721
 4709SOL    HW225590   2.429   1.778  14.044 -1.1425 -0.3672 -0.6696
 4710SOL     OW25591   4.352   3.980   0.976 -0.3886  0.4427  0.6418
 4710SOL    HW125592   4.258   3.983   0.995 -0.5739  0.2342 -0.2537
 4710SOL    HW225593   4.359   3.897   0.930  0.7264  0.3630  0.9492
 4711SOL     OW25594   4.318   3.380   7.338 -0.3360 -0.5817  0.5683
 4711SOL    HW125595   4.307   3.351   7.247 -2.8828  0.8303  0.4300
 4711SOL    HW225596   4.298   3.473   7.332  2.1486  0.0091  1.5160
 4712SOL     OW25597   1.817   0.023   6.442  0.0097 -0.0220  0.5996
 4712SOL    HW125598   1.752   0.038   6.511 -1.6028 -2.6360 -0.3556
 4712SOL    HW225599   1.846   0.107   6.407 -0.8060 -0.3742 -0.9438
 4713SOL     OW25600   2.290   4.434   6.863  0.4417  0.3363 -0.0475
 4713SOL    HW125601   2.373   4.426   6.817 -0.0677  0.9734 -1.0558
 4713SOL    HW225602   2.297   4.522   6.899  2.1524  0.7714 -1.4686
 4714SOL     OW25603   0.370   0.437  11.731  0.0357  0.3041 -0.3101
 4714SOL    HW125604   0.371   0.342  11.742  0.5881  0.4505  0.8082
 4714SOL    HW225605   0.448   0.459  11.782  0.8302 -2.7807 -0.1563
 4715SOL     OW25606   3.698   4.060   2.861  0.5034  0.0394  0.2971
 4715SOL    HW125607   3.746   3.977   2.858 -0.1985 -0.2021 -4.5591
 4715SOL    HW225608   3.610   4.023   2.857 -0.0709  1.3041  1.5041
 4716SOL     OW25609   3.631   2.437   7.262 -0.1462 -0.4842 -0.2850
 4716SOL    HW125610   3.638   2.498   7.335  0.0359  2.3582 -2.6648
 4716SOL    HW225611   3.670   2.497   7.198 -1.6361  1.3682  0.5175
 4717SOL     OW25612   0.487   0.424   9.401  0.1053 -0.0968  0.5894
 4717SOL    HW125613   0.471   0.471   9.320 -0.0557 -0.8365  0.1929
 4717SOL    HW225614   0.526   0.492   9.456  0.9700 -0.1436  0.0378
 4718SOL     OW25615   3.224   0.993   4.593 -0.7478  0.3830  0.5616
 4718SOL    HW125616   3.250   0.917   4.645  2.2139  1.2920  0.4215
 4718SOL    HW225617   3.178   1.045   4.660 -1.4857  0.5450 -0.0709
 4719SOL     OW25618   4.161   0.663   0.192  0.2172 -0.0139 -0.4699
 4719SOL    HW125619   4.160   0.595   0.259 -0.8098  2.2076  1.7776
 4719SOL    HW225620   4.244   0.634   0.154  0.0285  0.5313 -1.2799
 4720SOL     OW25621   3.919   0.603   6.445 -0.0525 -0.4105  0.3070
 4720SOL    HW125622   3.894   0.581   6.534  0.5536  0.1777  0.6199
 4720SOL    HW225623   3.908   0.697   6.436  2.9779 -0.5023 -4.5665
 4721SOL     OW25624   0.681   3.106   8.549  0.0493 -0.0417 -0.2507
 4721SOL    HW125625   0.661   3.197   8.528 -1.6256 -0.2967  0.2338
 4721SOL    HW225626   0.598   3.064   8.526 -0.0262  0.8339 -1.5671
 4722SOL     OW25627   4.005   0.688   6.830  0.4468  0.0248  0.5645
 4722SOL    HW125628   4.071   0.695   6.762  2.5022 -0.1377  2.5480
 4722SOL    HW225629   3.947   0.752   6.789 -0.0749 -0.3844  0.6643
 4723SOL     OW25630   1.631   2.220   2.857 -0.2936 -0.2186 -0.5166
 4723SOL    HW125631   1.603   2.140   2.813 -0.1428 -1.4259  1.5921
 4723SOL    HW225632   1.639   2.279   2.782 -1.4418 -0.1303 -0.5711
 4724SOL     OW25633   2.143   4.064  16.157 -0.6165 -0.3190  0.2645
 4724SOL    HW125634   2.151   3.975  16.192  1.5751  0.6463  2.1872
 4724SOL    HW225635   2.124   4.115  16.235 -3.0888 -0.3382 -0.3144
 4725SOL     OW25636   0.603   1.638   4.119 -0.1430  0.6029 -0.2202
 4725SOL    HW125637   0.635   1.589   4.195 -1.9501  1.4642  1.0820
 4725SOL    HW225638   0.568   1.575   4.056  0.0272 -0.1900  0.4789
 4726SOL     OW25639   0.646   0.972   7.444  0.0335  0.2728  0.6764
 4726SOL    HW125640   0.699   1.028   7.387 -0.8242  0.8404  0.4396
 4726SOL    HW225641   0.642   1.019   7.527  0.0231 -0.3234  1.0119
 4727SOL     OW25642   2.828   1.136   3.414  0.1336 -0.8693  0.1892
 4727SOL    HW125643   2.892   1.164   3.349 -0.8048  1.2002  0.1781
 4727SOL    HW225644   2.878   1.092   3.483  4.2564 -1.9010 -3.4502
 4728SOL     OW25645   2.168   2.959   3.927  0.5727 -0.2535 -0.1650
 4728SOL    HW125646   2.147   3.051   3.942  2.6421 -0.0815  1.6304
 4728SOL    HW225647   2.202   2.962   3.837  0.8090  0.5774 -0.0423
 4729SOL     OW25648   0.954   2.447   7.821 -0.1759 -0.4764  0.3662
 4729SOL    HW125649   0.919   2.446   7.732  0.6316  0.2994  0.0391
 4729SOL    HW225650   0.931   2.536   7.848 -1.8201 -0.0606 -2.3925
 4730SOL     OW25651   0.624   0.332  17.119  0.5199 -0.1657 -0.3646
 4730SOL    HW125652   0.675   0.395  17.068  0.7483  0.9726  1.2447
 4730SOL    HW225653   0.557   0.396  17.146 -0.7172 -1.3129 -0.6994
 4731SOL     OW25654   3.080   4.464   7.253 -0.2511 -0.5913 -0.3581
 4731SOL    HW125655   3.035   4.382   7.271 -0.9578 -0.2760 -0.6661
 4731SOL    HW225656   3.004   4.523   7.246  0.2376  0.0586 -0.1458
 4732SOL     OW25657   4.709   3.197  17.182  0.3519  0.9684 -0.1054
 4732SOL    HW125658   0.028   3.246  17.113 -0.0148 -0.0857 -1.0732
 4732SOL    HW225659   4.712   3.108  17.147  1.4588  0.5244  1.0824
 4733SOL     OW25660   2.657   3.415   0.457 -0.7445  0.0145 -0.5015
 4733SOL    HW125661   2.639   3.459   0.540  1.7756 -0.3944  0.2711
 4733SOL    HW225662   2.676   3.485   0.395  0.5667  0.6364  0.6051
 4734SOL     OW25663   0.994   1.142   8.806 -0.6461  0.1564  0.2473
 4734SOL    HW125664   1.060   1.101   8.750 -0.3777  0.3218  0.4413
 4734SOL    HW225665   1.048   1.165   8.882 -0.0365 -1.7307  0.3904
 4735SOL     OW25666   2.343   2.864   7.565  0.3990  0.5903 -0.3388
 4735SOL    HW125667   2.407   2.829   7.503  0.0858 -0.0227 -0.3123
 4735SOL    HW225668   2.275   2.877   7.498  1.1266  0.3457 -1.1228
 4736SOL     OW25669   0.246   0.532   2.180 -0.3638  0.0307 -0.5270
 4736SOL    HW125670   0.310   0.587   2.226 -1.3284  0.8863 -0.2189
 4736SOL    HW225671   0.281   0.451   2.218  1.4958  0.0229 -2.2661
 4737SOL     OW25672   2.165   3.812  16.258 -0.4801 -0.3281  0.2130
 4737SOL    HW125673   2.116   3.774  16.331  0.2463 -1.6157  0.0379
 4737SOL    HW225674   2.251   3.796  16.296 -1.0408  0.2268  1.7070
 4738SOL     OW25675   2.830   0.255   2.155 -0.2377  0.3759 -0.2337
 4738SOL    HW125676   2.839   0.166   2.122 -1.2415 -0.5711  2.1329
 4738SOL    HW225677   2.874   0.248   2.239  0.3696 -2.5253 -0.8151
 4739SOL     OW25678   2.725   1.265   5.455 -0.4031 -0.6725  0.2027
 4739SOL    HW125679   2.665   1.335   5.482 -0.2719 -0.2621 -0.5870
 4739SOL    HW225680   2.724   1.286   5.362  0.9329  0.1967  0.3952
 4740SOL     OW25681   2.502   0.393   2.965 -0.5738  0.1129  0.2535
 4740SOL    HW125682   2.519   0.306   3.001  0.6219  0.4289  0.4408
 4740SOL    HW225683   2.414   0.388   2.928 -0.1635  0.1772 -0.7470
 4741SOL     OW25684   3.751   2.844   6.942  0.7787 -0.6921 -0.4944
 4741SOL    HW125685   3.847   2.850   6.937  0.8989 -1.8733  0.4089
 4741SOL    HW225686   3.733   2.938   6.945 -2.7832 -1.3233 -1.9988
 4742SOL     OW25687   1.294   0.529   6.722 -0.1474  0.1172 -0.3089
 4742SOL    HW125688   1.299   0.449   6.669  0.0376 -0.0501 -0.0397
 4742SOL    HW225689   1.199   0.537   6.728  0.3819  5.1740  0.8042
 4743SOL     OW25690   4.690   1.085   4.051  0.2945 -0.5203  0.1848
 4743SOL    HW125691   4.720   0.999   4.020  1.1370 -0.0233 -0.3519
 4743SOL    HW225692   4.692   1.136   3.971 -1.7419 -0.9321 -0.1268
 4744SOL     OW25693   4.661   4.511  15.437  0.2084  0.1638  0.7035
 4744SOL    HW125694   4.663   4.422  15.472 -1.5667 -0.6910 -1.3815
 4744SOL    HW225695   4.657   4.570  15.513 -2.1689 -2.6277  2.7570
 4745SOL     OW25696   2.828   2.269   5.907  0.2104 -0.1667  0.0395
 4745SOL    HW125697   2.914   2.273   5.866  0.8607 -0.2137  1.3777
 4745SOL    HW225698   2.803   2.361   5.894 -1.0037 -0.3204  1.1764
 4746SOL     OW25699   2.491   2.263   3.370  0.2677  0.0710 -0.3641
 4746SOL    HW125700   2.455   2.288   3.285  1.7269 -0.5349 -1.1526
 4746SOL    HW225701   2.480   2.168   3.369 -1.8536  0.2907  1.7662
 4747SOL     OW25702   2.865   4.722   6.899 -0.5797  0.1913 -0.4053
 4747SOL    HW125703   2.853   0.089   6.926 -0.6173  0.5942 -1.7608
 4747SOL    HW225704   2.781   4.688   6.931 -1.1683  1.5643 -0.4489
 4748SOL     OW25705   2.030   3.037   8.886  0.3726 -0.4034 -0.4356
 4748SOL    HW125706   2.125   3.029   8.894  0.2566  0.0396  1.5931
 4748SOL    HW225707   1.998   2.954   8.921 -1.8461  1.0773  1.0566
 4749SOL     OW25708   0.118   1.569   6.015  0.0443 -0.5387  0.2973
 4749SOL    HW125709   0.084   1.614   5.938  2.2534 -0.3572 -0.5968
 4749SOL    HW225710   0.039   1.530   6.051 -0.2810  1.2647  1.5757
 4750SOL     OW25711   1.978   2.819   5.658  0.0791 -0.7021 -0.1433
 4750SOL    HW125712   1.886   2.793   5.658  0.1892 -1.0751  1.2135
 4750SOL    HW225713   2.016   2.733   5.671  2.4655  0.0832 -1.8315
 4751SOL     OW25714   0.315   4.199   5.079  0.5880 -0.1134 -0.1632
 4751SOL    HW125715   0.231   4.238   5.053  0.3884 -0.5639 -0.1867
 4751SOL    HW225716   0.279   4.141   5.146 -0.2986  0.0850 -0.4647
 4752SOL     OW25717   4.540   4.513   1.171  0.1127  0.2406  0.3111
 4752SOL    HW125718   4.568   4.577   1.235  0.7332  0.4760 -0.1980
 4752SOL    HW225719   4.457   4.547   1.138  0.1238  1.3058  1.3955
 4753SOL     OW25720   1.502   1.103   6.201 -0.4929  0.0341 -0.2888
 4753SOL    HW125721   1.445   1.165   6.156  0.3092  0.5705 -0.5648
 4753SOL    HW225722   1.588   1.122   6.163 -0.7439  0.5940 -0.5794
 4754SOL     OW25723   0.532   0.125   5.215 -0.7513  0.2557 -0.3372
 4754SOL    HW125724   0.459   0.063   5.225 -0.9696  0.5374 -0.1912
 4754SOL    HW225725   0.572   0.104   5.130 -0.2480  0.1193 -0.0664
 4755SOL     OW25726   0.044   3.164  14.417 -0.1983 -0.0196 -0.7249
 4755SOL    HW125727   0.085   3.227  14.357 -0.1057  1.2673  0.6782
 4755SOL    HW225728   0.121   3.108  14.427 -1.9339 -2.2893 -0.2509
 4756SOL     OW25729   3.161   0.993  11.037 -0.3419 -0.3203 -0.0762
 4756SOL    HW125730   3.100   1.017  10.968 -1.6714 -1.2799  0.7620
 4756SOL    HW225731   3.179   0.901  11.021  0.7238  0.2295 -2.0364
 4757SOL     OW25732   0.143   4.196  10.538 -0.1978 -0.0780 -0.0254
 4757SOL    HW125733   0.209   4.130  10.520  0.4673  0.5472  0.1112
 4757SOL    HW225734   0.190   4.280  10.537  0.2827 -0.3298  1.1907
 4758SOL     OW25735   4.606   3.329  10.838 -0.3592 -0.3618  0.3123
 4758SOL    HW125736   4.663   3.394  10.878 -0.7795 -0.2447  0.7179
 4758SOL    HW225737   4.601   3.275  10.917 -0.6618 -0.3893  0.2739
 4759SOL     OW25738   0.007   0.036   8.513  0.6448  0.0681 -0.0450
 4759SOL    HW125739   0.062   4.710   8.573 -0.5045 -2.5268 -1.1721
 4759SOL    HW225740   0.035   0.125   8.534 -0.5032  0.2546  0.7029
 4760SOL     OW25741   0.728   0.725   4.191  0.4541  0.0446  0.3903
 4760SOL    HW125742   0.680   0.714   4.273  0.1396 -0.2353  0.1667
 4760SOL    HW225743   0.665   0.768   4.134  1.5125  0.2704 -0.5979
 4761SOL     OW25744   0.159   4.567  17.688 -0.2488  0.7896 -0.5655
 4761SOL    HW125745   0.096   4.517  17.636  0.2805  0.3362 -0.7732
 4761SOL    HW225746   0.175   4.629  17.617 -1.0266  1.2881 -0.3023
 4762SOL     OW25747   0.584   2.926   8.190 -0.3510  0.0698  0.0741
 4762SOL    HW125748   0.522   2.964   8.253 -0.1444  0.0976  0.2633
 4762SOL    HW225749   0.565   2.837   8.219 -0.2152  0.6641  2.0352
 4763SOL     OW25750   4.384   4.455   7.381  0.1003 -0.5291  0.3181
 4763SOL    HW125751   4.479   4.454   7.391  0.2029  1.8994 -0.5637
 4763SOL    HW225752   4.377   4.523   7.448  1.9180 -0.8313  0.8131
 4764SOL     OW25753   2.960   4.703   5.882 -0.2804 -0.0115  0.3026
 4764SOL    HW125754   2.900   0.029   5.826  0.1955  0.2913  0.0745
 4764SOL    HW225755   2.912   4.620   5.878 -1.1563  0.5454 -0.9862
 4765SOL     OW25756   3.314   2.273  10.259 -0.1769 -0.1793 -0.3517
 4765SOL    HW125757   3.373   2.305  10.191 -0.9373  2.6150  0.3307
 4765SOL    HW225758   3.269   2.354  10.281 -0.8298 -0.2212 -1.5443
 4766SOL     OW25759   1.460   3.074   6.909  0.1342  0.5954 -0.0313
 4766SOL    HW125760   1.374   3.080   6.951  1.1851 -1.0579  2.3433
 4766SOL    HW225761   1.473   2.979   6.906  1.5470  0.8124 -0.5756
 4767SOL     OW25762   4.230   4.095  15.037 -0.2718  0.3004  0.8502
 4767SOL    HW125763   4.203   4.183  15.063 -0.1737  0.5098  0.2383
 4767SOL    HW225764   4.200   4.040  15.110 -0.9962  0.9189  1.0287
 4768SOL     OW25765   2.308   2.587   6.457  0.3869  0.1989 -0.6610
 4768SOL    HW125766   2.388   2.593   6.404 -0.2617  1.1478 -1.5256
 4768SOL    HW225767   2.341   2.527   6.523  0.1800  1.2272  0.3619
 4769SOL     OW25768   0.581   2.772   2.913  0.5165  0.3378 -0.4670
 4769SOL    HW125769   0.627   2.828   2.976  1.2828  0.9947 -1.6086
 4769SOL    HW225770   0.549   2.842   2.855  1.6064  0.4897 -0.8855
 4770SOL     OW25771   1.821   3.806   8.728 -0.5050  0.3617  0.0375
 4770SOL    HW125772   1.793   3.897   8.718  2.1862  0.9638 -1.8589
 4770SOL    HW225773   1.771   3.742   8.676  1.3886 -1.8991  0.9641
 4771SOL     OW25774   1.138   3.875   1.907  0.1227  0.2785 -0.0050
 4771SOL    HW125775   1.170   3.845   1.992  1.3842  1.1491 -0.1774
 4771SOL    HW225776   1.194   3.818   1.854  1.3707  1.4340  0.0686
 4772SOL     OW25777   4.561   2.769   1.819 -0.6448 -0.0814  0.4316
 4772SOL    HW125778   4.538   2.856   1.786 -0.3396 -0.3289 -0.4295
 4772SOL    HW225779   4.520   2.768   1.905 -2.4208  0.8640 -0.4002
 4773SOL     OW25780   0.049   2.701   1.165  0.3005  0.8936 -0.5757
 4773SOL    HW125781   0.011   2.783   1.132 -1.5394  0.9588  1.6806
 4773SOL    HW225782   0.142   2.721   1.151  1.1577 -2.4110  0.5000
 4774SOL     OW25783   1.856   1.501   3.184 -0.2936 -0.1006  0.0704
 4774SOL    HW125784   1.822   1.577   3.136  1.8829  1.1293  0.4495
 4774SOL    HW225785   1.868   1.538   3.271 -0.3715  0.7277 -0.2650
 4775SOL     OW25786   1.391   0.171   5.112  0.2305  0.0234 -0.5957
 4775SOL    HW125787   1.335   0.109   5.066 -1.2693  0.8204  0.1533
 4775SOL    HW225788   1.403   0.130   5.198  0.1200 -0.5846 -0.8743
 4776SOL     OW25789   3.995   2.978  11.652  0.4000 -0.5082  1.1498
 4776SOL    HW125790   4.005   2.979  11.556 -1.7483  3.6948  0.9560
 4776SOL    HW225791   3.901   2.993  11.667  0.6065 -1.1861  3.1151
 4777SOL     OW25792   0.820   2.217  12.269 -0.0449  0.0503 -0.1674
 4777SOL    HW125793   0.867   2.242  12.348  0.7333 -2.0860  0.0372
 4777SOL    HW225794   0.766   2.144  12.299  0.6119 -0.0521  0.7566
 4778SOL     OW25795   0.591   1.435   5.387 -0.2378  1.1711  0.4846
 4778SOL    HW125796   0.596   1.344   5.415 -1.2329  1.5834  1.9695
 4778SOL    HW225797   0.680   1.453   5.357 -0.1696  1.6380  0.9736
 4779SOL     OW25798   2.648   1.164   0.291 -0.1827 -0.2790  0.5268
 4779SOL    HW125799   2.561   1.140   0.323  0.8115  0.3848  3.7085
 4779SOL    HW225800   2.657   1.255   0.319  1.2135 -1.3992  3.6924
 4780SOL     OW25801   0.545   1.733   7.079 -0.7756 -0.0564  0.6105
 4780SOL    HW125802   0.605   1.669   7.042 -1.2378 -1.2725  1.9688
 4780SOL    HW225803   0.488   1.664   7.113  0.6750 -1.4119  0.2825
 4781SOL     OW25804   1.130   1.405   4.169  0.0641  0.2637 -0.4857
 4781SOL    HW125805   1.070   1.415   4.244 -1.1157  3.4506 -1.8604
 4781SOL    HW225806   1.100   1.321   4.135 -0.9298  1.3722 -2.3423
 4782SOL     OW25807   1.152   0.727   2.130  0.0699 -0.1141  0.1447
 4782SOL    HW125808   1.125   0.801   2.075  0.7554  0.0240 -0.0182
 4782SOL    HW225809   1.104   0.741   2.212  0.8440  0.1550  0.5553
 4783SOL     OW25810   0.484   3.909  17.648  0.7129  0.4459  0.2127
 4783SOL    HW125811   0.529   3.825  17.636 -1.2850 -0.5820 -0.0477
 4783SOL    HW225812   0.553   3.972  17.668  1.1195 -0.1108  0.6023
 4784SOL     OW25813   1.992   2.927   3.543  0.2967  0.4533  0.4708
 4784SOL    HW125814   2.083   2.935   3.570  0.9855  0.2583 -1.8029
 4784SOL    HW225815   1.986   2.996   3.477 -1.7177  0.3787  0.5675
 4785SOL     OW25816   3.639   0.842   5.618  0.4287 -0.4688  0.0767
 4785SOL    HW125817   3.724   0.877   5.645  0.9143 -0.2834 -1.6578
 4785SOL    HW225818   3.632   0.832   5.523  0.4947 -1.4079  0.1721
 4786SOL     OW25819   0.857   3.189  16.349 -0.7662  0.1039 -0.9898
 4786SOL    HW125820   0.871   3.280  16.375  0.6533  0.3758 -2.7488
 4786SOL    HW225821   0.931   3.173  16.290 -0.3059  1.9084 -0.9138
 4787SOL     OW25822   0.360   3.681  11.098 -0.0962  0.4212 -0.1290
 4787SOL    HW125823   0.442   3.673  11.051  0.1664 -0.1481  0.4214
 4787SOL    HW225824   0.349   3.591  11.129 -3.5287  1.3284  1.3725
 4788SOL     OW25825   2.313   3.758   8.776  0.7979 -0.0759  0.3738
 4788SOL    HW125826   2.371   3.797   8.841  1.4438 -1.1266  0.4304
 4788SOL    HW225827   2.236   3.814   8.768  1.1849  0.7273  2.3213
 4789SOL     OW25828   1.567   3.306   3.257  0.4222  0.4416 -0.1562
 4789SOL    HW125829   1.614   3.389   3.251 -1.2245  1.4643  1.1007
 4789SOL    HW225830   1.503   3.308   3.186 -1.0301  2.2382  1.2004
 4790SOL     OW25831   1.650   4.325   6.922  0.3682  0.0449  0.0239
 4790SOL    HW125832   1.743   4.339   6.909  0.1665  1.3545 -0.0227
 4790SOL    HW225833   1.616   4.414   6.910 -0.0644  0.1885  2.2851
 4791SOL     OW25834   3.053   4.337  10.450  0.0936 -0.3827 -0.0165
 4791SOL    HW125835   3.134   4.351  10.498 -0.3416  2.9722 -0.2873
 4791SOL    HW225836   2.998   4.297  10.518 -0.4377  1.1368  0.4523
 4792SOL     OW25837   2.535   0.414   7.110 -0.0536 -0.3013 -0.0451
 4792SOL    HW125838   2.559   0.334   7.064 -0.0918  0.0824 -0.7353
 4792SOL    HW225839   2.440   0.410   7.119 -0.1420 -0.7769 -1.2068
 4793SOL     OW25840   4.174   2.172   3.089  0.3472  0.0727 -0.3200
 4793SOL    HW125841   4.191   2.205   3.177 -1.2089  1.3447 -0.4946
 4793SOL    HW225842   4.082   2.144   3.093  0.7360 -1.1253  0.0930
 4794SOL     OW25843   2.606   3.015   4.587 -0.3760  0.1576 -0.2378
 4794SOL    HW125844   2.522   2.969   4.597 -1.0233  1.1377 -1.1668
 4794SOL    HW225845   2.660   2.941   4.559 -1.4804 -1.6401  2.3309
 4795SOL     OW25846   4.182   2.222   5.176 -0.0612  0.9010  0.0064
 4795SOL    HW125847   4.233   2.157   5.224  0.6422  0.5303 -1.2205
 4795SOL    HW225848   4.097   2.179   5.181 -1.0651  2.7889 -0.8784
 4796SOL     OW25849   1.194   3.319  11.672 -0.6572  0.0028  0.1983
 4796SOL    HW125850   1.226   3.229  11.670  1.5872  0.8146  0.4178
 4796SOL    HW225851   1.270   3.352  11.719 -0.1751  0.4415 -0.9036
 4797SOL     OW25852   3.054   4.610   5.573  0.3268 -0.1183  0.6408
 4797SOL    HW125853   3.022   4.700   5.575  0.1913 -0.1281 -1.2619
 4797SOL    HW225854   3.147   4.615   5.593  0.3596 -0.8734  0.6630
 4798SOL     OW25855   0.987   1.329   6.119  0.4393 -0.1007  0.1292
 4798SOL    HW125856   0.990   1.298   6.029  1.9648 -1.4981  0.6673
 4798SOL    HW225857   0.964   1.250   6.169 -0.9440  0.3638  0.2321
 4799SOL     OW25858   4.455   2.843   8.967  0.1579 -0.0049 -0.2930
 4799SOL    HW125859   4.390   2.815   9.032 -1.2314  1.9636 -0.8042
 4799SOL    HW225860   4.534   2.809   9.009  0.0273  1.7228  1.3400
 4800SOL     OW25861   3.200   4.040   9.796  0.5049 -0.0568  0.0101
 4800SOL    HW125862   3.180   4.032   9.702  3.8579  0.0523 -0.7219
 4800SOL    HW225863   3.158   4.125   9.812 -0.4011 -0.7602  1.3681
 4801SOL     OW25864   4.188   4.600   4.726 -0.3198 -0.1155 -0.2656
 4801SOL    HW125865   4.182   4.586   4.631  1.1990 -1.8400 -0.1245
 4801SOL    HW225866   4.172   4.693   4.741  0.6911 -0.1239  0.8605
 4802SOL     OW25867   2.407   3.088   1.234 -0.0448  0.2171  0.1206
 4802SOL    HW125868   2.469   3.085   1.307  1.5093  1.9069 -1.1244
 4802SOL    HW225869   2.428   3.174   1.199 -1.7512  0.4493 -0.3400
 4803SOL     OW25870   0.058   4.605  12.480  0.1196  0.4319 -0.1435
 4803SOL    HW125871   0.095   4.560  12.405  0.3333 -2.4377  1.6932
 4803SOL    HW225872   4.720   4.537  12.505  0.2074  1.4455  2.9340
 4804SOL     OW25873   0.142   3.351   3.792  0.1589  0.0383  0.3520
 4804SOL    HW125874   0.053   3.331   3.821  0.0079 -1.5785 -1.2667
 4804SOL    HW225875   0.154   3.297   3.714  0.5484  1.6287 -0.6804
 4805SOL     OW25876   4.538   4.681   5.493 -0.3221  0.5927 -0.1277
 4805SOL    HW125877   4.445   4.669   5.515 -0.1428 -0.7187 -0.0836
 4805SOL    HW225878   4.533   4.653   5.402 -0.4918  0.9708 -0.2364
 4806SOL     OW25879   2.304   0.949   5.330 -0.0988 -0.5003 -0.3615
 4806SOL    HW125880   2.383   0.903   5.301 -0.4483 -1.5890  0.3945
 4806SOL    HW225881   2.244   0.874   5.330 -1.2254  0.4302 -1.7549
 4807SOL     OW25882   2.351   1.367  11.706  0.4016 -0.1621 -0.1889
 4807SOL    HW125883   2.415   1.300  11.683  0.7087 -0.8680  2.8267
 4807SOL    HW225884   2.271   1.314  11.702 -0.3050  0.5452  4.5797
 4808SOL     OW25885   4.240   0.269   1.192  0.0343 -0.3880  0.5788
 4808SOL    HW125886   4.158   0.256   1.240 -0.2669  1.1143  0.4652
 4808SOL    HW225887   4.243   0.364   1.199  1.5478 -0.2763 -1.6455
 4809SOL     OW25888   3.757   3.765   2.216 -0.5004  0.1850  0.2825
 4809SOL    HW125889   3.668   3.794   2.197 -1.1790 -2.8198 -1.2018
 4809SOL    HW225890   3.757   3.745   2.309  0.4756 -0.1669  0.2094
 4810SOL     OW25891   3.528   1.356  10.168  0.3869  0.2543  0.0961
 4810SOL    HW125892   3.541   1.277  10.115 -1.4878  0.6018 -0.8676
 4810SOL    HW225893   3.569   1.332  10.251  1.2527 -1.8899 -0.9444
 4811SOL     OW25894   2.795   0.380   6.266 -0.5148  0.3117  0.2050
 4811SOL    HW125895   2.788   0.287   6.244  0.0801  0.5684 -1.0950
 4811SOL    HW225896   2.817   0.418   6.181  0.8275  0.0259  0.4289
 4812SOL     OW25897   3.091   1.595   2.559  0.0539  0.4793  0.0698
 4812SOL    HW125898   3.093   1.578   2.465  1.4847  0.1410  0.1706
 4812SOL    HW225899   3.054   1.684   2.559 -0.1084  0.4142  1.6367
 4813SOL     OW25900   4.109   2.341   6.050 -0.0205 -0.1304  0.4703
 4813SOL    HW125901   4.038   2.322   6.112  0.0693 -0.8499  0.3558
 4813SOL    HW225902   4.175   2.288   6.095 -1.4976  0.0907  2.9287
 4814SOL     OW25903   2.970   1.771  10.223 -0.6283 -0.1395  0.0420
 4814SOL    HW125904   2.895   1.743  10.276 -1.3103  0.8404 -0.4086
 4814SOL    HW225905   2.917   1.768  10.144  0.8511 -4.0847 -0.7735
 4815SOL     OW25906   1.719   1.846   8.648  0.4701  0.2215  0.3124
 4815SOL    HW125907   1.649   1.856   8.583 -1.1068 -1.1995  1.8128
 4815SOL    HW225908   1.776   1.919   8.623  1.0078  0.0855  1.1461
 4816SOL     OW25909   4.372   4.047   6.992 -0.1309 -0.2869 -0.0106
 4816SOL    HW125910   4.318   4.066   7.069 -0.4003  1.6073 -0.6932
 4816SOL    HW225911   4.394   3.954   6.998  2.1630  0.2687  0.2304
 4817SOL     OW25912   0.369   4.425  16.860  0.3214 -0.2597 -0.1340
 4817SOL    HW125913   0.284   4.399  16.895  0.4359 -0.3255  0.0985
 4817SOL    HW225914   0.361   4.519  16.846  0.2317 -0.2004  0.3154
 4818SOL     OW25915   4.254   2.006  10.961 -0.6137 -0.2841 -0.5368
 4818SOL    HW125916   4.248   1.984  11.054  1.5758 -1.4242 -0.6545
 4818SOL    HW225917   4.349   2.016  10.958 -0.6802  2.1099  3.9461
 4819SOL     OW25918   0.062   4.665   4.000  0.0561 -0.1211 -0.0526
 4819SOL    HW125919   4.724   0.002   3.960 -0.6057 -1.2082 -0.6978
 4819SOL    HW225920   0.085   4.617   3.921 -0.7729 -0.4791 -0.0790
 4820SOL     OW25921   1.832   0.311   6.987  0.1227  0.2314  0.5980
 4820SOL    HW125922   1.883   0.312   7.068 -0.4911  2.4179  0.9497
 4820SOL    HW225923   1.809   0.219   6.979 -2.2602  0.9297 -0.4883
 4821SOL     OW25924   2.501   2.598   6.267 -0.2406  0.0881  0.2323
 4821SOL    HW125925   2.571   2.661   6.284  0.5934 -1.4101  2.2429
 4821SOL    HW225926   2.513   2.586   6.173 -1.5212 -0.9163  0.1932
 4822SOL     OW25927   4.523   4.622   6.507 -0.2130 -0.1689 -0.0537
 4822SOL    HW125928   4.431   4.595   6.509 -0.7851  1.7938 -0.6271
 4822SOL    HW225929   4.509   4.715   6.494 -2.7349 -0.5495  0.0439
 4823SOL     OW25930   2.478   0.254   0.676 -0.6774 -0.0046 -0.1414
 4823SOL    HW125931   2.540   0.327   0.672 -0.5666 -0.0545  0.5888
 4823SOL    HW225932   2.413   0.276   0.610  0.2306 -1.6016 -1.5584
 4824SOL     OW25933   2.278   3.022   4.824  0.8087 -0.4453 -0.1827
 4824SOL    HW125934   2.344   3.089   4.843 -0.9004  1.2606 -0.2361
 4824SOL    HW225935   2.327   2.940   4.820 -1.2142 -1.7675  2.2205
 4825SOL     OW25936   3.174   0.821  13.075  0.2755 -0.4496  0.1698
 4825SOL    HW125937   3.259   0.810  13.033  0.5964  0.2667  0.6412
 4825SOL    HW225938   3.191   0.899  13.128  0.3761 -0.2045 -0.2281
 4826SOL     OW25939   0.009   1.050  15.593 -0.2774  0.3129  0.2150
 4826SOL    HW125940   0.098   1.087  15.586  0.1880 -0.6518  1.0364
 4826SOL    HW225941   0.016   1.005  15.677  2.3628 -2.5481 -1.5331
 4827SOL     OW25942   1.967   3.519   7.095  0.0774  0.1244  0.0922
 4827SOL    HW125943   1.903   3.495   7.028  2.2795  1.0612 -2.3351
 4827SOL    HW225944   1.927   3.483   7.175  0.0392  0.5265  0.2539
 4828SOL     OW25945   4.681   3.919   7.809 -0.4746 -0.1890  0.6193
 4828SOL    HW125946   4.593   3.894   7.781 -1.4512  1.4501  2.2235
 4828SOL    HW225947   4.666   4.001   7.856 -1.5983 -0.2851  0.4199
 4829SOL     OW25948   0.671   2.378   5.887 -0.2438 -0.0220  0.1851
 4829SOL    HW125949   0.661   2.429   5.807 -0.1353 -1.4206 -0.7160
 4829SOL    HW225950   0.586   2.338   5.906  0.3842 -1.5235 -0.1725
 4830SOL     OW25951   2.652   0.998   2.633 -0.5796  0.4009  0.1653
 4830SOL    HW125952   2.662   1.084   2.674  3.4801  0.6625 -1.3174
 4830SOL    HW225953   2.560   0.989   2.610  0.4314 -4.0520 -1.9951
 4831SOL     OW25954   3.817   1.911   7.982  0.7532 -0.2115  0.4657
 4831SOL    HW125955   3.827   2.001   8.014 -0.4612 -0.6266  1.9983
 4831SOL    HW225956   3.909   1.892   7.964  0.6478  0.9348 -1.3444
 4832SOL     OW25957   2.690   1.523   2.301 -0.0632 -0.1497  0.1895
 4832SOL    HW125958   2.688   1.494   2.210 -1.8411  1.6277 -0.3428
 4832SOL    HW225959   2.785   1.523   2.315 -0.0867  0.3007  0.3528
 4833SOL     OW25960   3.997   1.626   8.572 -0.5536 -0.5316  0.3938
 4833SOL    HW125961   4.054   1.568   8.521 -1.2538  0.2819 -1.3239
 4833SOL    HW225962   4.016   1.590   8.658  3.0868  1.0763  0.2337
 4834SOL     OW25963   4.406   3.912   2.076  0.3390  0.1086  0.1706
 4834SOL    HW125964   4.318   3.931   2.043 -0.0552 -0.2036  1.0457
 4834SOL    HW225965   4.387   3.848   2.144 -0.6349 -1.5234 -1.6456
 4835SOL     OW25966   3.656   2.916  12.539 -0.1964  0.3984 -0.0583
 4835SOL    HW125967   3.563   2.918  12.563 -0.5685  3.3608 -1.6761
 4835SOL    HW225968   3.663   2.832  12.493 -1.7346  0.4337 -0.3686
 4836SOL     OW25969   3.484   4.110   2.568 -0.1891 -0.2742 -0.2069
 4836SOL    HW125970   3.465   4.204   2.568 -2.0773 -0.6584  1.2700
 4836SOL    HW225971   3.565   4.121   2.518 -0.6435  0.4390 -0.7859
 4837SOL     OW25972   4.376   2.872   2.499 -0.5292 -0.2707  0.3217
 4837SOL    HW125973   4.347   2.833   2.582  2.9746 -0.6934  1.3610
 4837SOL    HW225974   4.361   2.796   2.443  0.7841 -0.6435  0.4703
 4838SOL     OW25975   0.249   0.696   1.908  0.0216 -0.2144 -0.1536
 4838SOL    HW125976   0.277   0.626   1.967  0.5248 -1.4846 -1.9226
 4838SOL    HW225977   0.177   0.655   1.860  0.2005  1.3047 -1.6976
 4839SOL     OW25978   3.153   3.889   8.208 -0.6057 -0.3627 -0.0341
 4839SOL    HW125979   3.118   3.972   8.240  1.0758  0.2302  0.2475
 4839SOL    HW225980   3.158   3.838   8.289 -1.8909  1.0414  0.9411
 4840SOL     OW25981   1.682   1.501   7.384 -0.6624 -0.0575 -0.1731
 4840SOL    HW125982   1.742   1.528   7.314 -1.9745 -0.8248 -1.6004
 4840SOL    HW225983   1.625   1.578   7.389 -0.2188  0.4233 -2.5963
 4841SOL     OW25984   4.140   2.695  10.823  0.5415 -0.3229 -0.3351
 4841SOL    HW125985   4.224   2.727  10.855  0.4083 -0.6457  0.3402
 4841SOL    HW225986   4.170   2.643  10.748 -2.0210 -2.5678  0.1904
 4842SOL     OW25987   2.811   3.278   4.117  0.6688 -0.1107  0.1421
 4842SOL    HW125988   2.751   3.216   4.076 -0.2305  1.8582 -1.5641
 4842SOL    HW225989   2.787   3.365   4.084  2.5754  0.3738 -0.0025
 4843SOL     OW25990   2.512   3.852   3.521  0.0786  0.2386  0.3586
 4843SOL    HW125991   2.429   3.860   3.473  0.4013 -0.7727 -0.3859
 4843SOL    HW225992   2.561   3.906   3.458 -0.2929 -0.9259 -0.9326
 4844SOL     OW25993   0.152   2.919   7.773  0.2422  0.0303  0.1602
 4844SOL    HW125994   0.162   2.982   7.845  0.7398  1.1384 -0.8894
 4844SOL    HW225995   0.154   2.973   7.694  0.1328  0.6161  0.5582
 4845SOL     OW25996   2.204   0.706   1.203 -0.1293 -0.0761  0.0309
 4845SOL    HW125997   2.291   0.736   1.229  0.0589 -0.1709 -0.4978
 4845SOL    HW225998   2.228   0.657   1.124 -3.2814 -3.2264  1.0124
 4846SOL     OW25999   3.470   0.744   4.389  0.6951  0.4151 -0.0890
 4846SOL    HW126000   3.388   0.698   4.408  0.4791  0.6430 -0.4643
 4846SOL    HW226001   3.530   0.681   4.349  0.5424  0.6718 -0.7253
 4847SOL     OW26002   0.555   0.437   6.328  0.2772 -0.4350  0.3392
 4847SOL    HW126003   0.460   0.431   6.316  0.3220  1.1546 -0.7806
 4847SOL    HW226004   0.585   0.436   6.238  2.0299 -0.1767  0.9280
 4848SOL     OW26005   2.222   1.757   4.595 -0.4349 -0.0082 -0.0725
 4848SOL    HW126006   2.144   1.749   4.541  0.0839  0.5797 -0.9085
 4848SOL    HW226007   2.183   1.787   4.677 -1.5314  0.8567 -0.9295
 4849SOL     OW26008   0.493   2.318   5.083 -0.3319  0.5754 -0.7522
 4849SOL    HW126009   0.464   2.345   4.996 -0.1439  0.0152 -0.9939
 4849SOL    HW226010   0.484   2.396   5.137  2.5298  2.4214 -2.9671
 4850SOL     OW26011   1.643   2.916   1.854  0.7509  0.5174 -0.0892
 4850SOL    HW126012   1.611   2.906   1.764  0.9766 -1.4124  0.0478
 4850SOL    HW226013   1.732   2.950   1.846  0.3956  1.3782 -0.4354
 4851SOL     OW26014   2.988   4.643  11.427 -0.1915  0.6316  0.1163
 4851SOL    HW126015   3.028   4.592  11.497  2.5725  0.3365 -1.6923
 4851SOL    HW226016   3.044   4.632  11.350 -0.2808  0.7499  0.0354
 4852SOL     OW26017   1.868   0.990   7.142 -0.3907 -0.4238  0.7882
 4852SOL    HW126018   1.903   0.903   7.121  1.9019  0.2278  1.8256
 4852SOL    HW226019   1.773   0.987   7.137 -0.3789  0.8984 -0.0843
 4853SOL     OW26020   3.381   4.358   2.534  0.4810 -0.5378  0.4022
 4853SOL    HW126021   3.322   4.432   2.549  1.8206  0.4986  0.5163
 4853SOL    HW226022   3.450   4.410   2.493  0.5559 -0.2057  0.9452
 4854SOL     OW26023   2.333   2.590   4.330 -0.6316  0.2897  0.2220
 4854SOL    HW126024   2.322   2.673   4.378 -2.3154  0.3992 -0.3653
 4854SOL    HW226025   2.289   2.616   4.249  2.2479 -1.4609 -1.8986
 4855SOL     OW26026   4.223   0.008   9.652  0.3784  0.0113  0.3843
 4855SOL    HW126027   4.311   0.009   9.613 -0.2681  0.5979 -1.0692
 4855SOL    HW226028   4.197   0.094   9.619 -0.3343 -0.0610  0.7591
 4856SOL     OW26029   2.763   0.111   6.163  0.0961 -0.2518  0.4046
 4856SOL    HW126030   2.839   0.054   6.148 -0.0114 -0.1750 -0.4711
 4856SOL    HW226031   2.701   0.041   6.185 -2.3776  1.8624  0.1770
 4857SOL     OW26032   1.370   2.442  14.437 -0.2620 -0.4914 -0.1175
 4857SOL    HW126033   1.386   2.352  14.410  1.3318 -0.2260 -0.0678
 4857SOL    HW226034   1.431   2.453  14.510 -1.2808  3.3216  0.1675
 4858SOL     OW26035   4.084   3.730  17.255 -0.2761  0.3989 -0.0013
 4858SOL    HW126036   4.015   3.680  17.299 -0.8610 -1.3676 -2.8924
 4858SOL    HW226037   4.054   3.818  17.278  0.2741  0.2657  1.2030
 4859SOL     OW26038   4.722   1.106  11.205  0.0022 -0.7196 -0.2784
 4859SOL    HW126039   0.038   1.144  11.283 -1.6848  1.6049 -0.5255
 4859SOL    HW226040   0.008   1.013  11.221  0.3370 -0.7908 -0.8948
 4860SOL     OW26041   4.055   1.511  16.996 -0.2921  0.2155 -0.2802
 4860SOL    HW126042   3.968   1.536  17.027 -0.3588 -1.0258  0.5396
 4860SOL    HW226043   4.043   1.432  16.944 -0.4762 -2.2954  3.5824
 4861SOL     OW26044   2.527   2.316   7.536  0.4285 -0.5825 -0.0585
 4861SOL    HW126045   2.594   2.275   7.482  0.1794 -0.3029 -0.5848
 4861SOL    HW226046   2.467   2.244   7.554 -2.0856  1.8458  1.3051
 4862SOL     OW26047   0.154   0.341   1.932  0.4459 -0.2843  0.7742
 4862SOL    HW126048   0.063   0.309   1.929  0.1246  0.7176 -0.1020
 4862SOL    HW226049   0.136   0.433   1.949  2.4513  0.2958 -0.2541
 4863SOL     OW26050   3.133   1.882   3.846 -0.4102  0.1699  0.6171
 4863SOL    HW126051   3.166   1.807   3.894 -2.2512 -0.6782  0.5267
 4863SOL    HW226052   3.209   1.902   3.790 -0.4741 -0.8247  0.1860
 4864SOL     OW26053   2.473   0.063   4.129 -0.1301  0.2841  0.2098
 4864SOL    HW126054   2.392   0.109   4.149  0.7899  1.3373  1.5373
 4864SOL    HW226055   2.439   4.717   4.074 -0.1962 -0.4310  1.1667
 4865SOL     OW26056   4.416   0.132  16.578 -0.2018  0.0898 -0.3564
 4865SOL    HW126057   4.347   0.073  16.608  0.6880  0.2357  1.9871
 4865SOL    HW226058   4.441   0.099  16.492  0.4044  1.8253 -0.8499
 4866SOL     OW26059   1.644   3.460  11.666 -0.0968  0.4453 -0.1476
 4866SOL    HW126060   1.688   3.380  11.638  0.5742  0.3830  1.0637
 4866SOL    HW226061   1.682   3.485  11.751  2.7140  0.8823 -1.5310
 4867SOL     OW26062   2.082   4.067   2.142 -0.3921 -0.4833 -0.1441
 4867SOL    HW126063   2.084   4.141   2.082  0.6783 -0.5140 -0.1430
 4867SOL    HW226064   2.158   4.014   2.117  1.2201  1.5075  0.5622
 4868SOL     OW26065   2.598   4.039   0.217 -0.3414  0.5925  0.2272
 4868SOL    HW126066   2.636   4.089   0.289 -0.6631  0.0784  0.7595
 4868SOL    HW226067   2.681   4.002   0.186 -0.5896  0.6114 -0.4489
 4869SOL     OW26068   0.604   1.909   7.630 -0.4654 -0.6730  0.5060
 4869SOL    HW126069   0.587   1.849   7.703 -5.0038 -0.5453 -0.4550
 4869SOL    HW226070   0.694   1.938   7.644 -0.0579 -1.7376  0.1385
 4870SOL     OW26071   1.076   1.329  16.534 -0.1841 -0.3214 -0.2070
 4870SOL    HW126072   1.075   1.270  16.459 -0.6671  0.6153 -0.9432
 4870SOL    HW226073   1.108   1.277  16.607 -1.7961  0.4280  1.0480
 4871SOL     OW26074   2.861   2.516   0.196  0.5074  0.4883 -0.0128
 4871SOL    HW126075   2.891   2.437   0.240 -0.4436  0.7566  1.1230
 4871SOL    HW226076   2.766   2.514   0.201  0.4061 -0.2384 -2.1312
 4872SOL     OW26077   2.188   0.598  15.493  0.5794 -0.2182  0.1626
 4872SOL    HW126078   2.110   0.654  15.492 -0.4320 -1.6765 -2.1031
 4872SOL    HW226079   2.253   0.658  15.528 -1.6983  1.6072  1.2982
 4873SOL     OW26080   3.006   4.070   6.118  0.1897 -0.4420  0.2734
 4873SOL    HW126081   3.076   4.126   6.086 -0.5390 -1.1128 -2.5140
 4873SOL    HW226082   2.949   4.047   6.044  1.6764  1.5361 -1.4821
 4874SOL     OW26083   0.151   0.513  16.419  0.9854  0.0875 -0.1539
 4874SOL    HW126084   0.171   0.448  16.487 -0.7667  0.8922  1.1315
 4874SOL    HW226085   0.220   0.492  16.356  0.7198 -2.3731  0.3412
 4875SOL     OW26086   4.319   3.103   4.204 -0.0402 -0.4490 -0.1169
 4875SOL    HW126087   4.400   3.146   4.232 -0.5108 -0.6928  1.6132
 4875SOL    HW226088   4.270   3.098   4.286  0.7287  0.0700  0.3750
 4876SOL     OW26089   1.394   4.255   0.706 -0.0367 -0.0830 -0.5634
 4876SOL    HW126090   1.308   4.220   0.730 -0.4352  0.5797 -1.0218
 4876SOL    HW226091   1.408   4.212   0.622  0.6650  0.1553 -0.5654
 4877SOL     OW26092   0.004   0.717   6.869 -0.5489 -0.1291  0.1635
 4877SOL    HW126093   4.692   0.761   6.946 -0.2308  0.6435 -0.1342
 4877SOL    HW226094   4.680   0.753   6.795 -0.6810  0.9376  0.7600
 4878SOL     OW26095   3.777   2.084   4.717  0.0262  0.9674 -0.0948
 4878SOL    HW126096   3.814   2.078   4.805 -0.4357 -2.3787 -0.1300
 4878SOL    HW226097   3.796   2.173   4.687  4.1622  0.1822  0.1960
 4879SOL     OW26098   0.276   3.767   1.816  0.3454  0.6049 -0.2365
 4879SOL    HW126099   0.359   3.811   1.795  0.4050  1.4261  1.6897
 4879SOL    HW226100   0.228   3.772   1.733  1.0411  2.3921 -0.5325
 4880SOL     OW26101   1.291   2.956   4.158  0.2152 -0.1175  0.0528
 4880SOL    HW126102   1.198   2.975   4.147  0.6465  1.3837 -1.0887
 4880SOL    HW226103   1.291   2.886   4.222  1.8390 -0.1171  0.0595
 4881SOL     OW26104   2.509   4.414   4.749 -0.1419 -0.7809  0.1158
 4881SOL    HW126105   2.431   4.456   4.786 -0.3203 -1.1251  0.1310
 4881SOL    HW226106   2.481   4.323   4.754  0.5134 -0.8988  1.6751
 4882SOL     OW26107   4.412   3.318  17.483 -0.4743  0.7241 -0.0036
 4882SOL    HW126108   4.351   3.250  17.508  1.1659 -0.4974  0.6471
 4882SOL    HW226109   4.366   3.398  17.511  0.0308  0.6655  0.9895
 4883SOL     OW26110   2.386   3.248  10.276 -0.6022 -0.4613 -0.6180
 4883SOL    HW126111   2.448   3.305  10.322  0.9832 -1.4513 -1.5424
 4883SOL    HW226112   2.445   3.210  10.211  2.4968  1.5034  1.0972
 4884SOL     OW26113   3.174   0.966   1.344 -0.4420 -0.2209 -0.5412
 4884SOL    HW126114   3.127   0.883   1.337 -1.3749  0.2896 -0.3791
 4884SOL    HW226115   3.144   0.995   1.430 -1.6082 -4.2801  0.4242
 4885SOL     OW26116   4.618   2.090   7.284  0.1205 -0.5879  0.1748
 4885SOL    HW126117   4.629   2.124   7.373 -0.7263  0.0866  0.0247
 4885SOL    HW226118   4.596   2.172   7.241  0.3331 -0.3081  0.5974
 4886SOL     OW26119   2.956   3.586   2.986  0.3977  0.2355 -0.0138
 4886SOL    HW126120   2.993   3.525   2.922  0.5012  0.4730 -0.1834
 4886SOL    HW226121   2.875   3.538   3.001  0.0635  0.2197 -1.8585
 4887SOL     OW26122   4.208   0.319   7.949 -0.1756 -0.2424 -0.2410
 4887SOL    HW126123   4.262   0.398   7.941  0.0455 -0.2470  1.2178
 4887SOL    HW226124   4.178   0.322   8.040  0.2479  4.4814 -0.2602
 4888SOL     OW26125   1.221   0.918   2.371  0.2330 -0.5623 -0.4785
 4888SOL    HW126126   1.172   0.975   2.312  0.2477  0.9226  0.9286
 4888SOL    HW226127   1.309   0.937   2.339  0.4242  0.5196  0.6708
 4889SOL     OW26128   4.260   4.485   7.775  0.8028 -0.9732  0.2143
 4889SOL    HW126129   4.303   4.504   7.858 -0.4311  0.7511  0.4502
 4889SOL    HW226130   4.300   4.400   7.754  1.2435 -0.8242  0.4611
 4890SOL     OW26131   1.627   4.469   5.650  0.0357 -0.1792 -0.2872
 4890SOL    HW126132   1.531   4.466   5.646 -0.0531  3.6289 -1.3798
 4890SOL    HW226133   1.644   4.561   5.631 -2.9097  0.2481 -0.8713
 4891SOL     OW26134   1.525   2.283   0.246 -0.6357 -0.2935 -0.4628
 4891SOL    HW126135   1.474   2.204   0.227 -0.9084 -0.3832  0.6390
 4891SOL    HW226136   1.593   2.236   0.294 -1.4598 -0.3834  0.6237
 4892SOL     OW26137   0.335   2.953   5.668  0.2992 -0.5928  0.3505
 4892SOL    HW126138   0.259   2.984   5.617 -0.4936 -2.6217  0.2852
 4892SOL    HW226139   0.299   2.957   5.756 -0.8453  0.6604 -0.1685
 4893SOL     OW26140   3.686   1.544   2.744 -0.1406  0.9621 -0.3585
 4893SOL    HW126141   3.695   1.472   2.681 -0.7366 -0.7239  1.4520
 4893SOL    HW226142   3.779   1.564   2.741 -0.1000  0.7590 -0.4522
 4894SOL     OW26143   0.972   0.106  12.334 -0.3693 -0.1828 -0.0677
 4894SOL    HW126144   1.024   0.057  12.399  0.4381  1.5869  0.6126
 4894SOL    HW226145   1.042   0.141  12.279 -0.5812 -0.4125 -0.4775
 4895SOL     OW26146   4.309   4.077  17.139  0.2345 -0.8226 -0.2225
 4895SOL    HW126147   4.324   3.983  17.153 -0.3996 -1.2050 -2.0855
 4895SOL    HW226148   4.371   4.121  17.197 -0.6854  3.5390 -2.5586
 4896SOL     OW26149   3.124   3.266   5.048 -0.2572 -0.3237  0.2770
 4896SOL    HW126150   3.154   3.357   5.052 -1.7077  0.1898 -0.5120
 4896SOL    HW226151   3.057   3.268   4.979  0.6786  0.0880 -0.6171
 4897SOL     OW26152   0.382   4.051   2.695  0.6072  0.0163  0.1462
 4897SOL    HW126153   0.361   4.024   2.784  0.1269 -0.6650 -0.1701
 4897SOL    HW226154   0.406   3.966   2.657 -3.3705 -1.7114  1.5202
 4898SOL     OW26155   2.215   2.828   6.043 -0.2119  0.3168  0.5356
 4898SOL    HW126156   2.227   2.921   6.026  1.1545 -0.0931 -0.7798
 4898SOL    HW226157   2.121   2.831   6.058 -0.3233 -0.1439 -0.0622
 4899SOL     OW26158   0.036   2.604  15.004 -0.1364 -0.3868  0.2274
 4899SOL    HW126159   0.000   2.517  15.019  0.6153 -0.9522 -1.2388
 4899SOL    HW226160   0.130   2.586  15.006 -0.1928 -0.6221  0.8959
 4900SOL     OW26161   4.662   4.513   7.267  0.3687  0.0490  0.8380
 4900SOL    HW126162   0.029   4.486   7.257 -0.4103 -1.4552 -2.2069
 4900SOL    HW226163   4.619   4.467   7.194 -1.4232  1.1027  1.2319
 4901SOL     OW26164   2.983   2.116   1.958 -0.0878 -0.8152 -0.3128
 4901SOL    HW126165   2.993   2.088   1.867 -0.5483 -0.1235 -0.5765
 4901SOL    HW226166   3.077   2.117   1.973 -0.0960  0.0631 -0.3140
 4902SOL     OW26167   3.248   1.019   5.153  0.2652  0.3095  0.3103
 4902SOL    HW126168   3.310   1.004   5.082  0.4608  0.5532  0.4287
 4902SOL    HW226169   3.292   0.987   5.232  2.2458  1.0255 -0.5154
 4903SOL     OW26170   3.441   3.404   0.907  0.2468  0.1285 -0.3241
 4903SOL    HW126171   3.482   3.450   0.833 -1.5902 -1.3380 -2.2496
 4903SOL    HW226172   3.505   3.430   0.973  1.2292  0.5870 -1.4462
 4904SOL     OW26173   1.415   3.624   0.801  0.3072  0.4712 -0.3466
 4904SOL    HW126174   1.428   3.718   0.800  0.9532  0.3798 -0.6532
 4904SOL    HW226175   1.379   3.613   0.713  0.6024  1.9278 -0.6463
 4905SOL     OW26176   0.417   3.616   7.290  0.1349 -0.1708  0.0299
 4905SOL    HW126177   0.362   3.582   7.361  0.4454  1.6970  1.1526
 4905SOL    HW226178   0.487   3.671   7.326  1.5820 -2.5001  0.7295
 4906SOL     OW26179   1.672   3.791   6.095  0.3828 -0.7409  0.1291
 4906SOL    HW126180   1.606   3.753   6.153 -0.3310  2.3493  1.3277
 4906SOL    HW226181   1.744   3.813   6.153 -1.4212  2.6236  1.0824
 4907SOL     OW26182   1.293   2.869   3.112 -0.1329  0.0080  0.0215
 4907SOL    HW126183   1.376   2.849   3.155 -0.4752  0.2611  0.7951
 4907SOL    HW226184   1.245   2.841   3.190  1.7460  0.5639  1.3903
 4908SOL     OW26185   4.002   2.256   9.850 -0.0891 -0.2225  0.9872
 4908SOL    HW126186   4.026   2.286   9.937 -0.7267  1.3930  0.5990
 4908SOL    HW226187   3.942   2.323   9.819  0.4245  0.4130  1.3816
 4909SOL     OW26188   0.597   3.479  17.427  0.0847  0.0358 -0.6435
 4909SOL    HW126189   0.579   3.537  17.501  2.3122 -0.4276  0.2662
 4909SOL    HW226190   0.693   3.482  17.428  0.0377  0.6835  0.7397
 4910SOL     OW26191   2.951   0.031   8.199  0.1976  0.8192 -0.8955
 4910SOL    HW126192   2.869   4.713   8.224  0.8076  0.2475  0.1540
 4910SOL    HW226193   2.953   0.020   8.104 -3.7741 -0.3583 -0.8539
 4911SOL     OW26194   1.078   2.902   7.161  0.4529  0.2804  0.0363
 4911SOL    HW126195   1.070   2.887   7.067  0.7816  0.9521 -0.0987
 4911SOL    HW226196   1.007   2.847   7.196 -2.2925  3.5453 -0.4078
 4912SOL     OW26197   3.097   1.275   2.970  0.2358  0.6847  0.3090
 4912SOL    HW126198   3.002   1.289   2.974  0.0760 -0.2616 -0.0825
 4912SOL    HW226199   3.128   1.362   2.945  1.3929  0.2092  0.1209
 4913SOL     OW26200   2.557   0.115   0.951 -0.4691 -0.0536  0.2756
 4913SOL    HW126201   2.546   0.182   0.883  0.7914 -0.3156 -0.1735
 4913SOL    HW226202   2.575   0.173   1.025 -1.1407 -2.1776  2.1161
 4914SOL     OW26203   1.189   2.396   5.586 -0.1863 -0.2436  0.8052
 4914SOL    HW126204   1.282   2.394   5.608  0.5522  1.9875 -2.2461
 4914SOL    HW226205   1.196   2.343   5.507  0.1510 -0.7555  1.1692
 4915SOL     OW26206   0.121   3.115   8.019 -0.3162 -0.3365  0.0049
 4915SOL    HW126207   0.061   3.053   8.060  0.3427 -0.4221  0.8466
 4915SOL    HW226208   0.071   3.150   7.946 -2.1851 -1.3609  0.7959
 4916SOL     OW26209   0.867   2.290   8.014 -0.6311  0.3272  0.8412
 4916SOL    HW126210   0.911   2.345   7.950 -0.2199 -0.7965  0.1523
 4916SOL    HW226211   0.849   2.348   8.088 -0.0656  0.4957  0.8427
 4917SOL     OW26212   1.295   3.567   3.613  0.3278 -0.6406 -0.2509
 4917SOL    HW126213   1.257   3.653   3.599  0.1056 -0.3570  2.1139
 4917SOL    HW226214   1.257   3.561   3.700  2.0456  0.0978  0.5384
 4918SOL     OW26215   4.133   1.392  15.512 -0.0803  0.0926 -0.6469
 4918SOL    HW126216   4.186   1.390  15.592 -0.0976  1.1830 -0.6166
 4918SOL    HW226217   4.118   1.298  15.503  2.6060 -0.2619 -1.4627
 4919SOL     OW26218   3.294   4.383   1.232  0.8663  0.3558  0.6243
 4919SOL    HW126219   3.248   4.459   1.196  2.3838  0.0163 -2.0104
 4919SOL    HW226220   3.303   4.412   1.323  0.8698  1.1223  0.3727
 4920SOL     OW26221   0.278   1.657   3.872 -0.4426 -0.2229 -0.1124
 4920SOL    HW126222   0.269   1.591   3.802  1.7130 -0.2068 -0.4357
 4920SOL    HW226223   0.252   1.611   3.951  0.5845  0.2947  0.5296
 4921SOL     OW26224   4.427   0.145   1.842 -0.5983 -0.0104  0.6738
 4921SOL    HW126225   4.344   0.174   1.881 -0.4200  3.1579 -1.3277
 4921SOL    HW226226   4.418   0.050   1.839 -3.0804  0.2659 -0.9973
 4922SOL     OW26227   3.966   1.371   6.983 -0.2094 -0.6484 -0.2451
 4922SOL    HW126228   3.981   1.435   7.052  1.9306  0.6674 -1.9806
 4922SOL    HW226229   4.041   1.394   6.929  1.2222  0.0461  2.0338
 4923SOL     OW26230   0.981   2.867   6.915  0.1195  0.1453 -0.1379
 4923SOL    HW126231   1.017   2.911   6.838 -0.3310 -0.4703 -0.6990
 4923SOL    HW226232   0.917   2.810   6.872  0.0670  0.5615 -0.6118
 4924SOL     OW26233   3.283   1.383  12.273 -0.1842 -0.7665 -0.2222
 4924SOL    HW126234   3.327   1.435  12.206 -1.3783 -0.2433 -0.5952
 4924SOL    HW226235   3.359   1.328  12.291  0.3360  0.7601  2.3347
 4925SOL     OW26236   2.262   2.255   5.127 -0.2696  0.3896  0.5184
 4925SOL    HW126237   2.208   2.222   5.055 -1.0683  2.8925 -0.0081
 4925SOL    HW226238   2.211   2.230   5.203 -2.6737 -0.4897 -1.3752
 4926SOL     OW26239   1.664   3.980   5.642 -0.2726  0.0371  1.1649
 4926SOL    HW126240   1.624   4.053   5.688 -2.1201  0.3386 -0.9442
 4926SOL    HW226241   1.711   3.944   5.717 -0.6125  1.2336  1.9432
 4927SOL     OW26242   4.721   4.426  17.527 -0.2221  0.1602 -0.2110
 4927SOL    HW126243   4.674   4.387  17.601  2.2943 -1.7300  0.4301
 4927SOL    HW226244   0.041   4.352  17.486 -0.2703  0.1700 -0.2802
 4928SOL     OW26245   3.284   1.581   3.678 -0.2661 -0.1514 -0.0556
 4928SOL    HW126246   3.189   1.586   3.680 -0.2708  0.3081 -2.4235
 4928SOL    HW226247   3.302   1.524   3.603  1.1335 -1.8424  1.5389
 4929SOL     OW26248   2.737   3.184   3.407 -0.3140 -0.1334  0.5075
 4929SOL    HW126249   2.687   3.146   3.479 -1.8945  0.9177 -0.0321
 4929SOL    HW226250   2.820   3.137   3.419  0.2862  0.5341 -0.9910
 4930SOL     OW26251   2.469   0.650   5.494  0.2107  0.2756  0.5261
 4930SOL    HW126252   2.411   0.724   5.478 -0.9987 -0.5374  1.1329
 4930SOL    HW226253   2.553   0.688   5.467 -0.5429  0.2073 -1.8434
 4931SOL     OW26254   0.947   2.085   4.912  0.0162 -0.4258 -0.4149
 4931SOL    HW126255   0.995   2.109   4.832  1.0265 -1.9550 -0.2577
 4931SOL    HW226256   0.859   2.120   4.894 -0.4218 -1.9725 -1.2338
 4932SOL     OW26257   2.141   2.039  16.248  0.1718 -0.2768  0.7278
 4932SOL    HW126258   2.222   2.090  16.247  0.6870 -1.0726  1.6175
 4932SOL    HW226259   2.118   2.023  16.340 -0.9517 -1.1512  0.3042
 4933SOL     OW26260   1.370   1.479   3.145  0.2071 -0.5704 -0.1572
 4933SOL    HW126261   1.285   1.446   3.115 -0.2966 -0.6208  1.3395
 4933SOL    HW226262   1.360   1.572   3.126 -0.4136 -0.8892 -1.4085
 4934SOL     OW26263   2.296   1.422   8.140 -0.3013  0.3905 -0.0532
 4934SOL    HW126264   2.389   1.410   8.159  0.1407 -0.5228 -2.7599
 4934SOL    HW226265   2.280   1.467   8.222  0.1112  0.7100 -0.1482
 4935SOL     OW26266   2.360   1.257   3.724 -0.0961  0.1643  0.2985
 4935SOL    HW126267   2.391   1.325   3.784 -2.1231  0.0569  1.4536
 4935SOL    HW226268   2.423   1.274   3.654  0.9056 -0.6512  1.0111
 4936SOL     OW26269   2.674   0.332   0.373  0.6376  0.0011  0.1378
 4936SOL    HW126270   2.611   0.284   0.319  1.1976  1.1848 -1.5611
 4936SOL    HW226271   2.635   0.418   0.387 -1.0893 -0.5382 -1.2329
 4937SOL     OW26272   1.953   2.626   4.910 -0.2425 -0.5654 -0.2589
 4937SOL    HW126273   2.005   2.705   4.899  0.2555 -1.2701 -3.1176
 4937SOL    HW226274   2.020   2.558   4.901  1.3913  1.1296 -0.7669
 4938SOL     OW26275   3.783   0.984   5.244  0.0781 -0.2524  0.0384
 4938SOL    HW126276   3.757   1.074   5.263  1.5487  0.0870  0.4207
 4938SOL    HW226277   3.865   0.993   5.196 -1.0735 -0.8236 -2.0675
 4939SOL     OW26278   2.478   1.201   9.223 -0.3898 -0.0354 -0.4036
 4939SOL    HW126279   2.510   1.112   9.205  0.1605 -0.0369  0.5828
 4939SOL    HW226280   2.446   1.233   9.139  1.3548  0.8816 -0.7259
 4940SOL     OW26281   0.347   4.395   0.056  0.0878 -0.3279 -0.1493
 4940SOL    HW126282   0.278   4.457   0.030 -1.1268 -0.4830  2.6662
 4940SOL    HW226283   0.285   4.322   0.050 -0.1036 -0.3498  1.9817
 4941SOL     OW26284   3.802   4.090   5.270 -0.0667  0.5779 -0.0196
 4941SOL    HW126285   3.707   4.079   5.265  0.0107 -0.3705  0.6775
 4941SOL    HW226286   3.836   4.023   5.211  0.0301  0.3441  0.3065
 4942SOL     OW26287   1.781   2.780  11.105 -0.3253  0.1421 -0.1470
 4942SOL    HW126288   1.865   2.796  11.147  0.6621  0.1710 -2.1566
 4942SOL    HW226289   1.790   2.694  11.065 -0.8062  0.4111 -0.8267
 4943SOL     OW26290   1.703   0.311   7.585 -0.4404  0.5905 -0.2131
 4943SOL    HW126291   1.726   0.402   7.566  0.5619  0.8309  2.1902
 4943SOL    HW226292   1.781   0.266   7.552 -0.1177  0.9043  0.1231
 4944SOL     OW26293   1.827   0.035   7.049 -0.2147  0.1759  0.4441
 4944SOL    HW126294   1.736   0.010   7.066 -0.7789  2.2982  0.5748
 4944SOL    HW226295   1.878   4.723   7.122 -0.9067  0.2851  0.9826
 4945SOL     OW26296   1.404   3.543  11.554  0.4058 -0.0118 -0.4867
 4945SOL    HW126297   1.494   3.520  11.531 -0.6266 -3.7749 -0.7190
 4945SOL    HW226298   1.408   3.514  11.646 -0.4172  1.3123 -0.0250
 4946SOL     OW26299   0.591   3.669  16.716  0.3053 -0.6367  0.2798
 4946SOL    HW126300   0.621   3.758  16.733 -1.4211  0.3677 -1.8577
 4946SOL    HW226301   0.626   3.621  16.791  0.1760  0.4122  1.0068
 4947SOL     OW26302   1.943   3.656   3.998 -0.0395  0.7974  0.5028
 4947SOL    HW126303   1.982   3.726   3.945  1.6310 -0.8023 -0.3882
 4947SOL    HW226304   1.872   3.715   4.024  0.0043  2.0238 -2.0849
 4948SOL     OW26305   4.685   3.360   3.374  0.0235 -0.1569 -0.4389
 4948SOL    HW126306   4.666   3.430   3.311 -3.6525  0.3538  1.2166
 4948SOL    HW226307   4.683   3.281   3.319  0.5526 -0.4086 -0.0976
 4949SOL     OW26308   4.178   1.713   2.825 -0.4060 -0.2354 -0.0181
 4949SOL    HW126309   4.228   1.786   2.862  1.1618 -1.5744  0.5471
 4949SOL    HW226310   4.246   1.652   2.797 -0.0512  1.0785 -2.0407
 4950SOL     OW26311   1.003   1.524   7.329  0.8627  0.4302 -0.2213
 4950SOL    HW126312   1.044   1.602   7.292 -0.1260 -0.3034 -2.9051
 4950SOL    HW226313   0.949   1.559   7.400  2.3212  0.2204  0.9976
 4951SOL     OW26314   3.307   1.849   3.586  0.0846 -0.4999  0.4275
 4951SOL    HW126315   3.226   1.851   3.535  0.6341 -0.3439 -0.4464
 4951SOL    HW226316   3.329   1.759   3.562  1.9616  0.2030 -0.5043
 4952SOL     OW26317   4.606   2.592  16.187  0.0687 -0.1914 -0.6495
 4952SOL    HW126318   4.572   2.612  16.274 -2.1643 -0.5015 -1.4474
 4952SOL    HW226319   4.624   2.499  16.201 -0.4569  0.3105  3.2594
 4953SOL     OW26320   0.764   3.169   7.102 -0.0651 -0.0917 -0.0313
 4953SOL    HW126321   0.816   3.166   7.022 -1.0527  0.8026 -0.7160
 4953SOL    HW226322   0.712   3.249   7.099 -2.9102 -1.8961  0.5954
 4954SOL     OW26323   2.070   1.162  12.161  0.8019 -0.6899  0.2978
 4954SOL    HW126324   2.077   1.079  12.208  0.3340 -0.8037  0.1739
 4954SOL    HW226325   1.983   1.151  12.121  0.8184 -0.5852  0.2348
 4955SOL     OW26326   3.067   3.974   7.897 -0.1037 -0.6367 -0.7000
 4955SOL    HW126327   3.076   4.036   7.825  2.6453  0.2585  0.4063
 4955SOL    HW226328   3.146   3.986   7.951 -2.3204  0.3580  2.3437
 4956SOL     OW26329   0.009   2.165  14.673  0.0962  0.3460  0.2831
 4956SOL    HW126330   4.691   2.082  14.656  1.9364 -0.6807  0.6487
 4956SOL    HW226331   0.052   2.189  14.591 -0.5330  0.7604  0.0735
 4957SOL     OW26332   1.195   1.041   7.638 -0.0445  0.3179  0.1700
 4957SOL    HW126333   1.190   0.990   7.557 -0.7785 -0.6691  0.8407
 4957SOL    HW226334   1.102   1.061   7.649 -0.1406  0.6190 -1.2110
 4958SOL     OW26335   3.197   1.851   8.908 -0.1734 -0.3028 -0.3087
 4958SOL    HW126336   3.185   1.943   8.888  0.9179 -0.0823  0.0705
 4958SOL    HW226337   3.107   1.826   8.928  0.3598 -0.5903  1.7403
 4959SOL     OW26338   3.599   0.912   6.888  0.1583 -0.0967 -0.1789
 4959SOL    HW126339   3.544   0.895   6.965  0.7011  1.7182  0.6114
 4959SOL    HW226340   3.645   0.988   6.923 -0.3570 -0.3688  1.1114
 4960SOL     OW26341   1.745   0.770   0.552  0.3992 -0.2476 -0.3923
 4960SOL    HW126342   1.747   0.864   0.536 -3.6325 -0.2861 -1.0613
 4960SOL    HW226343   1.710   0.771   0.641  1.0119  0.3491 -0.1535
 4961SOL     OW26344   2.159   2.829   1.535  0.1793 -0.0768 -0.0157
 4961SOL    HW126345   2.096   2.762   1.566 -0.7309  0.1472 -1.4087
 4961SOL    HW226346   2.234   2.824   1.594  1.0900 -1.9697 -1.3175
 4962SOL     OW26347   3.640   0.300   9.782 -0.0103  0.5225 -0.7564
 4962SOL    HW126348   3.731   0.292   9.811 -0.6144 -2.5029  0.2637
 4962SOL    HW226349   3.602   0.347   9.857  1.0256  1.0175 -0.5441
 4963SOL     OW26350   2.170   4.541   2.678  0.0276 -0.3177  0.5704
 4963SOL    HW126351   2.202   4.613   2.624 -1.2555 -1.6353 -1.9790
 4963SOL    HW226352   2.192   4.465   2.623 -1.6015  1.0455 -1.9428
 4964SOL     OW26353   4.123   3.933   1.947 -0.6219  0.7822  0.1281
 4964SOL    HW126354   4.042   3.884   1.964 -1.3510  1.8585 -0.2857
 4964SOL    HW226355   4.172   3.861   1.907 -0.8864 -0.7133  2.4695
 4965SOL     OW26356   0.068   2.836  14.723 -0.1892  0.0299  0.3840
 4965SOL    HW126357   0.163   2.851  14.725  0.0432 -1.2258 -0.4626
 4965SOL    HW226358   0.073   2.763  14.660 -0.2995  0.4107 -0.0632
 4966SOL     OW26359   0.393   4.475   2.384 -0.2429 -0.2482  0.6323
 4966SOL    HW126360   0.332   4.526   2.438 -0.1226 -0.3671  0.8834
 4966SOL    HW226361   0.414   4.406   2.447 -0.3443 -1.6637 -0.8923
 4967SOL     OW26362   4.015   4.573   0.592 -0.0787  0.4899 -0.2793
 4967SOL    HW126363   4.056   4.498   0.550  1.1048  1.3122 -0.5810
 4967SOL    HW226364   3.987   4.540   0.678 -0.0085 -1.8490 -1.1544
 4968SOL     OW26365   2.728   0.126   0.528  0.1131  0.2727 -0.4206
 4968SOL    HW126366   2.724   0.209   0.480 -2.2328  1.3894  1.7072
 4968SOL    HW226367   2.652   0.132   0.586  0.2610  2.4111 -0.4391
 4969SOL     OW26368   4.528   2.000   0.100 -0.2951  0.2347 -0.0571
 4969SOL    HW126369   4.600   1.973   0.157  0.9064  3.1244 -0.2004
 4969SOL    HW226370   4.490   1.914   0.085  0.1319  0.1983 -0.9645
 4970SOL     OW26371   2.601   3.272   7.104 -0.3978 -0.9034 -0.1142
 4970SOL    HW126372   2.593   3.187   7.146 -3.2759  0.1094  1.3671
 4970SOL    HW226373   2.689   3.278   7.066 -1.2774 -0.4777 -2.1177
 4971SOL     OW26374   3.179   4.282   8.798 -0.2581  0.4660  0.4056
 4971SOL    HW126375   3.256   4.326   8.763 -0.3869  0.5187  0.1918
 4971SOL    HW226376   3.157   4.314   8.886  2.8076 -1.7101  1.9730
 4972SOL     OW26377   2.677   4.505   4.997 -0.1866  1.0460  0.3604
 4972SOL    HW126378   2.686   4.524   4.904 -1.8963 -0.7356 -0.1615
 4972SOL    HW226379   2.742   4.435   5.001  0.1061  1.3411  0.8455
 4973SOL     OW26380   3.567   1.769   9.061  0.6899  0.9957  0.3953
 4973SOL    HW126381   3.649   1.771   9.012  0.2705 -0.3360 -0.3607
 4973SOL    HW226382   3.534   1.857   9.076  0.1295  0.7638  0.5048
 4974SOL     OW26383   0.950   2.201   9.612  0.1657 -0.2251  0.3126
 4974SOL    HW126384   0.881   2.136   9.621 -0.9320  0.6708 -1.7581
 4974SOL    HW226385   0.993   2.192   9.697 -1.8298 -0.1724  1.3135
 4975SOL     OW26386   3.483   0.975   8.878 -0.3452  0.0245  0.0557
 4975SOL    HW126387   3.428   1.053   8.875 -1.1332 -0.5535 -0.7053
 4975SOL    HW226388   3.561   1.007   8.922 -1.0458  0.1136  1.2352
 4976SOL     OW26389   4.077   3.602   7.463  0.1195 -0.8110 -0.1201
 4976SOL    HW126390   4.167   3.632   7.447  0.1608  0.3037  2.1421
 4976SOL    HW226391   4.081   3.539   7.535  3.0021 -1.4963 -0.8487
 4977SOL     OW26392   3.712   2.086   9.378 -0.1210  0.1438 -0.1644
 4977SOL    HW126393   3.733   2.034   9.455  0.8797  0.6081 -0.1199
 4977SOL    HW226394   3.781   2.151   9.390  1.0085 -1.2694  1.0577
 4978SOL     OW26395   3.836   2.105  12.539 -0.3912 -0.0793  0.3758
 4978SOL    HW126396   3.883   2.033  12.498 -0.9714 -0.6949  0.7783
 4978SOL    HW226397   3.744   2.081  12.533 -0.4525 -0.1421  1.5965
 4979SOL     OW26398   2.067   0.364   3.803 -0.1926 -0.7977 -0.1202
 4979SOL    HW126399   2.081   0.455   3.829  0.5210 -0.8163 -0.4291
 4979SOL    HW226400   2.051   0.323   3.887  0.1956 -1.4260 -0.3548
 4980SOL     OW26401   3.023   1.763   5.862  0.1973  0.1590 -0.3129
 4980SOL    HW126402   3.011   1.756   5.957 -0.1442 -0.1273 -0.3795
 4980SOL    HW226403   3.093   1.700   5.842  1.0212  0.5391  1.3621
 4981SOL     OW26404   2.064   2.127   1.121  0.1647  0.8350 -0.2752
 4981SOL    HW126405   2.089   2.064   1.189  1.4319  1.0731 -0.5069
 4981SOL    HW226406   2.010   2.074   1.062 -1.8003  2.4455  0.1248
 4982SOL     OW26407   3.534   3.691   4.578 -0.2458  0.7113  0.0117
 4982SOL    HW126408   3.461   3.733   4.532 -0.6563 -1.7696 -1.6364
 4982SOL    HW226409   3.534   3.734   4.663  1.0980 -1.0432  0.9123
 4983SOL     OW26410   3.487   2.751   2.785  0.1421  0.2799 -0.0077
 4983SOL    HW126411   3.424   2.782   2.720 -1.5642 -2.6246  0.2652
 4983SOL    HW226412   3.560   2.753   2.723  0.7775  1.9183  0.7694
 4984SOL     OW26413   1.773   0.961  11.138  0.3394 -0.5934  0.3079
 4984SOL    HW126414   1.823   1.029  11.093 -0.4575 -1.0439 -1.2572
 4984SOL    HW226415   1.832   0.920  11.201  1.2568  0.4477  0.1186
 4985SOL     OW26416   4.023   0.706  17.310  0.1828  0.2084  0.3799
 4985SOL    HW126417   3.999   0.645  17.240  0.5414 -0.1697  0.5899
 4985SOL    HW226418   3.953   0.771  17.309 -3.4519 -3.6942  1.0169
 4986SOL     OW26419   3.616   1.062  15.882  0.0256 -0.7630  0.6656
 4986SOL    HW126420   3.532   1.022  15.859 -0.4403  0.6839 -0.1367
 4986SOL    HW226421   3.611   1.148  15.841 -0.6560 -1.9896 -1.8454
 4987SOL     OW26422   0.095   4.091  17.054 -0.0731 -0.4725  0.2236
 4987SOL    HW126423   0.179   4.137  17.046 -1.3058  1.7533  0.1153
 4987SOL    HW226424   0.096   4.021  16.988  1.4276 -1.1764  0.9792
 4988SOL     OW26425   0.642   2.249   3.744  0.2887  0.1575  0.2552
 4988SOL    HW126426   0.661   2.322   3.685  1.2683 -1.3480 -1.2878
 4988SOL    HW226427   0.708   2.184   3.721 -1.3264 -0.6273 -2.2443
 4989SOL     OW26428   4.007   0.666   8.990 -0.3756  0.5693  0.5407
 4989SOL    HW126429   4.051   0.745   9.021  1.1955 -0.1235  0.0228
 4989SOL    HW226430   3.917   0.696   8.972 -1.1798 -1.0841  1.7987
 4990SOL     OW26431   3.113   0.216   5.414  0.3682 -0.4761  0.4014
 4990SOL    HW126432   3.154   0.136   5.381  0.6072 -0.4376  0.6042
 4990SOL    HW226433   3.068   0.251   5.338 -2.2796  0.2310  2.3096
 4991SOL     OW26434   4.160   3.682   4.064 -0.3643  0.4574  0.3745
 4991SOL    HW126435   4.168   3.620   4.136 -1.7105 -1.3883 -1.0562
 4991SOL    HW226436   4.205   3.755   4.106  1.7028 -1.0976  0.8628
 4992SOL     OW26437   2.199   2.791   5.104 -0.2132 -0.2251  0.3563
 4992SOL    HW126438   2.105   2.784   5.120 -0.5359  2.0240 -0.6151
 4992SOL    HW226439   2.212   2.696   5.096  0.1064 -0.0556 -1.0996
 4993SOL     OW26440   3.108   1.151   8.869  0.2615  0.0878  0.0739
 4993SOL    HW126441   3.175   1.174   8.805  1.6494  1.8106  2.1348
 4993SOL    HW226442   3.113   1.228   8.925 -1.1084  0.5639 -0.4714
 4994SOL     OW26443   3.518   0.322   7.852 -0.2830 -0.4019  0.1559
 4994SOL    HW126444   3.574   0.271   7.910  0.8644  0.2064 -0.4336
 4994SOL    HW226445   3.464   0.372   7.913 -1.6412 -0.3341 -1.0834
 4995SOL     OW26446   3.751   1.724   5.173 -0.1033 -0.3149 -0.6475
 4995SOL    HW126447   3.844   1.724   5.150  0.9623  0.8178  3.6691
 4995SOL    HW226448   3.760   1.643   5.223  1.6278  1.2370  1.5738
 4996SOL     OW26449   0.398   2.941  11.853  0.4752  0.6754 -0.4029
 4996SOL    HW126450   0.406   2.967  11.945 -0.2455  2.1883 -0.7681
 4996SOL    HW226451   0.333   2.874  11.874  2.1622 -0.5921  0.8055
 4997SOL     OW26452   4.120   3.400   5.841 -1.0194 -0.4130  0.1629
 4997SOL    HW126453   4.069   3.462   5.894  0.7247  2.0703 -1.0599
 4997SOL    HW226454   4.124   3.452   5.761 -1.8634 -0.0648  0.3495
 4998SOL     OW26455   1.393   4.065  14.029 -0.0438  0.1507 -0.4488
 4998SOL    HW126456   1.421   3.980  13.996 -0.2061 -0.2556  0.4898
 4998SOL    HW226457   1.352   4.039  14.111 -0.0258  1.7101  0.0624
 4999SOL     OW26458   3.783   2.948  16.940  0.1525  0.3384  0.0416
 4999SOL    HW126459   3.756   2.894  17.015  1.1437  1.4490  1.2091
 4999SOL    HW226460   3.709   2.947  16.879 -1.3714  0.7572  1.8493
 5000SOL     OW26461   0.329   3.617  16.782 -0.1480  0.3406  0.4418
 5000SOL    HW126462   0.322   3.522  16.770 -0.5755  0.4743 -0.3392
 5000SOL    HW226463   0.419   3.624  16.750 -0.7415  1.1640 -1.0526
 5001SOL     OW26464   1.837   0.504   4.216 -0.4505 -0.0663  0.0599
 5001SOL    HW126465   1.767   0.562   4.186  0.7192  0.6889 -1.1922
 5001SOL    HW226466   1.780   0.430   4.236  1.7019 -1.5629  0.7543
 5002SOL     OW26467   1.318   4.204  11.110 -0.2297  0.1574 -0.2651
 5002SOL    HW126468   1.344   4.136  11.048  0.7037  0.9099 -0.7010
 5002SOL    HW226469   1.260   4.156  11.169  1.9330 -0.4716  1.3397
 5003SOL     OW26470   0.772   4.673   7.194 -0.0088 -0.0126  0.2456
 5003SOL    HW126471   0.729   4.646   7.276  1.1039 -0.6758  0.6145
 5003SOL    HW226472   0.699   4.655   7.135  0.4346  1.7407 -0.8369
 5004SOL     OW26473   1.911   3.324   5.700  0.0498  0.0877 -0.4045
 5004SOL    HW126474   1.927   3.255   5.635 -0.4323  0.2678 -0.7167
 5004SOL    HW226475   1.974   3.391   5.675  0.5238 -0.8053 -1.6124
 5005SOL     OW26476   4.140   0.067   3.727 -0.7312  0.3685  0.3879
 5005SOL    HW126477   4.079   0.131   3.691 -2.5118 -2.3435 -1.3630
 5005SOL    HW226478   4.198   0.057   3.651  2.9628 -1.0049  3.3754
 5006SOL     OW26479   1.154   3.588   7.287  0.0721  0.5550  0.0730
 5006SOL    HW126480   1.068   3.625   7.310 -0.4090 -0.2346 -0.4365
 5006SOL    HW226481   1.164   3.508   7.338  0.2024  0.3778 -0.2313
 5007SOL     OW26482   0.589   3.631   5.020  0.5555  0.2580 -0.3865
 5007SOL    HW126483   0.661   3.684   5.052  0.1394  0.7771 -0.3179
 5007SOL    HW226484   0.587   3.558   5.082 -0.6013  0.2593 -0.4208
 5008SOL     OW26485   0.953   2.352  13.184 -0.1077  0.1686 -0.4687
 5008SOL    HW126486   1.041   2.381  13.211  0.9332 -3.9272  0.4398
 5008SOL    HW226487   0.931   2.287  13.250 -1.6851  0.3412 -0.8412
 5009SOL     OW26488   1.967   2.938  11.818  0.4707  0.1643 -0.2048
 5009SOL    HW126489   1.929   2.923  11.732 -0.9375  0.5200  0.3444
 5009SOL    HW226490   2.053   2.963  11.784  1.6095 -3.3730  0.0718
 5010SOL     OW26491   2.636   1.409   3.196  0.7468 -0.0611  0.4274
 5010SOL    HW126492   2.551   1.385   3.160  0.5793  2.8548 -1.1328
 5010SOL    HW226493   2.687   1.332   3.172 -0.3656 -0.2359 -1.3746
 5011SOL     OW26494   1.752   3.912   2.936 -0.1528  0.0384 -0.8392
 5011SOL    HW126495   1.731   4.003   2.915 -2.3148  0.0235  1.1557
 5011SOL    HW226496   1.774   3.908   3.029 -1.4452  1.7780 -0.4560
 5012SOL     OW26497   4.622   0.833   5.683 -0.3280 -0.3613  0.4247
 5012SOL    HW126498   4.628   0.832   5.779  1.3352 -1.9491  0.2969
 5012SOL    HW226499   4.632   0.741   5.659  2.1113  0.2385 -0.7947
 5013SOL     OW26500   3.248   3.042   2.754 -0.1769  0.0438  0.5128
 5013SOL    HW126501   3.153   3.044   2.736 -0.4395  2.5566  2.1648
 5013SOL    HW226502   3.264   2.966   2.699  1.1172 -0.3505  1.4593
 5014SOL     OW26503   0.749   3.641   8.480  0.0227 -0.3288  0.5476
 5014SOL    HW126504   0.763   3.650   8.574 -0.2294 -0.5894  0.6111
 5014SOL    HW226505   0.770   3.730   8.451  0.8031 -0.2966  1.2409
 5015SOL     OW26506   1.865   1.227   3.210 -0.1934 -0.5434  0.0542
 5015SOL    HW126507   1.794   1.220   3.274  0.2564 -1.7679  0.4065
 5015SOL    HW226508   1.854   1.322   3.198  0.6320 -0.5241 -0.6093
 5016SOL     OW26509   2.270   4.678   5.634  0.1267  0.4890 -0.3529
 5016SOL    HW126510   2.314   4.629   5.703  0.7367  0.7543 -0.5413
 5016SOL    HW226511   2.206   0.009   5.678 -0.7976 -0.4926 -0.4835
 5017SOL     OW26512   0.521   2.387   2.110  0.7908 -0.4516 -0.0577
 5017SOL    HW126513   0.608   2.417   2.135  0.8326 -0.6736  0.0622
 5017SOL    HW226514   0.486   2.475   2.097 -0.1580 -0.8336 -0.0997
 5018SOL     OW26515   2.942   0.638   3.018  0.2753 -0.0848 -0.3283
 5018SOL    HW126516   2.865   0.592   2.984 -1.1757  1.7375  0.4819
 5018SOL    HW226517   2.999   0.561   3.008 -0.3957 -0.3078 -2.4159
 5019SOL     OW26518   4.050   1.116  15.404  0.0389  0.0151 -0.4082
 5019SOL    HW126519   3.957   1.094  15.400  0.7910 -3.5152  1.2422
 5019SOL    HW226520   4.095   1.033  15.384 -0.8115  0.0791 -2.5171
 5020SOL     OW26521   3.854   4.594  10.012 -0.4771 -0.2861 -0.8054
 5020SOL    HW126522   3.884   4.663   9.953 -0.8028 -0.7089 -1.4660
 5020SOL    HW226523   3.865   4.505   9.978 -3.4540 -1.4108  1.1686
 5021SOL     OW26524   4.450   2.347   4.599 -0.2577  0.0342  0.3897
 5021SOL    HW126525   4.383   2.319   4.661 -1.0007 -1.1805 -0.9767
 5021SOL    HW226526   4.461   2.258   4.568 -1.1917  0.8464 -2.2901
 5022SOL     OW26527   2.248   3.308   6.734 -0.2001 -0.4615 -0.5436
 5022SOL    HW126528   2.250   3.241   6.802  0.3892  1.3928  1.2626
 5022SOL    HW226529   2.214   3.259   6.659 -0.3186 -0.5797 -0.4100
 5023SOL     OW26530   3.765   2.731   3.852 -0.5838  0.4518  0.4202
 5023SOL    HW126531   3.787   2.824   3.855  2.2113 -0.0927 -2.4799
 5023SOL    HW226532   3.695   2.737   3.788 -1.2410 -1.8922  0.9348
 5024SOL     OW26533   3.639   3.758   5.286 -0.2090  0.2949  0.1639
 5024SOL    HW126534   3.620   3.775   5.379 -0.3135  0.0775  0.1813
 5024SOL    HW226535   3.587   3.831   5.250  0.5999  0.8082  0.0453
 5025SOL     OW26536   2.787   1.526   0.218  0.0916 -1.0894  0.0794
 5025SOL    HW126537   2.755   1.473   0.291 -0.4646 -1.0536 -0.1316
 5025SOL    HW226538   2.707   1.534   0.165  1.6563  3.0484 -1.5905
 5026SOL     OW26539   2.840   1.669  13.367 -0.3700 -0.0228 -0.2474
 5026SOL    HW126540   2.793   1.716  13.437 -0.1614  0.1790 -0.2424
 5026SOL    HW226541   2.913   1.621  13.406  0.2916  1.3940  0.2709
 5027SOL     OW26542   2.520   3.356   2.486  0.3424 -0.6469  0.0935
 5027SOL    HW126543   2.487   3.321   2.569  1.8014 -0.2089  0.8629
 5027SOL    HW226544   2.546   3.278   2.437 -0.7674 -1.2393  0.4560
 5028SOL     OW26545   1.471   3.482   4.187 -0.2219 -0.7188 -0.0377
 5028SOL    HW126546   1.405   3.552   4.191  0.6798  0.1751 -0.7070
 5028SOL    HW226547   1.464   3.433   4.268  0.1660  0.1014  0.4853
 5029SOL     OW26548   3.960   2.713   6.089  0.2191 -0.0669 -0.1608
 5029SOL    HW126549   4.024   2.693   6.021  0.3479 -0.7299  0.1563
 5029SOL    HW226550   3.919   2.626   6.087 -0.7506  0.3793  0.2532
 5030SOL     OW26551   4.284   2.807   7.031  0.4813 -0.3430  0.1172
 5030SOL    HW126552   4.374   2.813   7.000  0.2973 -0.9228 -0.5217
 5030SOL    HW226553   4.278   2.855   7.114 -0.2292  0.3173 -0.3191
 5031SOL     OW26554   3.404   0.444  16.774 -0.2352 -0.5794 -0.5564
 5031SOL    HW126555   3.342   0.398  16.831  0.9442 -0.6951  0.6436
 5031SOL    HW226556   3.425   0.397  16.693 -0.4346 -1.2759 -0.2036
 5032SOL     OW26557   2.891   1.369  17.168 -0.4981 -0.4842 -0.1877
 5032SOL    HW126558   2.798   1.390  17.156 -0.1928  1.1288  0.1870
 5032SOL    HW226559   2.875   1.279  17.193  1.0247 -1.3187 -2.1846
 5033SOL     OW26560   0.672   0.514  14.475 -0.3267 -0.2044  0.0582
 5033SOL    HW126561   0.633   0.549  14.394  1.1084  1.7360  0.2060
 5033SOL    HW226562   0.617   0.443  14.508 -1.1177 -0.1095 -1.0233
 5034SOL     OW26563   0.467   3.793   2.929 -0.0607 -0.0423 -0.3864
 5034SOL    HW126564   0.509   3.816   3.011  0.0084 -2.3827  0.2298
 5034SOL    HW226565   0.423   3.708   2.942 -1.6976  0.9523  0.5844
 5035SOL     OW26566   3.215   3.132   4.647 -0.5537  0.1817 -0.2435
 5035SOL    HW126567   3.241   3.206   4.592 -1.6464  0.8057  0.0878
 5035SOL    HW226568   3.129   3.109   4.612 -1.1899  1.8369  0.2713
 5036SOL     OW26569   0.959   0.708   5.238  0.3346  0.5210 -0.0013
 5036SOL    HW126570   0.993   0.793   5.211  0.1212  0.1350 -1.4664
 5036SOL    HW226571   0.992   0.654   5.167 -1.0497 -1.2699  0.7078
 5037SOL     OW26572   3.492   4.283   8.715  0.1549 -0.1874 -0.4891
 5037SOL    HW126573   3.424   4.219   8.696 -1.8705  1.9182 -0.3676
 5037SOL    HW226574   3.564   4.226   8.740  0.0237  0.4797  1.4169
 5038SOL     OW26575   3.035   1.949   4.535 -0.4035  0.1597 -0.2999
 5038SOL    HW126576   3.122   1.956   4.497 -0.8043  0.0259 -1.2558
 5038SOL    HW226577   3.022   2.030   4.584  0.4603 -1.3394  2.3732
 5039SOL     OW26578   4.254   0.120   5.834  0.4767  0.0896 -0.4991
 5039SOL    HW126579   4.310   0.190   5.867  1.2343 -2.5435  3.8069
 5039SOL    HW226580   4.165   0.152   5.852  1.0214  1.1095  0.4007
 5040SOL     OW26581   1.260   3.449   2.860 -0.1585  0.4811  0.3972
 5040SOL    HW126582   1.259   3.541   2.885 -0.4968 -0.5663  4.3118
 5040SOL    HW226583   1.177   3.417   2.894  0.6134 -0.7129  1.1729
 5041SOL     OW26584   0.910   3.675  13.135  0.6218 -0.5244 -0.6237
 5041SOL    HW126585   0.980   3.653  13.074  2.6182  1.1194  1.0875
 5041SOL    HW226586   0.950   3.631  13.210 -0.3540  0.1237  0.2964
 5042SOL     OW26587   0.972   1.142   2.545  0.3734 -0.1254 -0.4411
 5042SOL    HW126588   0.985   1.122   2.638 -1.9711 -0.5532 -0.1855
 5042SOL    HW226589   0.895   1.088   2.524  0.1263 -0.1576  0.5608
 5043SOL     OW26590   2.536   0.475  13.581 -0.2562  0.1482 -0.5530
 5043SOL    HW126591   2.466   0.535  13.606 -0.8631 -0.7524 -0.0994
 5043SOL    HW226592   2.490   0.432  13.509 -1.0647  0.4723 -0.2217
 5044SOL     OW26593   1.739   3.554   1.481  0.0163  0.1777 -0.6676
 5044SOL    HW126594   1.784   3.490   1.535  0.3309  0.9752  0.0274
 5044SOL    HW226595   1.653   3.516   1.466 -0.7321  1.6781 -0.2112
 5045SOL     OW26596   1.079   1.557  16.855  0.1607  0.2546  0.2899
 5045SOL    HW126597   1.027   1.637  16.861 -0.7421 -0.3050 -0.1610
 5045SOL    HW226598   1.159   1.583  16.809 -0.9710  1.1372 -1.1757
 5046SOL     OW26599   1.204   2.120   7.238 -0.0788 -0.0733 -0.5260
 5046SOL    HW126600   1.258   2.161   7.170 -1.1838 -0.4677 -1.6299
 5046SOL    HW226601   1.136   2.068   7.195  1.2650 -2.2648 -0.0279
 5047SOL     OW26602   4.418   0.243   7.613  0.2698 -0.1501 -0.0265
 5047SOL    HW126603   4.326   0.218   7.599  0.1290 -0.0923  0.7832
 5047SOL    HW226604   4.417   0.299   7.690 -1.7258  1.1275 -0.9585
 5048SOL     OW26605   2.136   0.630   6.426 -0.3780 -0.7393  0.1913
 5048SOL    HW126606   2.112   0.662   6.513  1.3791 -0.4749  0.5603
 5048SOL    HW226607   2.051   0.603   6.391  0.0830 -1.1255 -0.6319
 5049SOL     OW26608   2.753   4.578   2.993 -0.0557  0.2397 -0.2443
 5049SOL    HW126609   2.729   4.601   3.083 -1.9557  0.3129 -0.7732
 5049SOL    HW226610   2.712   4.646   2.940 -0.8295  0.0827  0.1464
 5050SOL     OW26611   0.246   3.213  16.506  0.2519  0.0872  0.1895
 5050SOL    HW126612   0.224   3.140  16.448 -0.8670  1.2733 -0.8773
 5050SOL    HW226613   0.169   3.204  16.562  1.0493  1.0541  1.4663
 5051SOL     OW26614   2.727   4.571   4.712 -0.2045 -0.8941 -0.0955
 5051SOL    HW126615   2.698   4.661   4.696  1.4366 -0.2076  0.8288
 5051SOL    HW226616   2.647   4.524   4.688 -0.1570 -0.6321 -0.7721
 5052SOL     OW26617   0.502   1.448   2.596 -0.3800 -0.0964 -0.0055
 5052SOL    HW126618   0.580   1.456   2.542  2.1225 -1.5207  3.3970
 5052SOL    HW226619   0.549   1.434   2.679 -2.1905 -0.9581  0.8945
 5053SOL     OW26620   0.882   4.522   5.861 -0.4185 -0.4296  0.2214
 5053SOL    HW126621   0.838   4.505   5.778 -0.5760  1.7788 -0.1449
 5053SOL    HW226622   0.975   4.517   5.837  0.2723  1.5012  2.4947
 5054SOL     OW26623   0.846   4.083   5.189  0.7321 -0.0843 -0.1796
 5054SOL    HW126624   0.824   4.079   5.282 -0.8809 -1.4379 -0.6056
 5054SOL    HW226625   0.931   4.126   5.198  1.8251 -2.3067  0.1555
 5055SOL     OW26626   1.550   4.335   0.447 -0.0309  0.0609  0.4839
 5055SOL    HW126627   1.643   4.319   0.430 -0.6681 -0.1026 -2.8315
 5055SOL    HW226628   1.515   4.246   0.440 -0.4715  0.3363 -0.8999
 5056SOL     OW26629   0.021   1.691  15.979  0.1088 -0.9187 -0.3997
 5056SOL    HW126630   0.089   1.633  16.015  0.5260  0.5289  1.1763
 5056SOL    HW226631   0.028   1.764  16.041 -1.0535  0.8804 -2.3987
 5057SOL     OW26632   4.529   4.117   9.079 -0.0112 -0.3295 -0.5596
 5057SOL    HW126633   4.567   4.194   9.121 -1.0331 -1.1957  1.9414
 5057SOL    HW226634   4.605   4.066   9.052  0.4257  1.0201 -1.9404
 5058SOL     OW26635   0.736   1.876   1.667 -0.4990 -0.3974 -0.1922
 5058SOL    HW126636   0.697   1.956   1.629 -2.8485 -1.1135  0.7226
 5058SOL    HW226637   0.661   1.843   1.716 -1.7066  1.4721 -0.7382
 5059SOL     OW26638   2.902   0.880   0.742  0.1907 -0.2299  0.8203
 5059SOL    HW126639   2.844   0.849   0.812  0.3480  1.5063  1.7007
 5059SOL    HW226640   2.839   0.915   0.679 -0.2749  1.2423  2.1135
 5060SOL     OW26641   2.344   2.403  13.699 -0.0616  0.2580 -0.4800
 5060SOL    HW126642   2.287   2.479  13.683 -1.1175 -0.4424 -0.0122
 5060SOL    HW226643   2.366   2.419  13.791  1.2192 -0.1201 -0.7189
 5061SOL     OW26644   2.213   2.882   5.358 -0.6844  0.8990  0.2140
 5061SOL    HW126645   2.136   2.830   5.381 -0.1068  0.2561  0.6998
 5061SOL    HW226646   2.237   2.845   5.272  2.5188  0.6466  1.2015
 5062SOL     OW26647   3.431   0.181   8.617  0.3008 -0.0519 -0.0926
 5062SOL    HW126648   3.405   0.220   8.701 -0.0410 -1.7774  0.6047
 5062SOL    HW226649   3.525   0.199   8.616  0.0441  1.3696  1.4979
 5063SOL     OW26650   3.800   2.434   1.658 -0.1150  0.2641 -0.3033
 5063SOL    HW126651   3.775   2.351   1.697 -1.7862  0.2160 -1.4709
 5063SOL    HW226652   3.895   2.431   1.651 -0.0325  0.2892  0.8276
 5064SOL     OW26653   4.214   3.585   6.778 -0.2554 -0.2205  0.3477
 5064SOL    HW126654   4.306   3.603   6.759 -0.7603  0.6176 -1.2767
 5064SOL    HW226655   4.208   3.494   6.749 -0.4857 -0.1487  0.1718
 5065SOL     OW26656   3.290   2.831  16.330  0.1591  0.5426  0.4065
 5065SOL    HW126657   3.340   2.761  16.288 -1.1143  0.2621 -0.6315
 5065SOL    HW226658   3.268   2.885  16.254 -0.7397  0.0830  0.3441
 5066SOL     OW26659   1.842   0.142   0.620 -0.4852  0.1328 -0.3609
 5066SOL    HW126660   1.930   0.178   0.616 -0.4259  0.2072  1.7948
 5066SOL    HW226661   1.852   0.069   0.558 -3.2370  0.2830 -0.9816
 5067SOL     OW26662   0.544   3.327   7.014 -0.9230 -0.1924 -0.2081
 5067SOL    HW126663   0.480   3.393   6.986 -0.8439 -1.0665 -2.4314
 5067SOL    HW226664   0.512   3.320   7.104  3.5625  2.5321  1.5994
 5068SOL     OW26665   0.634   0.511   3.170 -0.6317 -0.3741  0.5173
 5068SOL    HW126666   0.643   0.598   3.210  2.0686 -0.4938  0.1382
 5068SOL    HW226667   0.570   0.531   3.101 -1.2119 -0.5312  1.0174
 5069SOL     OW26668   3.240   4.663  13.689 -0.3575  0.0888 -0.6689
 5069SOL    HW126669   3.184   4.629  13.758 -0.1400 -0.5560 -0.8151
 5069SOL    HW226670   3.279   0.010  13.740 -2.3778  0.4621  0.3700
 5070SOL     OW26671   1.834   1.302  13.416  0.3699  0.3917  0.0169
 5070SOL    HW126672   1.864   1.248  13.343 -3.6702  0.1305 -1.4224
 5070SOL    HW226673   1.755   1.259  13.447 -1.3724  1.3099 -3.1697
 5071SOL     OW26674   0.272   0.707  14.945  0.4384  0.1885  0.2140
 5071SOL    HW126675   0.197   0.665  14.902  1.5085 -0.8953 -0.5852
 5071SOL    HW226676   0.227   0.784  14.979  0.1264 -0.2105  0.7146
 5072SOL     OW26677   0.045   2.205   0.028 -0.3802  0.1424 -0.0882
 5072SOL    HW126678   4.698   2.145   0.047 -1.2787  1.0307 -0.6581
 5072SOL    HW226679   0.011   2.254  17.653  0.3286 -0.7475 -0.9973
 5073SOL     OW26680   0.192   2.228   7.236  0.1048 -0.4925  0.7516
 5073SOL    HW126681   0.146   2.296   7.284 -0.2368  1.0481 -1.7505
 5073SOL    HW226682   0.235   2.189   7.312  0.4234  0.0249  0.8362
 5074SOL     OW26683   2.628   4.711  17.515  0.8819  0.2841 -0.3340
 5074SOL    HW126684   2.660   0.074  17.492 -0.9266  1.1798  0.5835
 5074SOL    HW226685   2.534   4.723  17.504  0.9373  0.1048 -1.0098
 5075SOL     OW26686   1.115   4.002   5.320  0.0554 -0.0081  0.1294
 5075SOL    HW126687   1.106   4.023   5.413  1.4168  1.8249 -0.1662
 5075SOL    HW226688   1.134   3.908   5.319  1.4102  0.2330  2.5610
 5076SOL     OW26689   3.436   0.357   3.414 -0.0521 -0.0279  0.1607
 5076SOL    HW126690   3.465   0.448   3.427  0.5733 -0.2208  0.0991
 5076SOL    HW226691   3.433   0.347   3.319 -4.0257  2.3916  0.0593
 5077SOL     OW26692   4.618   4.538   1.806  0.9800 -0.8098 -0.1312
 5077SOL    HW126693   4.531   4.560   1.772 -0.1873 -3.3329  1.2791
 5077SOL    HW226694   4.672   4.616   1.791  0.0820 -0.0254  0.6980
 5078SOL     OW26695   2.988   0.318   5.210 -0.0716 -0.3216 -0.1236
 5078SOL    HW126696   2.908   0.274   5.184 -1.2069 -0.2321  3.2203
 5078SOL    HW226697   3.023   0.342   5.124  1.0832 -0.5770  0.2784
 5079SOL     OW26698   3.553   2.783   3.701  0.5216  0.0151  0.7427
 5079SOL    HW126699   3.556   2.698   3.657  1.8001 -0.2324  1.3107
 5079SOL    HW226700   3.476   2.763   3.755  1.3408 -0.0293  1.9062
 5080SOL     OW26701   0.279   4.052   7.030 -0.8802  0.0949 -0.0397
 5080SOL    HW126702   0.295   3.958   7.032 -1.0821  0.1156  2.4247
 5080SOL    HW226703   0.205   4.073   7.087 -0.7596  1.9203 -0.5443
 5081SOL     OW26704   2.285   0.999   1.497 -0.2852  0.3346  0.7698
 5081SOL    HW126705   2.275   0.917   1.546 -0.7319 -0.4666 -0.6496
 5081SOL    HW226706   2.191   1.015   1.483 -0.0446  1.0124 -0.0765
 5082SOL     OW26707   1.002   0.084  10.301  0.2170 -0.0083  0.2008
 5082SOL    HW126708   1.070   0.081  10.234  0.1382 -1.0360  0.1783
 5082SOL    HW226709   1.067   0.109  10.367 -0.5285  0.5298  0.7254
 5083SOL     OW26710   0.070   2.634   6.083  0.1696  0.4989 -0.5574
 5083SOL    HW126711   4.710   2.599   6.110 -0.0026  2.9404  2.1339
 5083SOL    HW226712   0.055   2.664   5.994  1.4652 -2.6098 -1.8216
 5084SOL     OW26713   0.830   4.691  12.133  0.4617  0.3278  0.3359
 5084SOL    HW126714   0.875   0.018  12.066 -0.4831 -1.0188 -1.3538
 5084SOL    HW226715   0.881   4.715  12.211  1.0945  0.7033 -0.1920
 5085SOL     OW26716   3.384   3.437   7.132  0.0704  0.0055 -0.0095
 5085SOL    HW126717   3.351   3.525   7.150  1.3504  0.8693 -1.8360
 5085SOL    HW226718   3.448   3.464   7.065  0.6323 -1.0715  0.1103
 5086SOL     OW26719   3.233   2.645   9.449  0.4105  0.3016  0.1413
 5086SOL    HW126720   3.200   2.555   9.445  0.4137  0.3852 -1.4734
 5086SOL    HW226721   3.171   2.670   9.517 -0.0235 -1.0557  0.2335
 5087SOL     OW26722   4.554   2.844   6.990 -0.0602 -0.1941 -0.2141
 5087SOL    HW126723   4.595   2.844   7.076  0.3747 -0.0191 -0.4248
 5087SOL    HW226724   4.608   2.790   6.932  1.4563  1.1951 -0.0780
 5088SOL     OW26725   1.146   0.106   6.309  0.3340 -0.3739 -0.8263
 5088SOL    HW126726   1.062   0.064   6.331  1.6874 -1.4021  2.3417
 5088SOL    HW226727   1.201   0.028   6.320  0.2802 -0.1462  1.0510
 5089SOL     OW26728   0.974   2.769   4.222  0.1653  0.2050 -0.2098
 5089SOL    HW126729   0.935   2.705   4.163 -0.8861  0.8032 -0.1479
 5089SOL    HW226730   1.065   2.739   4.232 -0.1705 -0.0534  1.9764
 5090SOL     OW26731   2.953   2.752  13.335 -0.4158  0.0633 -0.1405
 5090SOL    HW126732   2.876   2.809  13.333 -1.0647 -0.8708 -1.0842
 5090SOL    HW226733   2.990   2.788  13.416 -1.4204 -0.3793  0.5147
 5091SOL     OW26734   3.561   3.231  16.720  0.0198  0.6178  0.4313
 5091SOL    HW126735   3.623   3.273  16.661  0.0090 -1.5748 -1.1523
 5091SOL    HW226736   3.582   3.137  16.722 -0.4407  0.5609  3.8374
 5092SOL     OW26737   1.979   0.900   4.184  0.2398 -0.6251 -0.6376
 5092SOL    HW126738   1.954   0.856   4.103 -0.7718  1.5846 -1.5180
 5092SOL    HW226739   1.961   0.830   4.247 -0.0482  1.4980  1.6178
 5093SOL     OW26740   2.225   4.617  14.643  0.7193  0.3678 -0.0192
 5093SOL    HW126741   2.285   4.552  14.679 -1.1404  0.3392  3.0510
 5093SOL    HW226742   2.220   4.666  14.725  1.0510  0.6594 -0.1737
 5094SOL     OW26743   0.761   0.025   3.871  0.5055 -0.1808  0.4054
 5094SOL    HW126744   0.779   0.117   3.849  0.7100 -0.9652 -2.7189
 5094SOL    HW226745   0.852   4.723   3.856  1.0835  0.3722  2.9636
 5095SOL     OW26746   1.614   4.646   3.781  0.0654  0.1541 -0.4681
 5095SOL    HW126747   1.624   4.605   3.868 -0.0796  1.3357  0.0992
 5095SOL    HW226748   1.685   4.710   3.778 -0.3412  0.6858  1.1248
 5096SOL     OW26749   2.262   1.462   3.878 -0.0991  0.1279 -0.3464
 5096SOL    HW126750   2.179   1.418   3.858  0.5772 -0.2926 -2.1608
 5096SOL    HW226751   2.248   1.497   3.966  1.1783 -0.0676 -0.0756
 5097SOL     OW26752   1.123   0.898   4.222  0.2889  0.0418 -0.6030
 5097SOL    HW126753   1.192   0.963   4.213 -0.1252  0.5042 -0.4495
 5097SOL    HW226754   1.160   0.819   4.182  0.6834 -0.2524  0.3380
 5098SOL     OW26755   1.027   3.153   4.385 -0.2910 -0.2597  0.0040
 5098SOL    HW126756   1.025   3.117   4.297  0.2350 -0.3606  0.0356
 5098SOL    HW226757   0.962   3.098   4.429 -1.0886 -0.2922 -1.2292
 5099SOL     OW26758   3.486   2.771  12.833  0.4721 -0.3873  0.0945
 5099SOL    HW126759   3.394   2.771  12.859  1.2668 -3.2794  2.8572
 5099SOL    HW226760   3.478   2.724  12.750 -1.1197 -0.5168  0.3103
 5100SOL     OW26761   1.502   1.084   7.559 -0.6205 -0.2654 -0.3720
 5100SOL    HW126762   1.411   1.103   7.582  0.1976 -0.5687  3.1182
 5100SOL    HW226763   1.523   1.138   7.483 -0.6910  0.5313  0.1755
 5101SOL     OW26764   0.234   2.930  14.408 -0.5959  0.0440 -0.1819
 5101SOL    HW126765   0.177   2.909  14.334 -4.1373 -1.1535  2.8809
 5101SOL    HW226766   0.319   2.934  14.364 -0.5279  2.6184  0.1533
 5102SOL     OW26767   4.646   1.175  15.938 -0.4582  0.3959  0.2118
 5102SOL    HW126768   4.701   1.107  15.901 -1.8110 -1.5706  1.8358
 5102SOL    HW226769   4.555   1.147  15.925 -1.2211  3.4916 -1.2875
 5103SOL     OW26770   1.653   0.294   4.166  0.0359  0.1890 -0.6603
 5103SOL    HW126771   1.624   0.293   4.075  0.9424  0.9428 -0.9616
 5103SOL    HW226772   1.576   0.286   4.223 -0.2552  1.0824 -0.9348
 5104SOL     OW26773   4.639   2.133   4.920  0.2325  0.3203  0.0970
 5104SOL    HW126774   4.589   2.157   4.998 -0.9134 -1.2333 -0.1397
 5104SOL    HW226775   4.696   2.209   4.916  0.4141  0.0812 -1.6633
 5105SOL     OW26776   2.457   3.776  16.161  0.6785 -0.3470  0.1254
 5105SOL    HW126777   2.524   3.749  16.099  0.4383 -0.9561  0.1254
 5105SOL    HW226778   2.468   3.708  16.228  2.0101 -0.4121 -0.1694
 5106SOL     OW26779   2.569   2.669   8.548  0.6238  0.2608 -0.2038
 5106SOL    HW126780   2.657   2.634   8.557  0.2738 -0.4148  0.6418
 5106SOL    HW226781   2.556   2.670   8.453 -0.6672 -0.8713 -0.0482
 5107SOL     OW26782   0.212   0.009   6.836  0.3616  0.7534 -0.1073
 5107SOL    HW126783   0.210   0.105   6.842  1.1725  0.5958  2.2991
 5107SOL    HW226784   0.118   4.715   6.842  0.3385  0.7576 -0.4478
 5108SOL     OW26785   4.349   1.143   6.143  0.6753 -0.0431 -0.1185
 5108SOL    HW126786   4.410   1.103   6.082 -2.2795 -1.5121 -2.1089
 5108SOL    HW226787   4.409   1.203   6.187 -0.4753  2.0458 -1.3878
 5109SOL     OW26788   2.113   1.200   5.947 -0.6183  0.2730  0.0182
 5109SOL    HW126789   2.125   1.192   5.852  0.0952  1.1691  0.0329
 5109SOL    HW226790   2.198   1.243   5.960 -0.1494 -0.5328 -0.3593
 5110SOL     OW26791   0.578   4.564   7.404  0.4488 -0.3334 -0.1461
 5110SOL    HW126792   0.594   4.629   7.471 -2.9284  0.9740 -0.6242
 5110SOL    HW226793   0.483   4.560   7.411  0.4517 -1.0444 -0.4527
 5111SOL     OW26794   3.735   1.861   1.246 -0.0707  0.3543 -0.4432
 5111SOL    HW126795   3.719   1.890   1.336  1.2462 -0.5322  0.0639
 5111SOL    HW226796   3.681   1.929   1.206  0.1160  0.2959 -0.7923
 5112SOL     OW26797   1.169   2.405   1.632  0.2835 -0.0672 -0.3558
 5112SOL    HW126798   1.152   2.491   1.670  0.2853 -0.6920  1.0632
 5112SOL    HW226799   1.151   2.355   1.711  1.9154 -1.2214 -0.7137
 5113SOL     OW26800   1.931   0.791   9.223  0.1384 -0.4780 -0.3062
 5113SOL    HW126801   1.916   0.868   9.278 -0.6794  1.2905 -2.9729
 5113SOL    HW226802   1.844   0.764   9.194 -0.6848  1.9162 -0.0607
 5114SOL     OW26803   4.202   2.331   7.200 -0.1163 -0.1602  0.5047
 5114SOL    HW126804   4.265   2.275   7.154  0.3596 -0.4590  1.5163
 5114SOL    HW226805   4.230   2.416   7.164  0.7444 -0.3415  0.7472
 5115SOL     OW26806   4.641   3.536   1.276 -0.5834  0.2689  0.4448
 5115SOL    HW126807   0.004   3.573   1.279 -0.2012 -0.6995  1.0254
 5115SOL    HW226808   4.597   3.590   1.342 -2.7139  0.5000 -1.1400
 5116SOL     OW26809   2.769   3.382   9.392 -0.2714  0.3258  0.0126
 5116SOL    HW126810   2.699   3.338   9.343 -0.0325 -0.8593  0.7337
 5116SOL    HW226811   2.821   3.302   9.402 -0.8103  0.2216  1.9340
 5117SOL     OW26812   3.449   2.524  16.123  0.2342 -0.6589  0.7434
 5117SOL    HW126813   3.432   2.503  16.031  2.5046 -2.5276  0.7576
 5117SOL    HW226814   3.486   2.611  16.107 -0.4879  0.1682  3.6911
 5118SOL     OW26815   1.318   1.772  13.230  0.1706 -0.0410  0.6338
 5118SOL    HW126816   1.268   1.743  13.154  1.2833 -1.7438  0.5515
 5118SOL    HW226817   1.388   1.819  13.185  0.1872  0.2671  0.9835
 5119SOL     OW26818   3.858   2.746   8.608  0.2173  0.5423 -0.0710
 5119SOL    HW126819   3.770   2.723   8.578 -0.4782 -0.0794  2.4869
 5119SOL    HW226820   3.831   2.810   8.674 -0.9125  0.9235 -0.8830
 5120SOL     OW26821   1.207   1.197   8.965  0.4773  0.6031 -0.0344
 5120SOL    HW126822   1.250   1.111   8.959 -0.0248  0.3916 -0.6242
 5120SOL    HW226823   1.267   1.240   9.027  0.3789 -0.8511  1.0752
 5121SOL     OW26824   1.207   2.107   6.051 -0.1788  1.0050 -0.8861
 5121SOL    HW126825   1.211   2.012   6.059  0.2444  1.0987 -0.0086
 5121SOL    HW226826   1.207   2.109   5.955  0.9836  1.2060 -0.8854
 5122SOL     OW26827   3.823   3.907  17.493  0.5500 -0.4356  0.3938
 5122SOL    HW126828   3.878   3.953  17.429  0.3385 -1.6422 -0.6491
 5122SOL    HW226829   3.819   3.815  17.466 -1.0943 -0.1594 -0.2791
 5123SOL     OW26830   1.586   0.164  12.094 -0.5037  0.0370 -0.1475
 5123SOL    HW126831   1.530   0.226  12.048 -1.6295 -0.5210  0.4556
 5123SOL    HW226832   1.622   0.121  12.017  0.3758 -1.9406  1.3822
 5124SOL     OW26833   1.662   2.882   1.565  0.1749 -0.0356  0.4162
 5124SOL    HW126834   1.749   2.842   1.556 -0.5008 -1.5926  0.9364
 5124SOL    HW226835   1.602   2.809   1.551  0.7204 -0.2895 -0.6083
 5125SOL     OW26836   1.854   3.242   2.255  0.0741  0.8838  0.1526
 5125SOL    HW126837   1.829   3.153   2.232  0.8486  0.3249  1.4872
 5125SOL    HW226838   1.942   3.240   2.218 -0.8037 -1.4181 -1.8008
 5126SOL     OW26839   2.315   4.562   4.913  0.2123 -0.1642  0.4005
 5126SOL    HW126840   2.300   4.628   4.845  0.4137  0.3806  0.8961
 5126SOL    HW226841   2.255   4.583   4.984 -1.4669  0.3408 -1.1627
 5127SOL     OW26842   0.096   2.143   7.771 -0.0714  0.3614  0.7778
 5127SOL    HW126843   0.009   2.121   7.805  1.3401 -0.7101  3.7391
 5127SOL    HW226844   0.064   2.214   7.715  1.8725  1.4066  1.0059
 5128SOL     OW26845   1.166   1.775   4.134 -0.2642  0.3825 -0.1293
 5128SOL    HW126846   1.143   1.850   4.189 -1.7739  0.4424 -0.8261
 5128SOL    HW226847   1.080   1.732   4.131  1.1623 -2.4653  0.0714
 5129SOL     OW26848   3.576   3.009  12.928 -0.9027 -0.2521 -0.3999
 5129SOL    HW126849   3.671   3.020  12.924 -0.6153 -2.3669  0.9352
 5129SOL    HW226850   3.566   2.922  12.890  0.0023 -1.2564  1.7065
 5130SOL     OW26851   4.582   1.972   2.747  0.1080  0.5212 -0.4550
 5130SOL    HW126852   4.570   2.023   2.667  0.8373  2.3162  0.5957
 5130SOL    HW226853   4.611   1.892   2.703 -0.0382  0.9920 -1.3905
 5131SOL     OW26854   2.912   1.154   1.369  0.4309 -0.2451 -0.4494
 5131SOL    HW126855   2.824   1.138   1.403  1.9346 -1.5539  2.8182
 5131SOL    HW226856   2.969   1.124   1.440  0.6791 -2.0854 -1.4181
 5132SOL     OW26857   0.613   2.349   8.578 -0.3109 -0.0575  0.8084
 5132SOL    HW126858   0.568   2.277   8.621  0.2925  0.0069  1.5487
 5132SOL    HW226859   0.632   2.321   8.488  0.5699  1.5311  0.5012
 5133SOL     OW26860   3.897   3.601  12.629  0.1490  0.0936 -0.0588
 5133SOL    HW126861   3.952   3.625  12.704 -1.8185  1.4934  0.9362
 5133SOL    HW226862   3.834   3.539  12.665  1.4510 -1.5862 -0.6627
 5134SOL     OW26863   3.901   2.923   2.894 -0.3369  0.3896 -0.8229
 5134SOL    HW126864   3.806   2.911   2.900 -0.2232  0.7220  1.7385
 5134SOL    HW226865   3.931   2.858   2.831  1.6523 -0.0959  0.6016
 5135SOL     OW26866   2.880   4.483   8.619  0.8146 -0.0244 -0.3362
 5135SOL    HW126867   2.828   4.550   8.575 -0.9982 -1.3677 -0.2127
 5135SOL    HW226868   2.884   4.408   8.561  0.5512 -0.6648  0.4762
 5136SOL     OW26869   1.701   0.057   8.960  0.1818 -0.4926 -0.6188
 5136SOL    HW126870   1.734   0.021   9.042 -1.9771 -0.8409  0.1180
 5136SOL    HW226871   1.758   0.133   8.964  1.0328 -1.1459 -0.4271
 5137SOL     OW26872   4.296   3.409   2.303 -0.0382 -0.1556 -0.1171
 5137SOL    HW126873   4.388   3.407   2.331  0.9108  1.2405 -3.1696
 5137SOL    HW226874   4.269   3.483   2.357 -1.7445 -1.3289  0.6297
 5138SOL     OW26875   4.474   4.659   4.051  0.5042  0.2297 -0.2609
 5138SOL    HW126876   4.512   4.582   4.008  0.8421 -0.2880  0.9648
 5138SOL    HW226877   4.504   0.002   3.990 -0.5230 -0.1561 -1.2008
 5139SOL     OW26878   3.561   2.158   7.902 -0.1534  0.2556  0.0973
 5139SOL    HW126879   3.580   2.174   7.810  0.7276 -0.0959  0.2188
 5139SOL    HW226880   3.644   2.126   7.937  0.2421  0.3928 -0.7321
 5140SOL     OW26881   2.953   2.083  12.278 -0.0219 -0.0056  0.0363
 5140SOL    HW126882   3.031   2.032  12.259  1.2002  1.7255  0.3439
 5140SOL    HW226883   2.984   2.153  12.337  3.7432  0.0970 -2.0800
 5141SOL     OW26884   2.218   2.434  10.054 -0.1808  0.0014  0.1617
 5141SOL    HW126885   2.225   2.529  10.059 -1.4492  0.1997 -1.7015
 5141SOL    HW226886   2.260   2.405  10.135  1.9796  1.7052 -0.3668
 5142SOL     OW26887   0.610   4.645   5.909  0.5205  0.3838  0.1069
 5142SOL    HW126888   0.580   4.653   6.000 -2.3262  0.4868 -0.8351
 5142SOL    HW226889   0.697   4.683   5.916  0.4483  0.9443 -2.0718
 5143SOL     OW26890   2.514   0.340   5.881  0.5569 -0.0793 -0.3508
 5143SOL    HW126891   2.542   0.399   5.811 -1.9975 -0.7769 -1.9582
 5143SOL    HW226892   2.504   0.410   5.946 -1.2837  1.4298 -2.2598
 5144SOL     OW26893   0.199   3.692   0.954  0.7124 -0.1729  0.1820
 5144SOL    HW126894   0.188   3.745   0.875 -1.9671  0.8204  1.2052
 5144SOL    HW226895   0.133   3.732   1.010  1.0935 -0.3745  0.7756
 5145SOL     OW26896   2.362   0.468   4.476 -0.0251  0.4555  0.1144
 5145SOL    HW126897   2.410   0.398   4.430 -0.0694 -1.0248  2.3345
 5145SOL    HW226898   2.428   0.537   4.483  0.3581 -0.1960  2.9476
 5146SOL     OW26899   0.930   2.199   2.644  0.3794  0.0701  0.5422
 5146SOL    HW126900   0.856   2.138   2.642  1.3421 -1.1178  1.4788
 5146SOL    HW226901   0.900   2.245   2.723  1.4653  0.5845  0.6491
 5147SOL     OW26902   2.242   4.241  17.400 -0.2497  0.4051  0.4048
 5147SOL    HW126903   2.307   4.289  17.347 -0.0893 -0.5485 -0.2527
 5147SOL    HW226904   2.164   4.295  17.387 -1.1131 -0.6073  1.4928
 5148SOL     OW26905   2.361   2.718   2.863 -0.5515  0.0217  0.6121
 5148SOL    HW126906   2.404   2.635   2.885 -0.1209 -0.3456 -1.5581
 5148SOL    HW226907   2.278   2.672   2.857 -1.0115  0.9151  0.2276
 5149SOL     OW26908   3.219   1.213   0.690 -0.5398 -0.2780 -0.1247
 5149SOL    HW126909   3.315   1.208   0.690 -0.5802 -1.1220 -1.7735
 5149SOL    HW226910   3.203   1.179   0.778 -0.7023 -0.7362 -0.3286
 5150SOL     OW26911   2.289   2.501   2.304 -0.3691 -0.8635 -0.2772
 5150SOL    HW126912   2.294   2.442   2.380 -2.7757 -0.6916 -0.0013
 5150SOL    HW226913   2.381   2.522   2.287 -0.4722 -0.6126 -0.5256
 5151SOL     OW26914   1.621   0.840   3.811  0.2723  0.2786 -0.6447
 5151SOL    HW126915   1.653   0.919   3.768  1.2430 -0.1755 -0.7715
 5151SOL    HW226916   1.570   0.876   3.884  1.4905 -1.2211  0.9545
 5152SOL     OW26917   2.053   1.935   8.184  0.2266 -0.3855  0.9187
 5152SOL    HW126918   1.981   1.901   8.132 -0.8916  1.1685  1.4716
 5152SOL    HW226919   2.027   1.903   8.270  0.6332 -1.7235  0.5532
 5153SOL     OW26920   0.302   3.778  16.501 -0.4339  0.3473  0.3072
 5153SOL    HW126921   0.325   3.780  16.594 -1.1025  0.8548  0.4588
 5153SOL    HW226922   0.368   3.717  16.468  0.8591  1.6278  0.5203
 5154SOL     OW26923   4.078   0.667  15.934 -0.2054  0.3018 -0.0011
 5154SOL    HW126924   4.016   0.668  15.861  0.5526 -0.9416 -0.6721
 5154SOL    HW226925   4.037   0.721  16.001 -2.0357 -0.4990 -0.4747
 5155SOL     OW26926   4.208   1.785   1.603  0.0989 -0.1460  0.3149
 5155SOL    HW126927   4.239   1.824   1.521 -0.1347  0.4698  0.5162
 5155SOL    HW226928   4.291   1.752   1.637 -0.6406 -1.9604  0.3201
 5156SOL     OW26929   1.891   0.088   8.692 -0.5762 -0.0100 -0.3524
 5156SOL    HW126930   1.814   0.141   8.671 -1.1053 -1.7702 -2.8016
 5156SOL    HW226931   1.855   0.042   8.768  0.6295  4.3251  2.8812
 5157SOL     OW26932   2.685   2.648   9.560 -0.1403  0.5162 -0.1407
 5157SOL    HW126933   2.710   2.737   9.585  0.7346  0.5208 -0.9984
 5157SOL    HW226934   2.591   2.632   9.567 -0.1362  0.0822 -1.0490
 5158SOL     OW26935   3.802   4.345   3.828 -0.1966 -0.2007  0.6260
 5158SOL    HW126936   3.810   4.302   3.743  1.4000 -0.7824  1.0620
 5158SOL    HW226937   3.878   4.304   3.870  0.0933  0.2458  0.5430
 5159SOL     OW26938   4.644   0.779   6.491 -0.4331 -0.2589  0.6356
 5159SOL    HW126939   4.663   0.841   6.561 -2.0524  0.2995  0.5821
 5159SOL    HW226940   4.567   0.822   6.454  0.1525 -0.1824 -0.4930
 5160SOL     OW26941   3.847   0.720  10.467  0.4876  0.5981 -0.1173
 5160SOL    HW126942   3.898   0.734  10.547 -1.5723  1.0473  1.1106
 5160SOL    HW226943   3.801   0.641  10.494  2.0964 -0.6411 -1.0617
 5161SOL     OW26944   1.319   3.994   2.984 -0.2612  0.2271  0.3962
 5161SOL    HW126945   1.332   4.071   2.929  1.8686 -0.2415  0.2507
 5161SOL    HW226946   1.268   4.023   3.060  0.4196 -0.7807  1.2305
 5162SOL     OW26947   2.458   4.477  14.430  0.3799 -0.3757 -0.1761
 5162SOL    HW126948   2.418   4.515  14.507 -1.0085  0.5036 -1.3322
 5162SOL    HW226949   2.383   4.462  14.372  0.3153  1.1618 -0.4740
 5163SOL     OW26950   2.192   3.764   1.188 -0.1145 -0.9175 -0.1721
 5163SOL    HW126951   2.167   3.750   1.096  2.2817  0.9148 -1.1013
 5163SOL    HW226952   2.267   3.814   1.156 -1.6474  0.4844 -1.5884
 5164SOL     OW26953   1.552   2.316   7.702 -0.2809 -0.5645 -0.2408
 5164SOL    HW126954   1.550   2.363   7.619 -1.6371 -0.7860 -0.3220
 5164SOL    HW226955   1.504   2.382   7.752 -0.6460 -0.9202 -0.1235
 5165SOL     OW26956   1.678   0.694   8.465  0.4126  0.3979 -0.5359
 5165SOL    HW126957   1.713   0.773   8.424 -2.0128  0.6193 -2.1324
 5165SOL    HW226958   1.724   0.622   8.422 -0.5242 -1.1635  1.0867
 5166SOL     OW26959   0.989   4.551   5.599  0.7485  0.0907 -0.5332
 5166SOL    HW126960   0.910   4.539   5.545  0.9748  0.2203 -0.8887
 5166SOL    HW226961   1.009   4.644   5.599 -0.9843  0.4681 -0.2261
 5167SOL     OW26962   4.186   1.140   9.093  0.1823 -0.2089  0.1968
 5167SOL    HW126963   4.177   1.234   9.075  1.2594 -0.1496 -0.0187
 5167SOL    HW226964   4.279   1.140   9.114  0.3279 -0.3714 -0.4774
 5168SOL     OW26965   4.723   0.175  10.480 -0.3822  0.5066  0.3821
 5168SOL    HW126966   4.650   0.126  10.517 -0.7035 -1.5241 -2.8840
 5168SOL    HW226967   4.677   0.255  10.456  0.7746  0.9891 -0.2142
 5169SOL     OW26968   2.588   1.658   8.414  0.4110  0.6258  0.3178
 5169SOL    HW126969   2.589   1.567   8.385  2.5260  0.8723 -0.3782
 5169SOL    HW226970   2.627   1.658   8.501  0.7216 -0.6924  0.1760
 5170SOL     OW26971   2.220   0.179   8.516  0.1325  0.0790 -0.0599
 5170SOL    HW126972   2.257   0.205   8.600  0.5765 -0.0108 -0.2222
 5170SOL    HW226973   2.297   0.193   8.461 -1.2273  0.6948 -1.7996
 5171SOL     OW26974   1.926   1.400   8.271 -0.2281  0.1781  0.1143
 5171SOL    HW126975   1.924   1.312   8.232  3.2704 -0.5989  1.7263
 5171SOL    HW226976   1.889   1.384   8.357 -0.2852  1.2213  0.2786
 5172SOL     OW26977   3.552   2.527   3.654  0.3482  0.1705  0.2942
 5172SOL    HW126978   3.629   2.482   3.621 -0.3196 -0.6163 -0.1804
 5172SOL    HW226979   3.487   2.467   3.617  2.7552 -1.1127 -1.8088
 5173SOL     OW26980   1.671   1.812  10.940  0.0126  0.1636  0.3692
 5173SOL    HW126981   1.665   1.852  10.853 -0.5430 -2.1473 -0.6389
 5173SOL    HW226982   1.698   1.727  10.908 -0.5345 -0.2578  1.0187
 5174SOL     OW26983   0.400   4.059  14.924  0.3835  0.0589 -0.3840
 5174SOL    HW126984   0.479   4.031  14.877  0.6678  0.5026 -0.1727
 5174SOL    HW226985   0.335   4.002  14.883 -0.1411 -0.4942  1.1951
 5175SOL     OW26986   1.522   0.413   1.015  0.6056 -0.1586  0.2334
 5175SOL    HW126987   1.453   0.414   1.081 -0.5535 -1.5605 -0.9511
 5175SOL    HW226988   1.537   0.319   1.007 -0.2065 -0.1822 -1.0076
 5176SOL     OW26989   4.329   1.323  17.438  0.1503 -0.5671 -0.1650
 5176SOL    HW126990   4.292   1.401  17.397  1.2418  0.4556  0.8022
 5176SOL    HW226991   4.317   1.254  17.372  1.4514 -2.1594  1.2648
 5177SOL     OW26992   4.657   1.692   4.514 -0.6673 -0.3208 -0.4174
 5177SOL    HW126993   4.714   1.730   4.448  1.0086  0.8778  1.6990
 5177SOL    HW226994   4.705   1.705   4.596 -0.7013  2.3188 -0.8337
 5178SOL     OW26995   3.064   4.511   9.462 -0.0532  0.0554 -0.4631
 5178SOL    HW126996   3.027   4.524   9.375  0.6433  3.1034 -0.3060
 5178SOL    HW226997   2.990   4.526   9.520 -0.8550  2.0867 -2.0100
 5179SOL     OW26998   4.224   1.598  13.049  0.0177 -0.5415  0.2508
 5179SOL    HW126999   4.192   1.675  13.096 -0.9931 -0.5028 -0.4991
 5179SOL    HW227000   4.310   1.590  13.090 -0.6451 -0.3978  1.6915
 5180SOL     OW27001   0.466   3.050   2.030  0.7234 -0.4602 -0.0638
 5180SOL    HW127002   0.432   2.977   1.978  0.2100  0.8003 -1.4842
 5180SOL    HW227003   0.427   3.130   1.994 -0.5170 -0.4737  1.2467
 5181SOL     OW27004   1.675   3.429   2.121  0.4158  0.6042  0.1214
 5181SOL    HW127005   1.622   3.429   2.201 -0.1622 -2.3801 -0.2685
 5181SOL    HW227006   1.736   3.358   2.140 -1.0627 -0.0963  2.2915
 5182SOL     OW27007   2.187   1.927   5.784  0.0802  0.6251  0.3871
 5182SOL    HW127008   2.114   1.924   5.845 -0.2300  1.2689  0.0474
 5182SOL    HW227009   2.161   2.001   5.729  1.5569  0.7201 -0.1813
 5183SOL     OW27010   3.903   2.959   3.754  0.8698 -0.7366  0.2115
 5183SOL    HW127011   3.924   3.051   3.766  1.6192 -0.4420 -3.1526
 5183SOL    HW227012   3.851   2.963   3.674  2.2891 -0.8389 -0.7165
 5184SOL     OW27013   3.704   3.293   3.545  0.3587 -0.4215  0.3028
 5184SOL    HW127014   3.654   3.356   3.596 -0.0353 -0.8707  0.4780
 5184SOL    HW227015   3.771   3.342   3.498  0.1787 -0.1940  0.2850
 5185SOL     OW27016   1.827   1.842   1.675 -0.7227  0.2313  0.3387
 5185SOL    HW127017   1.917   1.817   1.654 -1.0839 -0.5188 -0.3242
 5185SOL    HW227018   1.777   1.820   1.596 -0.5377 -0.2437  0.3568
 5186SOL     OW27019   1.385   0.061  17.057  0.5411 -0.5918  0.2420
 5186SOL    HW127020   1.319   0.130  17.050  2.6266  1.4246  0.7988
 5186SOL    HW227021   1.345   0.012  17.129 -1.1529 -1.8816 -1.5552
 5187SOL     OW27022   1.031   3.011   6.441  0.1127 -0.1410 -0.1884
 5187SOL    HW127023   1.022   3.089   6.496  0.6868 -2.0545  2.5984
 5187SOL    HW227024   1.018   3.045   6.352  1.0078 -1.2069 -0.7199
 5188SOL     OW27025   2.088   1.304   4.635  0.2233 -0.3527 -0.3541
 5188SOL    HW127026   2.038   1.349   4.567 -0.4730 -0.6335 -0.0293
 5188SOL    HW227027   2.031   1.320   4.710 -1.8386 -0.6922 -1.8807
 5189SOL     OW27028   4.591   2.599  17.663  0.4353 -0.0482  0.0972
 5189SOL    HW127029   4.604   2.505  17.647  3.5684  0.6040 -1.1408
 5189SOL    HW227030   4.677   2.614   0.002  1.9554  0.4247 -3.5246
 5190SOL     OW27031   4.167   2.493   5.492  0.2388  0.3831 -0.4640
 5190SOL    HW127032   4.091   2.437   5.479 -0.0466  0.9276 -1.1635
 5190SOL    HW227033   4.220   2.444   5.554 -0.8254 -1.8816 -1.3674
 5191SOL     OW27034   0.548   0.215   5.587  0.7198  0.1511  0.1406
 5191SOL    HW127035   0.592   0.231   5.671  0.0325  2.4239  0.0677
 5191SOL    HW227036   0.476   0.155   5.607  1.1060  0.1809  1.6080
 5192SOL     OW27037   2.267   4.336  16.817 -0.2012 -0.0352  1.1021
 5192SOL    HW127038   2.178   4.350  16.847 -0.5251  0.0964  0.0925
 5192SOL    HW227039   2.314   4.297  16.891  0.4958  0.4671  0.9351
 5193SOL     OW27040   3.169   2.804   7.860 -0.0905  0.0460 -0.1926
 5193SOL    HW127041   3.186   2.891   7.896  2.2862 -0.6964  0.4607
 5193SOL    HW227042   3.141   2.833   7.773 -1.7578  0.5242  0.5015
 5194SOL     OW27043   2.685   3.318   6.289 -0.3489 -0.1613  0.2434
 5194SOL    HW127044   2.659   3.404   6.256 -0.3808 -0.1402  0.3215
 5194SOL    HW227045   2.658   3.335   6.380  0.9503  1.9314  0.2275
 5195SOL     OW27046   1.690   1.564   0.197  0.3540  0.3236 -0.9624
 5195SOL    HW127047   1.748   1.540   0.269 -1.7049  1.4707  1.0889
 5195SOL    HW227048   1.699   1.485   0.145 -0.9984 -2.3070  2.8295
 5196SOL     OW27049   1.684   2.269   8.519  0.0424  0.4593  0.0685
 5196SOL    HW127050   1.768   2.309   8.495  1.2125 -1.8737  0.2510
 5196SOL    HW227051   1.682   2.260   8.614 -0.5414 -3.7539 -0.3078
 5197SOL     OW27052   2.812   0.566  13.573 -0.2298  0.0585 -0.1999
 5197SOL    HW127053   2.729   0.525  13.549  0.4692 -0.5326 -1.6272
 5197SOL    HW227054   2.791   0.658  13.557  0.3103  0.1558 -0.3766
 5198SOL     OW27055   4.548   3.628   5.053 -0.1199 -0.5094  0.0478
 5198SOL    HW127056   4.586   3.566   4.991  0.5710 -0.0411  0.0019
 5198SOL    HW227057   4.540   3.699   4.990 -1.0008 -0.9881 -0.3735
 5199SOL     OW27058   1.090   0.916  12.059  0.1521 -0.3705  0.1606
 5199SOL    HW127059   1.120   1.006  12.049  0.4051 -0.1003  3.3068
 5199SOL    HW227060   1.095   0.918  12.155  0.7461  2.2819  0.0886
 5200SOL     OW27061   2.446   0.022   6.660 -0.2418  0.1317  0.3674
 5200SOL    HW127062   2.522   0.079   6.652 -0.2087 -0.0933 -0.8822
 5200SOL    HW227063   2.407   0.009   6.574  1.4082 -0.8679 -0.2424
 5201SOL     OW27064   0.233   0.424   7.280  0.3137  0.0802 -0.2316
 5201SOL    HW127065   0.325   0.439   7.260  0.1403  0.6674 -0.6013
 5201SOL    HW227066   0.217   0.495   7.342  0.6379  0.4660 -0.5883
 5202SOL     OW27067   3.447   1.388   9.312  0.2574 -0.3839 -0.1728
 5202SOL    HW127068   3.368   1.407   9.362  1.6311 -0.0637  1.8819
 5202SOL    HW227069   3.472   1.297   9.326 -0.9271 -1.2031 -3.4210
 5203SOL     OW27070   3.487   0.944   7.561  0.3776  0.1008  0.1981
 5203SOL    HW127071   3.484   1.039   7.546  2.0242  0.5350  2.6510
 5203SOL    HW227072   3.491   0.938   7.656  0.6822  0.9953  0.2422
 5204SOL     OW27073   0.236   4.011   3.001 -0.4361  0.1836 -0.1755
 5204SOL    HW127074   0.189   4.050   3.075  2.4276  0.3889  1.5296
 5204SOL    HW227075   0.311   3.972   3.046 -0.0120  0.1337 -0.9299
 5205SOL     OW27076   2.607   3.658   5.578 -0.1677  0.3896 -0.3438
 5205SOL    HW127077   2.703   3.660   5.580 -0.1666  0.1298 -0.2140
 5205SOL    HW227078   2.601   3.751   5.558  1.1185  0.2529 -1.3981
 5206SOL     OW27079   2.298   4.278  13.121 -0.1202  0.0405 -0.4480
 5206SOL    HW127080   2.368   4.308  13.179 -0.3020 -1.3257  0.4825
 5206SOL    HW227081   2.289   4.189  13.155  2.0590  0.0393  0.1012
 5207SOL     OW27082   4.579   0.295   4.463 -0.3168 -0.1163 -0.0760
 5207SOL    HW127083   4.557   0.202   4.469  0.4190 -0.6025 -4.8364
 5207SOL    HW227084   4.542   0.307   4.375 -0.3748  0.3699  0.0201
 5208SOL     OW27085   1.045   2.968   3.542  0.3131 -0.7184 -0.6469
 5208SOL    HW127086   1.098   2.899   3.582 -1.2882 -1.0760  0.8212
 5208SOL    HW227087   1.087   3.049   3.570 -0.8430 -0.6781  0.9407
 5209SOL     OW27088   3.192   3.983   6.885  0.0558 -0.0434 -0.8460
 5209SOL    HW127089   3.174   3.889   6.876  0.1080 -0.2193  0.7157
 5209SOL    HW227090   3.133   4.015   6.817 -0.0878 -0.0644 -0.7318
 5210SOL     OW27091   3.065   3.354   8.779  0.6977 -0.2591  0.2622
 5210SOL    HW127092   2.999   3.421   8.795  0.4413 -0.4916  0.1852
 5210SOL    HW227093   3.070   3.324   8.870 -1.4100  2.0845  1.1225
 5211SOL     OW27094   4.039   1.407   5.913  0.2535  0.4169 -0.7342
 5211SOL    HW127095   4.070   1.367   5.995 -0.5857 -0.6664 -0.9478
 5211SOL    HW227096   4.060   1.336   5.853  1.8684 -1.6205  2.2304
 5212SOL     OW27097   1.183   2.795   3.696 -0.0880 -0.2150 -0.1343
 5212SOL    HW127098   1.262   2.845   3.678 -0.3434  0.9030  1.8500
 5212SOL    HW227099   1.214   2.705   3.694 -0.2033 -0.2408 -0.5899
 5213SOL     OW27100   0.764   0.951   2.461 -0.2660 -0.5791  0.0709
 5213SOL    HW127101   0.814   0.876   2.428 -0.4566 -1.6040  2.1061
 5213SOL    HW227102   0.683   0.960   2.412 -0.9523  2.2517  1.7683
 5214SOL     OW27103   1.812   3.456   2.589 -0.0925  0.4379  0.0479
 5214SOL    HW127104   1.836   3.515   2.660  2.3313 -1.9241  1.1701
 5214SOL    HW227105   1.738   3.498   2.546 -0.5137  1.6417  2.0021
 5215SOL     OW27106   0.380   2.793   3.720 -1.3042 -0.4552  0.5573
 5215SOL    HW127107   0.465   2.761   3.749 -2.1984 -0.4450  3.2722
 5215SOL    HW227108   0.403   2.843   3.642  1.5643 -2.8027 -0.0821
 5216SOL     OW27109   2.082   3.541   2.975 -0.1868 -0.1090  0.4563
 5216SOL    HW127110   2.098   3.450   3.000  0.7405  0.4379  1.8463
 5216SOL    HW227111   2.001   3.530   2.924  0.3101 -2.6404  0.2525
 5217SOL     OW27112   3.545   4.519   9.795 -0.4350 -0.5472  0.2422
 5217SOL    HW127113   3.603   4.494   9.723 -2.4421 -1.4582 -1.0536
 5217SOL    HW227114   3.502   4.594   9.755  1.3100  0.1224 -0.3829
 5218SOL     OW27115   0.911   0.151   7.463 -0.0315 -0.3296  0.2802
 5218SOL    HW127116   0.816   0.144   7.462  0.0089 -0.8011 -0.3723
 5218SOL    HW227117   0.934   0.169   7.372  1.2989 -0.9773  0.4813
 5219SOL     OW27118   4.639   0.614  11.961 -0.4034 -0.0291 -0.3283
 5219SOL    HW127119   4.624   0.708  11.971  2.8264  0.5533 -0.8243
 5219SOL    HW227120   4.724   0.616  11.918  0.0881  0.7369  0.6812
 5220SOL     OW27121   2.597   3.116   4.039 -0.4183  0.4720  0.5150
 5220SOL    HW127122   2.596   3.055   3.965 -0.6365  1.9968 -0.7572
 5220SOL    HW227123   2.507   3.149   4.037 -1.0863 -1.4532 -1.2465
 5221SOL     OW27124   1.229   4.329   7.101 -0.0091  0.2177  0.2371
 5221SOL    HW127125   1.281   4.251   7.121  0.5775  1.1078  2.1820
 5221SOL    HW227126   1.232   4.384   7.179 -2.2161 -2.8232  2.4568
 5222SOL     OW27127   4.216   3.018   6.179 -0.3083  0.6640  0.0540
 5222SOL    HW127128   4.259   3.099   6.152  0.6223  0.3020  0.4789
 5222SOL    HW227129   4.189   2.984   6.094  0.6367  1.0448 -0.3976
 5223SOL     OW27130   3.449   4.253   4.621 -0.3505  0.6308 -0.6027
 5223SOL    HW127131   3.431   4.289   4.535  1.7721 -1.2589 -1.8535
 5223SOL    HW227132   3.407   4.167   4.624  0.6248  0.1751  0.4440
 5224SOL     OW27133   0.019   3.593   6.601 -0.8085  0.1267 -0.1444
 5224SOL    HW127134   0.018   3.656   6.529  0.0439 -1.3505 -1.4621
 5224SOL    HW227135   0.092   3.623   6.654 -2.2550 -1.6438  2.8149
 5225SOL     OW27136   3.905   3.209   4.229 -0.3101 -0.0229 -0.5675
 5225SOL    HW127137   3.854   3.284   4.257  1.1855  0.2756  1.3848
 5225SOL    HW227138   3.868   3.196   4.142  0.5678 -4.8913 -0.2402
 5226SOL     OW27139   2.338   1.203   4.850 -0.0802 -0.1965  0.4099
 5226SOL    HW127140   2.300   1.146   4.782  2.1796  0.0339 -1.0254
 5226SOL    HW227141   2.292   1.173   4.928  0.0994  0.5622  0.8037
 5227SOL     OW27142   2.193   3.891  13.483 -0.3221  0.5095  0.4011
 5227SOL    HW127143   2.262   3.887  13.549 -0.2908  0.1547  0.3472
 5227SOL    HW227144   2.133   3.958  13.516  0.1055 -0.4432  3.0859
 5228SOL     OW27145   3.256   0.800   2.959 -0.5314 -0.1355 -0.1130
 5228SOL    HW127146   3.189   0.775   2.895  0.1178  2.1365 -1.6872
 5228SOL    HW227147   3.231   0.891   2.974 -2.0844 -0.7687  1.1976
 5229SOL     OW27148   4.401   3.599   3.445 -0.5084 -0.5576 -0.2332
 5229SOL    HW127149   4.447   3.584   3.528  0.6103 -3.2668 -1.3537
 5229SOL    HW227150   4.390   3.508   3.418  0.9541 -0.7688 -0.0790
 5230SOL     OW27151   3.639   1.221  15.190  0.0280  0.8957 -0.2987
 5230SOL    HW127152   3.679   1.308  15.191 -2.7962  2.2066 -2.5418
 5230SOL    HW227153   3.680   1.176  15.264  0.0399 -0.5088 -1.1509
 5231SOL     OW27154   0.230   4.610   2.179  0.4483  0.4948  0.7394
 5231SOL    HW127155   0.236   4.542   2.246 -0.1451 -1.8763 -1.5926
 5231SOL    HW227156   0.309   4.591   2.128  0.1953  0.0912  0.4962
 5232SOL     OW27157   1.377   3.090  10.929 -0.3031  0.2430  0.1644
 5232SOL    HW127158   1.416   3.176  10.943  1.7459 -0.4716 -1.2495
 5232SOL    HW227159   1.437   3.032  10.976 -0.5444  1.0137  1.4267
 5233SOL     OW27160   2.314   3.928   2.064  0.6587 -0.3343  0.3173
 5233SOL    HW127161   2.361   3.944   1.982  2.6525  1.7022  1.8620
 5233SOL    HW227162   2.275   3.847   2.032 -0.3485  0.5353 -0.6824
 5234SOL     OW27163   2.842   1.131   9.398  0.0859  0.5083  0.1753
 5234SOL    HW127164   2.924   1.123   9.349  1.0750 -1.7764  2.1667
 5234SOL    HW227165   2.850   1.208   9.454 -0.2205  0.2358  0.5950
 5235SOL     OW27166   4.544   3.375  12.035  0.2338 -0.3266 -0.4873
 5235SOL    HW127167   4.629   3.343  12.004  0.0954 -1.2700  0.1072
 5235SOL    HW227168   4.506   3.290  12.059  0.9984  0.6261  3.9579
 5236SOL     OW27169   3.040   2.235   7.585  0.0671  0.3654  0.6109
 5236SOL    HW127170   3.072   2.242   7.495 -0.1055  0.7164  0.5740
 5236SOL    HW227171   3.084   2.155   7.613 -2.4034 -1.1841  0.0243
 5237SOL     OW27172   3.203   2.752   6.188 -0.0808  0.3716 -0.5887
 5237SOL    HW127173   3.158   2.812   6.248  1.5412 -0.3528  1.3813
 5237SOL    HW227174   3.217   2.674   6.242  2.2108 -0.0815 -1.8520
 5238SOL     OW27175   1.551   3.266   2.583 -0.2309 -0.1757  0.2819
 5238SOL    HW127176   1.603   3.208   2.638 -1.1351 -1.1443  0.1122
 5238SOL    HW227177   1.474   3.274   2.640 -1.8476 -3.2467 -1.4820
 5239SOL     OW27178   2.530   1.865   1.736 -0.3407  0.5493  0.3963
 5239SOL    HW127179   2.504   1.860   1.828  1.4979 -0.1528  0.8883
 5239SOL    HW227180   2.558   1.956   1.734  2.2341 -0.2076  1.3977
 5240SOL     OW27181   1.303   1.125   4.114 -0.1524 -0.4520 -0.2411
 5240SOL    HW127182   1.378   1.175   4.148 -1.4691  2.3769 -1.4670
 5240SOL    HW227183   1.278   1.191   4.050  0.3652  0.2093  0.2283
 5241SOL     OW27184   3.861   3.389   6.340  0.3824  0.2313  0.3729
 5241SOL    HW127185   3.882   3.296   6.340  2.5746  0.7200 -1.6108
 5241SOL    HW227186   3.830   3.402   6.250 -0.6819  1.5633  0.9124
 5242SOL     OW27187   0.424   0.311   0.963  0.3750 -0.4543  0.7291
 5242SOL    HW127188   0.481   0.340   0.892 -0.9244  0.6565  0.1351
 5242SOL    HW227189   0.473   0.237   0.998  0.2472 -0.4631  0.8930
 5243SOL     OW27190   3.343   3.294   8.162  0.2917 -0.0914 -0.3965
 5243SOL    HW127191   3.423   3.333   8.198  0.5344 -1.8985  1.0205
 5243SOL    HW227192   3.310   3.264   8.246  0.7513 -2.3484 -1.0203
 5244SOL     OW27193   2.711   1.323   2.519 -0.3913  0.6541 -0.3737
 5244SOL    HW127194   2.700   1.241   2.471 -0.0039  0.5563 -0.2902
 5244SOL    HW227195   2.661   1.387   2.468 -0.7811  0.7825  0.1760
 5245SOL     OW27196   1.115   3.971   6.769  0.1783  0.1603  0.2523
 5245SOL    HW127197   1.095   3.895   6.823  0.2890 -0.5216 -0.6745
 5245SOL    HW227198   1.100   4.042   6.832 -0.2111  0.9746 -0.7536
 5246SOL     OW27199   4.672   1.755   9.655  0.5075 -0.3104 -0.2103
 5246SOL    HW127200   4.631   1.690   9.712  0.4729  0.4141  0.5951
 5246SOL    HW227201   4.657   1.724   9.566  0.0119 -0.7894  0.0445
 5247SOL     OW27202   1.975   0.727   7.179 -0.3445  0.4079  0.3913
 5247SOL    HW127203   2.068   0.735   7.203  0.2597  1.4655 -2.3542
 5247SOL    HW227204   1.959   0.634   7.166 -0.4160  0.3656  0.7857
 5248SOL     OW27205   2.634   0.830  11.202  0.2342  0.5857  0.5102
 5248SOL    HW127206   2.719   0.812  11.161  0.0135 -0.3248  0.4738
 5248SOL    HW227207   2.607   0.904  11.147  1.6104  1.0717  0.4682
 5249SOL     OW27208   0.316   2.242  14.473 -0.2498 -0.4034  0.1878
 5249SOL    HW127209   0.391   2.213  14.422  0.8637  0.1043  1.5323
 5249SOL    HW227210   0.341   2.213  14.561  0.3755  2.1199  0.8402
 5250SOL     OW27211   4.048   1.791   1.255 -0.1973 -0.0778  0.1447
 5250SOL    HW127212   3.957   1.814   1.243  0.0111  0.1314 -0.9757
 5250SOL    HW227213   4.084   1.860   1.311 -0.7444  1.2525 -1.1762
 5251SOL     OW27214   4.299   2.126  16.332 -0.2046  0.1541  0.4911
 5251SOL    HW127215   4.369   2.061  16.336 -1.4535 -1.1343  1.2443
 5251SOL    HW227216   4.304   2.168  16.418 -1.4420 -0.0631  0.6669
 5252SOL     OW27217   0.007   1.579   2.211  0.4849 -0.0886 -0.1460
 5252SOL    HW127218   4.659   1.533   2.168  0.4178  1.2349 -1.4337
 5252SOL    HW227219   4.693   1.666   2.220  0.6790 -0.1318  1.1731
 5253SOL     OW27220   1.692   2.933   4.953  0.2140 -0.2469 -0.0591
 5253SOL    HW127221   1.730   2.951   5.039 -0.1465  1.4824 -0.2676
 5253SOL    HW227222   1.771   2.909   4.904  1.4009  0.1104  1.6553
 5254SOL     OW27223   3.646   4.472   4.678  0.4823  0.7332 -0.0400
 5254SOL    HW127224   3.607   4.455   4.764  1.8290 -3.3268 -0.2327
 5254SOL    HW227225   3.594   4.404   4.636  3.4847 -1.4826 -0.1874
 5255SOL     OW27226   1.709   1.865  11.212 -0.4273 -0.2164 -0.3889
 5255SOL    HW127227   1.695   1.863  11.118  0.1046 -0.1079 -0.4689
 5255SOL    HW227228   1.797   1.829  11.211 -0.3122  0.1455 -2.1754
 5256SOL     OW27229   1.465   3.981   7.369  0.4010  0.3604  0.0932
 5256SOL    HW127230   1.397   4.000   7.304  0.9266  0.8235 -0.3267
 5256SOL    HW227231   1.481   3.895   7.331  3.8892  0.2467  1.8057
 5257SOL     OW27232   0.751   4.216   4.422 -0.6903 -0.0134  0.2304
 5257SOL    HW127233   0.684   4.253   4.364  2.1216  1.0360 -2.3704
 5257SOL    HW227234   0.697   4.188   4.495 -0.7192 -1.2365 -0.2600
 5258SOL     OW27235   2.113   2.726  12.711 -0.0667  0.5387 -0.7355
 5258SOL    HW127236   2.186   2.741  12.652  0.6543 -1.8574 -0.4291
 5258SOL    HW227237   2.039   2.751  12.656  0.9564  0.4150 -2.1785
 5259SOL     OW27238   1.295   3.956   2.240  0.1879  0.4357  0.1365
 5259SOL    HW127239   1.311   3.993   2.326  4.1681 -0.4876 -0.2193
 5259SOL    HW227240   1.200   3.952   2.234 -0.0272  1.0789  3.7088
 5260SOL     OW27241   3.763   3.952   3.883 -0.2620 -0.5035  0.4539
 5260SOL    HW127242   3.702   3.986   3.949  1.3058 -0.3183  1.8180
 5260SOL    HW227243   3.810   3.886   3.934  0.1666  1.9900  3.3381
 5261SOL     OW27244   2.366   4.529   7.690 -0.1879 -0.2219 -0.5185
 5261SOL    HW127245   2.449   4.482   7.681  0.2307  0.4524 -0.1643
 5261SOL    HW227246   2.316   4.455   7.723 -1.2809 -0.4905 -2.7659
 5262SOL     OW27247   3.939   2.577   0.344 -0.0603 -0.0351  0.1176
 5262SOL    HW127248   4.018   2.553   0.297 -1.4263  0.8906 -2.6412
 5262SOL    HW227249   3.925   2.667   0.316  0.8379 -0.5678 -1.9839
 5263SOL     OW27250   1.743   0.958   3.111  0.1518  0.2507  0.5021
 5263SOL    HW127251   1.768   0.898   3.181 -1.3723  1.2208  1.8805
 5263SOL    HW227252   1.698   0.898   3.051 -0.3551  0.0692  1.0622
 5264SOL     OW27253   3.224   3.322   9.386 -0.0458  0.3381 -0.2259
 5264SOL    HW127254   3.136   3.287   9.398  1.0262 -1.2850  2.7803
 5264SOL    HW227255   3.277   3.252   9.424 -0.8376 -1.6075 -2.7141
 5265SOL     OW27256   1.215   2.039  14.522  0.3595  0.1334 -0.0422
 5265SOL    HW127257   1.293   2.086  14.550  0.9758 -0.9545  0.0366
 5265SOL    HW227258   1.157   2.115  14.535  2.5228  1.7157  0.2711
 5266SOL     OW27259   1.424   0.015   2.983 -0.6794 -0.1542  0.2118
 5266SOL    HW127260   1.363   0.087   2.998 -1.2047 -0.3739 -0.8526
 5266SOL    HW227261   1.378   4.665   2.945 -0.8451  0.4211 -0.7298
 5267SOL     OW27262   3.950   1.056  11.468  0.2040 -0.0221  0.1171
 5267SOL    HW127263   3.896   1.107  11.407  0.4758  0.4872  0.3077
 5267SOL    HW227264   3.958   1.118  11.540  0.8190  1.8355 -1.5378
 5268SOL     OW27265   4.473   0.133   1.054 -0.0685  0.1240  0.7927
 5268SOL    HW127266   4.528   0.096   1.123  0.0477  0.0175  0.6424
 5268SOL    HW227267   4.397   0.169   1.100 -0.4110  0.1935  0.1680
 5269SOL     OW27268   0.143   0.558   5.132 -0.6509 -0.1414 -0.4255
 5269SOL    HW127269   0.083   0.491   5.164  0.0303  0.6030  2.4340
 5269SOL    HW227270   0.086   0.589   5.062  1.1228  2.5383 -0.7144
 5270SOL     OW27271   1.317   3.389   7.891  0.2693 -0.6720  0.0786
 5270SOL    HW127272   1.262   3.319   7.929 -1.4658  1.6928  1.9304
 5270SOL    HW227273   1.262   3.443   7.835 -0.1265 -1.3000 -0.1487
 5271SOL     OW27274   0.600   0.666   4.421  0.1174  0.1351 -0.5079
 5271SOL    HW127275   0.540   0.696   4.490 -0.0692 -2.7288  0.5853
 5271SOL    HW227276   0.583   0.572   4.411 -0.7322  0.2153  0.1420
 5272SOL     OW27277   4.676   2.023   8.597 -0.4628 -0.0787  0.0957
 5272SOL    HW127278   4.693   2.108   8.557  1.3179  0.0621  1.1471
 5272SOL    HW227279   0.043   2.001   8.613 -1.0361 -2.3981  0.2211
 5273SOL     OW27280   1.523   0.565  13.870  0.1864  0.6726 -0.1621
 5273SOL    HW127281   1.568   0.504  13.928  0.9665  0.8266 -0.6088
 5273SOL    HW227282   1.501   0.506  13.799  2.7365 -0.9082  0.3923
 5274SOL     OW27283   3.864   1.968   6.977  0.1119 -0.0339 -0.2232
 5274SOL    HW127284   3.907   2.048   6.948  1.3982 -0.5488  0.2842
 5274SOL    HW227285   3.859   1.992   7.070 -1.6671  0.2843 -0.3967
 5275SOL     OW27286   2.265   2.055   4.495 -0.1549  0.1377  0.4747
 5275SOL    HW127287   2.269   1.961   4.510 -1.5978 -0.0769 -0.4982
 5275SOL    HW227288   2.180   2.075   4.457 -0.1926 -1.3464 -0.2273
 5276SOL     OW27289   4.192   2.637   7.382 -0.3716 -0.4265 -0.1788
 5276SOL    HW127290   4.267   2.579   7.390 -0.9716 -1.2415 -0.5202
 5276SOL    HW227291   4.142   2.603   7.456 -1.7045 -0.9268 -1.3264
 5277SOL     OW27292   1.917   2.117   7.500  0.0768 -0.1833 -1.1842
 5277SOL    HW127293   1.824   2.096   7.514  0.6668 -1.7756  0.3449
 5277SOL    HW227294   1.920   2.167   7.419  1.8808  1.8489  0.1466
 5278SOL     OW27295   4.037   1.966   3.938 -0.0552  0.1246 -0.1019
 5278SOL    HW127296   3.958   1.989   3.889  0.7676  0.9556 -1.0160
 5278SOL    HW227297   4.095   1.953   3.863 -0.6524 -1.1575 -0.3573
 5279SOL     OW27298   2.284   0.623   3.313 -0.3215  0.6829  0.0723
 5279SOL    HW127299   2.344   0.634   3.239  0.8506 -1.2088  0.7328
 5279SOL    HW227300   2.316   0.696   3.366  0.3150  0.1728  0.4003
 5280SOL     OW27301   0.737   1.872   7.226  0.8036 -0.3036 -0.4138
 5280SOL    HW127302   0.788   1.802   7.266  1.6995  0.5987  0.0493
 5280SOL    HW227303   0.681   1.830   7.161  0.3066 -1.9576  1.0881
 5281SOL     OW27304   3.130   2.569   3.870 -0.0409  0.0282 -0.3680
 5281SOL    HW127305   3.171   2.485   3.851 -0.1568 -0.6736  2.6337
 5281SOL    HW227306   3.060   2.535   3.924  1.9067 -3.1521  0.1519
 5282SOL     OW27307   4.444   0.069   4.834 -1.0172  0.0097 -1.0690
 5282SOL    HW127308   4.372   0.012   4.860  1.6403 -1.7602  2.3292
 5282SOL    HW227309   4.511   0.008   4.803 -2.0284 -1.3194 -0.6119
 5283SOL     OW27310   2.436   3.798   8.033  0.2159 -0.1713 -0.1331
 5283SOL    HW127311   2.498   3.729   8.056 -1.1822 -1.8719 -1.4131
 5283SOL    HW227312   2.354   3.749   8.021 -0.9073  1.7520 -0.1865
 5284SOL     OW27313   0.220   4.320   8.205  0.3742 -0.4515 -0.2005
 5284SOL    HW127314   0.309   4.296   8.229 -0.3260 -2.8743  0.0515
 5284SOL    HW227315   0.192   4.380   8.274  1.9259 -0.7981  0.7198
 5285SOL     OW27316   3.404   2.973   5.700  0.0870  0.6153 -0.0788
 5285SOL    HW127317   3.373   2.921   5.775  0.1544  0.4146 -0.1888
 5285SOL    HW227318   3.407   3.060   5.739  0.4568  0.7579 -0.4284
 5286SOL     OW27319   1.266   2.101   3.196 -0.3122 -0.0936  0.2975
 5286SOL    HW127320   1.247   2.107   3.102  0.0265  1.3828  0.3185
 5286SOL    HW227321   1.327   2.031   3.217 -0.5000 -0.2061  0.4601
 5287SOL     OW27322   3.780   4.717   3.166  0.4833  0.3839 -0.3757
 5287SOL    HW127323   3.844   4.695   3.098  1.6378  0.1503  0.7930
 5287SOL    HW227324   3.736   4.633   3.164 -0.6172  1.0341 -3.3283
 5288SOL     OW27325   4.619   2.771   0.242 -0.1622  0.8487  0.3151
 5288SOL    HW127326   4.568   2.852   0.239 -1.3393  0.1790  2.9569
 5288SOL    HW227327   4.613   2.748   0.149  1.1618 -1.3137  0.7730
 5289SOL     OW27328   1.480   3.381   8.262  0.3445  0.4507 -0.1486
 5289SOL    HW127329   1.420   3.450   8.291 -1.5352 -1.3744  0.3681
 5289SOL    HW227330   1.430   3.311   8.304  0.7076 -0.0051 -0.4801
 5290SOL     OW27331   3.221   2.279  12.054  1.1653  0.4170  0.1162
 5290SOL    HW127332   3.264   2.227  11.986  2.6637  0.6084  0.8975
 5290SOL    HW227333   3.263   2.260  12.139  0.6164  0.4243  0.3857
 5291SOL     OW27334   1.861   1.232   5.805 -0.4173 -0.2684  0.8358
 5291SOL    HW127335   1.916   1.237   5.883  0.6180 -0.2522  0.1048
 5291SOL    HW227336   1.890   1.143   5.785  1.4046  0.0443  2.0317
 5292SOL     OW27337   3.567   2.837   0.991  0.4141 -0.0938 -0.6245
 5292SOL    HW127338   3.526   2.769   1.045  0.2689  0.3419 -0.1868
 5292SOL    HW227339   3.511   2.820   0.915 -1.4846  3.2060  0.0548
 5293SOL     OW27340   2.365   1.055   4.328  0.3164  0.4070  0.2507
 5293SOL    HW127341   2.408   1.002   4.396  2.0965 -0.1663 -1.3326
 5293SOL    HW227342   2.274   1.052   4.355  0.3915  1.3429  0.6210
 5294SOL     OW27343   0.472   2.133  13.974 -0.4105 -0.0969  0.0872
 5294SOL    HW127344   0.521   2.056  14.002 -0.3192  0.8695  2.6522
 5294SOL    HW227345   0.535   2.203  13.992  1.0890 -1.3896 -0.1397
 5295SOL     OW27346   1.603   3.856  14.686 -0.1888 -0.3537  0.6262
 5295SOL    HW127347   1.580   3.943  14.717 -2.2795 -1.3885  2.0311
 5295SOL    HW227348   1.670   3.833  14.750  0.4391  0.8478  0.3972
 5296SOL     OW27349   0.154   0.153   3.217  0.0359 -0.1236 -0.3119
 5296SOL    HW127350   0.187   0.213   3.284 -0.0600 -0.3355 -0.0715
 5296SOL    HW227351   0.243   0.135   3.185  0.2836  0.4295  0.0565
 5297SOL     OW27352   1.907   3.129   2.799 -0.0061 -0.7195  0.1344
 5297SOL    HW127353   1.909   3.152   2.706 -1.1895 -2.1640 -0.2454
 5297SOL    HW227354   1.974   3.062   2.790 -0.2774 -1.0929  0.9445
 5298SOL     OW27355   4.387   3.997   8.022  0.3788  0.0115  0.0498
 5298SOL    HW127356   4.357   4.079   7.983  0.8855  0.6078  0.9040
 5298SOL    HW227357   4.329   3.982   8.096 -0.5825 -1.1034 -0.9425
 5299SOL     OW27358   4.505   1.350   6.219  0.1596 -0.3649  0.6617
 5299SOL    HW127359   4.550   1.297   6.285 -1.3477 -0.2880  1.7422
 5299SOL    HW227360   4.522   1.436   6.257  2.0738 -0.0406 -0.9085
 5300SOL     OW27361   0.349   4.150   4.378  0.1676 -0.0445  0.1008
 5300SOL    HW127362   0.297   4.103   4.444  1.2337 -0.4899  0.6250
 5300SOL    HW227363   0.339   4.242   4.405 -2.7724 -0.0765 -0.8531
 5301SOL     OW27364   2.540   4.601  15.265 -0.0083  0.1587  0.7335
 5301SOL    HW127365   2.514   4.551  15.342 -2.3810 -0.2018 -0.3006
 5301SOL    HW227366   2.626   4.638  15.287  0.5397  1.2949 -3.1940
 5302SOL     OW27367   4.592   0.250  12.085 -0.2410  0.7187 -0.3898
 5302SOL    HW127368   4.632   0.190  12.022 -0.6999 -0.8876  0.8516
 5302SOL    HW227369   4.606   0.194  12.162 -0.6482  0.6533 -0.3672
 5303SOL     OW27370   1.192   1.681  17.155  0.3346  0.0276  0.1310
 5303SOL    HW127371   1.231   1.615  17.098  0.7425 -0.1296  0.5934
 5303SOL    HW227372   1.231   1.758  17.113 -1.8462  0.5782 -0.8939
 5304SOL     OW27373   4.027   0.296  16.192  0.0199  0.2491  0.0479
 5304SOL    HW127374   3.938   0.329  16.196  0.4347  1.1015  2.5198
 5304SOL    HW227375   4.041   0.276  16.099  0.7968 -1.3278  0.5163
 5305SOL     OW27376   2.810   4.465   6.707 -0.6676  0.1919 -0.4004
 5305SOL    HW127377   2.751   4.535   6.738  0.4963  1.0800 -0.1999
 5305SOL    HW227378   2.805   4.397   6.774  1.2737 -0.2106 -0.6610
 5306SOL     OW27379   0.694   4.368  14.285  0.2406  0.1257  0.1150
 5306SOL    HW127380   0.616   4.384  14.232 -0.7700 -2.0898  0.9453
 5306SOL    HW227381   0.660   4.356  14.374 -2.6135 -1.0627 -1.1345
 5307SOL     OW27382   3.579   3.870   0.006  0.3716 -1.2026  0.1778
 5307SOL    HW127383   3.528   3.811  17.650  0.5340 -0.6757 -0.5259
 5307SOL    HW227384   3.505   3.910   0.052 -0.0123  1.4238 -2.6966
 5308SOL     OW27385   2.793   3.861   4.364 -0.6233 -0.6361  0.1675
 5308SOL    HW127386   2.826   3.884   4.451 -0.2335 -0.1164 -0.1127
 5308SOL    HW227387   2.742   3.939   4.343  0.7643 -0.2092 -1.6282
 5309SOL     OW27388   4.138   1.476   4.743  0.1521  0.2299  0.5991
 5309SOL    HW127389   4.072   1.477   4.674  1.3318 -0.1631 -0.5495
 5309SOL    HW227390   4.208   1.429   4.697  0.4394 -0.8226  2.1220
 5310SOL     OW27391   1.267   0.560   5.270 -0.1519 -0.2025 -0.4804
 5310SOL    HW127392   1.200   0.574   5.336  1.2360  2.6365  0.3309
 5310SOL    HW227393   1.278   0.466   5.257 -1.1158 -0.3435 -0.2587
 5311SOL     OW27394   4.061   3.955   0.877  0.1800  0.2897  0.3450
 5311SOL    HW127395   3.997   4.012   0.835 -0.4832  0.5286  1.6981
 5311SOL    HW227396   4.130   3.954   0.811  0.3744 -1.9890  0.5605
 5312SOL     OW27397   0.434   0.731   2.205 -0.6208 -0.7395 -0.5370
 5312SOL    HW127398   0.524   0.721   2.175 -0.3917  2.0398 -0.7307
 5312SOL    HW227399   0.424   0.794   2.134  2.0345  0.7918  0.4279
 5313SOL     OW27400   0.104   2.364  15.742  0.4397  0.0365 -0.2426
 5313SOL    HW127401   0.199   2.363  15.753  0.3918 -0.0443  0.1759
 5313SOL    HW227402   0.098   2.383  15.648 -3.5242  1.0956  0.2132
 5314SOL     OW27403   0.080   0.838  15.421  0.1398  0.1566  0.0970
 5314SOL    HW127404   0.061   0.925  15.456 -0.1794  0.4342 -0.7402
 5314SOL    HW227405   0.029   0.848  15.340 -0.1458  2.0860  0.5157
 5315SOL     OW27406   2.750   4.006   1.874  0.5171 -0.2592 -0.0001
 5315SOL    HW127407   2.790   3.973   1.955  0.5253 -3.1142 -1.1813
 5315SOL    HW227408   2.670   3.956   1.866  1.7507 -2.2252 -0.0096
 5316SOL     OW27409   1.329   2.834   4.794  0.2923 -0.2481  0.1596
 5316SOL    HW127410   1.262   2.856   4.860  1.8986  1.2586  1.2826
 5316SOL    HW227411   1.270   2.793   4.730  1.6946 -1.1168 -0.5626
 5317SOL     OW27412   2.978   0.773   3.473 -0.3407 -0.1044  0.0853
 5317SOL    HW127413   3.032   0.751   3.398  0.5842  0.2745  0.6418
 5317SOL    HW227414   2.909   0.805   3.415 -0.5796 -1.1822 -0.2222
 5318SOL     OW27415   3.092   1.481   7.485  0.0282 -0.1282  0.1810
 5318SOL    HW127416   3.155   1.548   7.458 -0.1063  0.6707  1.8360
 5318SOL    HW227417   3.017   1.507   7.432 -1.0576 -2.3681  0.6290
 5319SOL     OW27418   2.254   4.291   2.462 -0.0889 -0.2692 -0.0910
 5319SOL    HW127419   2.215   4.341   2.391  0.7858 -1.1727 -1.2105
 5319SOL    HW227420   2.329   4.248   2.420 -0.4441 -1.2324  0.2613
 5320SOL     OW27421   0.671   2.959  14.469 -0.1957  0.3471 -0.1595
 5320SOL    HW127422   0.602   2.942  14.404  0.3588  2.6708 -1.3609
 5320SOL    HW227423   0.710   3.036  14.427 -0.4351  0.6666  0.1998
 5321SOL     OW27424   0.890   1.072   4.346 -0.2157 -0.1464 -0.2749
 5321SOL    HW127425   0.811   1.098   4.300  0.1285 -0.0243 -0.7852
 5321SOL    HW227426   0.894   0.980   4.319  0.3811  0.0733 -0.9191
 5322SOL     OW27427   4.467   0.551  17.182 -0.7121  0.7469 -0.6350
 5322SOL    HW127428   4.431   0.532  17.095 -0.3005 -1.2734 -0.3569
 5322SOL    HW227429   4.409   0.523  17.253 -0.6520 -1.8155 -1.6004
 5323SOL     OW27430   2.082   1.290   5.159 -0.3375  0.0282  0.2484
 5323SOL    HW127431   2.012   1.237   5.122  0.6674  0.1037 -1.7500
 5323SOL    HW227432   2.116   1.239   5.233  0.1152 -0.3496 -0.2258
 5324SOL     OW27433   4.356   4.454   2.201  0.4037  0.5011 -1.0943
 5324SOL    HW127434   4.400   4.392   2.143 -0.9459 -2.8152  1.4445
 5324SOL    HW227435   4.315   4.396   2.265 -0.1118  2.8229  0.6762
 5325SOL     OW27436   2.244   0.099  10.801 -0.1405 -0.0881 -0.0116
 5325SOL    HW127437   2.197   0.129  10.879 -0.3112 -1.1717  0.3096
 5325SOL    HW227438   2.307   0.034  10.834 -0.3362  0.7742  2.0485
 5326SOL     OW27439   2.438   0.434   4.189  0.3133 -0.2528 -0.3994
 5326SOL    HW127440   2.515   0.465   4.237  0.2931  1.9381 -1.7608
 5326SOL    HW227441   2.387   0.515   4.184 -0.2305 -0.5720 -0.0062
 5327SOL     OW27442   3.483   0.900   7.832  0.1152 -0.1260 -0.2714
 5327SOL    HW127443   3.479   0.859   7.919  0.7591 -1.2968 -0.7926
 5327SOL    HW227444   3.397   0.939   7.816 -0.7157 -1.2298  1.4890
 5328SOL     OW27445   2.237   2.292  13.230 -0.4186 -0.6824  0.0100
 5328SOL    HW127446   2.231   2.207  13.275  0.3728  0.1787  1.7367
 5328SOL    HW227447   2.148   2.301  13.195  0.0009  0.2545 -0.8059
 5329SOL     OW27448   0.552   3.319  12.222  0.0898 -0.2085  0.8405
 5329SOL    HW127449   0.516   3.232  12.241 -1.0442  0.2842  0.9881
 5329SOL    HW227450   0.631   3.296  12.174  0.3384 -1.4718  1.8698
 5330SOL     OW27451   0.615   3.937  16.692  0.1847  0.0812 -0.2791
 5330SOL    HW127452   0.567   4.013  16.727 -1.6862  0.0307 -2.6642
 5330SOL    HW227453   0.606   3.950  16.597  0.0632 -1.7779 -0.5151
 5331SOL     OW27454   3.931   0.746   4.751 -0.3957 -0.1083 -0.1120
 5331SOL    HW127455   3.952   0.692   4.674  1.2469  0.2085  0.1038
 5331SOL    HW227456   3.877   0.812   4.708 -0.2116  0.0194 -0.1468
 5332SOL     OW27457   4.674   3.275   7.205  0.2238 -0.3855 -0.2490
 5332SOL    HW127458   4.685   3.230   7.121 -0.3163 -2.3788  0.7361
 5332SOL    HW227459   4.656   3.201   7.263 -0.2256  1.0343  1.3962
 5333SOL     OW27460   1.673   0.339   2.261 -1.0525  0.3570  0.0417
 5333SOL    HW127461   1.636   0.378   2.182  0.0207  3.2780  0.9957
 5333SOL    HW227462   1.734   0.276   2.223  0.9204  2.1080  0.3024
 5334SOL     OW27463   4.062   1.989   9.516 -0.2219  0.3322 -0.2792
 5334SOL    HW127464   4.002   2.022   9.583  0.0454  1.6757 -0.7035
 5334SOL    HW227465   4.106   1.923   9.571  1.3660  0.3220 -1.5567
 5335SOL     OW27466   1.542   4.171   3.921  0.3538 -0.6298  0.6508
 5335SOL    HW127467   1.557   4.223   3.842  0.7512 -0.8397  0.5858
 5335SOL    HW227468   1.563   4.081   3.893  0.0505 -0.0164 -1.5349
 5336SOL     OW27469   4.444   4.511   8.647  0.1401  0.2759  0.7656
 5336SOL    HW127470   4.410   4.458   8.719 -0.7612  0.5394  0.5217
 5336SOL    HW227471   4.484   4.587   8.688 -0.1484 -0.1972  1.9113
 5337SOL     OW27472   1.261   1.092  13.001  0.5981 -1.0227  0.4019
 5337SOL    HW127473   1.278   1.150  13.076  3.2429 -0.4978 -0.5867
 5337SOL    HW227474   1.220   1.021  13.050 -1.2074 -0.2857 -0.0356
 5338SOL     OW27475   1.613   1.637   7.109 -0.9274  0.7025  0.2622
 5338SOL    HW127476   1.630   1.559   7.057 -1.0315  1.3631 -0.7689
 5338SOL    HW227477   1.529   1.617   7.151 -0.1723  1.8995  2.3464
 5339SOL     OW27478   2.855   4.406   0.030  0.0712 -0.3616  0.0652
 5339SOL    HW127479   2.882   4.382   0.119 -1.0916 -0.7073  0.3317
 5339SOL    HW227480   2.873   4.499   0.033  1.1182 -0.6153  2.0941
 5340SOL     OW27481   1.218   2.539   4.046  0.7142  0.3643  0.2330
 5340SOL    HW127482   1.136   2.580   4.019  0.0239 -0.9334  0.3221
 5340SOL    HW227483   1.276   2.540   3.970 -1.6648 -2.5973 -1.6369
 5341SOL     OW27484   2.368   2.243   4.773 -0.1923  0.0624 -0.2064
 5341SOL    HW127485   2.322   2.293   4.705  0.4298  0.3457 -0.4234
 5341SOL    HW227486   2.298   2.183   4.798 -1.1296  0.2118 -2.4474
 5342SOL     OW27487   2.780   0.130   7.283  0.2981 -0.3154 -0.6956
 5342SOL    HW127488   2.719   0.197   7.252  0.2230 -0.7158 -1.4288
 5342SOL    HW227489   2.862   0.174   7.262  0.8476 -0.2836  1.5651
 5343SOL     OW27490   1.702   4.225  17.427  0.6276  0.1106 -0.6271
 5343SOL    HW127491   1.767   4.200  17.361 -0.4611 -0.0929 -1.6054
 5343SOL    HW227492   1.735   4.175  17.502 -1.9210 -0.0926  0.3393
 5344SOL     OW27493   3.597   0.825   5.337 -0.7259 -0.7151  0.3086
 5344SOL    HW127494   3.659   0.880   5.289  0.0955 -0.8492  1.2110
 5344SOL    HW227495   3.562   0.788   5.256  1.3179 -0.5524 -0.6568
 5345SOL     OW27496   4.571   1.921   6.267  0.2702 -0.3624 -0.5919
 5345SOL    HW127497   4.564   1.934   6.173 -0.3023  1.5998 -0.2845
 5345SOL    HW227498   4.652   1.964   6.295  0.9681 -2.3690  0.5324
 5346SOL     OW27499   3.744   1.431   6.819  0.2156 -0.4323 -0.1515
 5346SOL    HW127500   3.831   1.438   6.779  0.3192  0.5834  0.2582
 5346SOL    HW227501   3.762   1.412   6.911  2.0796  0.9653 -0.2258
 5347SOL     OW27502   4.182   0.268   1.544 -0.3984  0.0822 -0.1674
 5347SOL    HW127503   4.154   0.358   1.556 -2.6221  0.0147 -4.9530
 5347SOL    HW227504   4.126   0.228   1.611 -0.1297  0.7624  0.4580
 5348SOL     OW27505   2.257   2.104  14.314 -0.4659 -0.5575 -0.2987
 5348SOL    HW127506   2.326   2.166  14.290 -2.1455  1.2055 -0.4904
 5348SOL    HW227507   2.221   2.151  14.389 -0.8534 -0.9557 -0.2306
 5349SOL     OW27508   2.029   4.650  17.485 -0.3736 -0.2487  0.1858
 5349SOL    HW127509   1.949   4.596  17.488 -1.5243  1.5090  0.8186
 5349SOL    HW227510   2.051   4.658  17.577  0.4024  3.6925 -0.3664
 5350SOL     OW27511   1.276   2.100   0.449  0.2245  0.2551  0.0717
 5350SOL    HW127512   1.211   2.033   0.468 -0.5288  1.3590  1.3580
 5350SOL    HW227513   1.270   2.161   0.522 -0.6873  1.2177 -0.8104
 5351SOL     OW27514   3.988   2.290   5.483  0.2817 -0.0280  0.1909
 5351SOL    HW127515   3.894   2.299   5.468  0.0002 -0.0110  1.9190
 5351SOL    HW227516   4.005   2.214   5.427  0.7103  0.4529 -0.3314
 5352SOL     OW27517   2.540   2.538   3.040  0.3079 -0.1093 -0.8237
 5352SOL    HW127518   2.507   2.607   3.096 -0.2042 -1.0670  0.0580
 5352SOL    HW227519   2.590   2.482   3.100 -0.6240  0.0213  0.0589
 5353SOL     OW27520   1.833   0.591   4.603 -0.0585  0.2275  0.4492
 5353SOL    HW127521   1.792   0.582   4.689  2.8640 -0.1697  1.7692
 5353SOL    HW227522   1.925   0.590   4.629 -0.4527 -1.6762  1.7936
 5354SOL     OW27523   0.639   1.525  16.980  0.2530  0.3433  0.0974
 5354SOL    HW127524   0.658   1.511  16.887  0.4659 -0.2172  0.2245
 5354SOL    HW227525   0.714   1.492  17.028 -0.1172 -0.8553 -0.1437
 5355SOL     OW27526   4.538   2.120  14.376 -0.3063 -0.3518  0.4077
 5355SOL    HW127527   4.628   2.153  14.379  0.7640 -3.2268 -0.3109
 5355SOL    HW227528   4.491   2.202  14.358 -0.5205 -0.8212 -1.1509
 5356SOL     OW27529   1.056   2.137  11.370  0.0322  0.0986  0.1464
 5356SOL    HW127530   1.018   2.170  11.288  0.0176 -0.0847  0.0795
 5356SOL    HW227531   1.013   2.191  11.436 -1.4916 -1.5331  0.5090
 5357SOL     OW27532   1.205   4.302   8.506 -0.3537 -0.3964 -0.0869
 5357SOL    HW127533   1.229   4.223   8.554 -1.6385 -0.9513 -0.3471
 5357SOL    HW227534   1.285   4.353   8.516 -2.4191  2.2754  2.7966
 5358SOL     OW27535   1.193   1.399   8.768 -0.4502 -0.0509  0.2473
 5358SOL    HW127536   1.213   1.343   8.844 -0.7888 -1.2108 -0.5163
 5358SOL    HW227537   1.223   1.339   8.700 -0.1702 -0.3717  0.6558
 5359SOL     OW27538   1.407   0.440   1.667  0.3985 -0.5382  0.7352
 5359SOL    HW127539   1.474   0.441   1.598 -0.1237 -0.3409  0.2321
 5359SOL    HW227540   1.390   0.346   1.661 -0.9113 -0.0223 -3.5753
 5360SOL     OW27541   1.858   0.659   2.008  0.0006  0.0715 -0.0306
 5360SOL    HW127542   1.923   0.638   1.940 -1.3822 -1.5158 -0.8542
 5360SOL    HW227543   1.778   0.659   1.957  0.0676  1.5943 -0.1231
 5361SOL     OW27544   1.694   1.493  17.556  0.3736 -0.1818  0.4061
 5361SOL    HW127545   1.604   1.524  17.565  0.1196 -1.6107  2.6159
 5361SOL    HW227546   1.705   1.429  17.625  1.1979 -0.8292 -0.3234
 5362SOL     OW27547   2.839   1.060  16.264  0.6277 -0.0349  0.0829
 5362SOL    HW127548   2.908   1.127  16.257  1.5539 -0.9574  0.3610
 5362SOL    HW227549   2.886   0.990  16.310 -1.6286 -1.0355  0.8577
 5363SOL     OW27550   4.687   4.174   2.571  0.1327 -0.6561  0.2694
 5363SOL    HW127551   0.031   4.184   2.637  0.2605 -1.6747  0.2982
 5363SOL    HW227552   4.678   4.261   2.531 -1.1474 -1.0183 -0.2447
 5364SOL     OW27553   0.962   2.761   4.496  0.2206 -0.0245 -0.3582
 5364SOL    HW127554   0.953   2.774   4.402 -0.3662  0.9820 -0.1644
 5364SOL    HW227555   0.958   2.849   4.534  0.5035 -0.8119  1.4981
 5365SOL     OW27556   3.659   0.193   9.527 -0.1552  0.2289 -0.3539
 5365SOL    HW127557   3.654   0.226   9.617  1.9320 -0.0965 -0.1174
 5365SOL    HW227558   3.658   0.279   9.484 -0.5556 -0.2150 -1.2287
 5366SOL     OW27559   2.885   2.176   4.262  0.3409  0.1771  0.5979
 5366SOL    HW127560   2.925   2.209   4.343  0.3806 -0.7174  0.9412
 5366SOL    HW227561   2.953   2.117   4.231  0.5286  1.3737 -1.2524
 5367SOL     OW27562   1.357   2.547   7.654  0.2406  0.0913 -0.5458
 5367SOL    HW127563   1.301   2.503   7.717  0.3884 -0.2414 -0.6461
 5367SOL    HW227564   1.358   2.636   7.688  0.2390 -0.5492  1.1202
 5368SOL     OW27565   3.138   0.652   1.522 -0.2496  0.0833  0.2434
 5368SOL    HW127566   3.102   0.713   1.588  1.1664 -0.1682  1.2337
 5368SOL    HW227567   3.063   0.597   1.500  0.0750  0.5570 -2.0421
 5369SOL     OW27568   4.198   1.420  12.592 -0.1307  0.0341 -0.3547
 5369SOL    HW127569   4.237   1.507  12.594  1.2582 -0.6143  0.2314
 5369SOL    HW227570   4.153   1.408  12.676 -1.7462 -1.6953 -1.4681
 5370SOL     OW27571   4.059   0.657   2.159  0.2831 -0.0491  0.2219
 5370SOL    HW127572   4.058   0.686   2.250  0.5046  0.3714  0.0904
 5370SOL    HW227573   3.986   0.595   2.164  0.6869 -0.4292  1.3069
 5371SOL     OW27574   3.165   4.037  11.616  0.3092  0.5468 -0.2598
 5371SOL    HW127575   3.089   4.075  11.661 -0.9730  0.4533 -2.3539
 5371SOL    HW227576   3.237   4.070  11.669 -0.9421  0.2462  1.6438
 5372SOL     OW27577   3.798   4.149  13.255 -0.1904  0.2756 -0.6499
 5372SOL    HW127578   3.862   4.080  13.274  1.1029  1.2781 -1.3616
 5372SOL    HW227579   3.763   4.119  13.170  2.1327 -1.0032 -1.1779
 5373SOL     OW27580   2.669   1.356   3.839 -0.1309 -0.2261 -0.2657
 5373SOL    HW127581   2.735   1.287   3.839  1.1325  0.9745  1.8855
 5373SOL    HW227582   2.656   1.362   3.745 -0.8770  0.6662 -0.1025
 5374SOL     OW27583   1.452   1.562   5.451 -0.6155  0.0354 -0.1586
 5374SOL    HW127584   1.444   1.657   5.462  1.2939  0.2650 -0.7731
 5374SOL    HW227585   1.509   1.553   5.528  0.4039 -2.3464 -1.1634
 5375SOL     OW27586   2.796   4.200   0.377  0.4442  0.0588 -0.7924
 5375SOL    HW127587   2.763   4.285   0.350  0.0119  0.2827  0.4137
 5375SOL    HW227588   2.879   4.210   0.331  0.3684  3.2270 -0.2055
 5376SOL     OW27589   0.317   4.216  17.267 -0.3186 -0.1489  0.3216
 5376SOL    HW127590   0.355   4.202  17.180  0.3970  0.0293  0.6090
 5376SOL    HW227591   0.335   4.134  17.312 -2.4020 -1.1082 -0.5372
 5377SOL     OW27592   3.886   3.836   7.427 -0.2784 -0.3258 -0.3310
 5377SOL    HW127593   3.907   3.848   7.334  1.4347  1.3385  0.2744
 5377SOL    HW227594   3.962   3.782   7.448  0.4236 -0.0373 -2.1363
 5378SOL     OW27595   4.259   0.004   1.530  0.4030  0.4350 -0.6128
 5378SOL    HW127596   4.210   0.085   1.547  0.5518  0.1480  1.2062
 5378SOL    HW227597   4.197   4.672   1.483 -1.4800  1.2256  0.9112
 5379SOL     OW27598   1.900   1.813   2.905  0.4016  0.3365  0.3905
 5379SOL    HW127599   1.832   1.801   2.839  0.4830 -0.3941  0.4483
 5379SOL    HW227600   1.980   1.806   2.852  0.8592  2.0077  0.8354
 5380SOL     OW27601   4.718   3.184   2.222 -0.1044 -0.3657  0.0751
 5380SOL    HW127602   4.681   3.214   2.139 -0.1045  1.3618  0.6934
 5380SOL    HW227603   4.707   3.090   2.215 -0.6902 -0.3455  0.8278
 5381SOL     OW27604   1.625   2.581  16.101 -0.1835 -0.6497 -0.0011
 5381SOL    HW127605   1.611   2.498  16.145  2.9704 -0.4757  1.3617
 5381SOL    HW227606   1.596   2.563  16.012  1.6888  1.1602 -0.9862
 5382SOL     OW27607   0.173   3.809   1.568 -0.2861  0.1495  0.1858
 5382SOL    HW127608   0.227   3.883   1.542 -0.2931 -0.0330 -0.3588
 5382SOL    HW227609   0.161   3.752   1.491  1.5423  1.2188 -0.8876
 5383SOL     OW27610   0.192   2.264   6.504 -0.3307 -0.3620 -0.0397
 5383SOL    HW127611   0.285   2.272   6.525 -0.0325  0.4068 -1.6257
 5383SOL    HW227612   0.192   2.299   6.415  0.0908  2.1173  0.9110
 5384SOL     OW27613   3.580   2.381   4.577 -0.6709  0.0523 -0.2011
 5384SOL    HW127614   3.491   2.413   4.559 -0.8200 -0.6941 -0.7911
 5384SOL    HW227615   3.564   2.358   4.669 -3.2656 -1.3381 -0.9758
 5385SOL     OW27616   2.970   4.442  15.114  0.5702  0.0550 -0.0544
 5385SOL    HW127617   3.014   4.380  15.172  0.5554  1.3225  1.3086
 5385SOL    HW227618   2.923   4.491  15.182  2.7883 -2.0390  3.0107
 5386SOL     OW27619   3.656   3.689   3.234  0.4865  0.3592 -0.2960
 5386SOL    HW127620   3.595   3.744   3.284  0.5545  0.6488 -0.5252
 5386SOL    HW227621   3.661   3.614   3.292  4.0309  0.4812 -0.4500
 5387SOL     OW27622   0.066   1.914   6.855 -0.6174  0.4010  0.5880
 5387SOL    HW127623   0.104   1.835   6.893  1.0743  1.5836  1.3695
 5387SOL    HW227624   0.120   1.989   6.881 -0.3618  0.5671 -0.4174
 5388SOL     OW27625   2.604   2.352   7.999 -0.7621 -0.6198  0.4668
 5388SOL    HW127626   2.580   2.319   8.085 -1.0113 -2.5521 -0.3566
 5388SOL    HW227627   2.603   2.272   7.947 -2.6347 -1.5594  1.9712
 5389SOL     OW27628   1.630   2.317   6.606  0.2937 -0.3951  0.2104
 5389SOL    HW127629   1.646   2.244   6.546 -0.7709 -1.3748  1.1270
 5389SOL    HW227630   1.543   2.290   6.638  0.0875  1.4421  1.1823
 5390SOL     OW27631   2.006   0.319   4.080 -0.4028  0.1975 -0.0839
 5390SOL    HW127632   1.962   0.396   4.117 -1.4517 -0.4322 -0.0150
 5390SOL    HW227633   1.982   0.252   4.144  4.0522  0.0617  1.4938
 5391SOL     OW27634   2.425   0.510   8.257  0.1913 -0.4942 -0.4618
 5391SOL    HW127635   2.442   0.418   8.276 -0.9755 -0.9330 -1.5494
 5391SOL    HW227636   2.411   0.533   8.349  3.1324  0.8928 -0.3635
 5392SOL     OW27637   0.152   0.417  13.854  0.1406  0.4203  0.4892
 5392SOL    HW127638   0.092   0.432  13.928 -1.2973  0.4326 -0.6808
 5392SOL    HW227639   0.212   0.346  13.876 -0.1318  0.8260  2.6006
 5393SOL     OW27640   2.192   1.384   1.538  0.3011 -0.2519  0.3148
 5393SOL    HW127641   2.163   1.467   1.501  0.2696  0.7747  2.6690
 5393SOL    HW227642   2.127   1.331   1.492  1.3822 -2.1182  0.9264
 5394SOL     OW27643   0.922   2.509   1.772 -0.0930  0.2505  0.6804
 5394SOL    HW127644   0.876   2.557   1.841  1.2562  2.4113  0.0790
 5394SOL    HW227645   0.995   2.570   1.758 -0.5657  0.3631 -1.2288
 5395SOL     OW27646   4.481   2.375   5.811 -0.3215 -0.7346  0.4571
 5395SOL    HW127647   4.497   2.470   5.817  0.3791 -0.7178 -1.8022
 5395SOL    HW227648   4.393   2.357   5.844 -0.2044 -0.8886  0.6877
 5396SOL     OW27649   1.989   0.356   3.291  0.0663  0.1976  0.0832
 5396SOL    HW127650   1.962   0.271   3.324  1.5691  0.2486  1.4717
 5396SOL    HW227651   2.013   0.407   3.369  3.0394  1.2915 -1.5290
 5397SOL     OW27652   1.966   0.163  11.130 -0.3363 -0.4469  0.2993
 5397SOL    HW127653   1.974   0.237  11.189  1.1357  0.6538 -1.2718
 5397SOL    HW227654   1.940   0.100  11.197 -0.1684  0.5343  1.2935
 5398SOL     OW27655   2.450   3.951  17.106 -0.4492  0.0825 -0.2557
 5398SOL    HW127656   2.465   3.857  17.101  0.8015  0.0989  2.9634
 5398SOL    HW227657   2.390   3.956  17.180 -0.2948 -0.4985 -0.0923
 5399SOL     OW27658   4.354   2.039   5.284  0.0836 -0.0248 -0.5275
 5399SOL    HW127659   4.434   1.996   5.255  0.3772  0.7634 -0.8690
 5399SOL    HW227660   4.337   2.011   5.374  3.2994 -0.1576  0.0302
 5400SOL     OW27661   4.536   2.150   3.272  0.1040  0.1141 -0.1821
 5400SOL    HW127662   4.536   2.242   3.298 -0.1900  0.9992 -3.2185
 5400SOL    HW227663   4.622   2.130   3.310 -0.2045  1.6469  1.3164
 5401SOL     OW27664   2.297   4.254   4.814  0.1496 -0.0874 -0.2591
 5401SOL    HW127665   2.248   4.177   4.841 -0.6151  0.8722  1.1092
 5401SOL    HW227666   2.266   4.322   4.874 -1.4345  0.5272 -1.7932
 5402SOL     OW27667   1.322   0.784   9.311  0.3416 -0.0322 -0.2283
 5402SOL    HW127668   1.333   0.690   9.294 -0.4802  0.2374 -2.2286
 5402SOL    HW227669   1.405   0.792   9.357  0.0784 -0.1434  0.2668
 5403SOL     OW27670   3.286   2.844   5.072  0.1935 -0.2307  0.2451
 5403SOL    HW127671   3.308   2.927   5.030  0.6672 -0.0577  0.8453
 5403SOL    HW227672   3.277   2.788   4.995  1.2567  1.5168 -1.1494
 5404SOL     OW27673   3.740   2.401   4.352  0.1976 -0.0234 -0.0452
 5404SOL    HW127674   3.813   2.344   4.375  1.8158  1.3425 -1.7924
 5404SOL    HW227675   3.677   2.380   4.421 -0.8113 -1.2824 -1.3450
 5405SOL     OW27676   3.328   3.245  11.216 -0.0664 -0.1061 -0.1929
 5405SOL    HW127677   3.356   3.160  11.250 -0.8222  0.4403  1.8469
 5405SOL    HW227678   3.261   3.274  11.280 -0.6054  2.0166 -1.7126
 5406SOL     OW27679   3.549   1.538   2.997  0.5053  0.3470 -0.0005
 5406SOL    HW127680   3.580   1.576   2.915 -0.8395  2.2026  0.3532
 5406SOL    HW227681   3.620   1.555   3.058 -0.1975  3.5017 -0.0819
 5407SOL     OW27682   0.399   3.584   5.808 -0.7697  0.1906 -0.1455
 5407SOL    HW127683   0.490   3.555   5.818 -1.5368 -3.2200 -3.2686
 5407SOL    HW227684   0.357   3.560   5.891  1.8231 -2.4109  0.3962
 5408SOL     OW27685   4.032   4.585   2.484  0.3031  0.2372 -0.2447
 5408SOL    HW127686   3.962   4.648   2.471  1.2541  1.6144  1.3121
 5408SOL    HW227687   4.054   4.588   2.391  0.4227 -0.8898 -0.2574
 5409SOL     OW27688   0.124   0.377  10.231 -0.4606  0.3948  0.3290
 5409SOL    HW127689   0.189   0.319  10.193 -0.8074 -1.1356  2.0745
 5409SOL    HW227690   0.050   0.316  10.225 -2.8399  3.4523 -1.4065
 5410SOL     OW27691   0.041   2.534  11.664  0.3748  0.4038  0.4863
 5410SOL    HW127692   0.057   2.598  11.596 -1.6014  0.6023  0.1984
 5410SOL    HW227693   4.673   2.517  11.644  0.6573 -0.8681  0.2178
 5411SOL     OW27694   0.222   0.188   9.139  0.1769 -0.0283  0.0577
 5411SOL    HW127695   0.262   0.226   9.061 -1.1013 -1.4636 -1.2983
 5411SOL    HW227696   0.170   0.262   9.172 -0.9415 -1.8797  2.4581
 5412SOL     OW27697   3.314   4.212  10.130 -0.3426 -0.5756 -0.2346
 5412SOL    HW127698   3.305   4.282  10.066  1.0307  0.5505  0.8119
 5412SOL    HW227699   3.373   4.156  10.079  1.7559  0.6863  0.8337
 5413SOL     OW27700   3.034   3.117   7.175  0.3625  0.0724 -0.4055
 5413SOL    HW127701   2.958   3.166   7.207  0.9917 -0.8914  2.5068
 5413SOL    HW227702   3.092   3.125   7.250  1.7655  0.8738 -1.5666
 5414SOL     OW27703   1.641   2.711  11.733 -0.5784 -0.2334 -0.1965
 5414SOL    HW127704   1.725   2.664  11.730  0.2131  1.2538 -1.5276
 5414SOL    HW227705   1.584   2.637  11.753  0.4619 -0.3499  2.3618
 5415SOL     OW27706   0.372   2.501  14.573  0.1464 -0.1386  0.3575
 5415SOL    HW127707   0.295   2.545  14.608 -1.0352 -2.0549  0.1890
 5415SOL    HW227708   0.330   2.416  14.561  0.7215 -0.5225  1.0428
 5416SOL     OW27709   4.366   3.903   2.913 -0.2058  0.5842  0.2085
 5416SOL    HW127710   4.410   3.922   2.830 -2.2780  0.0289 -1.0024
 5416SOL    HW227711   4.277   3.879   2.888 -1.3628  3.3170  1.7577
 5417SOL     OW27712   0.370   1.089   5.551  0.0669  0.1072  0.0271
 5417SOL    HW127713   0.292   1.135   5.519  0.2326  0.1118 -0.3649
 5417SOL    HW227714   0.338   1.006   5.585 -0.5505 -0.3382 -1.6603
 5418SOL     OW27715   0.367   0.466  11.460 -0.3854 -0.1003  0.4358
 5418SOL    HW127716   0.372   0.493  11.551 -0.4520 -0.5570  0.5746
 5418SOL    HW227717   0.414   0.383  11.464 -0.6552 -0.2275  0.8958
 5419SOL     OW27718   4.048   3.752   4.754 -0.3509 -0.0341  0.0734
 5419SOL    HW127719   4.090   3.723   4.835 -0.6475  1.2281  0.6788
 5419SOL    HW227720   4.123   3.807   4.732 -0.5960  1.3304  2.6052
 5420SOL     OW27721   3.980   3.244   5.423 -0.2782  0.2992  0.1540
 5420SOL    HW127722   3.893   3.205   5.426 -0.7845  1.3504 -1.3061
 5420SOL    HW227723   4.018   3.190   5.354 -0.7903  0.4145 -0.2207
 5421SOL     OW27724   1.387   4.049   0.198 -0.4309 -0.4504 -0.3705
 5421SOL    HW127725   1.420   4.081   0.114  0.6417 -0.0703  0.2066
 5421SOL    HW227726   1.294   4.062   0.178 -0.6775  0.1772  1.1628
 5422SOL     OW27727   1.060   3.703   3.015 -0.2105  0.0074  0.1500
 5422SOL    HW127728   1.100   3.637   3.072  0.9076  0.1570 -0.4467
 5422SOL    HW227729   1.067   3.778   3.075 -0.2239  1.7967 -2.1092
 5423SOL     OW27730   2.687   1.899   9.099 -0.4019 -0.6946 -0.0695
 5423SOL    HW127731   2.631   1.906   9.176 -0.9626 -0.0918 -0.5245
 5423SOL    HW227732   2.644   1.962   9.041 -1.5457 -2.3973 -1.0794
 5424SOL     OW27733   0.884   3.443  13.388 -0.2194  0.3782 -0.5642
 5424SOL    HW127734   0.854   3.486  13.468  0.3496 -2.0598  0.9731
 5424SOL    HW227735   0.809   3.390  13.359 -0.1255  0.0685 -0.2391
 5425SOL     OW27736   3.099   0.215   7.770 -0.5177 -0.3062 -0.2839
 5425SOL    HW127737   3.159   0.248   7.702 -1.6627 -1.0095 -1.6331
 5425SOL    HW227738   3.081   0.299   7.812  0.9556 -0.1237  0.0068
 5426SOL     OW27739   4.068   3.668  17.655  0.0008 -0.3799  0.1762
 5426SOL    HW127740   4.091   3.752  17.694  0.0320 -1.1365  1.7912
 5426SOL    HW227741   3.973   3.679  17.662  0.0511  0.8359 -1.0161
 5427SOL     OW27742   3.543   3.417   8.285 -0.0420  0.7100  0.2432
 5427SOL    HW127743   3.570   3.502   8.320 -0.5429  1.2317 -0.6311
 5427SOL    HW227744   3.598   3.372   8.348 -0.4348  0.0071  0.0810
 5428SOL     OW27745   4.578   0.982   2.258 -0.4328  0.7117 -0.0868
 5428SOL    HW127746   4.576   1.050   2.190 -1.2385  0.4839 -0.2993
 5428SOL    HW227747   4.551   0.904   2.210  0.0803  0.2604  0.3583
 5429SOL     OW27748   1.524   3.392   2.344  0.0163  1.1166  0.1319
 5429SOL    HW127749   1.538   3.352   2.430 -2.1133  0.5166  0.1894
 5429SOL    HW227750   1.445   3.339   2.333  0.3793  0.6378 -0.1853
 5430SOL     OW27751   3.335   2.179   2.378  0.3443 -0.0390  0.4138
 5430SOL    HW127752   3.371   2.090   2.376 -1.7351 -0.9420  2.2246
 5430SOL    HW227753   3.358   2.200   2.288  1.4614 -0.1661  0.6703
 5431SOL     OW27754   2.978   0.462   2.398  0.3224 -0.2794 -0.0969
 5431SOL    HW127755   2.939   0.513   2.327  0.5939  1.5497  1.0931
 5431SOL    HW227756   3.060   0.433   2.357  0.7352 -0.1880  0.6803
 5432SOL     OW27757   1.889   1.424   6.077 -0.3004 -0.2731  0.0017
 5432SOL    HW127758   1.970   1.424   6.128 -0.4593 -0.5017  0.2512
 5432SOL    HW227759   1.848   1.344   6.110 -1.3391  0.0745 -0.4792
 5433SOL     OW27760   0.061   2.045   9.191 -0.0189  0.0951  0.0450
 5433SOL    HW127761   0.019   2.078   9.113 -0.4123 -0.8647 -0.1558
 5433SOL    HW227762   0.115   2.122   9.211 -0.6490  0.9978 -1.8245
 5434SOL     OW27763   0.817   4.521   5.403 -0.1477  0.4524  0.8207
 5434SOL    HW127764   0.816   4.439   5.354 -2.0117  1.4256 -0.7739
 5434SOL    HW227765   0.729   4.525   5.443 -0.1253 -1.8978  1.0521
 5435SOL     OW27766   1.867   4.593   4.935  0.1926 -0.1884 -0.7172
 5435SOL    HW127767   1.846   4.501   4.919 -2.7227  0.5345 -0.9341
 5435SOL    HW227768   1.783   4.628   4.965 -0.2445 -2.1250  0.3052
 5436SOL     OW27769   2.254   1.314   9.849 -0.4352  0.3056  0.2900
 5436SOL    HW127770   2.193   1.387   9.845  0.5352  1.1438  0.6163
 5436SOL    HW227771   2.319   1.341   9.783  1.4654 -3.2620  0.6611
 5437SOL     OW27772   1.126   1.958   9.087 -0.1310  0.6238  0.5596
 5437SOL    HW127773   1.160   2.015   9.156 -1.4467  1.6929  0.3284
 5437SOL    HW227774   1.068   1.905   9.142 -0.8802 -0.9910 -1.8143
 5438SOL     OW27775   1.717   2.041   4.767  0.1645 -0.0480 -0.0071
 5438SOL    HW127776   1.731   2.116   4.709 -2.3750  0.2592 -0.2605
 5438SOL    HW227777   1.695   2.075   4.854  5.0935  1.0387  0.7764
 5439SOL     OW27778   3.938   1.181   8.777  0.2613 -0.0175  0.5318
 5439SOL    HW127779   3.915   1.230   8.856 -0.1431  2.1480 -0.9023
 5439SOL    HW227780   4.029   1.163   8.799  1.0060  1.1511 -1.5798
 5440SOL     OW27781   4.138   1.836   7.149  0.2565  0.0997  0.0933
 5440SOL    HW127782   4.182   1.780   7.212 -0.9562  0.0352  0.8956
 5440SOL    HW227783   4.123   1.913   7.204 -0.3149  1.3878 -1.8386
 5441SOL     OW27784   0.638   3.092  10.704 -0.4681 -0.1545 -0.3920
 5441SOL    HW127785   0.585   3.129  10.633  1.2985  2.5493 -0.3181
 5441SOL    HW227786   0.721   3.138  10.691 -0.7242 -0.2692 -2.5116
 5442SOL     OW27787   2.285   1.603   8.958 -0.4116  0.0598  0.6035
 5442SOL    HW127788   2.322   1.680   9.001  0.7465 -0.1595 -0.0160
 5442SOL    HW227789   2.305   1.635   8.870 -1.0182  1.0668  0.8311
 5443SOL     OW27790   2.713   3.251   4.681 -0.0694  0.3146 -0.6918
 5443SOL    HW127791   2.666   3.172   4.655 -0.1439  0.8486 -2.1255
 5443SOL    HW227792   2.635   3.305   4.697  0.4327  0.5450  0.9844
 5444SOL     OW27793   4.474   2.793   3.370  0.3177 -0.0871  0.4448
 5444SOL    HW127794   4.522   2.783   3.453  1.0584 -0.9489 -0.0884
 5444SOL    HW227795   4.390   2.827   3.401  1.1516  0.0039  2.6295
 5445SOL     OW27796   4.013   0.978   6.121  0.0130 -0.0521  0.0748
 5445SOL    HW127797   4.032   0.926   6.043 -1.1147 -0.3417 -0.0029
 5445SOL    HW227798   3.919   0.987   6.109  0.0191 -0.3003 -0.1611
 5446SOL     OW27799   1.379   2.216   6.343  0.4562  0.5104 -0.3076
 5446SOL    HW127800   1.322   2.230   6.268  0.5351 -0.9814 -0.6477
 5446SOL    HW227801   1.372   2.301   6.386  0.4712 -0.1575  1.0254
 5447SOL     OW27802   3.917   3.783   3.587 -0.4141 -0.4117 -0.0129
 5447SOL    HW127803   3.983   3.803   3.654  0.3520 -0.5406 -0.7367
 5447SOL    HW227804   3.899   3.866   3.542  0.1992  0.4187  1.2461
 5448SOL     OW27805   1.262   2.493   6.465 -0.1612  0.4896  0.1359
 5448SOL    HW127806   1.176   2.485   6.507 -0.0277 -0.7007  0.1804
 5448SOL    HW227807   1.246   2.547   6.388 -0.8054 -0.1606 -0.1817
 5449SOL     OW27808   0.984   2.343   6.901  0.3804  0.1732  0.0692
 5449SOL    HW127809   1.048   2.406   6.868  0.5059  0.0296  0.0349
 5449SOL    HW227810   1.056   2.294   6.942  1.1784  1.5810  0.3621
 5450SOL     OW27811   0.842   4.618  15.352 -0.1671  0.1957  0.2229
 5450SOL    HW127812   0.863   4.692  15.295 -1.2296 -0.3570 -0.8873
 5450SOL    HW227813   0.844   4.650  15.442  0.5734  1.7363 -0.3336
 5451SOL     OW27814   3.269   2.153  14.544 -0.8128 -0.0244  0.0726
 5451SOL    HW127815   3.331   2.097  14.590 -1.1165  0.3028  0.8855
 5451SOL    HW227816   3.277   2.231  14.599  1.5291  0.4273 -0.9070
 5452SOL     OW27817   2.612   4.100  12.545  0.2300 -0.1170 -0.1599
 5452SOL    HW127818   2.571   4.013  12.544 -0.9239  0.4443 -1.4774
 5452SOL    HW227819   2.700   4.073  12.570  0.4327  1.8654  1.2125
 5453SOL     OW27820   3.716   0.557   5.355  0.5108  0.1270 -0.0177
 5453SOL    HW127821   3.700   0.649   5.379  1.1546  0.2201  0.0518
 5453SOL    HW227822   3.737   0.569   5.262  0.7421  1.0799  0.1570
 5454SOL     OW27823   4.573   3.075   2.565 -0.4356 -0.2712 -0.9488
 5454SOL    HW127824   4.501   3.014   2.550 -0.6399 -0.3790  0.4197
 5454SOL    HW227825   4.646   3.031   2.522  0.2419  0.7032 -0.8072
 5455SOL     OW27826   1.171   4.668  14.824 -0.0384  0.0811 -0.1794
 5455SOL    HW127827   1.224   4.589  14.821 -1.6785 -1.0117 -0.5988
 5455SOL    HW227828   1.110   4.646  14.753 -1.2275  3.3536 -0.1978
 5456SOL     OW27829   0.025   1.359   5.214  0.1660 -0.1059  0.1945
 5456SOL    HW127830   0.082   1.431   5.188 -0.3182  0.1071 -0.2774
 5456SOL    HW227831   4.664   1.400   5.225  0.6499  1.1668 -0.7861
 5457SOL     OW27832   3.862   3.826   8.082 -0.2117  0.2113  0.3275
 5457SOL    HW127833   3.885   3.838   7.989  0.9455  0.2670  0.6193
 5457SOL    HW227834   3.872   3.731   8.085 -0.4142  0.1223 -1.3630
 5458SOL     OW27835   1.045   3.124   3.160  0.4849  0.1590 -0.1647
 5458SOL    HW127836   1.059   3.032   3.136  1.5565  0.5691 -1.0818
 5458SOL    HW227837   1.102   3.134   3.236 -0.6751 -0.5110  0.8135
 5459SOL     OW27838   4.430   0.970   7.734 -0.4358  0.8220  0.0931
 5459SOL    HW127839   4.521   0.939   7.739 -0.7826 -0.2605 -0.3992
 5459SOL    HW227840   4.413   0.996   7.824  1.0027 -0.1194  0.6510
 5460SOL     OW27841   3.468   1.546  12.535 -0.2318 -0.3716  0.1529
 5460SOL    HW127842   3.383   1.512  12.563  1.2718 -2.2229  2.5234
 5460SOL    HW227843   3.524   1.468  12.538  0.0726 -0.1643 -0.1229
 5461SOL     OW27844   2.183   0.953  12.390 -0.3742  0.3697  0.0785
 5461SOL    HW127845   2.103   0.920  12.349 -0.0904  0.3099 -0.4171
 5461SOL    HW227846   2.178   0.910  12.475  0.7422  2.1042  1.0376
 5462SOL     OW27847   2.083   2.268  13.673 -0.0411  0.7775  0.1824
 5462SOL    HW127848   2.106   2.309  13.589  1.4686  0.4473  0.4271
 5462SOL    HW227849   2.167   2.283  13.717  0.8910 -2.4099 -0.5001
 5463SOL     OW27850   0.203   3.886  16.843  1.0064  0.0825 -0.1617
 5463SOL    HW127851   0.276   3.931  16.885 -0.0312  1.9457 -0.4025
 5463SOL    HW227852   0.244   3.800  16.830  0.1679 -0.2682 -0.5097
 5464SOL     OW27853   1.280   0.827   7.473 -0.1136 -0.1095 -0.0795
 5464SOL    HW127854   1.258   0.827   7.380 -0.0203 -1.8398 -0.0982
 5464SOL    HW227855   1.221   0.765   7.517 -2.5716  1.8787 -0.5615
 5465SOL     OW27856   0.830   1.058   3.588  0.0994  0.2169  0.5045
 5465SOL    HW127857   0.879   1.051   3.506 -0.8741  1.0873 -0.1446
 5465SOL    HW227858   0.746   1.015   3.571  0.5413  0.2433 -1.7184
 5466SOL     OW27859   0.654   0.431   8.007  0.2224  0.2820 -0.4853
 5466SOL    HW127860   0.605   0.513   8.012  0.8794  0.7297 -1.4075
 5466SOL    HW227861   0.610   0.387   8.079  2.4238 -0.0611  0.6690
 5467SOL     OW27862   0.430   2.677   5.540 -0.6542 -0.6392  0.0216
 5467SOL    HW127863   0.397   2.748   5.595 -0.2074 -1.3990  1.2679
 5467SOL    HW227864   0.393   2.686   5.452  0.1671 -0.7152 -0.3380
 5468SOL     OW27865   1.448   2.812   2.905 -0.2928  0.9527  0.0910
 5468SOL    HW127866   1.395   2.819   2.984 -0.0054 -0.7524  0.4356
 5468SOL    HW227867   1.503   2.888   2.924  0.1014  1.6206 -3.6314
 5469SOL     OW27868   1.479   2.246  12.472 -0.0679  0.1531  0.3751
 5469SOL    HW127869   1.536   2.234  12.396 -0.5067  1.7549 -0.2140
 5469SOL    HW227870   1.532   2.304  12.526  0.4292  2.2098 -2.3346
 5470SOL     OW27871   0.824   0.152   4.248  0.0227 -0.3101 -0.4404
 5470SOL    HW127872   0.743   0.170   4.199  1.6329 -0.6556 -3.2196
 5470SOL    HW227873   0.778   0.128   4.328  2.5528 -0.1395  1.0270
 5471SOL     OW27874   0.334   3.830   5.695  0.4588 -0.0675  0.5332
 5471SOL    HW127875   0.361   3.747   5.734  1.1905 -0.8831 -1.7139
 5471SOL    HW227876   0.254   3.812   5.647  0.4793  0.1642  0.4112
 5472SOL     OW27877   2.400   1.906  14.187 -0.0730 -0.0412 -0.7864
 5472SOL    HW127878   2.494   1.913  14.204 -0.8676  1.5164  2.8893
 5472SOL    HW227879   2.357   1.978  14.232  0.3875  0.0822 -0.5453
 5473SOL     OW27880   4.093   2.875   2.312  0.0959  0.0041  0.0691
 5473SOL    HW127881   4.088   2.904   2.221  1.3882 -0.9493 -0.3071
 5473SOL    HW227882   4.098   2.779   2.307 -1.1087 -0.1683  2.1851
 5474SOL     OW27883   2.538   1.373   8.194  0.0024 -0.2738 -0.8098
 5474SOL    HW127884   2.626   1.403   8.171  1.3552 -0.8688  3.4503
 5474SOL    HW227885   2.554   1.288   8.235  0.7779  0.1662 -0.2062
 5475SOL     OW27886   4.611   0.858   7.091  0.4018  0.9613 -0.0557
 5475SOL    HW127887   4.567   0.816   7.165 -0.3376 -0.3591 -1.2385
 5475SOL    HW227888   4.538   0.909   7.055 -1.2294  0.9034  3.1739
 5476SOL     OW27889   2.254   4.396   3.768  0.0849  0.3055 -0.0866
 5476SOL    HW127890   2.203   4.419   3.691  0.7246 -0.2019 -0.6595
 5476SOL    HW227891   2.186   4.342   3.807  1.4848 -2.0273 -0.8357
 5477SOL     OW27892   0.785   0.074   6.048  0.5792 -0.0137  0.4743
 5477SOL    HW127893   0.832   0.156   6.056 -1.6296  1.3426 -0.3783
 5477SOL    HW227894   0.699   0.102   6.081 -1.6748 -3.2987 -2.6058
 5478SOL     OW27895   3.549   3.447  10.674 -0.3266  0.3080 -0.3495
 5478SOL    HW127896   3.525   3.524  10.623 -0.4473  1.0544  0.8244
 5478SOL    HW227897   3.467   3.439  10.723  1.7980  0.7029  3.2495
 5479SOL     OW27898   2.064   3.676   5.779  0.5236 -0.0108  0.2837
 5479SOL    HW127899   2.088   3.732   5.853  0.8254 -0.4549  0.5161
 5479SOL    HW227900   1.981   3.648   5.817  0.9145  0.8683  1.8105
 5480SOL     OW27901   4.442   1.699   5.544 -0.5922  0.4910  0.1974
 5480SOL    HW127902   4.402   1.620   5.510  1.3505 -0.2932 -0.2880
 5480SOL    HW227903   4.534   1.672   5.538 -0.4152  1.5158 -1.8194
 5481SOL     OW27904   2.508   2.041  11.917  0.1786  0.4094 -0.0231
 5481SOL    HW127905   2.584   2.027  11.974 -0.2209 -0.9023  0.1947
 5481SOL    HW227906   2.455   1.962  11.928  2.4219 -1.1644 -0.3532
 5482SOL     OW27907   0.600   2.303   2.491 -0.6747  0.0488 -0.5223
 5482SOL    HW127908   0.550   2.257   2.424 -0.3248 -2.3435  0.8627
 5482SOL    HW227909   0.570   2.394   2.492 -3.4659 -0.8913 -0.1212
 5483SOL     OW27910   4.487   0.612   9.053 -0.9101  0.6107  0.2375
 5483SOL    HW127911   4.426   0.547   9.088  0.4073  0.2494  1.9022
 5483SOL    HW227912   4.444   0.613   8.968 -0.6644  1.7217  0.1325
 5484SOL     OW27913   1.334   0.433   3.236  0.5391  0.2188 -0.5513
 5484SOL    HW127914   1.336   0.348   3.279  0.3787  2.3186  3.6539
 5484SOL    HW227915   1.414   0.441   3.183 -0.2643  1.0305 -1.6338
 5485SOL     OW27916   1.303   3.666   1.052 -0.1411  0.2370  0.6318
 5485SOL    HW127917   1.333   3.616   0.976 -2.3151  2.0195 -1.3848
 5485SOL    HW227918   1.332   3.607   1.121 -1.0150  1.8473  2.3686
 5486SOL     OW27919   4.699   4.157   2.952  0.2429  0.1735  0.7770
 5486SOL    HW127920   4.685   4.062   2.944 -1.2757  0.5968 -1.5035
 5486SOL    HW227921   0.013   4.185   2.869 -0.4015  0.0013  0.4231
 5487SOL     OW27922   4.111   0.435   5.983  0.4550  1.0333 -0.0441
 5487SOL    HW127923   4.144   0.475   6.063 -0.4559 -0.7450  1.2281
 5487SOL    HW227924   4.179   0.459   5.920  1.3318  1.2228  0.9785
 5488SOL     OW27925   2.848   1.592   3.282 -0.4194  0.2641  0.0148
 5488SOL    HW127926   2.786   1.524   3.257 -0.9860  0.4412  0.9313
 5488SOL    HW227927   2.872   1.637   3.201 -1.6325 -0.2821 -0.6446
 5489SOL     OW27928   0.756   0.064   8.472  0.2994 -0.2702 -0.5411
 5489SOL    HW127929   0.767   0.142   8.417 -2.5262  1.6480  1.5935
 5489SOL    HW227930   0.662   0.071   8.491 -0.1491 -0.3593 -2.7329
 5490SOL     OW27931   1.916   2.057   1.809  0.1408  0.1106 -0.1714
 5490SOL    HW127932   1.889   1.976   1.764  2.7708  0.4299 -2.2712
 5490SOL    HW227933   1.975   2.014   1.871  0.9101 -0.3962 -1.2656
 5491SOL     OW27934   3.397   3.780   4.298 -0.0375  0.2284 -0.3492
 5491SOL    HW127935   3.374   3.687   4.297 -1.8087  0.6639 -0.0708
 5491SOL    HW227936   3.465   3.779   4.231  2.0609  2.1658  1.7488
 5492SOL     OW27937   2.750   4.217   6.801  0.4488  0.3215  0.8870
 5492SOL    HW127938   2.666   4.179   6.775 -1.1955  2.7425  2.5970
 5492SOL    HW227939   2.743   4.228   6.896 -0.1451  3.1714  0.5402
 5493SOL     OW27940   0.915   2.831   9.239  0.0452  0.2825 -0.2979
 5493SOL    HW127941   0.962   2.914   9.236  0.6543 -0.0449  0.4200
 5493SOL    HW227942   0.956   2.781   9.309 -1.8870 -1.7233 -0.5666
 5494SOL     OW27943   0.624   3.076  10.189 -0.4685  0.5881 -0.4966
 5494SOL    HW127944   0.648   3.094  10.098 -1.8963  0.4895 -0.8889
 5494SOL    HW227945   0.617   3.168  10.217  3.1154  0.2225  1.6006
 5495SOL     OW27946   3.605   3.506   7.348  0.5152 -0.2274  0.1605
 5495SOL    HW127947   3.517   3.479   7.376 -0.4763  1.1040 -1.6617
 5495SOL    HW227948   3.591   3.600   7.337  3.3385  0.0148 -1.3034
 5496SOL     OW27949   4.265   0.423   4.873  0.7992  0.1839 -0.2015
 5496SOL    HW127950   4.236   0.507   4.837 -1.2161  0.0158  1.0253
 5496SOL    HW227951   4.358   0.428   4.848  0.9530  0.0049  0.3285
 5497SOL     OW27952   3.447   2.501   5.111  0.6447  0.2929 -0.7312
 5497SOL    HW127953   3.407   2.535   5.030  1.4680 -0.7600 -1.5830
 5497SOL    HW227954   3.447   2.580   5.164 -3.4269 -0.3781  0.2982
 5498SOL     OW27955   2.198   1.054   2.122 -0.0381 -0.0631 -0.1091
 5498SOL    HW127956   2.227   1.122   2.061 -1.6939  1.0638  0.3581
 5498SOL    HW227957   2.104   1.069   2.113 -0.2335  0.1181  2.2467
 5499SOL     OW27958   0.650   0.795   6.666 -0.6239 -0.0410  0.3325
 5499SOL    HW127959   0.595   0.848   6.608  1.1824  0.7668 -0.6289
 5499SOL    HW227960   0.606   0.814   6.749 -0.4915 -0.9461  0.6126
 5500SOL     OW27961   3.258   1.626   9.544 -0.0013 -0.1865 -0.3144
 5500SOL    HW127962   3.311   1.706   9.539 -1.2900  0.6555 -0.6755
 5500SOL    HW227963   3.171   1.662   9.526  1.2498  2.0876 -1.7904
 5501SOL     OW27964   2.229   1.108   3.891  0.3171 -0.0800  0.1882
 5501SOL    HW127965   2.280   1.162   3.830  0.6216 -2.5173 -1.6834
 5501SOL    HW227966   2.152   1.162   3.907  0.2870 -0.5025  1.4738
 5502SOL     OW27967   3.960   1.341   4.450 -0.2891  0.5190  0.3853
 5502SOL    HW127968   3.879   1.392   4.455 -2.5019 -3.0223  0.9254
 5502SOL    HW227969   4.027   1.409   4.458  0.9662 -0.7333  0.4621
 5503SOL     OW27970   3.934   3.097   1.564  0.5744  0.7710 -0.0261
 5503SOL    HW127971   3.906   3.078   1.475 -1.0732  1.3748  0.3638
 5503SOL    HW227972   3.898   3.185   1.576  0.3133  0.7586 -0.7081
 5504SOL     OW27973   2.579   3.605   8.226 -0.3518 -0.5930 -0.3552
 5504SOL    HW127974   2.570   3.518   8.265 -0.6267 -0.3350  0.1586
 5504SOL    HW227975   2.561   3.660   8.303  0.6413  1.2730 -1.4704
 5505SOL     OW27976   0.119   3.539   2.853 -0.3143  0.2469  0.3861
 5505SOL    HW127977   0.072   3.502   2.927 -2.1319  2.8077  0.5373
 5505SOL    HW227978   0.119   3.459   2.801 -3.0609  2.0594 -2.4110
 5506SOL     OW27979   3.645   1.852  15.469 -0.8975  0.2129 -0.5014
 5506SOL    HW127980   3.732   1.856  15.507 -0.6054 -2.5203 -0.8742
 5506SOL    HW227981   3.586   1.853  15.545  0.7383  2.0958  0.7526
 5507SOL     OW27982   1.292   1.987   6.501 -0.4420  0.5620 -0.3174
 5507SOL    HW127983   1.228   1.928   6.460  2.9163 -2.2906 -1.5057
 5507SOL    HW227984   1.306   2.059   6.440 -1.2428 -0.4102 -1.6678
 5508SOL     OW27985   1.851   2.992  13.030 -0.0406 -0.0164 -0.3339
 5508SOL    HW127986   1.796   2.917  13.050 -1.0385  0.8361  0.0727
 5508SOL    HW227987   1.886   3.014  13.117 -0.7633  0.7444 -0.2351
 5509SOL     OW27988   1.338   3.406   8.897  0.1424  0.3340  0.1141
 5509SOL    HW127989   1.262   3.376   8.847 -0.7250  3.4631 -0.4696
 5509SOL    HW227990   1.370   3.321   8.924  2.0829  1.4609  1.3634
 5510SOL     OW27991   1.313   1.048   7.884 -0.0541 -0.3788 -0.4008
 5510SOL    HW127992   1.247   1.065   7.817 -1.3617 -1.5274  0.5875
 5510SOL    HW227993   1.328   0.953   7.874 -1.0263 -0.5966  0.2177
 5511SOL     OW27994   1.961   1.688   3.427 -0.4019 -0.4572  0.4313
 5511SOL    HW127995   1.898   1.626   3.464 -1.1434 -0.7440 -1.3097
 5511SOL    HW227996   2.031   1.646   3.478 -0.8096 -1.3869  0.2248
 5512SOL     OW27997   2.218   3.566   7.181 -0.5267  0.1199 -0.0965
 5512SOL    HW127998   2.128   3.547   7.153 -0.4158 -1.0486  0.3627
 5512SOL    HW227999   2.260   3.509   7.118 -2.4651  1.1097 -2.2863
 5513SOL     OW28000   2.928   1.817   9.245 -0.2957 -0.4650 -0.5479
 5513SOL    HW128001   2.892   1.849   9.328 -0.3454  1.5702 -1.3448
 5513SOL    HW228002   2.858   1.839   9.184 -0.4462  0.8389  0.1013
 5514SOL     OW28003   0.565   3.955   8.267 -0.0933  0.5883 -0.4084
 5514SOL    HW128004   0.644   3.978   8.317 -0.0493  1.4595 -0.8946
 5514SOL    HW228005   0.600   3.891   8.204 -1.8838 -2.7565  1.9993
 5515SOL     OW28006   0.348   0.898   0.477  0.1252 -0.0414 -0.2752
 5515SOL    HW128007   0.440   0.919   0.465  0.7347 -1.1513  2.5156
 5515SOL    HW228008   0.334   0.834   0.406  1.7569 -0.6747 -0.0117
 5516SOL     OW28009   0.667   0.447   0.067  0.1689 -0.4035  0.0791
 5516SOL    HW128010   0.741   0.387   0.061 -0.0046 -0.4227 -2.0971
 5516SOL    HW228011   0.719   0.526   0.082 -1.2392  0.7082 -0.7910
 5517SOL     OW28012   1.865   2.419   6.753 -0.8871  0.2221  0.1630
 5517SOL    HW128013   1.792   2.377   6.708 -1.0894  0.3560  0.3636
 5517SOL    HW228014   1.935   2.410   6.689 -0.0705  0.7233  0.9745
 5518SOL     OW28015   0.844   1.623   7.536 -0.1804 -0.0153  0.1679
 5518SOL    HW128016   0.860   1.638   7.629  0.5163  0.4866 -0.0379
 5518SOL    HW228017   0.765   1.569   7.543  0.8158 -1.5510 -0.5137
 5519SOL     OW28018   3.023   0.796   8.804  0.2859  0.0124 -0.3233
 5519SOL    HW128019   3.107   0.766   8.771  1.6572  2.4287  0.9433
 5519SOL    HW228020   3.047   0.810   8.896 -0.0634 -1.6662  0.0195
 5520SOL     OW28021   4.180   1.315  11.792  0.1590  0.0716 -0.3573
 5520SOL    HW128022   4.239   1.384  11.823  1.7817 -1.0252 -1.0127
 5520SOL    HW228023   4.158   1.270  11.874 -1.0977 -1.0455 -1.2951
 5521SOL     OW28024   0.408   1.929   5.460 -0.4858  0.7743  0.5333
 5521SOL    HW128025   0.462   2.006   5.441  2.2896 -1.2748  0.1392
 5521SOL    HW228026   0.467   1.874   5.511  0.1086  0.0200 -0.9745
 5522SOL     OW28027   2.902   1.544   9.802  0.0758 -0.3365 -0.2076
 5522SOL    HW128028   2.888   1.452   9.825  0.1698 -0.2575  0.1541
 5522SOL    HW228029   2.843   1.537   9.727  2.3237  1.9907 -2.2054
 5523SOL     OW28030   2.606   1.466   9.191  0.2226  0.2242 -0.0645
 5523SOL    HW128031   2.537   1.402   9.207  2.2011 -2.4171 -1.9903
 5523SOL    HW228032   2.681   1.413   9.163 -1.5249 -2.4841  0.4656
 5524SOL     OW28033   4.638   0.405   6.744 -0.1918 -0.0610  0.5630
 5524SOL    HW128034   4.684   0.435   6.666  1.7589 -1.1520  1.2844
 5524SOL    HW228035   4.706   0.417   6.811 -0.4269 -0.4048  0.8630
 5525SOL     OW28036   1.871   3.651   2.765  0.5120  0.5280 -0.4441
 5525SOL    HW128037   1.851   3.729   2.816 -0.5387  0.2876 -0.5000
 5525SOL    HW228038   1.961   3.677   2.745  0.7939 -0.4886 -0.4753
 5526SOL     OW28039   1.398   2.369  16.615  0.3894 -0.6216 -0.0668
 5526SOL    HW128040   1.366   2.440  16.558 -0.3379 -0.8453  0.0783
 5526SOL    HW228041   1.424   2.299  16.556 -0.3521  0.1383 -1.3023
 5527SOL     OW28042   3.755   0.071   5.573 -0.2674  0.4328 -0.1277
 5527SOL    HW128043   3.683   0.077   5.510 -1.4746 -0.1053  1.1887
 5527SOL    HW228044   3.719   0.056   5.661  1.1988  1.8224  0.7266
 5528SOL     OW28045   2.140   2.050   6.483  0.1533  0.5250 -0.0346
 5528SOL    HW128046   2.133   2.070   6.577 -1.2634 -1.7397  0.3555
 5528SOL    HW228047   2.049   2.071   6.463 -0.1441 -0.9785 -0.2928
 5529SOL     OW28048   1.019   4.236   0.154 -0.2795  0.2576 -0.2664
 5529SOL    HW128049   1.101   4.272   0.122 -0.5375  0.4758 -0.6829
 5529SOL    HW228050   0.951   4.258   0.090  0.5419  3.2718 -0.0956
 5530SOL     OW28051   0.637   2.489   1.697 -0.5711 -0.5765 -0.6628
 5530SOL    HW128052   0.697   2.529   1.761 -1.9867 -1.4101  1.1801
 5530SOL    HW228053   0.565   2.499   1.758  1.2636 -0.7400  1.5399
 5531SOL     OW28054   3.385   2.201   4.804 -0.2612 -0.2241  0.3092
 5531SOL    HW128055   3.463   2.255   4.816 -1.1065  0.8629  0.9128
 5531SOL    HW228056   3.361   2.213   4.713 -0.7065  4.3832  1.0329
 5532SOL     OW28057   1.099   3.894   2.758  0.2183 -0.9072 -0.9284
 5532SOL    HW128058   1.100   3.817   2.701 -0.6871  0.5845 -2.9518
 5532SOL    HW228059   1.115   3.860   2.846  0.2873  0.2249 -0.4956
 5533SOL     OW28060   1.127   1.395   4.629 -0.0925  0.2086 -0.3455
 5533SOL    HW128061   1.109   1.447   4.550  0.5016 -0.1113 -0.6913
 5533SOL    HW228062   1.071   1.317   4.625  0.5156 -0.2940  0.8357
 5534SOL     OW28063   2.805   2.129  12.043 -0.2732 -0.1790 -0.8292
 5534SOL    HW128064   2.872   2.063  12.024 -1.0541 -1.8220  1.9916
 5534SOL    HW228065   2.842   2.162  12.125  0.0495  0.5197 -1.2606
 5535SOL     OW28066   3.710   4.121   9.167 -0.2836  0.2443  0.6251
 5535SOL    HW128067   3.755   4.110   9.083  1.2691  0.2103  1.4742
 5535SOL    HW228068   3.647   4.049   9.176 -1.1369  1.0487  1.1201
 5536SOL     OW28069   0.024   1.875   7.197  0.2953  0.8257  0.3729
 5536SOL    HW128070   0.052   1.902   7.284 -0.1357  2.8147 -0.1096
 5536SOL    HW228071   4.703   1.955   7.169 -2.0957 -1.1178 -1.3032
 5537SOL     OW28072   3.747   1.642   7.926  0.3590  0.0666  0.0778
 5537SOL    HW128073   3.716   1.599   8.005 -1.9306  2.0970  0.2601
 5537SOL    HW228074   3.781   1.724   7.961  0.0752 -0.5453  1.8027
 5538SOL     OW28075   3.630   4.065   3.659 -0.2768  0.4566 -0.3425
 5538SOL    HW128076   3.701   4.038   3.716  0.5882 -0.2742 -1.7563
 5538SOL    HW228077   3.669   4.145   3.623  0.0131 -0.6827 -2.5839
 5539SOL     OW28078   0.223   3.900   7.694 -0.5892  0.3049 -0.2898
 5539SOL    HW128079   0.243   3.968   7.630 -1.2001  1.3240  0.5924
 5539SOL    HW228080   0.154   3.946   7.742 -2.0355 -2.0926 -0.0476
 5540SOL     OW28081   3.701   2.482   2.345  0.0775  0.0603  0.2671
 5540SOL    HW128082   3.665   2.507   2.260 -1.2788 -0.4092  0.7048
 5540SOL    HW228083   3.635   2.417   2.370  0.0045 -0.1741 -0.5467
 5541SOL     OW28084   2.300   4.169   6.376  0.1854  0.1842  0.2821
 5541SOL    HW128085   2.221   4.192   6.424 -0.9336  1.7225 -2.2958
 5541SOL    HW228086   2.311   4.230   6.303 -2.9111 -0.0579 -0.3527
 5542SOL     OW28087   4.224   3.956   0.650  0.1907 -0.3123 -0.0562
 5542SOL    HW128088   4.308   4.003   0.648 -0.9074  1.7247  2.0987
 5542SOL    HW228089   4.199   3.947   0.558  1.6334  1.7837 -0.6615
 5543SOL     OW28090   3.400   3.869   3.109  0.1718  0.1334 -0.0166
 5543SOL    HW128091   3.417   3.912   3.025 -0.5950  0.6635  0.1022
 5543SOL    HW228092   3.312   3.834   3.092  0.4726 -0.6899  0.1181
 5544SOL     OW28093   2.879   0.861   6.233  0.4433 -0.6720 -0.2215
 5544SOL    HW128094   2.945   0.792   6.226  1.9999  0.6593  1.3293
 5544SOL    HW228095   2.898   0.923   6.163  0.0550  2.3243  2.3376
 5545SOL     OW28096   0.883   1.810   3.048  0.2298  0.4437 -0.0693
 5545SOL    HW128097   0.914   1.725   3.016  0.5917  0.7888 -0.6296
 5545SOL    HW228098   0.968   1.854   3.055 -0.4335  1.6904 -0.0640
 5546SOL     OW28099   4.717   3.724   5.225  0.4332  0.1858 -0.1305
 5546SOL    HW128100   4.640   3.706   5.172  0.6697 -2.6867  0.5289
 5546SOL    HW228101   4.672   3.700   5.306  0.5219 -0.8483 -0.3844
 5547SOL     OW28102   3.045   0.667  10.599  0.0661 -0.1254 -0.3751
 5547SOL    HW128103   3.034   0.722  10.521  0.0359  0.9246  0.3602
 5547SOL    HW228104   2.967   0.612  10.593  1.5272 -2.1539 -0.6242
 5548SOL     OW28105   3.821   4.161   4.737 -0.2417 -0.2181 -0.5812
 5548SOL    HW128106   3.786   4.221   4.671  0.6050  1.7089  0.7596
 5548SOL    HW228107   3.760   4.087   4.739  0.4741 -0.8100 -0.8009
 5549SOL     OW28108   3.503   1.189   0.710 -0.3044  0.2763 -0.3601
 5549SOL    HW128109   3.501   1.247   0.787 -2.5809  1.2508 -1.1553
 5549SOL    HW228110   3.539   1.240   0.638 -2.1590  2.0906  0.0022
 5550SOL     OW28111   1.135   3.482   9.096 -0.0206  0.3998 -0.0263
 5550SOL    HW128112   1.217   3.457   9.054  0.5957  0.3143  1.2140
 5550SOL    HW228113   1.129   3.426   9.174  0.1847  1.2886  0.6264
 5551SOL     OW28114   2.050   3.582   6.716 -0.6053 -0.2137 -0.3632
 5551SOL    HW128115   2.044   3.549   6.627 -1.5747  0.7822 -0.6629
 5551SOL    HW228116   2.113   3.518   6.748  0.7907  1.3724  0.1127
 5552SOL     OW28117   0.402   4.400  15.927  0.0338 -0.1272 -0.1731
 5552SOL    HW128118   0.475   4.343  15.951  0.4079  0.1035 -0.7507
 5552SOL    HW228119   0.436   4.489  15.928 -0.3711 -0.0117  2.0575
 5553SOL     OW28120   2.162   1.767  15.778  0.6663 -0.6070  0.2761
 5553SOL    HW128121   2.089   1.809  15.731  2.2233  0.4521 -1.2014
 5553SOL    HW228122   2.109   1.722  15.844  0.0498  1.2300  1.0601
 5554SOL     OW28123   2.483   4.419   3.901  0.4729 -0.4174 -0.2227
 5554SOL    HW128124   2.387   4.420   3.894  0.4780  0.3665 -0.2441
 5554SOL    HW228125   2.506   4.431   3.993 -0.8179  0.6753 -0.0276
 5555SOL     OW28126   2.764   2.846   2.885  0.0904  0.0848 -0.4724
 5555SOL    HW128127   2.762   2.751   2.896  0.1760  0.1131 -0.2127
 5555SOL    HW228128   2.766   2.848   2.789  2.2110  2.3271 -0.3703
 5556SOL     OW28129   4.474   1.726   4.077 -0.0233  0.5873  0.4159
 5556SOL    HW128130   4.521   1.781   4.141 -0.3485 -0.8554  1.8927
 5556SOL    HW228131   4.498   1.762   3.992  2.3001 -1.9026  0.0172
 5557SOL     OW28132   1.634   2.682   3.962  0.5261  0.6151 -0.1836
 5557SOL    HW128133   1.709   2.692   4.021 -1.5933 -1.5941  2.8548
 5557SOL    HW228134   1.573   2.664   4.033  1.5449  0.3453  0.6078
 5558SOL     OW28135   3.853   0.068   6.455 -0.2425 -0.0567 -0.7354
 5558SOL    HW128136   3.887   0.113   6.377  1.7870 -1.0808 -0.4560
 5558SOL    HW228137   3.765   0.048   6.426  0.6525 -1.3045 -2.6056
 5559SOL     OW28138   4.406   0.591  15.650  0.0755  0.1603 -0.5832
 5559SOL    HW128139   4.425   0.537  15.573 -0.6646 -0.2614 -0.4718
 5559SOL    HW228140   4.343   0.654  15.617 -1.2955 -2.6347 -3.2503
 5560SOL     OW28141   1.715   0.114   5.255  0.5140  0.1732 -0.0574
 5560SOL    HW128142   1.781   0.071   5.309  1.3376  1.4141 -0.0592
 5560SOL    HW228143   1.635   0.089   5.301  1.1546 -2.1651 -0.2168
 5561SOL     OW28144   4.653   2.373  15.237  0.1871 -0.5640 -0.1889
 5561SOL    HW128145   4.562   2.351  15.256  0.0086  0.3720  0.0381
 5561SOL    HW228146   4.656   2.362  15.142 -1.5695 -0.4070 -0.2660
 5562SOL     OW28147   2.611   4.531  13.103 -0.0938  1.1199 -0.1462
 5562SOL    HW128148   2.578   4.510  13.016 -0.6583  0.0446  0.3256
 5562SOL    HW228149   2.703   4.513  13.083 -0.5488 -1.1164 -0.2934
 5563SOL     OW28150   2.120   4.254  14.522  0.0521  0.2046 -0.0366
 5563SOL    HW128151   2.103   4.258  14.616 -1.0527  1.4296 -0.2899
 5563SOL    HW228152   2.064   4.178  14.507  0.0340 -0.3306  2.7260
 5564SOL     OW28153   3.771   2.287  13.249  0.4548  1.2107  0.0641
 5564SOL    HW128154   3.784   2.365  13.196 -3.0193  0.0004 -2.5656
 5564SOL    HW228155   3.759   2.220  13.181  0.7749  0.3342  0.8752
 5565SOL     OW28156   0.186   0.741  15.649  0.0049 -0.4527 -0.1647
 5565SOL    HW128157   0.114   0.694  15.691 -2.8046  1.9376 -2.2494
 5565SOL    HW228158   0.133   0.764  15.572 -1.2021 -0.2781  0.7104
 5566SOL     OW28159   3.884   4.232   4.992 -0.3810 -0.0450 -0.1682
 5566SOL    HW128160   3.906   4.151   5.038 -1.3196  1.6798  3.2457
 5566SOL    HW228161   3.883   4.215   4.897 -0.2193  0.9544 -0.3509
 5567SOL     OW28162   3.642   3.479   2.250  0.3656  0.3359  0.2744
 5567SOL    HW128163   3.638   3.431   2.167 -0.9751  1.9565 -0.6148
 5567SOL    HW228164   3.597   3.420   2.310 -0.0454  0.4719  0.1029
 5568SOL     OW28165   4.478   2.206   8.739  0.0143  0.5465  0.0082
 5568SOL    HW128166   4.394   2.191   8.783  1.4093 -0.8444  2.1678
 5568SOL    HW228167   4.470   2.150   8.661 -0.1478  0.1099  0.3373
 5569SOL     OW28168   2.774   3.413  11.073  0.2081 -0.2596 -0.2356
 5569SOL    HW128169   2.778   3.508  11.088  3.2194 -0.3097 -0.7616
 5569SOL    HW228170   2.853   3.395  11.022 -1.0446 -0.7044 -1.9980
 5570SOL     OW28171   0.152   0.039   7.498  0.5761 -0.5232 -0.2671
 5570SOL    HW128172   0.059   0.063   7.494  0.6575 -0.2614 -0.6146
 5570SOL    HW228173   0.199   0.104   7.445 -2.2832  2.9466  1.4575
 5571SOL     OW28174   0.850   1.933   6.901  0.1286  0.2235  0.7511
 5571SOL    HW128175   0.911   1.944   6.828  1.3617  2.3361  2.1049
 5571SOL    HW228176   0.764   1.951   6.862  0.7354 -0.9587 -1.1050
 5572SOL     OW28177   2.990   1.983   8.223  0.2716  0.0795  0.0664
 5572SOL    HW128178   2.915   1.927   8.241  0.4851 -0.1716  0.1656
 5572SOL    HW228179   2.956   2.036   8.151  0.2824 -0.8054 -0.5888
 5573SOL     OW28180   2.415   3.469   7.798 -0.1871 -0.4130  0.0438
 5573SOL    HW128181   2.434   3.503   7.710 -0.0104  1.4368  0.8092
 5573SOL    HW228182   2.334   3.506   7.832  0.0990  0.6421 -0.4124
 5574SOL     OW28183   0.221   0.283  12.032  0.0338  0.6474  0.1823
 5574SOL    HW128184   0.199   0.373  12.007  0.1934  1.0008  1.3495
 5574SOL    HW228185   0.150   0.228  11.998 -1.3186  2.1992  0.5069
 5575SOL     OW28186   0.235   0.703   8.299  0.0576  0.6653  0.1723
 5575SOL    HW128187   0.175   0.683   8.227 -1.9613 -1.0103  2.3225
 5575SOL    HW228188   0.185   0.677   8.376 -0.4267 -3.1025 -1.4023
 5576SOL     OW28189   3.070   3.617   4.426  0.1471 -0.5396  0.0786
 5576SOL    HW128190   3.146   3.595   4.480  0.3109  0.3217  0.1853
 5576SOL    HW228191   3.003   3.567   4.473 -0.0056  0.8071  1.2645
 5577SOL     OW28192   1.694   0.663   6.088 -0.3725 -0.0797 -0.3415
 5577SOL    HW128193   1.752   0.717   6.033  1.7163 -1.7701  0.1836
 5577SOL    HW228194   1.626   0.720   6.123  0.2995 -0.3732  1.4164
 5578SOL     OW28195   4.344   0.831   9.193 -0.6006 -0.1435  0.2142
 5578SOL    HW128196   4.430   0.869   9.178 -1.9562  2.0075 -2.3073
 5578SOL    HW228197   4.357   0.737   9.183  1.2907  0.1548 -0.1641
 5579SOL     OW28198   1.975   1.704  13.974  0.0175 -0.5170  0.1292
 5579SOL    HW128199   1.998   1.635  14.037  0.1508  0.1669  0.8175
 5579SOL    HW228200   2.002   1.785  14.016 -0.3905  0.0261 -0.6611
 5580SOL     OW28201   1.004   1.537   2.242  0.3015 -0.1699  0.1406
 5580SOL    HW128202   1.018   1.477   2.169  2.4219 -0.4124  0.7572
 5580SOL    HW228203   0.979   1.615   2.192 -1.2041  0.0293  1.1936
 5581SOL     OW28204   3.972   1.693   8.196 -0.6098  0.6292 -0.2136
 5581SOL    HW128205   4.011   1.664   8.113  0.0295  1.0037 -0.0394
 5581SOL    HW228206   4.047   1.690   8.254 -0.9094  1.4736  0.2211
 5582SOL     OW28207   4.036   1.599   5.254 -0.1883 -0.0515 -0.1582
 5582SOL    HW128208   4.101   1.669   5.269  1.3766 -0.9730 -2.5239
 5582SOL    HW228209   4.065   1.573   5.166 -1.4530 -0.2678 -0.5018
 5583SOL     OW28210   4.696   2.854  14.978  0.0602  0.8161  0.4015
 5583SOL    HW128211   4.723   2.763  14.990 -2.1775  0.1791  0.7374
 5583SOL    HW228212   0.002   2.879  14.891  0.9046 -1.0801  0.1662
 5584SOL     OW28213   2.351   1.139  14.936 -0.0760  0.2615  0.8807
 5584SOL    HW128214   2.439   1.174  14.946 -0.2153  0.4533  1.4153
 5584SOL    HW228215   2.348   1.147  14.840  3.1116  0.8427  0.8445
 5585SOL     OW28216   0.944   1.774   2.127  0.6364 -0.3540 -0.0935
 5585SOL    HW128217   1.022   1.810   2.170 -0.9931  0.5126  2.1455
 5585SOL    HW228218   0.931   1.830   2.051 -0.4518  1.0993  1.1533
 5586SOL     OW28219   3.388   4.043   5.015  0.2221  0.4002  0.9096
 5586SOL    HW128220   3.298   4.010   5.020  0.7671 -1.2734 -0.6166
 5586SOL    HW228221   3.375   4.121   4.961  0.1114 -0.3080 -0.0726
 5587SOL     OW28222   1.654   1.393   2.062 -0.2182  0.2217  0.1133
 5587SOL    HW128223   1.678   1.447   1.986  1.0733  0.1411  0.4690
 5587SOL    HW228224   1.579   1.346   2.027 -0.0572  0.9898 -1.2750
 5588SOL     OW28225   1.899   3.170   5.332  0.3900  0.2376  0.3035
 5588SOL    HW128226   1.942   3.137   5.411  1.7647  0.8257 -0.2024
 5588SOL    HW228227   1.973   3.220   5.298  0.9106 -0.7538 -0.0388
 5589SOL     OW28228   2.655   4.381  16.976  0.2649 -0.4350 -0.3980
 5589SOL    HW128229   2.716   4.427  17.034  1.9479 -1.0839 -1.6534
 5589SOL    HW228230   2.605   4.457  16.946 -0.0334 -0.1783  0.7485
 5590SOL     OW28231   0.852   0.370  13.143 -0.3345 -0.1640  0.4229
 5590SOL    HW128232   0.924   0.313  13.170 -0.3323 -0.0868  0.5797
 5590SOL    HW228233   0.861   0.427  13.219  0.3775  2.9214 -1.9241
 5591SOL     OW28234   2.657   0.536   4.328  0.7831 -0.0219 -0.1640
 5591SOL    HW128235   2.682   0.595   4.257 -2.8655 -0.8955 -2.1891
 5591SOL    HW228236   2.656   0.595   4.403  2.0958 -1.8061  1.2710
 5592SOL     OW28237   2.669   1.953   3.987 -0.1930 -0.1921 -0.0972
 5592SOL    HW128238   2.685   2.045   3.966 -1.5047  0.7168  2.9144
 5592SOL    HW228239   2.746   1.915   3.945  0.5248  2.2307 -0.9708
 5593SOL     OW28240   3.953   3.395   4.673  0.3948  0.1873  0.3510
 5593SOL    HW128241   3.948   3.429   4.763 -0.2846 -0.6588  0.6405
 5593SOL    HW228242   3.871   3.345   4.664 -0.0104  0.7162  1.0591
 5594SOL     OW28243   3.147   4.219  12.689 -0.0555  0.8601  0.2073
 5594SOL    HW128244   3.232   4.229  12.732  0.0149  0.8032  0.0799
 5594SOL    HW228245   3.170   4.235  12.598 -1.1644 -1.3323 -0.4610
 5595SOL     OW28246   3.067   0.193   7.220 -0.8838  0.8167 -0.1177
 5595SOL    HW128247   3.112   0.190   7.304 -1.1348  0.5746  0.0072
 5595SOL    HW228248   3.115   0.129   7.168  0.9482  1.3596  0.9117
 5596SOL     OW28249   3.274   0.981   1.762 -0.2728  0.7609  0.2369
 5596SOL    HW128250   3.350   1.036   1.743  0.7768 -0.6295  0.3468
 5596SOL    HW228251   3.325   0.900   1.768 -1.3349  0.1707  1.1349
 5597SOL     OW28252   0.679   2.580  15.543  0.2216  0.0660 -0.4910
 5597SOL    HW128253   0.710   2.647  15.604 -1.3958  1.7127 -1.4664
 5597SOL    HW228254   0.618   2.627  15.486  1.2373  0.0121 -1.6370
 5598SOL     OW28255   4.020   1.464  12.884 -0.2763 -0.3176  0.0673
 5598SOL    HW128256   4.092   1.520  12.910 -1.0951 -0.1473  1.9678
 5598SOL    HW228257   4.000   1.414  12.963 -2.9008  1.4464  0.5299
 5599SOL     OW28258   4.339   2.334  15.493  0.4783  0.3953  0.2066
 5599SOL    HW128259   4.252   2.320  15.455 -0.0094  1.6638  0.8763
 5599SOL    HW228260   4.388   2.271  15.439  1.0061 -0.2012  1.3992
 5600SOL     OW28261   4.540   3.540   5.819 -0.2483 -0.1836  1.3443
 5600SOL    HW128262   4.617   3.550   5.762 -1.9870 -1.6210 -1.2562
 5600SOL    HW228263   4.468   3.504   5.767  0.8286 -0.3530 -0.0534
 5601SOL     OW28264   4.389   3.258   5.822 -0.0804  0.2482 -0.2564
 5601SOL    HW128265   4.436   3.217   5.894  0.7640 -0.0796 -0.9917
 5601SOL    HW228266   4.298   3.230   5.834 -0.3969  1.6405  0.6118
 5602SOL     OW28267   4.568   1.245   5.626  0.8347  0.1058  0.1153
 5602SOL    HW128268   4.501   1.189   5.663 -1.6602  2.3659 -0.9745
 5602SOL    HW228269   4.599   1.193   5.552 -1.1982 -2.0270  0.7903
 5603SOL     OW28270   2.210   0.236   6.904 -0.0063  0.1774 -0.0411
 5603SOL    HW128271   2.118   0.260   6.893 -0.0567 -0.1475 -0.3015
 5603SOL    HW228272   2.255   0.304   6.853  1.6302  0.9911  2.5133
 5604SOL     OW28273   2.501   0.107   2.106  0.5473 -0.0370  0.0499
 5604SOL    HW128274   2.554   0.127   2.030  0.4500  0.9993  0.2639
 5604SOL    HW228275   2.484   0.196   2.135  1.1799 -0.3800  1.4730
 5605SOL     OW28276   0.410   2.959   4.806 -0.2525 -0.1076  0.2179
 5605SOL    HW128277   0.328   2.930   4.846 -0.3145 -0.9120 -0.5097
 5605SOL    HW228278   0.473   2.942   4.876  0.6198  1.7348 -0.1213
 5606SOL     OW28279   4.550   1.946   4.765  0.2048  0.2016 -0.0929
 5606SOL    HW128280   4.635   1.922   4.729 -0.1661 -1.1336 -0.0897
 5606SOL    HW228281   4.582   2.018   4.819 -1.4616 -0.3089  1.5801
 5607SOL     OW28282   3.623   2.189   7.641  0.5839  0.1128 -0.3283
 5607SOL    HW128283   3.718   2.187   7.657  0.1425 -1.1551  2.3042
 5607SOL    HW228284   3.606   2.278   7.614 -1.4446  0.9094  3.5116
 5608SOL     OW28285   1.518   2.357   4.684  0.2139 -0.3975 -0.1808
 5608SOL    HW128286   1.439   2.407   4.707  1.2854  1.4524 -0.4669
 5608SOL    HW228287   1.587   2.399   4.736 -1.5204  0.0318  1.7982
 5609SOL     OW28288   0.277   0.479  15.625 -0.4498  0.4829 -0.2149
 5609SOL    HW128289   0.255   0.569  15.648 -0.6622  0.0052  1.4301
 5609SOL    HW228290   0.357   0.508  15.581 -0.6232  1.6156  0.2182
 5610SOL     OW28291   1.958   3.215   9.505  0.3556 -0.2795  0.8932
 5610SOL    HW128292   1.874   3.223   9.550  0.3679  1.3423  0.6320
 5610SOL    HW228293   1.949   3.290   9.447 -0.5712 -0.3015  1.0116
 5611SOL     OW28294   3.884   3.411  15.757 -0.0913 -0.6756 -0.3004
 5611SOL    HW128295   3.849   3.494  15.789 -0.0978 -0.1658 -1.6137
 5611SOL    HW228296   3.973   3.430  15.729 -0.5374 -1.6686 -2.4129
 5612SOL     OW28297   3.767   2.374  16.770  0.3718 -0.3248  0.9963
 5612SOL    HW128298   3.710   2.310  16.729 -0.8712  1.6006 -0.2918
 5612SOL    HW228299   3.731   2.452  16.728  3.0369  0.8227  0.8466
 5613SOL     OW28300   0.054   0.404  14.991  0.0009 -0.9481 -0.2695
 5613SOL    HW128301   0.138   0.408  14.945  0.0234 -0.6764 -0.2061
 5613SOL    HW228302   0.017   0.490  14.971  1.7317  0.3483  2.1707
 5614SOL     OW28303   3.800   2.564   9.230 -0.3733  0.0037 -0.4672
 5614SOL    HW128304   3.839   2.594   9.148 -1.3842  2.2784 -0.1166
 5614SOL    HW228305   3.869   2.505   9.259  0.5806  1.6180  0.5723
 5615SOL     OW28306   3.088   3.129   0.786  0.2606  0.0782  0.0827
 5615SOL    HW128307   3.037   3.105   0.863 -2.4638  0.1158 -1.7150
 5615SOL    HW228308   3.049   3.213   0.763  0.6363  0.8423  2.2781
 5616SOL     OW28309   3.140   4.469   9.012 -0.4044 -0.3249 -0.0995
 5616SOL    HW128310   3.226   4.510   9.022  1.0313 -2.9953 -1.4648
 5616SOL    HW228311   3.085   4.537   8.974 -0.3192  0.0667  0.4670
 5617SOL     OW28312   4.149   4.168   8.452 -0.1299 -0.2274  0.3077
 5617SOL    HW128313   4.158   4.262   8.467  3.9025 -0.2439 -1.8292
 5617SOL    HW228314   4.152   4.127   8.539 -1.3980 -2.2775 -0.6279
 5618SOL     OW28315   3.925   2.749   6.530 -0.4916 -0.2203 -0.2436
 5618SOL    HW128316   3.989   2.721   6.595  0.3678  1.1034 -0.5240
 5618SOL    HW228317   3.981   2.797   6.468 -0.5469 -0.6306 -0.6178
 5619SOL     OW28318   0.265   4.310  10.992  0.1781  0.0649  0.2510
 5619SOL    HW128319   0.345   4.267  10.963  0.2874  1.0314 -0.8853
 5619SOL    HW228320   0.292   4.348  11.076  0.0853 -1.1971  0.8546
 5620SOL     OW28321   2.748   1.937  14.942 -0.2017 -0.5845  0.0140
 5620SOL    HW128322   2.813   1.868  14.929  1.0962  0.8110 -0.8831
 5620SOL    HW228323   2.803   2.011  14.967 -0.1840  0.1360 -2.1456
 5621SOL     OW28324   2.539   0.156   2.624  0.1571 -0.1508  0.1275
 5621SOL    HW128325   2.559   0.247   2.647 -1.0792  0.2592 -0.3978
 5621SOL    HW228326   2.580   0.117   2.701 -0.5812 -0.1080  0.5401
 5622SOL     OW28327   2.603   4.575   5.596 -0.1162 -0.1749  0.1894
 5622SOL    HW128328   2.625   4.596   5.505  1.1444  0.8065  0.7243
 5622SOL    HW228329   2.607   4.480   5.597  2.6805 -0.0464  2.2899
 5623SOL     OW28330   0.096   3.662   4.728  0.1460  0.0661 -0.0839
 5623SOL    HW128331   0.116   3.612   4.648 -0.7750  0.6222 -0.6670
 5623SOL    HW228332   0.184   3.665   4.764  0.3294  1.0864 -0.6212
 5624SOL     OW28333   0.258   3.565  15.444  0.2402  0.6912 -0.2495
 5624SOL    HW128334   0.209   3.511  15.506  0.8686  0.9286  0.4706
 5624SOL    HW228335   0.287   3.486  15.399  0.0964  1.5422 -1.8330
 5625SOL     OW28336   1.663   4.454   8.707 -0.0804  0.1796 -0.3773
 5625SOL    HW128337   1.645   4.364   8.733  3.2605  0.3008  2.3452
 5625SOL    HW228338   1.746   4.425   8.670  1.0115  1.8616  0.7884
 5626SOL     OW28339   4.569   0.281   5.537  0.2544 -0.1898  0.1497
 5626SOL    HW128340   4.606   0.224   5.469  1.5452  2.1283 -1.1094
 5626SOL    HW228341   4.484   0.298   5.496  0.2313  1.1030  0.7359
 5627SOL     OW28342   0.375   2.538  17.142  0.2061 -0.7349 -0.2811
 5627SOL    HW128343   0.366   2.632  17.158  0.2623 -1.4543  4.1039
 5627SOL    HW228344   0.415   2.518  17.227  1.0843  0.9557 -0.2903
 5628SOL     OW28345   1.361   3.911   0.918 -0.3941  0.5863 -0.7898
 5628SOL    HW128346   1.331   3.836   0.970  1.1565  1.4149  1.3213
 5628SOL    HW228347   1.285   3.968   0.932  0.5883  1.2920  1.8062
 5629SOL     OW28348   1.663   4.555   4.053 -0.0796  0.1776 -0.3496
 5629SOL    HW128349   1.665   4.627   4.117  1.1282 -0.2908  0.1410
 5629SOL    HW228350   1.570   4.539   4.037 -0.2886  1.2575 -0.2351
 5630SOL     OW28351   0.902   4.268  16.270  0.3394 -0.0705  0.1572
 5630SOL    HW128352   0.865   4.255  16.357  1.6162 -1.5263  0.4904
 5630SOL    HW228353   0.922   4.178  16.244  0.2239  0.1298 -0.6466
 5631SOL     OW28354   0.607   4.593  16.660  0.0200  0.5505  0.2533
 5631SOL    HW128355   0.664   4.522  16.689  1.7479  1.9288  0.2324
 5631SOL    HW228356   0.531   4.549  16.620 -0.1542  1.2047 -0.1314
 5632SOL     OW28357   0.446   0.803   7.403 -0.0685 -0.1294 -0.5756
 5632SOL    HW128358   0.466   0.747   7.328 -2.7244 -1.9126  0.0554
 5632SOL    HW228359   0.522   0.859   7.422 -1.0194  1.1351 -0.4993
 5633SOL     OW28360   0.437   2.651   7.306 -0.6094 -0.1324  0.0476
 5633SOL    HW128361   0.414   2.714   7.238  0.7159  0.8754  0.5352
 5633SOL    HW228362   0.459   2.579   7.247  1.3387 -0.1353  0.7808
 5634SOL     OW28363   1.123   3.763   9.131 -0.2254  0.2920 -0.1098
 5634SOL    HW128364   1.117   3.671   9.104  5.8210  0.1088 -0.8535
 5634SOL    HW228365   1.143   3.756   9.224 -2.8225  1.9373  0.5476
 5635SOL     OW28366   2.806   4.115   2.406 -0.5582 -0.7826  0.3273
 5635SOL    HW128367   2.878   4.070   2.448  1.4823  1.7034 -0.4961
 5635SOL    HW228368   2.742   4.120   2.478  0.4754  1.2097  1.1028
 5636SOL     OW28369   1.311   2.428  14.972  0.4891  0.0062  0.4186
 5636SOL    HW128370   1.253   2.428  15.048  0.7109  1.0422  0.5903
 5636SOL    HW228371   1.252   2.401  14.902 -1.9869  0.7150  2.2370
 5637SOL     OW28372   0.329   3.193   7.741  0.4277 -0.0368  0.5575
 5637SOL    HW128373   0.414   3.157   7.767  0.0845  0.2520  2.0626
 5637SOL    HW228374   0.292   3.228   7.822 -0.6221 -2.7942  1.2794
 5638SOL     OW28375   1.787   2.935   5.891  0.0182  0.5908  0.0522
 5638SOL    HW128376   1.784   2.880   5.813 -0.4057 -0.2373  0.6535
 5638SOL    HW228377   1.861   2.993   5.878  0.4795  0.1307  0.6246
 5639SOL     OW28378   4.100   1.246   6.152  0.2797  0.1742  0.3990
 5639SOL    HW128379   4.075   1.154   6.145 -0.2267  0.2742  0.8690
 5639SOL    HW228380   4.186   1.235   6.112  0.7055  0.4871  1.2241
 5640SOL     OW28381   1.215   0.898  16.384 -0.5538 -0.0988 -0.1103
 5640SOL    HW128382   1.165   0.980  16.384 -0.8275 -0.2679 -0.2130
 5640SOL    HW228383   1.146   0.833  16.380 -1.0838  0.4669 -0.2359
 5641SOL     OW28384   0.639   2.516   6.522 -0.1329 -0.2483 -0.7876
 5641SOL    HW128385   0.556   2.488   6.561  0.1161  1.5391  1.0086
 5641SOL    HW228386   0.614   2.603   6.488  1.1900  0.2300 -0.5251
 5642SOL     OW28387   0.733   4.103   5.873  0.1874  0.0098 -0.4242
 5642SOL    HW128388   0.651   4.144   5.901  0.0651 -0.3453 -0.2594
 5642SOL    HW228389   0.694   4.017   5.856 -0.1203  0.4164 -1.7424
 5643SOL     OW28390   3.310   3.427   5.522 -0.3287  0.4677 -0.1113
 5643SOL    HW128391   3.399   3.427   5.555 -0.2276 -1.0255 -0.3818
 5643SOL    HW228392   3.276   3.354   5.574 -0.8602 -0.6918 -2.0895
 5644SOL     OW28393   4.219   1.410   6.402  0.2296  0.1500 -0.4791
 5644SOL    HW128394   4.173   1.481   6.357 -0.1338  0.1165 -0.1678
 5644SOL    HW228395   4.263   1.369   6.327  2.4994  0.2494  0.8155
 5645SOL     OW28396   1.856   3.483  15.849 -0.0201 -0.5875 -0.2789
 5645SOL    HW128397   1.768   3.445  15.849  0.4258 -1.6227  0.2889
 5645SOL    HW228398   1.911   3.405  15.857  0.0767 -0.3264  1.4926
 5646SOL     OW28399   4.219   2.144   4.591 -0.1127 -0.1185  0.9591
 5646SOL    HW128400   4.238   2.051   4.579  2.7333  0.7249 -1.1187
 5646SOL    HW228401   4.143   2.148   4.649 -1.6519  1.5356 -1.2012
 5647SOL     OW28402   1.332   2.040  12.976  0.3236 -0.1551 -0.2429
 5647SOL    HW128403   1.363   1.949  12.978  0.0554 -0.2029  2.6758
 5647SOL    HW228404   1.405   2.078  13.025  0.3622  2.1741 -2.1225
 5648SOL     OW28405   2.739   3.638   5.914  0.0394  0.3194 -0.0783
 5648SOL    HW128406   2.775   3.686   5.988  1.5040  3.2923 -2.7334
 5648SOL    HW228407   2.665   3.698   5.904 -1.7440 -1.5591  1.9882
 5649SOL     OW28408   3.796   1.153  10.173  0.3455  0.5263  0.3082
 5649SOL    HW128409   3.830   1.067  10.199  0.0065  0.8904  2.0061
 5649SOL    HW228410   3.830   1.195  10.253  0.3226  0.7306  0.2107
 5650SOL     OW28411   3.172   3.498  16.897  0.0062  0.0890 -0.0497
 5650SOL    HW128412   3.111   3.433  16.863  0.3538  0.2073 -0.8964
 5650SOL    HW228413   3.229   3.518  16.823  1.5258  1.4284  1.4981
 5651SOL     OW28414   3.727   3.950   8.783  0.0262 -0.1680 -0.2051
 5651SOL    HW128415   3.655   3.895   8.813 -0.4360  0.2382 -0.5792
 5651SOL    HW228416   3.771   3.894   8.719 -0.3132 -1.7576  0.9521
 5652SOL     OW28417   4.253   3.056  11.707 -0.3038  0.0673  0.0869
 5652SOL    HW128418   4.158   3.044  11.699 -0.4984  2.6482 -1.6601
 5652SOL    HW228419   4.256   3.075  11.801  0.2503 -1.4533  0.3693
 5653SOL     OW28420   4.607   2.249   1.238 -0.0929  0.5834 -0.0817
 5653SOL    HW128421   4.650   2.278   1.319 -3.2420  1.2949  1.3297
 5653SOL    HW228422   4.656   2.172   1.210  1.1571  0.8943  1.2482
 5654SOL     OW28423   2.879   3.708   5.667  0.2865 -0.0925  0.4792
 5654SOL    HW128424   2.861   3.724   5.760  1.0841 -0.5039  0.7061
 5654SOL    HW228425   2.878   3.795   5.626  0.3632 -0.0256  0.6174
 5655SOL     OW28426   3.433   0.586   0.753  0.5184  0.6795 -0.3047
 5655SOL    HW128427   3.509   0.605   0.698 -0.0244  1.9818 -0.5851
 5655SOL    HW228428   3.417   0.491   0.745  0.2194  0.6919  0.1567
 5656SOL     OW28429   1.888   3.764  15.815 -0.0301  0.2993 -0.7617
 5656SOL    HW128430   1.952   3.775  15.886 -1.8393  1.0112  0.7465
 5656SOL    HW228431   1.852   3.675  15.821 -0.1105  0.5327  2.0114
 5657SOL     OW28432   1.938   2.808   6.103 -0.7334  0.1659  0.0316
 5657SOL    HW128433   1.862   2.762   6.140 -0.2012  0.0937  1.0300
 5657SOL    HW228434   1.911   2.823   6.012 -0.7103 -1.1107 -0.1936
 5658SOL     OW28435   2.391   0.282  17.306 -0.3278 -0.3219 -0.3573
 5658SOL    HW128436   2.397   0.297  17.212  0.7481 -1.0968 -0.4160
 5658SOL    HW228437   2.296   0.274  17.316 -0.2731 -1.1130 -0.5264
 5659SOL     OW28438   3.082   1.345   8.465  0.1419  0.2049  0.5050
 5659SOL    HW128439   3.037   1.274   8.419 -0.5156 -0.4280  2.1152
 5659SOL    HW228440   3.125   1.396   8.397  0.4581 -1.6087 -0.6457
 5660SOL     OW28441   1.282   2.932   8.654 -0.2781  0.3396 -0.1578
 5660SOL    HW128442   1.231   2.901   8.579 -0.7070  0.3268  0.1370
 5660SOL    HW228443   1.213   2.975   8.705 -0.9220 -0.1686 -0.6021
 5661SOL     OW28444   1.341   1.291   9.881 -0.6277  0.8787  0.1513
 5661SOL    HW128445   1.320   1.308   9.973 -2.5106 -1.6246  0.1808
 5661SOL    HW228446   1.348   1.372   9.829 -3.0027 -0.8805 -2.9294
 5662SOL     OW28447   4.229   3.692  13.766  0.3542 -0.3929 -0.2017
 5662SOL    HW128448   4.147   3.696  13.716  1.1604  1.9345 -1.3118
 5662SOL    HW228449   4.270   3.777  13.749  1.8311 -1.0798 -0.0877
 5663SOL     OW28450   1.294   3.226   2.345 -0.2179  0.4570  0.2923
 5663SOL    HW128451   1.267   3.215   2.436 -0.6187 -1.5942 -0.0741
 5663SOL    HW228452   1.211   3.202   2.303  0.2527  0.4951 -0.6653
 5664SOL     OW28453   3.104   3.690   7.279 -0.1609  0.2840 -0.7297
 5664SOL    HW128454   3.041   3.712   7.211 -0.1361 -2.7408 -1.7216
 5664SOL    HW228455   3.191   3.709   7.243 -0.2597  0.2260 -0.9981
 5665SOL     OW28456   1.484   3.624   9.022 -1.0639  0.6485  0.4401
 5665SOL    HW128457   1.436   3.550   8.986  1.0530 -1.1281  1.2100
 5665SOL    HW228458   1.570   3.590   9.049 -0.1735  1.2273 -1.6628
 5666SOL     OW28459   3.020   1.275   0.307  0.2927  0.6977 -0.4612
 5666SOL    HW128460   3.087   1.335   0.273  2.3158 -0.6065  1.2575
 5666SOL    HW228461   3.009   1.320   0.391 -0.4098  0.4056 -0.3965
 5667SOL     OW28462   2.582   1.286  13.118  0.2475 -0.4445 -0.8375
 5667SOL    HW128463   2.572   1.228  13.042  0.8829 -2.1065  0.3435
 5667SOL    HW228464   2.566   1.228  13.192 -0.1996  3.1749  1.8954
 5668SOL     OW28465   0.876   4.396  12.597 -0.1010 -0.0917 -0.5012
 5668SOL    HW128466   0.917   4.405  12.683 -1.0538 -1.5170  0.1054
 5668SOL    HW228467   0.936   4.333  12.557  0.3860  0.4888 -0.6809
 5669SOL     OW28468   4.348   0.675   4.168  0.3834  0.4907 -0.3406
 5669SOL    HW128469   4.280   0.620   4.207  0.5481 -0.5398 -1.4872
 5669SOL    HW228470   4.333   0.687   4.074 -1.0204 -0.4600 -0.2381
 5670SOL     OW28471   0.072   1.922   4.635  0.4370 -0.1140  0.1614
 5670SOL    HW128472   0.084   1.897   4.543  0.4303  0.0069  0.1277
 5670SOL    HW228473   0.112   2.008   4.646 -1.3284  0.7006  0.2617
 5671SOL     OW28474   0.091   3.668  12.852 -0.5631  0.2029  0.3855
 5671SOL    HW128475   0.109   3.645  12.761 -0.5546 -1.7137  0.8661
 5671SOL    HW228476   0.113   3.761  12.851  1.4772 -0.2766  1.3628
 5672SOL     OW28477   3.313   0.958   9.487  0.0743  0.0384 -0.1198
 5672SOL    HW128478   3.393   0.999   9.520  1.2945 -3.0551  0.7696
 5672SOL    HW228479   3.339   0.927   9.400  0.1524 -2.0651  0.6547
 5673SOL     OW28480   0.236   0.863   6.184  0.5964  0.3843 -0.7137
 5673SOL    HW128481   0.257   0.836   6.094  0.5235 -2.4230  0.0989
 5673SOL    HW228482   0.280   0.797   6.237  0.3206  0.9810  0.2531
 5674SOL     OW28483   3.682   0.891  12.667  0.2493 -0.2560 -0.3016
 5674SOL    HW128484   3.772   0.919  12.648  0.7862 -1.3350  0.6554
 5674SOL    HW228485   3.629   0.969  12.678  0.5789  0.0911 -1.1442
 5675SOL     OW28486   2.606   2.453   1.013  0.8239  0.3611  0.4081
 5675SOL    HW128487   2.621   2.408   0.930 -0.6652  2.4334 -0.9660
 5675SOL    HW228488   2.663   2.398   1.066  0.9335  0.1892  0.1114
 5676SOL     OW28489   0.015   1.067   6.911 -0.2611  0.4932  0.4013
 5676SOL    HW128490   4.703   0.985   6.945 -1.1039  0.8793  0.4289
 5676SOL    HW228491   4.664   1.111   6.872 -0.1863  0.3856  0.1346
 5677SOL     OW28492   0.769   2.082   8.850 -0.3102 -0.4239  0.2618
 5677SOL    HW128493   0.695   2.115   8.798 -0.5475  1.9633  2.1101
 5677SOL    HW228494   0.721   2.019   8.904 -1.1059  0.0562  0.1186
 5678SOL     OW28495   1.349   1.298   6.106 -0.3100  0.0274  0.2278
 5678SOL    HW128496   1.331   1.377   6.056  1.3816  0.1452 -0.1859
 5678SOL    HW228497   1.293   1.303   6.183 -1.8957 -0.2314 -0.9126
 5679SOL     OW28498   0.726   1.556   9.019 -0.1498  0.3313 -0.0360
 5679SOL    HW128499   0.711   1.651   9.013  0.2485  0.3892 -0.1523
 5679SOL    HW228500   0.821   1.555   9.007 -0.2873  0.7875 -1.1444
 5680SOL     OW28501   2.470   0.580  15.588 -0.0772 -0.5049 -0.2030
 5680SOL    HW128502   2.552   0.554  15.546  0.2161  0.8096 -0.4471
 5680SOL    HW228503   2.459   0.653  15.527 -0.0153 -0.5791 -0.3030
 5681SOL     OW28504   0.450   2.853   4.568 -0.0661  0.0866  0.1801
 5681SOL    HW128505   0.434   2.892   4.655 -1.3026 -0.6581  0.2900
 5681SOL    HW228506   0.434   2.763   4.596 -2.3448  0.3920 -0.1284
 5682SOL     OW28507   4.392   3.434  10.350  0.7143  0.0574  0.5865
 5682SOL    HW128508   4.459   3.398  10.407  0.4956  0.2610  0.9675
 5682SOL    HW228509   4.428   3.418  10.262  1.5384  1.2414  0.7151
 5683SOL     OW28510   0.697   0.153   1.402 -0.0126 -0.1065  0.2341
 5683SOL    HW128511   0.738   0.129   1.485  0.3144 -1.0215 -0.1943
 5683SOL    HW228512   0.762   0.122   1.340  1.8892 -0.6879  2.5475
 5684SOL     OW28513   3.919   0.135   8.220  0.0067 -0.0794  0.1865
 5684SOL    HW128514   3.912   0.192   8.144  1.0558 -2.1446 -1.4770
 5684SOL    HW228515   3.967   0.066   8.175 -0.4011  1.3651 -2.4594
 5685SOL     OW28516   3.813   0.818   3.262  0.1643  0.3082 -0.2004
 5685SOL    HW128517   3.834   0.906   3.293 -2.8123  1.6254 -1.9871
 5685SOL    HW228518   3.840   0.830   3.171 -1.6944  1.4395 -0.5994
 5686SOL     OW28519   1.591   3.210  11.855 -0.4876 -0.0260 -0.1803
 5686SOL    HW128520   1.597   3.117  11.878 -1.5498 -0.0238  0.1139
 5686SOL    HW228521   1.635   3.221  11.771  0.2013  0.2279  0.2124
 5687SOL     OW28522   0.977   0.459   2.135  0.0379  0.2523 -0.0455
 5687SOL    HW128523   1.030   0.533   2.103 -0.2405  1.6251  2.7021
 5687SOL    HW228524   0.899   0.478   2.083  1.4268  1.3812 -1.7242
 5688SOL     OW28525   3.386   4.665   3.778 -0.5566  0.1653  0.6730
 5688SOL    HW128526   3.361   4.647   3.687  2.5868 -5.8040  1.0245
 5688SOL    HW228527   3.467   4.715   3.783 -0.2881 -0.2570  0.5267
 5689SOL     OW28528   0.395   1.068  17.000 -0.1841  0.2601 -0.0026
 5689SOL    HW128529   0.336   1.142  17.015 -0.7701 -0.1015 -0.4786
 5689SOL    HW228530   0.367   1.020  17.078  0.7525 -2.5118 -1.3865
 5690SOL     OW28531   3.433   1.680  10.370  0.3540 -0.4090  0.9100
 5690SOL    HW128532   3.486   1.613  10.413 -0.2260 -1.7943 -0.5259
 5690SOL    HW228533   3.431   1.655  10.277  0.1291 -0.0828  0.8291
 5691SOL     OW28534   3.948   2.462   3.081  0.6271 -0.0750 -0.0916
 5691SOL    HW128535   3.914   2.378   3.050  1.9214 -0.5409 -0.2450
 5691SOL    HW228536   3.906   2.463   3.167  2.4511  2.7443  0.8007
 5692SOL     OW28537   3.899   3.374   1.537 -0.2490 -0.1226 -0.3510
 5692SOL    HW128538   3.948   3.454   1.517  0.7907 -0.6094  0.2548
 5692SOL    HW228539   3.842   3.359   1.461 -3.6180  1.2518  1.9238
 5693SOL     OW28540   0.317   1.204   3.449  0.0726 -0.2573 -0.1242
 5693SOL    HW128541   0.364   1.126   3.480  2.2775  1.1735  0.0918
 5693SOL    HW228542   0.225   1.182   3.435 -0.2942  1.0727  0.2472
 5694SOL     OW28543   0.118   4.265   7.768  0.1815 -0.5323 -0.2651
 5694SOL    HW128544   0.065   4.276   7.847  1.4104 -1.2089  0.6469
 5694SOL    HW228545   0.201   4.237   7.806  0.0146 -2.0945 -1.0488
 5695SOL     OW28546   4.374   2.416   7.422  0.4770 -0.1269  0.1854
 5695SOL    HW128547   4.411   2.357   7.488 -2.3042 -3.0336 -0.8343
 5695SOL    HW228548   4.310   2.352   7.390 -2.8606  2.8111  1.0029
 5696SOL     OW28549   4.494   3.132  14.397 -0.4004 -0.3479  0.1232
 5696SOL    HW128550   4.589   3.138  14.407 -0.6987  1.1892  2.1272
 5696SOL    HW228551   4.460   3.139  14.487 -0.2210  1.5302  0.0473
 5697SOL     OW28552   3.588   4.477   6.272 -0.3908 -0.3907  0.4174
 5697SOL    HW128553   3.653   4.407   6.276 -0.3134 -0.1539  3.2450
 5697SOL    HW228554   3.559   4.479   6.363 -0.3051  1.4222  0.4071
 5698SOL     OW28555   3.796   1.502   5.358 -0.3142 -0.3967 -0.5765
 5698SOL    HW128556   3.801   1.497   5.453 -1.5798 -0.5779 -0.5178
 5698SOL    HW228557   3.880   1.544   5.342 -0.5255  0.2518  0.0342
 5699SOL     OW28558   0.544   1.203  16.428  0.0185 -0.3128  0.3049
 5699SOL    HW128559   0.551   1.267  16.500 -0.3694  0.2110 -0.1184
 5699SOL    HW228560   0.448   1.196  16.430  0.1034 -1.3939  0.1906
 5700SOL     OW28561   3.390   4.020   7.322 -0.4912 -0.4425 -0.5072
 5700SOL    HW128562   3.392   4.115   7.331 -0.7106 -0.6628  2.0480
 5700SOL    HW228563   3.422   4.026   7.232  0.1721 -1.2834 -0.3316
 5701SOL     OW28564   4.532   0.608  13.796 -0.0599 -1.1318  0.7143
 5701SOL    HW128565   4.579   0.591  13.877 -0.6458 -1.7319  0.9357
 5701SOL    HW228566   4.584   0.562  13.730  0.2917 -0.2023  0.3429
 5702SOL     OW28567   2.717   2.563  15.366 -0.2555  0.9227 -0.0235
 5702SOL    HW128568   2.691   2.639  15.314  1.7213  2.2358  0.9115
 5702SOL    HW228569   2.646   2.560  15.429  0.3254  1.5953  0.6725
 5703SOL     OW28570   0.398   3.570  15.098 -0.1003 -0.9104  0.4117
 5703SOL    HW128571   0.439   3.606  15.177  0.8940  1.1651 -1.0308
 5703SOL    HW228572   0.390   3.477  15.117 -0.2158 -1.2490 -1.3078
 5704SOL     OW28573   1.281   1.733   7.155 -0.0835  0.0358  0.6123
 5704SOL    HW128574   1.346   1.785   7.107 -0.0388 -2.0893 -1.6478
 5704SOL    HW228575   1.245   1.671   7.092  0.7402 -0.6093  0.7725
 5705SOL     OW28576   0.329   3.502   7.842  0.2207 -0.2046 -1.0058
 5705SOL    HW128577   0.257   3.482   7.782  1.5426  1.6515 -3.2083
 5705SOL    HW228578   0.339   3.427   7.901 -1.6340 -0.5584 -1.1518
 5706SOL     OW28579   1.429   3.678   7.989 -0.0078 -0.2912 -0.1547
 5706SOL    HW128580   1.350   3.693   7.938  0.4558  2.0026 -0.2049
 5706SOL    HW228581   1.471   3.613   7.932 -1.6530 -2.0447  0.6288
 5707SOL     OW28582   1.749   4.078  17.666 -0.5388  0.1539  0.0230
 5707SOL    HW128583   1.817   4.070   0.034 -0.5774  0.6500  0.1251
 5707SOL    HW228584   1.738   3.984  17.655  0.6751 -0.0592  0.6783
 5708SOL     OW28585   0.197   3.122   4.423  0.1700  0.3369  0.2504
 5708SOL    HW128586   0.156   3.036   4.418  0.1615  0.3728 -0.2661
 5708SOL    HW228587   0.185   3.146   4.515  2.2328 -0.4765  0.7278
 5709SOL     OW28588   0.191   2.487   2.910 -0.3751  0.3863  0.4332
 5709SOL    HW128589   0.257   2.486   2.979 -0.8916  0.6161  0.9325
 5709SOL    HW228590   0.246   2.498   2.832  0.8382  0.7464  1.3460
 5710SOL     OW28591   0.966   0.582   7.714  0.0193  0.8885 -0.2199
 5710SOL    HW128592   0.902   0.520   7.681 -1.1622  2.4145 -0.8223
 5710SOL    HW228593   0.946   0.578   7.807  1.2057 -1.3002 -0.0526
 5711SOL     OW28594   0.089   1.562   8.558  0.4633  0.0846  0.3725
 5711SOL    HW128595   0.093   1.524   8.470  1.2207  0.0310  0.4345
 5711SOL    HW228596   0.145   1.638   8.540  3.8485 -2.7661 -1.0599
 5712SOL     OW28597   2.740   3.500   2.547 -0.2282 -0.5929 -0.5101
 5712SOL    HW128598   2.709   3.556   2.619  0.8927 -0.9405  0.2291
 5712SOL    HW228599   2.661   3.451   2.524 -1.4115  1.0041  0.0973
 5713SOL     OW28600   1.895   3.717   7.636  0.3164  0.2762 -0.6812
 5713SOL    HW128601   1.940   3.795   7.666 -1.1021  0.0400  2.0773
 5713SOL    HW228602   1.854   3.684   7.717  3.4222 -0.0738  0.7373
 5714SOL     OW28603   0.152   0.201   4.115 -0.1556  0.3823 -0.5456
 5714SOL    HW128604   0.214   0.171   4.049  0.8959 -0.9088  1.0170
 5714SOL    HW228605   0.091   0.127   4.117 -0.3747  0.6058  1.6125
 5715SOL     OW28606   0.694   2.764   8.534  0.3275  0.2176  0.4045
 5715SOL    HW128607   0.645   2.788   8.613  0.8357  0.7877  0.5578
 5715SOL    HW228608   0.777   2.769   8.582  0.8379 -0.7033 -0.3980
 5716SOL     OW28609   1.621   3.879   0.456  0.0876  0.3706 -0.4257
 5716SOL    HW128610   1.675   3.801   0.442  0.3473  0.6311 -0.8584
 5716SOL    HW228611   1.530   3.847   0.454  0.1671  0.2330 -2.0859
 5717SOL     OW28612   3.067   1.595  11.634 -0.3959  0.1110 -0.0551
 5717SOL    HW128613   3.034   1.534  11.699 -1.5413 -0.2021 -0.9351
 5717SOL    HW228614   3.158   1.567  11.647 -0.6927 -0.8684 -0.0886
 5718SOL     OW28615   4.460   4.421   8.155  0.1367 -0.2307 -0.1678
 5718SOL    HW128616   4.525   4.414   8.225  0.1887  1.2607 -0.0549
 5718SOL    HW228617   4.390   4.368   8.193 -0.5067  0.6570 -0.1033
 5719SOL     OW28618   1.556   1.287   0.408  0.4879  0.8941 -0.6673
 5719SOL    HW128619   1.595   1.374   0.397 -2.1338  1.9768 -1.5379
 5719SOL    HW228620   1.636   1.236   0.418  0.0647  0.7173  1.5971
 5720SOL     OW28621   4.502   0.581   1.836 -0.2222  0.4918  0.1627
 5720SOL    HW128622   4.408   0.583   1.852 -0.3090 -0.3571 -0.2658
 5720SOL    HW228623   4.518   0.506   1.779  1.3464  0.4097  0.6953
 5721SOL     OW28624   1.295   2.094   3.882  0.2022 -0.2038 -0.3003
 5721SOL    HW128625   1.274   2.151   3.956 -4.0284 -0.5344 -1.2589
 5721SOL    HW228626   1.315   2.154   3.810 -0.6969  1.5452  0.8925
 5722SOL     OW28627   4.252   3.311   8.582 -0.1454  0.1564  0.1793
 5722SOL    HW128628   4.278   3.222   8.607  1.0866  0.9060  1.5578
 5722SOL    HW228629   4.243   3.351   8.669 -1.8404 -0.8997  0.5048
 5723SOL     OW28630   3.403   4.721   9.672 -0.6832  0.2889 -0.0808
 5723SOL    HW128631   3.429   0.062   9.736  0.6140  0.9703 -1.2908
 5723SOL    HW228632   3.326   4.686   9.716 -1.5827  0.7208 -1.2878
 5724SOL     OW28633   2.032   4.366   8.868 -0.6762 -0.2530 -0.5171
 5724SOL    HW128634   2.059   4.376   8.777 -0.0091  0.1423 -0.2683
 5724SOL    HW228635   2.099   4.421   8.909  1.5025 -3.0404 -0.3347
 5725SOL     OW28636   1.119   0.858   3.550 -0.2989 -0.2764  0.2342
 5725SOL    HW128637   1.205   0.898   3.558  0.7499 -2.3208 -0.7630
 5725SOL    HW228638   1.070   0.939   3.543  2.0768  1.1601  0.2107
 5726SOL     OW28639   4.057   0.997   5.047 -0.0424  0.3572  0.3760
 5726SOL    HW128640   4.105   0.921   5.015  0.6379  0.6422  0.7159
 5726SOL    HW228641   4.092   1.069   4.995 -0.2957  1.0113  1.1037
 5727SOL     OW28642   3.287   1.038  11.790  0.4005  0.3486 -0.0583
 5727SOL    HW128643   3.360   1.047  11.851  0.6411 -1.9528  0.0011
 5727SOL    HW228644   3.251   1.127  11.791 -1.2665 -0.2959 -2.1720
 5728SOL     OW28645   0.395   0.424  16.546 -0.3824  0.1295 -0.4440
 5728SOL    HW128646   0.426   0.394  16.460 -1.6831 -1.4901 -0.3497
 5728SOL    HW228647   0.430   0.510  16.519  1.0436 -0.8819 -1.8422
 5729SOL     OW28648   2.045   3.613   2.195  0.4841  0.2777  0.1424
 5729SOL    HW128649   2.011   3.702   2.208  1.0107  0.8803 -2.5327
 5729SOL    HW228650   2.022   3.576   2.280  1.7304  0.8107  0.7058
 5730SOL     OW28651   0.780   0.807   1.660 -0.3273 -0.8178  0.3305
 5730SOL    HW128652   0.703   0.809   1.716  0.8552  2.4580  1.7952
 5730SOL    HW228653   0.764   0.745   1.589  1.0619  1.0238 -1.5931
 5731SOL     OW28654   3.905   0.672   5.955 -0.3789  0.4321 -0.3437
 5731SOL    HW128655   3.810   0.669   5.947 -0.3969  0.9485 -0.3282
 5731SOL    HW228656   3.936   0.594   5.910 -1.9205  0.5466 -1.5910
 5732SOL     OW28657   2.173   3.701   4.828  0.0399  0.0109  0.5004
 5732SOL    HW128658   2.181   3.612   4.863 -0.9329  0.3001  1.4503
 5732SOL    HW228659   2.096   3.696   4.772  1.5763 -0.5416 -1.5634
 5733SOL     OW28660   1.532   1.704   2.505  0.3075 -0.5239  0.2279
 5733SOL    HW128661   1.546   1.683   2.413  2.0369  1.0478  0.1489
 5733SOL    HW228662   1.443   1.668   2.514  0.6981 -1.5569 -0.0638
 5734SOL     OW28663   4.338   0.377   6.218 -0.0345  0.4836  0.1305
 5734SOL    HW128664   4.246   0.381   6.245 -0.1161 -0.4744  0.0145
 5734SOL    HW228665   4.362   0.294   6.259 -0.8303 -0.3469 -1.0513
 5735SOL     OW28666   1.820   2.448   2.395 -0.1855  0.3742  0.0586
 5735SOL    HW128667   1.866   2.527   2.366  0.7769 -0.0671  0.3536
 5735SOL    HW228668   1.785   2.414   2.313 -0.9128 -1.1289  1.0096
 5736SOL     OW28669   0.044   3.640  13.153  0.6888 -0.2391  0.1048
 5736SOL    HW128670   0.065   3.728  13.183 -1.5778  0.5103 -0.5351
 5736SOL    HW228671   0.078   3.642  13.064  0.4085  1.8654  0.0515
 5737SOL     OW28672   4.481   1.561   6.010 -0.7078  0.0554  0.2038
 5737SOL    HW128673   4.456   1.528   6.096 -0.9096  0.1895  0.1957
 5737SOL    HW228674   4.405   1.520   5.970 -0.2866 -1.2035  0.6974
 5738SOL     OW28675   3.675   2.492   7.935 -0.1777  0.3043 -0.0715
 5738SOL    HW128676   3.630   2.518   8.016  2.7114  1.8119  1.0642
 5738SOL    HW228677   3.671   2.399   7.954 -1.5648  0.2966 -0.3801
 5739SOL     OW28678   3.779   0.443   1.974  0.2533 -0.3024 -0.1807
 5739SOL    HW128679   3.702   0.391   1.997  0.6104 -0.9984 -0.5530
 5739SOL    HW228680   3.783   0.487   2.058  1.0873  0.7951 -0.8016
 5740SOL     OW28681   4.568   2.318  17.547  0.3175 -0.1045 -0.1651
 5740SOL    HW128682   4.602   2.373  17.476  0.1433  2.0293  1.4115
 5740SOL    HW228683   4.484   2.292  17.508 -0.9781  1.3455  1.7089
 5741SOL     OW28684   3.275   0.772   4.769 -0.5344  0.0511 -0.0417
 5741SOL    HW128685   3.340   0.815   4.825 -0.3885 -1.8450  1.2440
 5741SOL    HW228686   3.271   0.700   4.832 -1.8625 -1.6126 -2.0117
 5742SOL     OW28687   1.392   4.647   7.498 -0.1879 -0.0596  0.6681
 5742SOL    HW128688   1.299   4.668   7.505  0.1311  1.1856  1.2057
 5742SOL    HW228689   1.417   4.627   7.589  0.2224 -2.2256  0.0884
 5743SOL     OW28690   3.922   2.543  10.921 -0.2937 -0.0328  0.8072
 5743SOL    HW128691   3.930   2.476  10.989  0.0321 -0.1170  0.6867
 5743SOL    HW228692   4.000   2.597  10.933 -0.3703  0.8405 -2.9326
 5744SOL     OW28693   3.332   0.048   3.087  0.3160 -0.3081 -0.4236
 5744SOL    HW128694   3.324   4.688   3.129 -3.4104 -0.6748 -1.7967
 5744SOL    HW228695   3.239   0.070   3.073  0.4018 -0.0540 -0.6041
 5745SOL     OW28696   3.799   2.027  13.839  0.2767  0.0575  0.0947
 5745SOL    HW128697   3.763   1.951  13.793 -0.5867  0.8777 -0.5767
 5745SOL    HW228698   3.889   2.000  13.819 -0.4097 -0.0760 -2.8489
 5746SOL     OW28699   3.168   1.546   3.107  0.3901 -0.2958  0.1465
 5746SOL    HW128700   3.092   1.526   3.052  0.5154  0.8470 -0.4542
 5746SOL    HW228701   3.204   1.622   3.060 -1.4448 -0.6907 -1.8712
 5747SOL     OW28702   1.539   1.416   7.792 -0.4631 -0.3354  0.3796
 5747SOL    HW128703   1.512   1.355   7.861  0.4151 -1.8410 -0.6061
 5747SOL    HW228704   1.540   1.499   7.838 -1.8551  0.2313 -0.6015
 5748SOL     OW28705   2.054   0.289   6.095 -0.6693 -0.0292 -0.0781
 5748SOL    HW128706   2.050   0.377   6.131 -1.1658 -0.4272  0.8177
 5748SOL    HW228707   2.136   0.289   6.045  0.1685  2.8219  1.3012
 5749SOL     OW28708   1.776   2.467  16.828  0.5311  0.0406  0.0330
 5749SOL    HW128709   1.777   2.457  16.733 -2.3985  1.0127 -0.1098
 5749SOL    HW228710   1.721   2.544  16.840  0.2457  0.0110 -1.0675
 5750SOL     OW28711   0.403   3.300  11.962 -0.1542  0.2435 -0.7728
 5750SOL    HW128712   0.326   3.252  11.930  1.1190 -2.2445 -0.1270
 5750SOL    HW228713   0.401   3.276  12.055  2.6371  0.9580 -0.5340
 5751SOL     OW28714   1.815   1.845   0.396 -0.3199 -0.3295  0.3353
 5751SOL    HW128715   1.795   1.784   0.467 -2.6764  0.9624  0.7784
 5751SOL    HW228716   1.852   1.916   0.449  0.0886 -0.1462 -0.1918
 5752SOL     OW28717   3.681   1.050   7.367  0.1527 -0.3703  0.2309
 5752SOL    HW128718   3.701   0.973   7.314  0.4528 -0.5677  0.6336
 5752SOL    HW228719   3.618   1.097   7.312 -0.7860 -3.1877 -1.0985
 5753SOL     OW28720   4.164   2.059  15.634 -0.7813  0.0958  0.7030
 5753SOL    HW128721   4.165   2.092  15.724 -1.1188  1.1083  0.3318
 5753SOL    HW228722   4.243   2.005  15.628 -1.4576 -0.9261  0.9420
 5754SOL     OW28723   2.249   1.545   8.561  0.2425  0.5360 -0.3923
 5754SOL    HW128724   2.227   1.576   8.473 -1.1427 -2.0239 -0.9338
 5754SOL    HW228725   2.165   1.566   8.601  1.0272 -1.3831  2.2482
 5755SOL     OW28726   3.855   2.008   7.239  0.2763 -0.0400 -0.8290
 5755SOL    HW128727   3.844   1.913   7.246 -0.7028 -0.1421 -3.8819
 5755SOL    HW228728   3.775   2.047   7.276  0.9029  0.3900  0.0778
 5756SOL     OW28729   0.991   0.456   3.678  0.5808 -0.1746  0.0351
 5756SOL    HW128730   1.056   0.399   3.635  0.1543 -0.3857 -0.3361
 5756SOL    HW228731   0.945   0.497   3.604 -0.8505 -0.3650  0.8206
 5757SOL     OW28732   2.169   4.584   5.176 -0.0947  0.1208  0.0361
 5757SOL    HW128733   2.157   4.489   5.178  0.1333  0.0895 -0.1745
 5757SOL    HW228734   2.225   4.595   5.253  1.4433  0.8568 -1.1913
 5758SOL     OW28735   0.812   3.702  16.534 -0.2099 -0.3248  0.0751
 5758SOL    HW128736   0.734   3.709  16.590 -0.5511  1.1462 -0.5730
 5758SOL    HW228737   0.880   3.716  16.600 -1.6164  1.0480  1.2445
 5759SOL     OW28738   2.837   3.998  11.602 -0.2117  0.1040  0.4134
 5759SOL    HW128739   2.787   4.079  11.609 -0.1650  0.0740  1.1215
 5759SOL    HW228740   2.885   4.002  11.685  2.0831 -1.5882 -0.8531
 5760SOL     OW28741   1.988   4.023   5.829  0.0072 -0.0080  0.0164
 5760SOL    HW128742   1.927   3.949   5.822 -0.8524  0.9235 -2.4937
 5760SOL    HW228743   2.017   4.040   5.740 -2.1189  0.9224 -0.5004
 5761SOL     OW28744   2.154   1.390   6.193  0.2297  0.0705  0.2010
 5761SOL    HW128745   2.130   1.298   6.204 -0.7243  0.2171 -0.6751
 5761SOL    HW228746   2.210   1.381   6.116 -2.0767  0.2352 -1.5117
 5762SOL     OW28747   2.643   3.609   4.465 -0.4901 -0.0834 -0.0415
 5762SOL    HW128748   2.703   3.535   4.468  0.9078  1.0265 -0.8310
 5762SOL    HW228749   2.695   3.675   4.420 -1.1534  0.9265  0.6710
 5763SOL     OW28750   1.998   2.420   9.605 -0.1435  0.0939 -0.0881
 5763SOL    HW128751   1.986   2.497   9.661  3.4306  0.0627  0.7409
 5763SOL    HW228752   2.055   2.458   9.538  0.2418  0.2302  0.3112
 5764SOL     OW28753   1.905   3.859   2.230  0.8515  0.2838  0.1813
 5764SOL    HW128754   1.963   3.935   2.232  0.4229  0.6377 -0.6601
 5764SOL    HW228755   1.825   3.908   2.249  0.4180 -0.8187  1.1479
 5765SOL     OW28756   0.546   0.678   9.484 -0.3200 -0.2497  0.6807
 5765SOL    HW128757   0.463   0.708   9.448  0.2425  0.3494 -0.1079
 5765SOL    HW228758   0.532   0.710   9.574 -2.5195  1.0293 -0.1203
 5766SOL     OW28759   1.558   4.322   7.650  0.4874  0.3298 -0.2115
 5766SOL    HW128760   1.569   4.272   7.570  0.5543  1.1660 -0.7271
 5766SOL    HW228761   1.598   4.401   7.614  0.1235  2.3108  3.6890
 5767SOL     OW28762   2.363   0.679   6.656  0.0973  0.1553  0.5135
 5767SOL    HW128763   2.404   0.760   6.684  0.3986 -0.4234  1.7277
 5767SOL    HW228764   2.340   0.697   6.564  2.0865  0.7420  0.1329
 5768SOL     OW28765   2.164   0.290   8.026 -0.0429 -0.3054 -0.0672
 5768SOL    HW128766   2.135   0.216   8.078 -1.4087 -0.1248 -0.5800
 5768SOL    HW228767   2.197   0.254   7.944  1.7902  0.2391  0.4144
 5769SOL     OW28768   0.076   3.893   2.156 -0.1725  0.4890  0.1259
 5769SOL    HW128769   4.710   3.874   2.133 -0.0755  0.0885  0.0757
 5769SOL    HW228770   0.067   3.984   2.184 -0.2721  0.1919  1.0676
 5770SOL     OW28771   4.067   2.558   1.974  0.4484 -0.5395 -0.1714
 5770SOL    HW128772   4.135   2.591   1.916 -0.4940 -0.8740 -1.4743
 5770SOL    HW228773   4.010   2.635   1.969 -0.9133 -1.6137 -1.0394
 5771SOL     OW28774   1.887   4.416   4.145 -0.4594 -0.0742  0.1959
 5771SOL    HW128775   1.954   4.452   4.087  1.5047 -2.6883  0.9028
 5771SOL    HW228776   1.811   4.465   4.112  0.8825 -0.4652 -3.5374
 5772SOL     OW28777   0.686   4.304   5.302 -0.0461  0.5776 -0.5335
 5772SOL    HW128778   0.675   4.269   5.214 -0.1587 -0.5199 -0.0871
 5772SOL    HW228779   0.651   4.239   5.363  0.4233  1.9951  1.2822
 5773SOL     OW28780   1.082   2.622   2.846  0.0603 -0.0990  0.0974
 5773SOL    HW128781   1.121   2.539   2.874 -0.3124  0.1308  1.3067
 5773SOL    HW228782   1.067   2.597   2.755 -1.2528 -0.7078  0.4776
 5774SOL     OW28783   3.118   0.767  10.865  0.1614  0.1434  0.3055
 5774SOL    HW128784   3.071   0.846  10.839  1.5211  0.7322 -0.3823
 5774SOL    HW228785   3.102   0.703  10.795  0.7596  1.0642 -0.6787
 5775SOL     OW28786   4.262   1.460   8.910 -0.2837 -0.7291  0.0690
 5775SOL    HW128787   4.340   1.512   8.930 -1.3869  1.7763 -2.1396
 5775SOL    HW228788   4.296   1.396   8.847 -0.3466 -0.2158 -0.4910
 5776SOL     OW28789   3.044   2.881  15.313  0.3682 -0.0625  0.1719
 5776SOL    HW128790   3.067   2.817  15.246  1.4136  0.7406 -0.2453
 5776SOL    HW228791   3.129   2.925  15.316  0.0247  0.7946 -3.0741
 5777SOL     OW28792   0.787   3.226  11.198  0.6822 -0.1756 -0.0327
 5777SOL    HW128793   0.725   3.292  11.228 -1.0019 -2.6784  1.9559
 5777SOL    HW228794   0.841   3.218  11.277 -0.2385 -0.4028  0.5655
 5778SOL     OW28795   4.065   3.408   0.001 -0.0958 -0.1591 -0.3589
 5778SOL    HW128796   4.082   3.500  17.683 -0.7768  0.0908  0.3105
 5778SOL    HW228797   4.151   3.385   0.038 -0.0286  1.8040  0.7019
 5779SOL     OW28798   1.037   4.540   2.375 -0.0621 -0.0164 -0.0067
 5779SOL    HW128799   1.036   4.599   2.451 -2.2390  2.1367 -1.6933
 5779SOL    HW228800   1.021   4.461   2.426  0.1098 -1.4182 -2.1610
 5780SOL     OW28801   4.697   0.115   3.015 -0.3626  0.0408  0.7543
 5780SOL    HW128802   0.019   0.147   3.092 -1.1731  1.4397  0.6638
 5780SOL    HW228803   4.620   0.064   3.041 -2.0462  1.8649 -0.6327
 5781SOL     OW28804   0.813   0.254  11.710  0.1335 -0.1047 -0.2626
 5781SOL    HW128805   0.767   0.320  11.658  2.0183  0.4214 -1.3035
 5781SOL    HW228806   0.788   0.173  11.666  0.3699 -0.9810  1.2086
 5782SOL     OW28807   3.721   3.491  12.803  0.6085 -0.9014 -0.0472
 5782SOL    HW128808   3.773   3.473  12.882 -0.5031  1.9970  1.3517
 5782SOL    HW228809   3.648   3.542  12.839  1.6432  1.2651 -0.9725
 5783SOL     OW28810   1.250   0.382  11.831 -0.2160 -0.6746 -0.2130
 5783SOL    HW128811   1.169   0.395  11.881 -0.5797 -0.7132 -0.7833
 5783SOL    HW228812   1.227   0.401  11.739 -1.9199  1.7218  0.6988
 5784SOL     OW28813   2.184   4.325   1.400  0.3966 -0.1422  0.0138
 5784SOL    HW128814   2.174   4.347   1.308  2.2310  1.3167  0.1659
 5784SOL    HW228815   2.101   4.286   1.428  0.6486 -1.0328 -0.4832
 5785SOL     OW28816   3.323   1.359  13.427  0.0920 -0.0959 -0.5035
 5785SOL    HW128817   3.334   1.384  13.335  1.0697  0.6773 -0.1737
 5785SOL    HW228818   3.344   1.266  13.420 -1.2302 -0.5140  1.1816
 5786SOL     OW28819   0.763   2.356   3.434 -0.6061 -0.7454  0.2550
 5786SOL    HW128820   0.759   2.341   3.340 -0.9669  0.3097  0.0981
 5786SOL    HW228821   0.685   2.406   3.455  0.1596 -0.8828  3.5054
 5787SOL     OW28822   0.121   2.066   4.211 -0.0006 -0.1733  0.4528
 5787SOL    HW128823   0.047   2.034   4.159 -0.4599 -2.6789  2.6418
 5787SOL    HW228824   0.174   2.102   4.139 -0.5969 -2.4102 -1.1170
 5788SOL     OW28825   0.004   4.335   1.064 -0.0230 -0.6253  0.5910
 5788SOL    HW128826   4.662   4.389   1.107  0.0391 -1.2041  1.4006
 5788SOL    HW228827   4.686   4.252   1.042 -2.2818  0.5424  0.4999
 5789SOL     OW28828   0.421   3.341  16.106 -0.7133  0.0329  0.0786
 5789SOL    HW128829   0.392   3.409  16.044 -0.4414  0.2484  0.1892
 5789SOL    HW228830   0.359   3.278  16.069 -0.6174  0.2808 -0.5034
 5790SOL     OW28831   1.925   2.338   5.595  0.4365 -0.1078 -0.3680
 5790SOL    HW128832   1.867   2.319   5.521 -0.7046  1.2203  0.1937
 5790SOL    HW228833   1.983   2.406   5.562 -0.0758  0.7750  0.5566
 5791SOL     OW28834   3.192   2.241  11.558 -0.3715  0.3916 -0.2557
 5791SOL    HW128835   3.233   2.222  11.474  1.2328 -1.4631  0.9290
 5791SOL    HW228836   3.180   2.335  11.555  1.4735  0.5431 -2.4436
 5792SOL     OW28837   3.270   1.518   6.500 -0.4980 -0.6130  0.0953
 5792SOL    HW128838   3.230   1.432   6.514  1.4058 -1.3569  0.8776
 5792SOL    HW228839   3.286   1.543   6.591  0.4336  0.2864 -0.3065
 5793SOL     OW28840   2.857   0.915   4.434  0.0490 -0.9965  0.2129
 5793SOL    HW128841   2.775   0.950   4.468 -0.6173 -0.8316 -1.5492
 5793SOL    HW228842   2.821   0.853   4.370  0.0378 -1.0323  0.2539
 5794SOL     OW28843   0.356   3.154   7.465  0.4806 -0.4936  0.2586
 5794SOL    HW128844   0.360   3.170   7.560 -0.2293  0.1557  0.1766
 5794SOL    HW228845   0.447   3.137   7.439  0.5668 -0.6822  0.6832
 5795SOL     OW28846   2.050   1.546   9.725 -0.3612  0.0080  0.0638
 5795SOL    HW128847   1.979   1.608   9.710 -0.3845 -0.2114 -0.7143
 5795SOL    HW228848   2.080   1.583   9.809 -0.5650  0.0860  0.1014
 5796SOL     OW28849   1.350   1.504   4.871 -0.4669  0.1541  0.6136
 5796SOL    HW128850   1.259   1.499   4.900 -0.8407  1.1556 -0.3933
 5796SOL    HW228851   1.347   1.561   4.794 -0.4904  0.2437  0.6808
 5797SOL     OW28852   3.195   3.008   8.030  0.0604  0.9566 -0.4075
 5797SOL    HW128853   3.128   3.062   8.071  1.5293  0.6442  2.4242
 5797SOL    HW228854   3.219   2.952   8.104  0.8774 -0.7394 -1.9767
 5798SOL     OW28855   3.071   3.933   2.356  0.4922  0.0151 -0.5788
 5798SOL    HW128856   3.089   3.851   2.402 -1.0455 -0.0949 -0.1546
 5798SOL    HW228857   3.094   3.991   2.428  0.5698 -0.5631 -0.1351
 5799SOL     OW28858   4.484   2.683  11.387 -0.0316  0.3219 -0.3186
 5799SOL    HW128859   4.566   2.730  11.402  0.6323 -0.4197 -1.5903
 5799SOL    HW228860   4.419   2.737  11.432  0.4402  0.9123 -0.3558
 5800SOL     OW28861   4.466   4.019  11.495  0.2206 -0.0964 -0.4145
 5800SOL    HW128862   4.557   4.020  11.464  0.5208 -1.8078  0.4339
 5800SOL    HW228863   4.450   3.926  11.485  0.8155 -0.1581 -0.8180
 5801SOL     OW28864   1.508   0.119   1.406  0.3776 -0.5906  0.3906
 5801SOL    HW128865   1.541   0.197   1.452 -0.1588  0.7761 -1.5048
 5801SOL    HW228866   1.416   0.142   1.396  0.9830  0.6495 -2.3271
 5802SOL     OW28867   3.263   2.670   3.519 -0.0325 -0.3869 -0.1968
 5802SOL    HW128868   3.266   2.739   3.452 -2.1386  1.7120  1.8818
 5802SOL    HW228869   3.182   2.687   3.567  0.4739 -1.2395  0.9394
 5803SOL     OW28870   1.770   0.637  10.350 -0.5875  0.3114 -0.2653
 5803SOL    HW128871   1.851   0.598  10.318 -0.6241  0.7334 -0.8899
 5803SOL    HW228872   1.749   0.688  10.271 -3.1324 -1.0451 -0.4667
 5804SOL     OW28873   3.452   3.761   6.790 -0.8052 -0.1783  0.3683
 5804SOL    HW128874   3.445   3.824   6.718 -1.4110  0.9383  1.4082
 5804SOL    HW228875   3.522   3.802   6.842 -0.1052 -1.6993  0.6175
 5805SOL     OW28876   2.661   2.955   5.823 -0.1405  0.0411  0.5201
 5805SOL    HW128877   2.741   2.917   5.787 -1.9915 -1.7913 -1.6970
 5805SOL    HW228878   2.691   2.980   5.910 -1.1999  0.7382  0.6896
 5806SOL     OW28879   4.138   3.994   6.574  0.2808  0.3402 -0.3409
 5806SOL    HW128880   4.135   3.918   6.632  3.2266 -0.3603 -1.1129
 5806SOL    HW228881   4.213   3.981   6.516  0.3365 -0.0823 -0.1698
 5807SOL     OW28882   2.703   3.173   3.130 -0.2207  0.3943 -0.5952
 5807SOL    HW128883   2.700   3.198   3.223  1.6940  0.5884 -0.5932
 5807SOL    HW228884   2.700   3.078   3.140 -2.2679  0.2930 -2.1855
 5808SOL     OW28885   0.538   1.755   0.066  0.8398 -0.0149 -0.7559
 5808SOL    HW128886   0.487   1.705   0.130 -1.5690  0.0105 -2.6234
 5808SOL    HW228887   0.522   1.843   0.101 -1.5945  0.4270 -2.9484
 5809SOL     OW28888   1.906   0.232  17.671  0.2802  0.5682 -0.0617
 5809SOL    HW128889   1.965   0.282  17.616 -2.5292  4.4143  0.4371
 5809SOL    HW228890   1.959   0.227   0.051  0.5557 -0.9930 -0.3368
 5810SOL     OW28891   4.357   0.639   3.456  0.3392 -0.2286 -0.0804
 5810SOL    HW128892   4.430   0.587   3.423 -1.2696 -2.2154 -0.5221
 5810SOL    HW228893   4.281   0.581   3.465 -1.2981  2.0444  0.7843
 5811SOL     OW28894   2.907   2.303   2.917 -0.5898 -0.4039 -0.1723
 5811SOL    HW128895   2.931   2.308   3.010  1.1340  3.4718 -0.8199
 5811SOL    HW228896   2.869   2.216   2.908 -1.8340  0.0426  0.7734
 5812SOL     OW28897   2.334   0.625  13.095  0.4320 -0.1002 -0.3563
 5812SOL    HW128898   2.354   0.699  13.038 -0.0059 -0.0728 -0.4770
 5812SOL    HW228899   2.418   0.594  13.129  1.3461  1.0222 -1.6148
 5813SOL     OW28900   1.324   0.258   5.457  0.6525  0.6639 -0.6678
 5813SOL    HW128901   1.250   0.315   5.476  2.4569  2.8811 -0.3120
 5813SOL    HW228902   1.393   0.276   5.521 -0.1558  1.3996 -0.0130
 5814SOL     OW28903   2.605   3.246   6.654 -0.2695  0.1539 -0.1547
 5814SOL    HW128904   2.690   3.203   6.652 -1.0165 -1.2175 -2.5219
 5814SOL    HW228905   2.531   3.186   6.656 -0.1949  0.0230 -1.5983
 5815SOL     OW28906   4.262   2.977   8.424 -0.6141 -0.6180  0.7984
 5815SOL    HW128907   4.224   2.901   8.468 -1.2684 -1.4655 -1.2361
 5815SOL    HW228908   4.177   3.011   8.394 -0.2114 -0.1244  0.2349
 5816SOL     OW28909   1.902   2.774  12.546 -0.1182  0.2397 -0.5165
 5816SOL    HW128910   1.854   2.692  12.536 -0.2267  0.3655 -0.9982
 5816SOL    HW228911   1.942   2.789  12.461 -0.6107  2.7501 -0.2966
 5817SOL     OW28912   0.226   4.600  17.296  0.9787  0.1793  0.2093
 5817SOL    HW128913   0.192   4.655  17.367  1.5364  2.1746 -1.0570
 5817SOL    HW228914   0.152   4.595  17.235 -0.2627  2.3851  1.5034
 5818SOL     OW28915   3.836   0.858   6.696  0.1227 -0.0843  0.5036
 5818SOL    HW128916   3.794   0.888   6.615  0.2792  0.9793  0.8211
 5818SOL    HW228917   3.820   0.928   6.758 -3.5106 -0.0010 -0.5020
 5819SOL     OW28918   3.378   2.179   7.515 -0.1560 -0.2642  1.1584
 5819SOL    HW128919   3.427   2.104   7.549  2.7801  0.9519 -0.4576
 5819SOL    HW228920   3.443   2.246   7.532  0.1063 -0.4506  0.8870
 5820SOL     OW28921   2.762   3.428  16.049 -0.4023 -0.1800  0.0524
 5820SOL    HW128922   2.828   3.408  16.116  0.0295  0.7588 -0.0946
 5820SOL    HW228923   2.793   3.376  15.976 -0.4330  0.3788 -0.3571
 5821SOL     OW28924   1.956   2.953   7.969 -0.0603  0.1523  0.1346
 5821SOL    HW128925   2.024   2.958   8.036  0.3618 -1.8204 -0.1387
 5821SOL    HW228926   2.004   2.945   7.887 -1.0991  2.6572 -0.7033
 5822SOL     OW28927   1.489   0.926   0.260  0.3740  0.2269  0.0762
 5822SOL    HW128928   1.473   0.936   0.354 -0.6165 -1.2897  0.0687
 5822SOL    HW228929   1.566   0.981   0.247  1.0468 -1.0698 -1.4374
 5823SOL     OW28930   3.902   4.179  17.600  0.5398  0.4984 -0.5931
 5823SOL    HW128931   3.894   4.220  17.514 -1.3868  0.4087 -0.4598
 5823SOL    HW228932   3.969   4.237  17.635  0.3561 -0.6840  1.6880
 5824SOL     OW28933   3.727   2.719  12.384 -0.3865 -0.0903  0.5140
 5824SOL    HW128934   3.774   2.645  12.344 -0.8757  0.0379 -0.2908
 5824SOL    HW228935   3.747   2.786  12.319 -1.4074  0.9161  1.2504
 5825SOL     OW28936   4.160   0.875  14.436 -0.7729  0.2649  0.1917
 5825SOL    HW128937   4.217   0.831  14.499  0.1453  0.1242 -0.7246
 5825SOL    HW228938   4.075   0.832  14.448 -0.5738 -0.3101 -0.4067
 5826SOL     OW28939   0.621   0.083  13.391 -0.0231  0.1286 -0.7183
 5826SOL    HW128940   0.587   4.721  13.416  3.2441 -0.4962  1.6793
 5826SOL    HW228941   0.608   0.095  13.297  0.3451  0.4813 -0.7224
 5827SOL     OW28942   2.883   4.640   2.337  0.1955  0.2443 -0.4238
 5827SOL    HW128943   2.878   4.546   2.323 -0.0289  0.1386  0.3644
 5827SOL    HW228944   2.870   4.674   2.248  0.2746 -2.9385 -1.6316
 5828SOL     OW28945   0.204   2.855   1.460 -0.9329  0.6772 -0.2237
 5828SOL    HW128946   0.258   2.883   1.534 -2.2942 -0.7140  1.2710
 5828SOL    HW228947   0.267   2.834   1.391 -1.4391 -0.0523 -0.4608
 5829SOL     OW28948   0.142   0.131  17.040  0.5990  0.2227  0.0485
 5829SOL    HW128949   0.216   0.143  16.980  0.3793  1.3843  0.0123
 5829SOL    HW228950   0.107   0.220  17.043 -1.3620 -0.5213 -0.7987
 5830SOL     OW28951   0.195   1.535  16.092  0.1701 -1.0553  0.2047
 5830SOL    HW128952   0.120   1.492  16.135  0.1622  0.3999  1.6384
 5830SOL    HW228953   0.239   1.459  16.056 -1.0310 -1.9336  0.5758
 5831SOL     OW28954   3.462   4.405   4.868 -0.4037  0.5771 -0.4434
 5831SOL    HW128955   3.438   4.392   4.777  1.3639  2.4092 -1.1578
 5831SOL    HW228956   3.382   4.441   4.907 -1.1317  1.8930 -3.2119
 5832SOL     OW28957   1.013   3.217  13.426 -0.1060  0.6684  0.4530
 5832SOL    HW128958   0.984   3.306  13.407 -0.4288  0.3740 -0.4604
 5832SOL    HW228959   1.065   3.230  13.505  1.5693  0.5792 -0.6350
 5833SOL     OW28960   1.645   4.255  13.744  0.0784  0.1037 -0.3841
 5833SOL    HW128961   1.599   4.338  13.728  1.0127  0.6464 -0.2096
 5833SOL    HW228962   1.589   4.185  13.709  0.0605  0.1824 -0.5154
 5834SOL     OW28963   0.307   1.186   2.989  0.6168  0.0718  0.3753
 5834SOL    HW128964   0.368   1.123   2.953  2.9051  1.8065  1.2119
 5834SOL    HW228965   0.225   1.138   2.974  1.1333 -0.5719 -0.3584
 5835SOL     OW28966   0.242   1.455   8.775 -0.0379  0.1569 -0.1344
 5835SOL    HW128967   0.178   1.484   8.710  0.8006  1.2570 -0.4675
 5835SOL    HW228968   0.328   1.466   8.733  0.0616 -0.7327 -0.1659
 5836SOL     OW28969   3.927   2.847   3.322  0.6486 -0.2846 -0.7367
 5836SOL    HW128970   3.999   2.808   3.273 -0.2727 -1.4929 -1.1400
 5836SOL    HW228971   3.957   2.841   3.412 -0.0613  0.3833 -0.4539
 5837SOL     OW28972   0.646   1.044   6.049 -0.0286  0.0990  0.1537
 5837SOL    HW128973   0.621   0.954   6.070  0.5090 -0.5776 -2.1352
 5837SOL    HW228974   0.580   1.091   6.101  0.9496 -1.5988  2.9605
 5838SOL     OW28975   3.664   2.147   3.954  1.0086 -0.2596 -0.2516
 5838SOL    HW128976   3.718   2.226   3.958  0.9651 -0.2699  0.5543
 5838SOL    HW228977   3.698   2.096   4.028 -1.7774  0.2442  1.4027
 5839SOL     OW28978   0.729   1.714   2.592 -0.6426  0.5610  0.4223
 5839SOL    HW128979   0.793   1.646   2.570  1.6883  2.2208  2.0542
 5839SOL    HW228980   0.727   1.697   2.687  0.0726 -4.2628 -0.4246
 5840SOL     OW28981   4.697   3.234   7.838  0.6996 -0.4218  0.1656
 5840SOL    HW128982   4.660   3.263   7.754 -0.2092 -1.7479  0.1065
 5840SOL    HW228983   4.648   3.291   7.897  2.6726  1.9060 -0.4338
 5841SOL     OW28984   1.680   2.192   5.837 -0.1831 -0.6058 -0.0191
 5841SOL    HW128985   1.654   2.147   5.757 -0.1880  0.8547 -0.8366
 5841SOL    HW228986   1.612   2.256   5.857 -0.6187 -0.9503 -0.4072
 5842SOL     OW28987   3.810   3.764   1.714  0.6100 -0.2040  0.0394
 5842SOL    HW128988   3.792   3.829   1.646 -0.5618  0.2019  0.7329
 5842SOL    HW228989   3.776   3.697   1.655  3.4958 -0.3404 -1.4787
 5843SOL     OW28990   3.931   0.548   2.823 -0.1743 -0.9003 -0.2687
 5843SOL    HW128991   3.848   0.594   2.812  0.5917  0.3571 -0.8542
 5843SOL    HW228992   3.990   0.622   2.839  0.1341 -1.2735  0.3019
 5844SOL     OW28993   2.267   1.416  10.917 -0.2505 -0.0867 -0.1806
 5844SOL    HW128994   2.202   1.477  10.950  0.0584 -0.0250  0.3113
 5844SOL    HW228995   2.339   1.441  10.974 -1.0965  2.0701 -0.0640
 5845SOL     OW28996   3.642   0.235   3.572 -0.0096  0.2383 -0.2693
 5845SOL    HW128997   3.672   0.166   3.514 -0.5691  0.4648 -0.8209
 5845SOL    HW228998   3.569   0.275   3.525 -0.0775 -0.7874 -1.0194
 5846SOL     OW28999   2.681   4.258   7.436  0.7575  0.2542  0.1338
 5846SOL    HW129000   2.614   4.326   7.434  1.3151  0.8117  0.3300
 5846SOL    HW229001   2.677   4.226   7.526  1.2088 -0.9331 -0.2672
 5847SOL     OW29002   0.667   4.480   5.663  0.1122  0.0668 -0.7819
 5847SOL    HW129003   0.654   4.387   5.681  2.7246 -0.3087 -0.8308
 5847SOL    HW229004   0.622   4.517   5.739  2.6372  0.3927  0.5442
 5848SOL     OW29005   1.538   3.742   2.759 -0.4932  0.1291 -0.0117
 5848SOL    HW129006   1.570   3.768   2.672  1.1304  0.9297  0.8303
 5848SOL    HW229007   1.577   3.812   2.812  1.1453  0.3829 -1.5344
 5849SOL     OW29008   0.176   0.121   7.781 -0.0610 -0.4411  0.1129
 5849SOL    HW129009   0.244   0.116   7.714 -0.3046  0.9955 -0.2447
 5849SOL    HW229010   0.128   0.194   7.741  0.9388 -0.3383 -0.9150
 5850SOL     OW29011   3.935   3.399  15.117 -0.3156 -0.2778  0.0653
 5850SOL    HW129012   3.963   3.352  15.195  0.6035 -0.3508 -0.3065
 5850SOL    HW229013   3.991   3.365  15.047  1.2904 -1.6067  2.0143
 5851SOL     OW29014   0.397   2.139   3.735 -0.1984  0.1122 -0.0881
 5851SOL    HW129015   0.478   2.151   3.784  0.1084  0.8405 -0.7612
 5851SOL    HW229016   0.429   2.139   3.645  3.6254  1.7049  1.2578
 5852SOL     OW29017   1.317   0.590   6.981 -0.1597  0.2120 -0.0853
 5852SOL    HW129018   1.407   0.623   6.985 -0.7568  1.6089  1.5288
 5852SOL    HW229019   1.309   0.568   6.888  0.6392 -0.4701 -0.0009
 5853SOL     OW29020   0.790   0.655  17.497  0.0342  0.0068  0.6592
 5853SOL    HW129021   0.785   0.672  17.591 -0.8024 -1.4720  0.8858
 5853SOL    HW229022   0.879   0.687  17.482  0.7495 -2.0502  0.5379
 5854SOL     OW29023   2.345   1.375   5.191  0.6036 -0.1245 -0.3837
 5854SOL    HW129024   2.290   1.416   5.125 -2.8011 -0.7704  2.0284
 5854SOL    HW229025   2.338   1.289   5.151 -2.8396  0.9127 -1.9541
 5855SOL     OW29026   0.931   1.174   7.648 -0.0982 -0.4984  0.0114
 5855SOL    HW129027   0.922   1.176   7.553 -1.7383  1.2104  0.2198
 5855SOL    HW229028   0.932   1.264   7.681 -2.2084 -0.1265 -0.9644
 5856SOL     OW29029   2.481   4.341  16.604  0.2746  0.1591  0.2092
 5856SOL    HW129030   2.448   4.345  16.693  0.0711  1.6901  0.0591
 5856SOL    HW229031   2.547   4.409  16.615  2.6277 -2.4138  1.7612
 5857SOL     OW29032   3.407   0.894   7.101  0.0704 -0.7217  0.1354
 5857SOL    HW129033   3.359   0.964   7.144  0.2039 -0.9260  0.6160
 5857SOL    HW229034   3.422   0.846   7.182  0.2936  1.7416  1.5559
 5858SOL     OW29035   1.154   3.508   2.091  0.0955 -0.3228  0.0352
 5858SOL    HW129036   1.214   3.581   2.103  0.8518 -1.2403  1.7911
 5858SOL    HW229037   1.067   3.543   2.110  1.1471  2.3810 -0.1115
 5859SOL     OW29038   2.171   3.977   7.170 -0.2444  0.1603 -0.1862
 5859SOL    HW129039   2.130   3.909   7.116  0.4252  0.2786 -0.8478
 5859SOL    HW229040   2.099   4.039   7.187  1.4489  1.8602  0.6936
 5860SOL     OW29041   2.565   2.385   5.171 -0.1481 -0.1820 -0.8863
 5860SOL    HW129042   2.477   2.364   5.202 -1.2313  2.8340 -1.9903
 5860SOL    HW229043   2.604   2.442   5.237  0.8943 -1.9632  0.0310
 5861SOL     OW29044   1.955   3.653  13.250  0.3606 -0.4128 -0.3063
 5861SOL    HW129045   1.993   3.695  13.173  2.7673 -0.7440  0.7067
 5861SOL    HW229046   1.941   3.564  13.220  0.8867 -0.2295 -1.0841
 5862SOL     OW29047   4.405   4.495   3.148  0.4948  0.1528  0.4701
 5862SOL    HW129048   4.314   4.471   3.129  0.5699  0.4009 -0.2022
 5862SOL    HW229049   4.438   4.525   3.063  0.6487 -1.1154  0.0855
 5863SOL     OW29050   0.105   2.974   4.902 -0.7685 -0.1808  1.1624
 5863SOL    HW129051   0.109   3.015   4.988  1.7269 -2.5580  2.1671
 5863SOL    HW229052   0.026   3.020   4.872 -0.6021  0.0536  1.0876
 5864SOL     OW29053   1.882   4.065  14.522  0.6057  0.4603  0.3792
 5864SOL    HW129054   1.791   4.054  14.497  0.2806  0.8532  1.3905
 5864SOL    HW229055   1.886   4.020  14.607  0.7058 -0.7357 -0.2591
 5865SOL     OW29056   3.763   4.007   7.601 -0.2667 -0.0847  0.1827
 5865SOL    HW129057   3.814   3.945   7.548 -1.5425 -0.2710 -0.8432
 5865SOL    HW229058   3.827   4.026   7.669  2.1877 -1.4783 -1.7719
 5866SOL     OW29059   4.304   1.815   6.210 -0.0601  0.0927  0.6050
 5866SOL    HW129060   4.241   1.828   6.281  2.0677 -2.3968  2.9219
 5866SOL    HW229061   4.382   1.863   6.237  0.2619 -0.5563  0.8364
 5867SOL     OW29062   4.331   3.665   7.475  0.5426 -0.5265  0.3014
 5867SOL    HW129063   4.414   3.619   7.488  1.7144  0.8428 -2.2200
 5867SOL    HW229064   4.354   3.758   7.465  1.2187 -0.7787 -0.5742
 5868SOL     OW29065   2.278   0.463   2.787  0.8703  0.3885 -0.1081
 5868SOL    HW129066   2.309   0.494   2.702  2.7749  1.9595  1.1441
 5868SOL    HW229067   2.269   0.547   2.833  0.1170 -1.8430  3.7971
 5869SOL     OW29068   1.130   2.397   2.157  0.1569 -0.5468  0.3277
 5869SOL    HW129069   1.103   2.326   2.098  1.0386 -0.4195 -0.2248
 5869SOL    HW229070   1.043   2.435   2.169  1.2310  1.0741  2.8571
 5870SOL     OW29071   1.674   0.958   1.631 -0.2365 -0.3976  0.1441
 5870SOL    HW129072   1.758   0.922   1.601 -1.8044 -3.5824 -0.3769
 5870SOL    HW229073   1.652   1.010   1.555 -1.1280 -0.9150  0.0534
 5871SOL     OW29074   0.080   1.651   6.484  0.6937 -0.0662 -0.0895
 5871SOL    HW129075   0.115   1.580   6.536 -0.5013 -1.5861 -1.3543
 5871SOL    HW229076   0.147   1.679   6.422  0.8566  0.5408  0.3602
 5872SOL     OW29077   4.042   4.624   8.585  0.5246  0.1021 -0.3029
 5872SOL    HW129078   4.108   4.694   8.583 -0.8226  1.3883  1.2228
 5872SOL    HW229079   3.974   4.655   8.525  0.5663  2.1748  0.7220
 5873SOL     OW29080   3.142   3.427   7.457 -0.0372  0.4701  0.3991
 5873SOL    HW129081   3.094   3.462   7.532 -0.5241  3.7498 -1.4309
 5873SOL    HW229082   3.107   3.476   7.383 -2.6289 -1.4397  0.3403
 5874SOL     OW29083   1.374   4.627   2.565  0.1193 -0.0070  0.0986
 5874SOL    HW129084   1.375   4.614   2.660 -1.0156 -2.9921 -0.2964
 5874SOL    HW229085   1.372   4.722   2.556  0.6910  0.1662  1.8919
 5875SOL     OW29086   1.935   4.666  16.861 -0.1223 -0.0218 -0.0648
 5875SOL    HW129087   1.953   4.659  16.955  0.5089  0.7189 -0.1249
 5875SOL    HW229088   1.945   0.036  16.850 -0.6457 -0.0800 -1.0434
 5876SOL     OW29089   2.767   0.010   7.847 -0.0705 -0.3403 -0.3048
 5876SOL    HW129090   2.862   0.005   7.843 -0.0601 -2.0092  1.9564
 5876SOL    HW229091   2.739   4.707   7.760  3.0192  3.6934 -2.5381
 5877SOL     OW29092   2.759   2.182  11.559 -0.1076  0.1184  0.2196
 5877SOL    HW129093   2.774   2.206  11.650 -2.0313 -0.7712  0.7580
 5877SOL    HW229094   2.724   2.094  11.568  1.6336 -0.8691 -2.6258
 5878SOL     OW29095   3.546   3.482   9.519  0.4405  0.4523  0.3313
 5878SOL    HW129096   3.529   3.498   9.426 -0.7955 -0.2122  0.4535
 5878SOL    HW229097   3.622   3.424   9.511  0.7745  1.0072 -0.5751
 5879SOL     OW29098   2.835   0.234   4.563  0.1838  0.6349  0.1709
 5879SOL    HW129099   2.897   0.306   4.575  1.3903 -0.5383  0.9521
 5879SOL    HW229100   2.867   0.164   4.507 -2.4609 -0.1032 -0.4130
 5880SOL     OW29101   1.404   0.910   3.986  0.3062 -0.1334 -0.0325
 5880SOL    HW129102   1.364   0.979   4.038 -0.0297 -0.1293 -0.2963
 5880SOL    HW229103   1.339   0.840   3.987 -0.5198  0.6815  1.8409
 5881SOL     OW29104   1.430   3.802   6.284  0.3172 -0.0729 -0.2258
 5881SOL    HW129105   1.413   3.723   6.336 -1.1045  0.5513  0.2672
 5881SOL    HW229106   1.358   3.794   6.221  0.3027 -1.9726  0.0226
 5882SOL     OW29107   1.808   0.369   6.724 -0.0642 -0.4761 -0.4966
 5882SOL    HW129108   1.785   0.461   6.739  2.7355  0.5079 -2.1652
 5882SOL    HW229109   1.836   0.341   6.811 -1.3711  0.1982  0.1409
 5883SOL     OW29110   2.508   1.475   1.068 -0.2608  0.2092  0.4172
 5883SOL    HW129111   2.480   1.524   1.146 -0.9053 -1.8412  1.4607
 5883SOL    HW229112   2.430   1.425   1.046 -0.2972 -0.0586  1.1391
 5884SOL     OW29113   0.187   2.626  15.666  0.3947  0.3273 -0.2943
 5884SOL    HW129114   0.217   2.571  15.738  1.9775  0.4494 -0.8605
 5884SOL    HW229115   0.092   2.612  15.663  0.2303  1.2014  0.6696
 5885SOL     OW29116   0.772   3.000   2.323 -0.1677 -0.4824  0.5232
 5885SOL    HW129117   0.676   3.005   2.324 -0.0227  2.7842 -1.4535
 5885SOL    HW229118   0.800   3.086   2.354 -2.0188  0.3854 -0.2111
 5886SOL     OW29119   0.254   3.445   2.183  0.1521  0.3428 -0.1410
 5886SOL    HW129120   0.176   3.441   2.238  1.0711 -1.1064  1.0704
 5886SOL    HW229121   0.261   3.538   2.163 -0.8944  0.2508 -0.9618
 5887SOL     OW29122   1.529   4.141  14.747 -0.0410  0.5038 -0.0742
 5887SOL    HW129123   1.503   4.191  14.670 -1.3043  1.0618  0.7271
 5887SOL    HW229124   1.559   4.211  14.806  1.8200 -0.8897  0.6502
 5888SOL     OW29125   1.309   4.450   7.772  0.2517 -0.2425  0.3986
 5888SOL    HW129126   1.352   4.386   7.828  1.2070 -0.6873 -0.8448
 5888SOL    HW229127   1.379   4.515   7.769  0.7160 -0.8079 -0.8254
 5889SOL     OW29128   1.079   2.227   6.247 -0.2376 -0.5663  0.1795
 5889SOL    HW129129   1.117   2.189   6.168 -2.3871 -0.3129 -0.9762
 5889SOL    HW229130   0.988   2.200   6.233  0.0045 -0.6783 -1.1481
 5890SOL     OW29131   2.996   0.813  12.575 -0.6573  0.5020  0.7031
 5890SOL    HW129132   2.981   0.891  12.521  0.5320 -1.1186 -1.9733
 5890SOL    HW229133   3.075   0.839  12.623 -0.5436 -0.7762  1.2017
 5891SOL     OW29134   2.765   4.615   3.332 -0.1198 -0.5616  0.3391
 5891SOL    HW129135   2.688   4.671   3.324  1.0693  0.8565 -1.3401
 5891SOL    HW229136   2.720   4.547   3.381  2.7730 -1.4926  1.7090
 5892SOL     OW29137   3.042   0.866  12.222  0.3904  0.5201 -0.1363
 5892SOL    HW129138   3.021   0.893  12.311  2.2381 -0.0069  0.4572
 5892SOL    HW229139   3.124   0.819  12.234 -0.6684 -1.5902 -1.0048
 5893SOL     OW29140   0.197   1.353   2.698  0.5546 -0.1644 -0.6544
 5893SOL    HW129141   0.146   1.325   2.622  1.9303  0.9196 -1.9844
 5893SOL    HW229142   0.261   1.283   2.708 -0.2732 -1.0882 -1.8645
 5894SOL     OW29143   2.585   3.098  15.143  0.0939 -0.1151  0.2763
 5894SOL    HW129144   2.648   3.108  15.073 -0.9654  0.7362 -0.5609
 5894SOL    HW229145   2.636   3.056  15.212 -0.0697  0.1254  0.5487
 5895SOL     OW29146   3.949   0.331   1.321  0.2555 -0.3655 -0.4455
 5895SOL    HW129147   3.891   0.340   1.397  0.6470  1.0757 -0.3080
 5895SOL    HW229148   3.997   0.411   1.298  1.8696 -1.1936  0.0717
 5896SOL     OW29149   1.472   1.548   9.188  0.3323 -0.0965 -0.0825
 5896SOL    HW129150   1.377   1.543   9.177  0.5709 -1.7574 -1.3883
 5896SOL    HW229151   1.476   1.461   9.226  1.2835  0.2307  0.5469
 5897SOL     OW29152   1.100   2.151  13.842  0.2687 -0.2407  0.4583
 5897SOL    HW129153   1.149   2.077  13.877  2.8224  0.9397 -0.6383
 5897SOL    HW229154   1.177   2.203  13.817  1.6712 -2.3687  0.4080
 5898SOL     OW29155   4.476   2.471   3.932  0.8429  0.3761 -0.3528
 5898SOL    HW129156   4.434   2.508   3.854 -0.2097  2.6451  1.3064
 5898SOL    HW229157   4.494   2.554   3.976 -1.1929  1.4202 -1.4739
 5899SOL     OW29158   2.092   4.550   1.678  0.1301  0.0318 -0.5470
 5899SOL    HW129159   2.002   4.578   1.664 -0.8859 -2.2480  1.4465
 5899SOL    HW229160   2.097   4.605   1.756  0.9377 -0.7256 -0.0693
 5900SOL     OW29161   1.369   3.786   7.642  0.2810 -0.0834 -0.9919
 5900SOL    HW129162   1.402   3.874   7.659  1.0285 -0.8989  1.8332
 5900SOL    HW229163   1.438   3.746   7.590  1.0214  1.3081 -1.0809
 5901SOL     OW29164   3.924   4.448   1.959  0.3474 -0.2111 -0.2247
 5901SOL    HW129165   3.943   4.355   1.959  1.2368 -0.0264  0.1245
 5901SOL    HW229166   3.828   4.451   1.952  0.1935 -1.8031  1.2438
 5902SOL     OW29167   2.519   4.557   0.955 -0.3045  1.0985  0.2605
 5902SOL    HW129168   2.575   4.549   1.032  1.3311 -1.0745 -1.1671
 5902SOL    HW229169   2.525   4.651   0.943 -0.1448  1.2930  1.9649
 5903SOL     OW29170   0.196   3.576   7.480 -0.0971 -0.0718 -0.5826
 5903SOL    HW129171   0.112   3.612   7.450 -0.3635 -0.0836  0.1365
 5903SOL    HW229172   0.190   3.600   7.573  0.1391 -3.0044  0.2081
 5904SOL     OW29173   4.063   3.694  16.988  0.2418 -0.0131  0.5467
 5904SOL    HW129174   3.972   3.672  16.968  0.3070 -0.3955  0.6806
 5904SOL    HW229175   4.067   3.713  17.082 -0.0020 -1.7306  0.9054
 5905SOL     OW29176   2.350   2.142   6.802  1.0133 -0.0032 -0.0303
 5905SOL    HW129177   2.379   2.143   6.893 -0.6826  2.1173  0.4954
 5905SOL    HW229178   2.257   2.127   6.819  0.6265  1.9135 -0.5149
 5906SOL     OW29179   3.211   4.415   3.874 -0.2145 -0.4537 -0.2158
 5906SOL    HW129180   3.264   4.435   3.797  0.1750 -1.3558 -0.1731
 5906SOL    HW229181   3.201   4.496   3.924 -0.6146  0.3163 -1.5424
 5907SOL     OW29182   3.837   0.860  14.926 -0.1909  0.1726 -0.3562
 5907SOL    HW129183   3.761   0.910  14.894 -1.3866 -0.6153  1.2331
 5907SOL    HW229184   3.828   0.782  14.872  0.6346 -0.2232  0.0775
 5908SOL     OW29185   4.582   3.619  11.305 -0.0014  0.4637 -0.7569
 5908SOL    HW129186   4.491   3.641  11.324 -0.9974 -3.5989 -0.8074
 5908SOL    HW229187   4.580   3.635  11.210  1.5371  1.2025 -0.6642
 5909SOL     OW29188   2.106   2.615   3.083  0.2294 -0.1380  0.0054
 5909SOL    HW129189   2.035   2.664   3.124  0.9365  1.9979 -1.3161
 5909SOL    HW229190   2.172   2.626   3.151  0.6125  2.5074 -0.7989
 5910SOL     OW29191   1.585   1.310   6.980 -0.0300  0.5885 -0.6441
 5910SOL    HW129192   1.595   1.347   6.893 -1.0610  1.5920 -0.3465
 5910SOL    HW229193   1.657   1.249   6.963  1.0228  2.0115 -1.3068
 5911SOL     OW29194   0.476   2.316   7.131 -0.6885  0.2120  0.0780
 5911SOL    HW129195   0.545   2.331   7.066 -1.5927  1.8744 -0.4906
 5911SOL    HW229196   0.462   2.221   7.125  1.5570  0.0798 -3.1967
 5912SOL     OW29197   3.139   0.700   6.487 -0.3193  0.3941  0.1152
 5912SOL    HW129198   3.076   0.638   6.448 -1.1480  1.0536  0.4118
 5912SOL    HW229199   3.192   0.719   6.409  0.4855 -0.7569  0.3841
 5913SOL     OW29200   2.110   4.006  11.374  0.5399 -0.1541 -0.5902
 5913SOL    HW129201   2.092   4.083  11.428  0.6403 -0.5289 -0.0277
 5913SOL    HW229202   2.035   3.946  11.373 -0.2513  0.8503 -2.3843
 5914SOL     OW29203   2.454   3.960  17.691  0.6337 -0.3430 -0.2786
 5914SOL    HW129204   2.373   4.007   0.008  2.4766  1.9447  2.2314
 5914SOL    HW229205   2.516   4.002   0.050 -1.7234  1.3728  0.9813
 5915SOL     OW29206   1.027   1.601   5.812 -0.1943  0.5010  0.1762
 5915SOL    HW129207   1.021   1.573   5.721  1.6692  1.0310 -0.1044
 5915SOL    HW229208   0.935   1.611   5.838 -1.2530 -1.6386 -2.6994
 5916SOL     OW29209   3.688   2.627  16.661 -0.0567  0.7452  0.0985
 5916SOL    HW129210   3.756   2.693  16.646 -1.4599  2.3812  1.0600
 5916SOL    HW229211   3.686   2.581  16.577 -1.3460 -0.9369  1.0525
 5917SOL     OW29212   4.006   0.373  11.911  0.3921  0.3730 -0.0877
 5917SOL    HW129213   4.060   0.296  11.926  0.6173  0.7550  1.1137
 5917SOL    HW229214   4.023   0.390  11.819  0.0330  0.0458 -0.2115
 5918SOL     OW29215   0.894   3.023   5.556  0.2859 -0.1896 -0.8280
 5918SOL    HW129216   0.945   2.950   5.520 -0.6750 -0.1238 -2.3645
 5918SOL    HW229217   0.864   3.064   5.475  0.3233  0.5033 -0.4881
 5919SOL     OW29218   4.189   3.163   9.051  0.2892 -0.1028 -0.7540
 5919SOL    HW129219   4.164   3.075   9.023  1.7452 -0.4174 -1.0806
 5919SOL    HW229220   4.274   3.167   9.008  0.2226 -0.2997 -0.9063
 5920SOL     OW29221   1.417   2.126   4.188 -0.8733 -0.1184 -0.1185
 5920SOL    HW129222   1.394   2.056   4.127  1.5795 -0.4739 -0.6668
 5920SOL    HW229223   1.368   2.203   4.161 -0.7542 -0.0997 -0.2820
 5921SOL     OW29224   2.572   3.055   8.795 -0.3142 -0.2540  0.2894
 5921SOL    HW129225   2.574   3.135   8.847 -2.4845 -1.1206  1.6971
 5921SOL    HW229226   2.630   3.084   8.725 -2.1433 -1.1782 -1.6226
 5922SOL     OW29227   0.182   2.987   7.315 -0.3178 -0.0236  0.3290
 5922SOL    HW129228   0.221   3.057   7.368 -2.2000  0.8454  0.5433
 5922SOL    HW229229   0.188   2.918   7.381 -0.0100 -1.3281 -1.0479
 5923SOL     OW29230   0.685   1.409   4.291  0.5076 -0.5540  0.1824
 5923SOL    HW129231   0.700   1.359   4.211  1.2594  1.9543 -1.2264
 5923SOL    HW229232   0.624   1.354   4.341  2.2088  0.7296  3.7020
 5924SOL     OW29233   1.619   3.215   1.622 -0.6701 -0.1839 -0.3378
 5924SOL    HW129234   1.536   3.173   1.642  1.0919 -1.8251  3.4829
 5924SOL    HW229235   1.676   3.146   1.655 -1.2411 -0.4222  0.1405
 5925SOL     OW29236   0.111   3.060   5.167  0.2615  0.2114 -0.0040
 5925SOL    HW129237   0.081   2.974   5.195  1.0659 -0.3011 -0.7365
 5925SOL    HW229238   0.049   3.125   5.202 -1.8448 -0.0474 -3.3063
 5926SOL     OW29239   4.302   0.155   3.222 -0.0964  0.1176  0.0605
 5926SOL    HW129240   4.327   0.131   3.133 -0.0843  0.4826 -0.0336
 5926SOL    HW229241   4.308   0.251   3.221  0.0340  0.1036 -0.4465
 5927SOL     OW29242   2.856   1.862   8.905 -0.8339 -0.3619  0.2436
 5927SOL    HW129243   2.810   1.885   8.986  0.0037 -1.1347  0.9331
 5927SOL    HW229244   2.856   1.945   8.858 -1.4409  1.0363  2.7336
 5928SOL     OW29245   3.158   0.161   8.336  0.3448  0.1461  0.4123
 5928SOL    HW129246   3.232   0.136   8.280  0.3232  2.1703 -0.4816
 5928SOL    HW229247   3.083   0.126   8.288  0.2666  0.9980 -0.0707
 5929SOL     OW29248   4.702   0.604  15.788  0.1596  0.5664  0.7448
 5929SOL    HW129249   4.611   0.576  15.788  0.8269 -1.6356  0.9844
 5929SOL    HW229250   0.018   0.538  15.844  0.6455 -0.9140 -1.3524
 5930SOL     OW29251   3.414   0.029   6.649 -0.2266 -0.1599  0.0914
 5930SOL    HW129252   3.406   0.087   6.724  0.8689  0.9130 -0.6292
 5930SOL    HW229253   3.417   4.669   6.694  3.1415  0.2902  0.7034
 5931SOL     OW29254   0.702   2.361   0.948 -0.1202 -0.2982 -0.1871
 5931SOL    HW129255   0.631   2.406   0.994  0.9427 -0.3190  1.4861
 5931SOL    HW229256   0.654   2.289   0.908 -0.8979  1.3534 -2.2378
 5932SOL     OW29257   3.200   0.704   2.395 -0.0258  0.5754 -0.2888
 5932SOL    HW129258   3.190   0.623   2.345 -0.8301  2.2676 -2.8979
 5932SOL    HW229259   3.282   0.703   2.445 -0.3239  0.7510  0.2015
 5933SOL     OW29260   2.388   3.956   5.329 -1.0225  0.3515  0.0324
 5933SOL    HW129261   2.419   3.894   5.264 -0.6686 -0.6459  1.1486
 5933SOL    HW229262   2.395   4.039   5.282  2.4926 -1.0405 -1.8659
 5934SOL     OW29263   4.204   2.288   4.332  0.1255  0.0368  0.3305
 5934SOL    HW129264   4.216   2.208   4.383  1.1725  0.8159  1.3011
 5934SOL    HW229265   4.292   2.280   4.294 -0.4298 -0.1011 -0.9343
 5935SOL     OW29266   0.921   0.560   7.978  0.2934  0.2372 -0.3061
 5935SOL    HW129267   0.862   0.634   7.991 -0.5723 -0.2036 -1.7826
 5935SOL    HW229268   0.862   0.488   8.003  0.9489  0.5344  2.1357
 5936SOL     OW29269   0.982   3.408  16.792  0.1027  0.2704 -0.3172
 5936SOL    HW129270   1.002   3.359  16.872 -2.0245 -0.8888 -0.4867
 5936SOL    HW229271   0.996   3.337  16.729 -0.6017 -1.1726  1.1455
 5937SOL     OW29272   4.143   0.884   9.029  0.3334  0.1281  0.1812
 5937SOL    HW129273   4.216   0.851   9.080  0.9397  2.2613  0.7045
 5937SOL    HW229274   4.151   0.979   9.044  0.9820  0.2751 -1.0882
 5938SOL     OW29275   2.028   0.820   8.222  0.3710  0.1497  0.2953
 5938SOL    HW129276   1.965   0.778   8.162 -0.3224  0.1069  1.0578
 5938SOL    HW229277   2.101   0.761   8.206  0.0693  0.0329 -0.6618
 5939SOL     OW29278   0.454   2.233   1.838  0.1196 -0.3332  0.1089
 5939SOL    HW129279   0.503   2.287   1.900  0.4440  0.9618 -1.2633
 5939SOL    HW229280   0.369   2.232   1.882  0.3867 -0.6955  0.6069
 5940SOL     OW29281   3.122   2.618   5.940  0.4577  0.0145 -0.4824
 5940SOL    HW129282   3.124   2.529   5.974 -1.3670  0.9261  2.0203
 5940SOL    HW229283   3.160   2.678   6.004  0.4466 -2.2789  1.6480
 5941SOL     OW29284   0.680   0.988   6.403 -0.3174 -0.1971  0.4719
 5941SOL    HW129285   0.681   0.935   6.324  0.3446 -0.4906  0.6737
 5941SOL    HW229286   0.588   1.009   6.416  0.1367  0.9413  1.8987
 5942SOL     OW29287   0.865   3.376   6.006  0.4008  0.5889 -0.4076
 5942SOL    HW129288   0.894   3.303   5.951 -0.7384  0.3482 -0.6845
 5942SOL    HW229289   0.832   3.324   6.079  1.5730  0.2393 -0.1307
 5943SOL     OW29290   3.910   4.307   4.371 -0.1259  0.1015  0.1901
 5943SOL    HW129291   3.868   4.389   4.348  0.7054  1.1876  2.6118
 5943SOL    HW229292   3.924   4.269   4.284  0.5969 -2.1419  1.2725
 5944SOL     OW29293   1.829   1.639  15.360  0.3212  0.3368 -0.3154
 5944SOL    HW129294   1.769   1.574  15.397  0.2345  0.1829 -0.7239
 5944SOL    HW229295   1.797   1.642  15.270  0.1981 -2.3493 -0.3784
 5945SOL     OW29296   1.785   2.188   9.548  0.6565 -0.6650 -0.5457
 5945SOL    HW129297   1.798   2.163   9.457  1.4652 -0.9239 -0.3652
 5945SOL    HW229298   1.841   2.266   9.548 -2.3459  1.4614  0.4083
 5946SOL     OW29299   0.199   2.280   9.070  0.4352  0.1452 -0.6207
 5946SOL    HW129300   0.161   2.335   9.138  0.1932  1.2563 -1.6544
 5946SOL    HW229301   0.248   2.351   9.029  2.3631 -1.4688 -1.1100
 5947SOL     OW29302   0.070   1.504  12.145  0.1648  0.1011 -0.1431
 5947SOL    HW129303   0.158   1.534  12.122  0.0057  1.3069  0.8353
 5947SOL    HW229304   0.095   1.435  12.206 -0.0535  0.1665  0.0179
 5948SOL     OW29305   3.095   4.068  10.102 -0.5551  0.4945  0.3038
 5948SOL    HW129306   3.101   4.009  10.177 -0.6693  1.1167  0.7945
 5948SOL    HW229307   3.175   4.118  10.115 -0.3118  0.4852 -1.1292
 5949SOL     OW29308   4.391   4.211   6.335  0.5759 -0.4189 -0.0185
 5949SOL    HW129309   4.454   4.250   6.274  1.5314  1.0622  1.9445
 5949SOL    HW229310   4.386   4.123   6.297  1.0177  0.6293 -2.5049
 5950SOL     OW29311   1.133   2.809   8.472  0.4526  0.1558  0.4114
 5950SOL    HW129312   1.054   2.845   8.433  0.1042 -0.7555  0.2650
 5950SOL    HW229313   1.160   2.759   8.395 -0.2701 -0.7737  0.7587
 5951SOL     OW29314   4.084   1.660   2.114 -0.2370  0.1909 -0.2368
 5951SOL    HW129315   4.110   1.644   2.024  0.4572  4.2423 -0.7756
 5951SOL    HW229316   4.161   1.624   2.157  0.5115  0.2343 -1.5493
 5952SOL     OW29317   1.209   0.802   6.633 -0.2594 -0.1649  0.7306
 5952SOL    HW129318   1.172   0.749   6.563 -0.2134 -1.4245  1.6558
 5952SOL    HW229319   1.260   0.738   6.682  3.5709  1.4418 -1.1726
 5953SOL     OW29320   3.795   3.103   7.102  0.0535  0.4921 -0.3351
 5953SOL    HW129321   3.717   3.054   7.129  0.0769  0.1945 -0.8080
 5953SOL    HW229322   3.860   3.053   7.152 -1.6957 -1.7283 -0.2526
 5954SOL     OW29323   4.370   2.792   6.100 -0.0834 -0.4120  0.0940
 5954SOL    HW129324   4.452   2.835   6.074 -1.0624  0.4354 -1.5819
 5954SOL    HW229325   4.316   2.853   6.149  2.1838  0.3405  1.6928
 5955SOL     OW29326   0.356   2.196   0.894  0.0342 -0.7446 -0.1194
 5955SOL    HW129327   0.332   2.129   0.958 -0.4576 -2.8647 -2.5611
 5955SOL    HW229328   0.450   2.182   0.885  0.2733 -1.1234  2.8932
 5956SOL     OW29329   2.592   3.936  16.863  0.0918  0.1275 -0.2991
 5956SOL    HW129330   2.532   3.923  16.936 -0.6430  1.3155 -0.6864
 5956SOL    HW229331   2.567   3.869  16.800  1.1883 -1.1035  0.5716
 5957SOL     OW29332   0.181   0.157   7.224  0.5284 -0.8725  0.2275
 5957SOL    HW129333   0.202   0.249   7.239 -0.5472 -0.6448  0.3682
 5957SOL    HW229334   0.086   0.158   7.207  0.6467 -2.2660 -0.4489
 5958SOL     OW29335   3.404   1.319   5.222 -0.2116  0.0021  0.4169
 5958SOL    HW129336   3.414   1.266   5.143 -0.3253  3.7338 -2.0846
 5958SOL    HW229337   3.490   1.319   5.265  0.5783  0.7576 -1.1697
 5959SOL     OW29338   2.792   1.915   2.230 -0.3091  0.0253  0.0037
 5959SOL    HW129339   2.875   1.873   2.208  0.0468 -0.3660  2.0759
 5959SOL    HW229340   2.744   1.927   2.148  0.2494 -0.5517 -0.4126
 5960SOL     OW29341   2.620   2.731  12.602  0.1217 -0.4447  0.1314
 5960SOL    HW129342   2.698   2.724  12.657  1.5140 -0.8373 -1.8954
 5960SOL    HW229343   2.673   2.731  12.523  1.0975 -1.6316  0.7898
 5961SOL     OW29344   2.992   3.914   3.587  0.1761  0.3261 -0.5565
 5961SOL    HW129345   3.071   3.948   3.545  2.5680 -1.5122  2.4949
 5961SOL    HW229346   2.948   3.998   3.593 -0.4579  0.1695 -2.7777
 5962SOL     OW29347   2.951   1.527   4.809 -0.6437  0.8594 -0.6511
 5962SOL    HW129348   3.016   1.572   4.754  1.6712 -0.8016  0.7245
 5962SOL    HW229349   2.933   1.457   4.746 -2.5955  0.5340  0.2674
 5963SOL     OW29350   0.603   4.336   1.968  0.1332  0.3238  0.3252
 5963SOL    HW129351   0.523   4.283   1.960 -0.5320  1.2805  0.6651
 5963SOL    HW229352   0.564   4.422   1.979 -0.8190 -0.1207  0.4377
 5964SOL     OW29353   0.905   4.099   3.188  0.5749  0.7599 -0.2824
 5964SOL    HW129354   0.916   4.114   3.094 -2.9745 -0.0809 -0.8503
 5964SOL    HW229355   0.967   4.157   3.231  0.9430  0.8182 -0.8836
 5965SOL     OW29356   4.105   1.454   0.141  0.1991 -0.2102 -0.0240
 5965SOL    HW129357   4.201   1.453   0.149  0.3221  0.9643 -1.2467
 5965SOL    HW229358   4.097   1.472   0.047  2.3660 -0.3331 -0.2390
 5966SOL     OW29359   4.383   1.198   4.435 -0.0959 -0.2771 -1.1033
 5966SOL    HW129360   4.424   1.200   4.348  1.8434 -1.5218 -0.2248
 5966SOL    HW229361   4.428   1.268   4.482  0.4851 -0.8081 -0.8601
 5967SOL     OW29362   0.756   1.489   6.358  0.2047  0.5989  0.1216
 5967SOL    HW129363   0.768   1.507   6.451  1.6895  0.6820 -0.0848
 5967SOL    HW229364   0.788   1.401   6.341  1.5748  1.4375 -1.6799
 5968SOL     OW29365   2.718   0.656   5.766 -0.3168  0.5688 -0.1366
 5968SOL    HW129366   2.670   0.575   5.746 -0.9615  0.9186  0.0086
 5968SOL    HW229367   2.807   0.622   5.777 -0.0313  0.6460 -2.1512
 5969SOL     OW29368   4.418   2.671   6.393 -0.1289  0.3992 -0.5023
 5969SOL    HW129369   4.421   2.751   6.445 -0.1232 -1.1551  1.8927
 5969SOL    HW229370   4.340   2.628   6.428 -0.7264  0.8630 -1.2669
 5970SOL     OW29371   4.361   1.650  11.194  0.2592  0.3934  0.1765
 5970SOL    HW129372   4.395   1.561  11.198 -1.9432 -0.4795 -0.2723
 5970SOL    HW229373   4.312   1.641  11.112 -1.9493  2.6599  1.2535
 5971SOL     OW29374   0.701   0.467   5.165  0.1809  0.1153 -0.0370
 5971SOL    HW129375   0.635   0.434   5.226  0.7519 -2.0245 -0.5608
 5971SOL    HW229376   0.707   0.391   5.106 -1.0317  0.8341 -1.0809
 5972SOL     OW29377   3.936   1.776   6.219 -0.3270  0.0633  0.5501
 5972SOL    HW129378   3.985   1.801   6.298  1.6733 -2.9890  0.2389
 5972SOL    HW229379   3.933   1.681   6.210 -0.7886  0.0709  0.5784
 5973SOL     OW29380   1.143   0.613   7.215  0.1128  0.3533 -0.2642
 5973SOL    HW129381   1.215   0.607   7.277 -1.5753  1.0685  1.7880
 5973SOL    HW229382   1.187   0.614   7.130  0.0161  1.8773 -0.2833
 5974SOL     OW29383   3.764   2.173   1.743  0.5684  0.3858 -0.6854
 5974SOL    HW129384   3.756   2.106   1.812  1.2153 -0.1001 -1.0806
 5974SOL    HW229385   3.854   2.163   1.713  1.2666  1.4648  1.0394
 5975SOL     OW29386   1.803   3.298   6.428  0.5516 -0.3067 -0.4248
 5975SOL    HW129387   1.747   3.299   6.350 -1.2306  0.2421  0.8604
 5975SOL    HW229388   1.762   3.372   6.473  3.1665  0.3310  0.9102
 5976SOL     OW29389   3.862   3.478   4.243  0.2076 -0.2812  0.4493
 5976SOL    HW129390   3.905   3.541   4.301  0.2563  0.3374 -0.2656
 5976SOL    HW229391   3.769   3.491   4.259  0.5284  1.7194  0.6866
 5977SOL     OW29392   2.215   0.113   7.533  0.3751  0.3121 -0.6002
 5977SOL    HW129393   2.226   0.019   7.529  0.3992  0.3222 -0.7472
 5977SOL    HW229394   2.216   0.131   7.627  2.3458  0.0112 -0.5789
 5978SOL     OW29395   3.769   3.041   3.550  0.2230  0.0107  0.5009
 5978SOL    HW129396   3.808   3.070   3.467  1.3711  0.2827  1.1362
 5978SOL    HW229397   3.722   3.122   3.568 -1.1465 -0.9038  1.0030
 5979SOL     OW29398   1.959   2.735   8.397 -0.3769  0.1188  0.0065
 5979SOL    HW129399   1.953   2.760   8.489 -1.5028 -0.8381  0.1984
 5979SOL    HW229400   1.898   2.796   8.356 -1.5129 -1.1605 -0.2210
 5980SOL     OW29401   2.566   3.510   6.649 -0.0848 -0.5553 -0.2209
 5980SOL    HW129402   2.573   3.416   6.667  0.1723 -0.8932 -2.1272
 5980SOL    HW229403   2.608   3.524   6.565  2.0690  2.1467  1.3072
 5981SOL     OW29404   1.302   4.465  11.160  0.0981  0.4577 -0.4464
 5981SOL    HW129405   1.314   4.374  11.133  1.1567  0.5440 -0.2670
 5981SOL    HW229406   1.306   4.463  11.255  0.3480  0.2683 -0.4636
 5982SOL     OW29407   2.903   1.041   9.747  0.1723  0.0540 -0.1664
 5982SOL    HW129408   2.878   0.951   9.770  2.9205 -0.6097  0.2669
 5982SOL    HW229409   2.954   1.021   9.669  0.1049  0.1736 -0.2396
 5983SOL     OW29410   0.488   0.511  13.369 -0.1340 -0.5919  0.3682
 5983SOL    HW129411   0.462   0.483  13.282 -1.7504 -0.4003  0.7790
 5983SOL    HW229412   0.529   0.435  13.411  0.8226 -0.2805  0.0021
 5984SOL     OW29413   1.388   0.213  14.109  0.5624 -0.2294 -0.0179
 5984SOL    HW129414   1.419   0.297  14.144  1.5781  0.4348 -2.4829
 5984SOL    HW229415   1.441   0.149  14.155 -0.5152 -1.2917 -0.2616
 5985SOL     OW29416   3.413   0.505   6.644  0.4107 -0.8508 -0.1629
 5985SOL    HW129417   3.430   0.595   6.618  1.3682 -0.5386  1.5816
 5985SOL    HW229418   3.320   0.498   6.623  0.6643 -3.8483 -0.3420
 5986SOL     OW29419   1.625   1.804  15.589  0.6311 -0.0268  0.0226
 5986SOL    HW129420   1.655   1.714  15.579  1.7186  0.3127  0.1981
 5986SOL    HW229421   1.563   1.820  15.518 -0.1810  1.1998  1.0193
 5987SOL     OW29422   2.866   4.190   2.745  0.1197  0.2571 -0.1428
 5987SOL    HW129423   2.927   4.242   2.692 -0.8380  0.0705 -1.4009
 5987SOL    HW229424   2.833   4.128   2.680 -0.9869 -1.7511  2.3476
 5988SOL     OW29425   1.578   2.879   2.578 -0.0707 -0.8303 -0.8755
 5988SOL    HW129426   1.658   2.827   2.567  2.8120  3.9455 -2.2470
 5988SOL    HW229427   1.607   2.947   2.639 -0.6956  1.0179 -2.6345
 5989SOL     OW29428   1.794   1.028   1.890 -0.2208 -0.3730 -0.1586
 5989SOL    HW129429   1.775   1.105   1.837 -0.5691  0.5352  1.2925
 5989SOL    HW229430   1.729   0.971   1.849 -0.1120  1.7297 -3.1734
 5990SOL     OW29431   4.316   3.593   7.814  0.9525  0.5871  0.5950
 5990SOL    HW129432   4.407   3.565   7.798 -0.0312 -2.3198  0.1312
 5990SOL    HW229433   4.276   3.529   7.756  2.1130  0.9366 -0.6148
 5991SOL     OW29434   0.790   4.505   1.306 -0.2486 -0.5207 -0.6398
 5991SOL    HW129435   0.789   4.421   1.351 -2.0038  1.0001  2.2082
 5991SOL    HW229436   0.701   4.539   1.316 -0.1642  0.1383 -2.1147
 5992SOL     OW29437   3.669   2.177   8.947  0.0694 -0.1868 -1.0260
 5992SOL    HW129438   3.724   2.106   8.913 -2.0701 -1.8221 -1.1279
 5992SOL    HW229439   3.732   2.246   8.967 -1.7822  1.6823 -1.6499
 5993SOL     OW29440   3.448   2.970   7.937  0.4112 -0.0066 -0.0976
 5993SOL    HW129441   3.359   3.005   7.945 -0.5520 -2.6573  0.5505
 5993SOL    HW229442   3.459   2.920   8.017 -0.3803  1.4468  0.9071
 5994SOL     OW29443   2.004   2.442   1.174 -0.2753 -0.5898 -0.6246
 5994SOL    HW129444   1.969   2.456   1.085 -0.6525 -1.8558 -0.6766
 5994SOL    HW229445   2.067   2.372   1.158  1.7754  1.7229 -2.6487
 5995SOL     OW29446   2.471   4.572   4.437 -0.3528 -0.2127 -0.0731
 5995SOL    HW129447   2.444   4.663   4.442  0.8154  0.0486  1.7685
 5995SOL    HW229448   2.397   4.528   4.479 -0.0796 -0.0311  0.6077
 5996SOL     OW29449   0.573   3.944   5.586  0.0246 -0.4923 -0.6872
 5996SOL    HW129450   0.587   3.920   5.677 -3.3629 -1.1837 -0.3492
 5996SOL    HW229451   0.491   3.897   5.571 -0.5626  0.4579 -0.5153
 5997SOL     OW29452   1.050   1.832   1.438  0.3124 -0.0293 -0.3163
 5997SOL    HW129453   1.014   1.916   1.468  0.9748 -1.0885  3.5402
 5997SOL    HW229454   1.065   1.848   1.345  1.0276 -2.4551 -0.6000
 5998SOL     OW29455   2.697   0.147   5.493  0.5973 -0.1928 -0.7601
 5998SOL    HW129456   2.619   0.174   5.541 -0.0260 -1.7116 -0.9112
 5998SOL    HW229457   2.731   0.230   5.460 -1.2680  0.8286 -0.0879
 5999SOL     OW29458   0.213   3.493   3.290 -0.2831  0.0452  0.4693
 5999SOL    HW129459   0.212   3.493   3.386  0.5983 -1.4262  0.4791
 5999SOL    HW229460   0.125   3.463   3.266 -0.4657 -0.0299  1.2483
 6000SOL     OW29461   1.589   0.456   8.088  0.0915  0.0326 -0.2158
 6000SOL    HW129462   1.674   0.417   8.065  0.3779  0.4101  0.1911
 6000SOL    HW229463   1.562   0.494   8.004  0.0581  1.2178  0.3271
 6001SOL     OW29464   0.472   3.302   5.375 -0.1152 -0.0077  0.1292
 6001SOL    HW129465   0.425   3.241   5.318  1.1581 -0.4639 -0.4349
 6001SOL    HW229466   0.401   3.334   5.430 -0.0279  2.8743 -1.4620
 6002SOL     OW29467   4.404   1.620   4.446 -0.2658  0.5463  0.1423
 6002SOL    HW129468   4.490   1.637   4.485  0.1973 -0.1683 -0.5763
 6002SOL    HW229469   4.430   1.588   4.360 -0.7635 -0.0813  0.2197
 6003SOL     OW29470   2.095   2.172   5.323 -0.1433  0.2139  0.2910
 6003SOL    HW129471   2.042   2.094   5.341 -0.7646  0.5776  0.0359
 6003SOL    HW229472   2.027   2.210   5.268  0.0891 -0.0993 -0.2117
 6004SOL     OW29473   1.917   1.779   9.323  0.7595 -0.2304 -0.3558
 6004SOL    HW129474   1.833   1.779   9.277  1.3210  1.8921 -1.3947
 6004SOL    HW229475   1.958   1.863   9.301 -2.2038  1.0487 -0.9775
 6005SOL     OW29476   4.143   0.560   1.537  0.4093 -0.0860 -0.1322
 6005SOL    HW129477   4.055   0.596   1.526  0.5307  0.1406 -0.3580
 6005SOL    HW229478   4.196   0.617   1.482  0.7311  0.4179  0.7014
 6006SOL     OW29479   2.890   3.521  12.392 -0.1134  0.0418  0.2643
 6006SOL    HW129480   2.969   3.553  12.350 -0.9438  1.1176 -0.4777
 6006SOL    HW229481   2.907   3.540  12.484  1.5222 -1.3919  0.2611
 6007SOL     OW29482   1.307   2.732   1.507 -0.1644 -0.3134  0.4108
 6007SOL    HW129483   1.301   2.824   1.533 -0.8643 -0.9949  2.6408
 6007SOL    HW229484   1.322   2.737   1.413  0.2416 -0.8480  0.4504
 6008SOL     OW29485   0.845   1.960   6.499  0.3829  0.0598 -0.1784
 6008SOL    HW129486   0.890   2.004   6.571  1.2962 -0.3157 -0.5137
 6008SOL    HW229487   0.765   2.009   6.480  2.2685  3.3470  0.2248
 6009SOL     OW29488   2.817   1.827  17.607  0.3211  0.0693 -0.0549
 6009SOL    HW129489   2.793   1.734  17.612 -0.7934  0.3783  0.2326
 6009SOL    HW229490   2.772   1.854  17.527  1.0331 -4.0424 -1.8608
 6010SOL     OW29491   2.957   0.799   1.680 -0.0008  0.0136 -0.4695
 6010SOL    HW129492   2.969   0.754   1.763  2.1164 -0.2199 -0.9195
 6010SOL    HW229493   2.861   0.804   1.679 -0.0797 -1.5804 -0.6611
 6011SOL     OW29494   4.265   0.106   8.277 -0.5702 -0.1628  0.2478
 6011SOL    HW129495   4.194   0.045   8.255 -0.1632  0.0522 -1.6495
 6011SOL    HW229496   4.332   0.050   8.315 -0.2633 -0.9874 -1.5191
 6012SOL     OW29497   4.115   0.483   9.666 -0.1888 -0.3591 -0.5767
 6012SOL    HW129498   4.162   0.472   9.748 -0.0770  1.5055 -0.3891
 6012SOL    HW229499   4.033   0.442   9.692  0.0013  1.1833  2.4450
 6013SOL     OW29500   2.737   0.207   4.142 -0.0267  0.7918  0.0552
 6013SOL    HW129501   2.746   0.125   4.189 -0.9786  0.5560 -0.1680
 6013SOL    HW229502   2.831   0.222   4.127  0.5678  0.2672  3.3281
 6014SOL     OW29503   2.868   3.239   7.583 -0.0435 -0.2564  0.0569
 6014SOL    HW129504   2.911   3.231   7.668  1.3548 -2.0250 -0.8462
 6014SOL    HW229505   2.822   3.324   7.589  0.2915 -0.2913  3.4647
 6015SOL     OW29506   0.342   4.007   1.507 -0.0878 -0.4559  0.1545
 6015SOL    HW129507   0.435   3.997   1.491  0.3800  2.6516  0.7966
 6015SOL    HW229508   0.306   4.061   1.436 -0.1664 -0.8888 -0.1314
 6016SOL     OW29509   3.349   1.704   4.680 -0.3116  0.2936  0.8761
 6016SOL    HW129510   3.341   1.726   4.773 -1.1838 -2.0276  1.3225
 6016SOL    HW229511   3.258   1.699   4.651  0.4849 -1.8342 -1.1889
 6017SOL     OW29512   1.685   2.658   8.607 -0.1683 -0.3356 -0.1494
 6017SOL    HW129513   1.604   2.634   8.563 -0.8895  0.4089  0.7808
 6017SOL    HW229514   1.753   2.635   8.543  0.1621  1.3100 -0.3922
 6018SOL     OW29515   4.503   4.395   5.121 -0.0248  0.2698  0.0266
 6018SOL    HW129516   4.566   4.338   5.078 -0.1469  0.0102  0.1934
 6018SOL    HW229517   4.448   4.423   5.048  0.2020 -1.4008 -0.7832
 6019SOL     OW29518   0.051   1.999   3.453  0.1779 -0.2363  0.3451
 6019SOL    HW129519   0.034   1.935   3.384 -1.8300 -1.7578  2.2557
 6019SOL    HW229520   0.002   1.950   3.519  0.0929  0.4826  0.8176
 6020SOL     OW29521   0.707   2.947  17.164 -0.2080  0.2769 -0.2431
 6020SOL    HW129522   0.662   3.010  17.221 -1.4821 -0.1503 -0.7839
 6020SOL    HW229523   0.647   2.873  17.159  0.4777 -0.2457 -0.6489
 6021SOL     OW29524   0.175   2.402  17.448 -0.0350 -0.1356 -0.3954
 6021SOL    HW129525   0.156   2.469  17.383  0.9167  2.2317  1.7551
 6021SOL    HW229526   0.202   2.334  17.386 -1.3054 -0.7684 -0.2585
 6022SOL     OW29527   0.325   4.224  13.727 -0.4943 -0.2120 -0.5209
 6022SOL    HW129528   0.240   4.217  13.770  0.6927 -1.5476  1.6160
 6022SOL    HW229529   0.384   4.178  13.789 -3.3624 -1.5447  1.2149
 6023SOL     OW29530   3.652   3.454   3.936  0.8479  0.5819 -0.0702
 6023SOL    HW129531   3.721   3.469   3.870  1.3010 -1.5515 -0.0783
 6023SOL    HW229532   3.584   3.410   3.885  0.2711  1.0317  0.3267
 6024SOL     OW29533   3.274   3.940   6.097  0.7694 -0.6754 -0.1971
 6024SOL    HW129534   3.180   3.954   6.110  1.2486  0.4281  1.9504
 6024SOL    HW229535   3.327   4.000   6.149  2.7364 -1.4899 -1.2763
 6025SOL     OW29536   3.580   3.094   9.033  0.4250  0.6803 -0.2967
 6025SOL    HW129537   3.634   3.125   9.106  1.3361  3.7420 -2.2544
 6025SOL    HW229538   3.586   3.169   8.973 -2.1463 -0.0074 -1.4317
 6026SOL     OW29539   2.250   1.688   3.104 -0.2891  0.3059 -0.3171
 6026SOL    HW129540   2.206   1.724   3.181  1.2746 -2.7875  1.9670
 6026SOL    HW229541   2.340   1.715   3.118 -0.4190 -0.3717  1.8363
 6027SOL     OW29542   2.508   4.025  15.012 -0.2450  0.0287  0.3176
 6027SOL    HW129543   2.592   4.068  15.030  0.3823  0.4211 -3.4595
 6027SOL    HW229544   2.546   3.965  14.948  0.1577  2.2639 -1.5609
 6028SOL     OW29545   4.528   1.023   4.786 -0.0691 -0.0632  0.5091
 6028SOL    HW129546   4.530   0.940   4.739 -1.3923 -0.6379  1.4797
 6028SOL    HW229547   4.552   1.005   4.876 -3.6395  0.5052  1.5847
 6029SOL     OW29548   0.838   1.593  14.027 -0.4945  0.0318 -0.1492
 6029SOL    HW129549   0.862   1.508  13.989 -0.8994  0.0576 -0.4657
 6029SOL    HW229550   0.758   1.622  13.984 -0.8137 -0.4481  0.1214
 6030SOL     OW29551   2.264   1.250   2.509  0.1524 -0.1073 -0.1174
 6030SOL    HW129552   2.244   1.290   2.424 -0.8934  1.2435  0.7509
 6030SOL    HW229553   2.296   1.326   2.558  1.1144  0.2658 -1.3366
 6031SOL     OW29554   2.516   2.926  14.312 -0.4506 -0.1008  0.2019
 6031SOL    HW129555   2.474   2.984  14.376 -1.8644 -1.8063  0.8065
 6031SOL    HW229556   2.463   2.949  14.235 -0.7732  0.7025  0.6587
 6032SOL     OW29557   4.563   2.442   6.611 -0.4386 -0.0020 -0.0775
 6032SOL    HW129558   4.503   2.378   6.648  0.9692  0.8400  3.6361
 6032SOL    HW229559   4.647   2.410   6.645 -1.3540 -2.5114 -0.1492
 6033SOL     OW29560   3.171   2.489   2.730 -0.6233  0.4072  0.2369
 6033SOL    HW129561   3.209   2.486   2.817 -2.6112  0.3291  1.1125
 6033SOL    HW229562   3.243   2.450   2.680 -1.0165 -1.6582  1.2638
 6034SOL     OW29563   3.581   1.745   7.043 -0.6476  0.2679 -0.3383
 6034SOL    HW129564   3.542   1.832   7.033 -3.3259 -0.5393  3.3023
 6034SOL    HW229565   3.602   1.730   6.951 -1.8186 -0.6342 -0.4614
 6035SOL     OW29566   1.871   3.420   3.818  0.3732 -0.3557  0.2149
 6035SOL    HW129567   1.798   3.431   3.757  1.6905  0.8176 -1.1573
 6035SOL    HW229568   1.889   3.506   3.856 -1.3097  0.5290 -1.0032
 6036SOL     OW29569   3.359   2.456   9.716 -0.3107  0.3114  0.2379
 6036SOL    HW129570   3.441   2.442   9.764 -0.1247  1.4208  0.2442
 6036SOL    HW229571   3.333   2.544   9.744 -1.4108  0.8134 -2.4099
 6037SOL     OW29572   3.037   0.892  16.338  0.6335  0.7781  0.1529
 6037SOL    HW129573   3.085   0.813  16.363  0.9124  0.6069 -0.8851
 6037SOL    HW229574   3.058   0.894  16.244 -0.2200  0.3684 -0.0536
 6038SOL     OW29575   1.707   0.807   5.736  0.2717  0.1046  0.1433
 6038SOL    HW129576   1.654   0.873   5.692 -1.2672  0.4865  2.5742
 6038SOL    HW229577   1.770   0.784   5.668  0.2946  1.1063 -0.1713
 6039SOL     OW29578   1.270   2.326   0.663  0.0586  0.3311  0.0239
 6039SOL    HW129579   1.181   2.362   0.656  0.4771  1.3942  0.1019
 6039SOL    HW229580   1.310   2.364   0.585  0.1590  0.0822 -0.0432
 6040SOL     OW29581   2.295   0.173   3.760  0.0366  0.3017 -0.1664
 6040SOL    HW129582   2.282   0.142   3.850  0.7178  2.0514  0.5315
 6040SOL    HW229583   2.228   0.241   3.769 -1.8727 -1.5157 -0.4678
 6041SOL     OW29584   4.455   3.986  16.827  0.1400  0.1715 -0.0793
 6041SOL    HW129585   4.385   3.922  16.840  3.5753 -3.2029  1.8582
 6041SOL    HW229586   4.512   3.935  16.770  0.7943 -0.5680  1.2366
 6042SOL     OW29587   4.444   1.197   9.198  0.0770 -0.0326 -0.1132
 6042SOL    HW129588   4.517   1.254   9.175  0.9061 -0.4095  1.5693
 6042SOL    HW229589   4.480   1.108   9.195 -1.2997 -0.5168 -1.9908
 6043SOL     OW29590   0.873   0.751   9.459  0.1591 -0.0551  0.3482
 6043SOL    HW129591   0.794   0.703   9.485 -1.0136  0.9706 -1.2466
 6043SOL    HW229592   0.885   0.810   9.533 -3.8465  0.1424  0.8539
 6044SOL     OW29593   0.549   3.825   7.385  0.1834  1.0914  0.1309
 6044SOL    HW129594   0.586   3.904   7.346 -0.1432  0.4576 -1.4497
 6044SOL    HW229595   0.495   3.860   7.457  1.2046  2.1252  0.3905
 6045SOL     OW29596   1.999   3.504   4.635 -0.3138  0.3457  0.2786
 6045SOL    HW129597   1.935   3.438   4.608 -1.1369  0.9835  0.6637
 6045SOL    HW229598   1.981   3.581   4.581  0.3463 -1.5634 -2.6289
 6046SOL     OW29599   4.416   3.782  17.643 -0.4733 -0.3316 -0.1399
 6046SOL    HW129600   4.476   3.841  17.688  0.9582 -1.3354 -0.7172
 6046SOL    HW229601   4.431   3.809  17.552 -0.9712 -0.4586 -0.2570
 6047SOL     OW29602   2.734   2.132   6.655  0.1989 -0.0635  0.3408
 6047SOL    HW129603   2.673   2.103   6.722  0.6933  0.2064  0.9070
 6047SOL    HW229604   2.730   2.065   6.587  0.6422  0.4181 -0.1563
 6048SOL     OW29605   1.529   3.289   7.186 -0.3390 -0.4419  0.6344
 6048SOL    HW129606   1.506   3.301   7.094 -0.3982 -2.5959  0.3717
 6048SOL    HW229607   1.442   3.303   7.224  0.0302 -0.8152  1.6224
 6049SOL     OW29608   4.398   1.794   3.163  0.2673  0.4081  0.1673
 6049SOL    HW129609   4.384   1.839   3.247 -0.6960 -1.3144  0.9350
 6049SOL    HW229610   4.380   1.860   3.096  0.7623  2.0134  1.6011
 6050SOL     OW29611   0.689   1.259   5.005 -0.2269  0.0221  0.3869
 6050SOL    HW129612   0.726   1.203   5.073 -1.6589 -0.7277  0.5475
 6050SOL    HW229613   0.714   1.207   4.928  0.4969 -0.3824  0.8951
 6051SOL     OW29614   2.213   1.277   9.392  0.1312  0.2261  0.1997
 6051SOL    HW129615   2.176   1.363   9.410  2.1642  1.1538 -0.0420
 6051SOL    HW229616   2.237   1.287   9.300  1.4594 -1.7336  0.3197
 6052SOL     OW29617   4.223   0.184  17.296 -0.3570  0.2325  0.2607
 6052SOL    HW129618   4.282   0.132  17.351  0.0814  0.3182 -0.1250
 6052SOL    HW229619   4.267   0.268  17.310  1.7924 -0.5822 -1.5811
 6053SOL     OW29620   0.573   1.679   9.989 -0.5595 -0.7769  0.1519
 6053SOL    HW129621   0.658   1.665  10.030 -0.4854 -1.6713 -0.3100
 6053SOL    HW229622   0.506   1.664  10.056 -0.0552  0.7972  1.0112
 6054SOL     OW29623   2.242   2.154   8.809  0.2904 -0.2270 -1.1234
 6054SOL    HW129624   2.238   2.189   8.897 -0.7255  0.8173 -1.5916
 6054SOL    HW229625   2.211   2.233   8.765  0.5276 -0.8721 -2.4517
 6055SOL     OW29626   3.088   0.028  12.272 -0.5160  0.5488 -0.1491
 6055SOL    HW129627   3.015   4.692  12.284  0.7347 -0.8855  0.1974
 6055SOL    HW229628   3.059   0.115  12.244 -0.7827  1.2542  2.3829
 6056SOL     OW29629   2.429   3.521   4.073 -0.0953  0.1555 -0.4382
 6056SOL    HW129630   2.354   3.516   4.014 -0.8436  0.2758  0.5007
 6056SOL    HW229631   2.397   3.477   4.152 -0.3654  1.3643  0.1343
 6057SOL     OW29632   3.704   4.476   3.070  0.1705 -0.5442  0.5248
 6057SOL    HW129633   3.673   4.477   2.979  0.4770  0.0965  0.4267
 6057SOL    HW229634   3.776   4.415   3.055 -0.5168 -0.9280 -1.2527
 6058SOL     OW29635   4.027   3.694  12.860  0.3951  0.6481 -0.2378
 6058SOL    HW129636   3.994   3.623  12.916 -2.1150  2.1743  0.1906
 6058SOL    HW229637   3.993   3.773  12.902 -0.9979  0.2991 -0.7262
 6059SOL     OW29638   4.224   2.983   7.570  0.3817  0.0841 -0.6155
 6059SOL    HW129639   4.284   2.940   7.630  1.1377 -0.2984 -1.6527
 6059SOL    HW229640   4.238   3.075   7.592 -0.4159 -0.1004  0.6979
 6060SOL     OW29641   2.975   3.634   3.948 -0.3863 -0.3764 -0.1970
 6060SOL    HW129642   2.897   3.580   3.962 -1.4861  1.0462 -0.8739
 6060SOL    HW229643   2.992   3.680   4.030 -0.1600  0.8325 -0.9162
 6061SOL     OW29644   4.193   2.937   7.913  0.4136  0.2400  0.3359
 6061SOL    HW129645   4.280   2.970   7.892 -0.0253  0.5479 -0.9591
 6061SOL    HW229646   4.168   3.003   7.978 -0.3567  0.9140 -0.6504
 6062SOL     OW29647   4.015   0.129   3.403 -0.4249 -0.2726 -0.0704
 6062SOL    HW129648   4.102   0.096   3.429  0.0581  1.1881  0.1604
 6062SOL    HW229649   4.041   0.202   3.347 -0.8456 -1.2081 -1.4714
 6063SOL     OW29650   1.468   0.818   8.852 -0.6246 -0.2551  0.7091
 6063SOL    HW129651   1.533   0.887   8.864  0.1835 -0.5312 -2.0993
 6063SOL    HW229652   1.444   0.822   8.759  1.9480  1.0002  0.1005
 6064SOL     OW29653   2.838   0.561   9.707  0.3247  0.4145  0.2002
 6064SOL    HW129654   2.927   0.569   9.672  1.3522  1.8801  3.1825
 6064SOL    HW229655   2.796   0.545   9.623 -1.1566  0.4825  0.9330
 6065SOL     OW29656   3.051   1.933  10.651  0.1712 -0.4018  0.0572
 6065SOL    HW129657   3.071   2.024  10.629  2.1661 -1.5424 -2.8027
 6065SOL    HW229658   3.107   1.897  10.583  0.2062  0.7312 -0.5060
 6066SOL     OW29659   0.269   0.161  10.151 -0.2415  0.0625 -0.1274
 6066SOL    HW129660   0.234   0.096  10.212 -0.1873  0.9614  0.8729
 6066SOL    HW229661   0.357   0.169  10.188  0.2652 -2.7635 -0.7636
 6067SOL     OW29662   1.679   0.112  17.408 -0.1432 -0.1231 -0.5918
 6067SOL    HW129663   1.662   0.160  17.489 -1.0715  2.1122 -2.1129
 6067SOL    HW229664   1.600   0.058  17.411 -1.0026  1.2054  0.5055
 6068SOL     OW29665   3.244   2.049  13.205 -0.4052  0.0498 -0.1865
 6068SOL    HW129666   3.164   2.021  13.249  1.4826 -0.7668  2.7313
 6068SOL    HW229667   3.200   2.069  13.123  0.3692  0.7623 -0.4278
 6069SOL     OW29668   3.340   2.222   4.181  0.4616  0.0172 -0.2545
 6069SOL    HW129669   3.397   2.211   4.257  0.9124  0.5890 -0.5097
 6069SOL    HW229670   3.344   2.134   4.142 -1.2363  0.0813 -0.5764
 6070SOL     OW29671   2.514   4.101   7.872 -0.0077  0.3317  0.1561
 6070SOL    HW129672   2.555   4.014   7.864  1.5586  1.3562 -3.0094
 6070SOL    HW229673   2.500   4.100   7.967  0.1244  3.5361  0.2047
 6071SOL     OW29674   1.035   4.658   3.484  0.6120 -0.6966 -0.2409
 6071SOL    HW129675   0.948   4.618   3.478 -0.4584  0.9918  3.6486
 6071SOL    HW229676   1.086   4.648   3.403 -0.5785  0.1354 -1.0976
 6072SOL     OW29677   2.370   3.512   4.452 -0.6337 -0.2964  0.1862
 6072SOL    HW129678   2.319   3.591   4.470 -1.9957 -1.1699  0.1362
 6072SOL    HW229679   2.451   3.544   4.412 -0.3121  1.2520  2.0556
 6073SOL     OW29680   0.234   0.551  11.957  0.4799 -0.3583  0.2861
 6073SOL    HW129681   0.282   0.522  11.879 -0.9259 -0.1589 -0.6592
 6073SOL    HW229682   0.272   0.638  11.966 -2.0055  0.8448 -0.8650
 6074SOL     OW29683   4.192   3.259   1.676 -0.4030 -0.1034  0.9863
 6074SOL    HW129684   4.157   3.222   1.757 -1.0569 -1.6464 -0.0187
 6074SOL    HW229685   4.114   3.287   1.628 -0.7747  0.0054  1.6508
 6075SOL     OW29686   1.784   4.340   8.968 -0.0250 -0.2517 -0.0876
 6075SOL    HW129687   1.864   4.337   8.916  0.9662  0.8154  1.3878
 6075SOL    HW229688   1.742   4.268   8.920 -1.9458 -0.5498  2.0405
 6076SOL     OW29689   1.704   0.708   6.508  0.1357  0.0055 -0.0915
 6076SOL    HW129690   1.630   0.647   6.514 -2.6290  3.5016  0.9599
 6076SOL    HW229691   1.732   0.725   6.598 -1.1310  1.8111 -0.0609
 6077SOL     OW29692   2.335   0.134   7.133  0.0840  0.1428 -0.7594
 6077SOL    HW129693   2.269   0.074   7.168  0.2058  0.2490 -0.3496
 6077SOL    HW229694   2.289   0.159   7.053 -1.6267 -1.5155 -0.2901
 6078SOL     OW29695   2.002   3.384  13.149  0.4986 -0.1697  0.0275
 6078SOL    HW129696   1.980   3.290  13.155  0.1178 -0.2116 -1.8587
 6078SOL    HW229697   2.053   3.395  13.069  1.5531  1.6281  0.9693
 6079SOL     OW29698   4.388   1.651   9.794 -0.0793  0.0934  0.1320
 6079SOL    HW129699   4.329   1.614   9.728  1.8977 -2.0321 -0.4449
 6079SOL    HW229700   4.364   1.743   9.787 -1.4087 -0.1323  1.7703
 6080SOL     OW29701   0.994   1.874   1.791  0.4996 -0.0123 -0.3433
 6080SOL    HW129702   0.929   1.904   1.727 -0.4251 -1.7939 -0.2265
 6080SOL    HW229703   1.062   1.941   1.781  0.9511 -0.4541 -0.2147
 6081SOL     OW29704   1.138   0.970  15.038 -0.2599 -0.1544 -0.2395
 6081SOL    HW129705   1.137   1.027  14.961  1.6033 -2.4993 -1.9886
 6081SOL    HW229706   1.214   0.916  15.019 -0.5630  0.3094 -2.8015
 6082SOL     OW29707   3.601   2.226   6.540  0.0268  0.2511  0.1296
 6082SOL    HW129708   3.568   2.178   6.616  0.9865 -0.5314  0.0440
 6082SOL    HW229709   3.689   2.190   6.537  0.1214  0.4211  0.7856
 6083SOL     OW29710   3.086   3.367  12.630 -0.4428 -0.5140  0.0129
 6083SOL    HW129711   2.999   3.359  12.670 -0.0457 -3.3017  0.3210
 6083SOL    HW229712   3.144   3.365  12.706 -1.3466 -1.8933  0.6771
 6084SOL     OW29713   1.167   4.150  16.695  0.4950 -0.5762  0.1475
 6084SOL    HW129714   1.177   4.244  16.679 -0.6057 -0.7441 -1.6103
 6084SOL    HW229715   1.259   4.128  16.708  0.8511  0.4387 -0.6328
 6085SOL     OW29716   4.564   3.068   6.810 -0.2787 -0.2199  0.1116
 6085SOL    HW129717   4.542   3.004   6.877  0.3812  1.3106  1.7692
 6085SOL    HW229718   4.498   3.137   6.817 -1.4025 -1.4321  1.4401
 6086SOL     OW29719   0.273   0.686   2.702  0.5335 -0.2358  0.1863
 6086SOL    HW129720   0.333   0.659   2.633 -0.4498  0.4980 -0.9671
 6086SOL    HW229721   0.194   0.648   2.663 -1.5257  0.9533  3.2313
 6087SOL     OW29722   1.718   4.469   8.141 -0.2409 -0.3195 -0.0730
 6087SOL    HW129723   1.783   4.454   8.073 -1.1082 -0.6973 -0.8268
 6087SOL    HW229724   1.695   4.383   8.178 -0.1556 -0.3641 -0.1257
 6088SOL     OW29725   4.486   1.189  15.564  0.3011 -0.0390  0.0795
 6088SOL    HW129726   4.569   1.142  15.560 -0.2188 -0.8571 -0.8578
 6088SOL    HW229727   4.443   1.162  15.483 -0.1713  0.6591  0.0923
 6089SOL     OW29728   1.676   4.364   0.155 -0.0838  0.5675  0.2016
 6089SOL    HW129729   1.768   4.389   0.162 -0.2979  1.4310 -0.0308
 6089SOL    HW229730   1.678   4.272   0.180  3.3757  1.1447  2.0001
 6090SOL     OW29731   2.307   0.008   1.567  0.4885 -0.2563 -0.0006
 6090SOL    HW129732   2.249   0.069   1.613 -0.1299 -2.3129  1.9304
 6090SOL    HW229733   2.386   0.060   1.578  0.7130 -0.9986  2.0366
 6091SOL     OW29734   2.421   4.418  16.243 -0.0923 -0.5806  0.4144
 6091SOL    HW129735   2.437   4.508  16.270 -0.4071 -0.0789 -1.0304
 6091SOL    HW229736   2.338   4.409  16.195 -1.5943 -0.5493  2.9746
 6092SOL     OW29737   2.763   4.241   5.129  0.2248  0.4050  0.3501
 6092SOL    HW129738   2.694   4.182   5.101  1.4776  0.4852 -2.9064
 6092SOL    HW229739   2.727   4.279   5.209 -2.1332  0.8299 -0.9391
 6093SOL     OW29740   1.632   3.776   2.174  0.0765  0.3479 -0.3077
 6093SOL    HW129741   1.709   3.772   2.118  0.3308 -0.0246  0.0668
 6093SOL    HW229742   1.562   3.781   2.109 -0.9183 -0.2964  0.6955
 6094SOL     OW29743   4.355   1.297   2.781  0.5897  0.0498 -0.4139
 6094SOL    HW129744   4.441   1.278   2.743  0.6842 -2.5609  1.0919
 6094SOL    HW229745   4.369   1.390   2.799 -0.0499 -0.0004  0.3314
 6095SOL     OW29746   2.334   0.855   9.304  0.3299  0.2002  0.2325
 6095SOL    HW129747   2.409   0.880   9.250  0.3061 -0.2183  0.0107
 6095SOL    HW229748   2.344   0.921   9.373 -0.3520  2.2582 -1.6511
 6096SOL     OW29749   3.177   1.477   2.800 -0.0018 -0.1483  0.5470
 6096SOL    HW129750   3.260   1.518   2.825 -0.3272  0.0955  1.2321
 6096SOL    HW229751   3.154   1.511   2.714 -0.4958  1.2216  1.2107
 6097SOL     OW29752   2.315   2.174   9.352  0.6071 -0.1118  0.2582
 6097SOL    HW129753   2.277   2.159   9.439  3.9168 -0.7179  1.5944
 6097SOL    HW229754   2.383   2.107   9.358 -0.1933 -0.9543 -0.2122
 6098SOL     OW29755   2.829   4.427  17.446 -0.3899  0.1530  0.6267
 6098SOL    HW129756   2.825   4.384  17.532  0.6676  1.6103  1.3966
 6098SOL    HW229757   2.872   4.511  17.462  1.2219 -0.5955  0.1389
 6099SOL     OW29758   1.085   0.632   6.439 -0.4872 -0.3498  0.1143
 6099SOL    HW129759   0.990   0.627   6.438 -0.4099 -1.7061 -0.1287
 6099SOL    HW229760   1.103   0.544   6.472 -0.4063  0.5584  2.4977
 6100SOL     OW29761   3.406   1.883   5.308  0.0934 -0.3687 -0.8025
 6100SOL    HW129762   3.422   1.793   5.339  1.7539  0.5862  1.1442
 6100SOL    HW229763   3.460   1.925   5.374  1.0812 -0.0808 -1.7992
 6101SOL     OW29764   2.174   4.467   0.769 -0.3305 -0.3765  0.5800
 6101SOL    HW129765   2.121   4.407   0.717 -1.9130  2.0565 -0.6502
 6101SOL    HW229766   2.105   4.508   0.822 -0.6158 -0.7766  0.5120
 6102SOL     OW29767   1.402   0.565   0.818  0.1848  0.3493  0.9100
 6102SOL    HW129768   1.467   0.513   0.864  1.1051  1.1918  0.5718
 6102SOL    HW229769   1.325   0.509   0.828 -1.5207  2.5468  0.3580
 6103SOL     OW29770   3.209   4.122   9.182  0.0896  0.3752  0.6687
 6103SOL    HW129771   3.171   4.118   9.269  2.3589 -1.1198  1.5993
 6103SOL    HW229772   3.288   4.170   9.206 -0.0824  0.8023  0.3797
 6104SOL     OW29773   4.644   1.659  15.719 -0.4224 -0.1326 -0.5114
 6104SOL    HW129774   4.652   1.566  15.699 -2.2702 -0.1381 -1.2176
 6104SOL    HW229775   4.660   1.669  15.813 -0.3887 -1.1996 -0.4054
 6105SOL     OW29776   0.868   3.292   0.547 -0.0806  0.3180  0.6218
 6105SOL    HW129777   0.837   3.310   0.636 -0.5776 -0.2261  0.5576
 6105SOL    HW229778   0.946   3.347   0.546  1.3995 -1.8358 -0.4907
 6106SOL     OW29779   0.796   3.812   6.704  0.0039  0.2753  0.4065
 6106SOL    HW129780   0.809   3.902   6.734 -0.8247  0.5520 -0.0692
 6106SOL    HW229781   0.717   3.793   6.755 -0.7955  1.4230 -0.4033
 6107SOL     OW29782   1.639   3.503   2.882 -0.0958 -0.1415  0.6614
 6107SOL    HW129783   1.569   3.550   2.836  2.2132  2.2275 -0.4263
 6107SOL    HW229784   1.710   3.544   2.832  1.2430 -2.8520  0.3949
 6108SOL     OW29785   2.306   4.614   2.130 -0.1841  0.5093  0.2494
 6108SOL    HW129786   2.223   4.596   2.175  0.1911  0.5793  0.9645
 6108SOL    HW229787   2.319   4.528   2.089 -0.1657  0.8273 -0.4182
 6109SOL     OW29788   1.684   3.551  14.776 -0.8044 -0.0470 -0.1827
 6109SOL    HW129789   1.763   3.568  14.725 -0.4971 -0.4593  0.1557
 6109SOL    HW229790   1.630   3.544  14.697 -3.0008 -0.0115  1.3080
 6110SOL     OW29791   0.654   3.050   1.662  0.2890  0.0997 -0.1060
 6110SOL    HW129792   0.620   3.127   1.707 -0.9321  0.4231 -1.5675
 6110SOL    HW229793   0.697   3.095   1.589 -0.3945  1.3290  0.2390
 6111SOL     OW29794   3.546   2.644   9.160  0.4628 -0.1920  0.8243
 6111SOL    HW129795   3.630   2.611   9.192  0.9549  0.7644  0.5448
 6111SOL    HW229796   3.492   2.566   9.168 -0.5276  0.6478  2.3954
 6112SOL     OW29797   4.163   1.014   6.706 -0.4344  0.2919  0.1267
 6112SOL    HW129798   4.242   1.048   6.665 -1.3606  0.7959 -1.2172
 6112SOL    HW229799   4.153   0.935   6.654 -1.4482  1.6310 -1.7031
 6113SOL     OW29800   0.172   1.971   6.019 -0.2160 -0.5054  0.8027
 6113SOL    HW129801   0.123   1.934   5.945 -0.0598 -0.3341  0.6146
 6113SOL    HW229802   0.218   2.042   5.974  0.4327 -1.0311  0.6342
 6114SOL     OW29803   4.328   4.052   9.290 -0.4452 -0.0813 -0.1225
 6114SOL    HW129804   4.412   4.029   9.250 -0.7357  1.6061 -1.6797
 6114SOL    HW229805   4.300   4.119   9.228  0.1501 -1.7081 -2.1450
 6115SOL     OW29806   0.579   3.860   5.849  0.4554 -0.5354  0.5475
 6115SOL    HW129807   0.561   3.798   5.920  2.0463 -2.0870 -0.4163
 6115SOL    HW229808   0.488   3.871   5.821  0.4347  1.1978  1.2490
 6116SOL     OW29809   3.299   3.081   4.924  0.3423  0.1449  0.2400
 6116SOL    HW129810   3.248   3.158   4.949 -1.5060 -0.4062 -1.8064
 6116SOL    HW229811   3.291   3.092   4.829  0.7131  1.4028  0.3673
 6117SOL     OW29812   0.707   1.890  17.586 -0.0639  0.5830 -0.1934
 6117SOL    HW129813   0.726   1.827  17.516  1.6779  0.6310  0.2354
 6117SOL    HW229814   0.658   1.841  17.652 -0.0652  0.7579 -0.0646
 6118SOL     OW29815   2.412   4.431   8.368 -0.3045  0.7095 -0.0556
 6118SOL    HW129816   2.368   4.350   8.395  2.0572 -0.9724 -1.1805
 6118SOL    HW229817   2.378   4.499   8.426 -1.0068  0.7395 -0.4978
 6119SOL     OW29818   1.405   0.802   7.196  0.0615 -0.4037  0.3959
 6119SOL    HW129819   1.396   0.762   7.110 -1.5332 -0.7150  0.7077
 6119SOL    HW229820   1.356   0.884   7.189  1.2306  0.2637  0.1320
 6120SOL     OW29821   0.472   4.682   7.655  0.0324  0.0410 -0.3375
 6120SOL    HW129822   0.400   4.642   7.703 -0.7439 -0.8734 -2.2460
 6120SOL    HW229823   0.435   0.043   7.633 -2.7492 -1.4099 -1.2911
 6121SOL     OW29824   0.755   1.364   2.531  0.2092 -0.6161 -0.1308
 6121SOL    HW129825   0.818   1.435   2.538  0.0573 -0.5506  0.5842
 6121SOL    HW229826   0.820   1.302   2.499 -0.2694 -0.3567 -1.6074
 6122SOL     OW29827   0.573   1.054   0.621 -0.4746  0.3539  0.0712
 6122SOL    HW129828   0.627   1.107   0.678 -0.0180 -1.5010  1.3726
 6122SOL    HW229829   0.492   1.048   0.672 -0.3688  0.2100  0.2242
 6123SOL     OW29830   4.164   4.378   3.023  0.2430 -0.3611 -0.2050
 6123SOL    HW129831   4.139   4.429   2.945 -0.6512 -0.4620  0.0131
 6123SOL    HW229832   4.226   4.320   2.979  1.9349  0.3117  1.2923
 6124SOL     OW29833   4.586   3.863  15.077 -0.3492  0.1429  0.6699
 6124SOL    HW129834   4.538   3.916  15.141  0.2708  1.3583  0.1298
 6124SOL    HW229835   4.675   3.888  15.101 -0.4176 -0.2937  1.3786
 6125SOL     OW29836   3.634   1.291  10.416  0.0353  0.0483 -0.1630
 6125SOL    HW129837   3.727   1.315  10.409  0.3039 -1.0971 -0.6098
 6125SOL    HW229838   3.605   1.355  10.480 -0.9490  0.0336 -0.5888
 6126SOL     OW29839   1.590   2.094   3.827 -0.1739 -0.1745 -0.3884
 6126SOL    HW129840   1.503   2.061   3.806 -0.4706  1.2933 -1.4808
 6126SOL    HW229841   1.603   2.156   3.756  2.6136  1.0296  1.1495
 6127SOL     OW29842   2.284   4.306  12.598 -0.7134  0.6269 -0.0944
 6127SOL    HW129843   2.367   4.354  12.592  0.2111 -1.1770 -1.6690
 6127SOL    HW229844   2.291   4.287  12.691  0.0314  0.3903 -0.1990
 6128SOL     OW29845   3.455   1.255   7.662 -0.1194  0.2876  0.5183
 6128SOL    HW129846   3.475   1.337   7.616 -1.9839  0.6741  0.4156
 6128SOL    HW229847   3.532   1.237   7.715 -1.8456 -0.6108  2.7016
 6129SOL     OW29848   0.965   3.445   3.692  0.1349 -0.4564 -0.2491
 6129SOL    HW129849   0.878   3.466   3.726  0.7399 -3.4542  3.1878
 6129SOL    HW229850   0.961   3.485   3.606  1.8518 -0.1756 -0.1882
 6130SOL     OW29851   3.337   2.619   7.082 -0.3157  0.7109 -0.4784
 6130SOL    HW129852   3.332   2.693   7.142 -0.7820  0.1259  0.2065
 6130SOL    HW229853   3.432   2.605   7.078 -0.3523  0.6612 -1.1674
 6131SOL     OW29854   4.495   1.316  10.359 -0.0420  0.0917 -0.0881
 6131SOL    HW129855   4.520   1.392  10.411  1.1713 -0.1562 -0.3027
 6131SOL    HW229856   4.489   1.244  10.421 -2.7886 -0.3467 -0.8857
 6132SOL     OW29857   1.483   4.336   5.004 -0.1203  0.9186  0.2179
 6132SOL    HW129858   1.387   4.339   5.006 -0.1947 -1.2546 -0.2662
 6132SOL    HW229859   1.507   4.292   5.085 -0.7222  0.0276 -0.0932
 6133SOL     OW29860   3.791   0.062  11.312  0.1935 -0.2772  0.8741
 6133SOL    HW129861   3.855   0.007  11.268 -1.1431 -1.6248  0.6144
 6133SOL    HW229862   3.722   4.720  11.308 -1.0424  0.9486  1.8050
 6134SOL     OW29863   3.860   0.575   0.415  0.7274  0.6049 -0.1280
 6134SOL    HW129864   3.843   0.591   0.322 -1.0974 -0.3685  0.0277
 6134SOL    HW229865   3.825   0.486   0.421  1.0829  0.2555 -3.2784
 6135SOL     OW29866   2.374   3.674   6.799 -0.0423  0.0096  0.3204
 6135SOL    HW129867   2.451   3.723   6.769  2.1081 -1.3343  3.7128
 6135SOL    HW229868   2.396   3.589   6.760 -2.3621 -0.7252  0.6423
 6136SOL     OW29869   4.366   2.147   8.435  0.6009 -0.1340 -0.1762
 6136SOL    HW129870   4.400   2.223   8.388  1.2061 -1.4338 -1.8126
 6136SOL    HW229871   4.441   2.089   8.423  0.2663 -0.3687 -1.1202
 6137SOL     OW29872   1.539   0.347   8.319 -0.6750  0.2398 -0.2919
 6137SOL    HW129873   1.626   0.313   8.338 -1.7065 -2.4215 -0.3419
 6137SOL    HW229874   1.554   0.399   8.240 -1.1192  0.5223 -0.1912
 6138SOL     OW29875   4.597   3.209   5.299  0.1718 -0.2014  0.4127
 6138SOL    HW129876   4.573   3.233   5.209 -2.2295  0.1571  1.1641
 6138SOL    HW229877   4.519   3.173   5.340  0.1469 -0.3395  0.2430
 6139SOL     OW29878   2.306   2.874  15.705  0.2510 -0.3172 -0.4750
 6139SOL    HW129879   2.221   2.849  15.671  0.7244  0.5998 -2.3207
 6139SOL    HW229880   2.282   2.865  15.797  0.7090  1.3781 -0.1944
 6140SOL     OW29881   3.625   2.091   2.192 -0.4116  0.3294 -0.0523
 6140SOL    HW129882   3.570   2.046   2.256  0.7508 -1.0057  0.0041
 6140SOL    HW229883   3.570   2.164   2.164 -0.6624 -0.4113 -1.5060
 6141SOL     OW29884   3.356   3.694   1.003 -0.1992  0.0676  0.1885
 6141SOL    HW129885   3.428   3.684   1.066  1.7353 -1.0080 -2.2178
 6141SOL    HW229886   3.275   3.723   1.045 -1.3084 -3.5011  0.5230
 6142SOL     OW29887   0.516   3.781  10.328  0.4187 -0.0700  0.1314
 6142SOL    HW129888   0.546   3.699  10.366  1.2687  0.1887  0.0018
 6142SOL    HW229889   0.588   3.840  10.348 -0.4283  0.2630  2.2129
 6143SOL     OW29890   4.439   0.060   4.447  0.4565  0.4769  0.2189
 6143SOL    HW129891   4.380   0.077   4.373  1.8470  3.9072 -0.0867
 6143SOL    HW229892   4.464   4.696   4.419  0.6341  0.3929  0.6386
 6144SOL     OW29893   1.972   4.082   6.741 -0.0875 -0.3858  0.4596
 6144SOL    HW129894   1.932   4.044   6.663 -2.0665  0.3781  1.1160
 6144SOL    HW229895   2.046   4.022   6.754  0.0609  0.2332  2.5525
 6145SOL     OW29896   4.010   1.451   3.268  0.4915  0.5725 -0.3857
 6145SOL    HW129897   4.084   1.511   3.274 -0.2778  1.4488  0.2079
 6145SOL    HW229898   4.054   1.371   3.300  0.4941  1.0064  0.7006
 6146SOL     OW29899   1.148   2.295   5.833  0.3364  0.5847 -0.4408
 6146SOL    HW129900   1.137   2.339   5.749 -0.0792  3.3236  1.0232
 6146SOL    HW229901   1.075   2.331   5.884 -0.1494 -0.9478 -0.0600
 6147SOL     OW29902   0.116   4.533  14.886  0.1531  0.1822 -0.1173
 6147SOL    HW129903   0.186   4.467  14.884  1.4506  1.6184 -2.8544
 6147SOL    HW229904   0.038   4.480  14.903 -0.8666  1.7835  0.1459
 6148SOL     OW29905   1.557   3.508   0.499 -0.0151  0.1396  0.3927
 6148SOL    HW129906   1.533   3.591   0.458 -1.1823  0.6845  2.1494
 6148SOL    HW229907   1.479   3.482   0.548  0.8245 -1.5312  0.8315
 6149SOL     OW29908   3.676   0.690   2.420 -0.1728 -0.0629 -0.2328
 6149SOL    HW129909   3.582   0.681   2.432 -0.2038  0.6579  0.0402
 6149SOL    HW229910   3.706   0.667   2.508  0.5432  1.5252 -0.0496
 6150SOL     OW29911   3.505   2.727   9.548 -0.2425 -0.0785 -0.0957
 6150SOL    HW129912   3.554   2.652   9.513  0.1659  0.4717 -0.7003
 6150SOL    HW229913   3.418   2.705   9.514  0.3450 -1.1932 -0.8579
 6151SOL     OW29914   3.532   0.934   0.794 -0.7878  0.0107 -0.1058
 6151SOL    HW129915   3.616   0.932   0.840 -0.8883 -1.2327  0.0096
 6151SOL    HW229916   3.526   1.021   0.755  0.1661 -0.4293 -1.2448
 6152SOL     OW29917   1.022   2.001  14.285  0.5119  0.1878  0.2921
 6152SOL    HW129918   0.943   1.959  14.319  0.8735 -0.1723  0.6930
 6152SOL    HW229919   1.068   2.024  14.366  0.1477  3.4978 -0.4533
 6153SOL     OW29920   1.077   2.074   1.610  0.3471 -0.0540 -0.2455
 6153SOL    HW129921   1.036   2.097   1.527 -2.2655 -0.6643  0.8782
 6153SOL    HW229922   1.146   2.140   1.618  0.8332 -0.9495  3.1599
 6154SOL     OW29923   0.124   4.516   3.293 -0.4151  0.1375 -0.3811
 6154SOL    HW129924   0.065   4.444   3.318  1.4915 -1.1169  0.4642
 6154SOL    HW229925   0.092   4.529   3.204 -0.0422 -0.3029 -0.5796
 6155SOL     OW29926   1.889   3.996   1.855  0.1714 -0.0104 -0.4972
 6155SOL    HW129927   1.932   3.939   1.791 -0.3728  0.5848 -1.4062
 6155SOL    HW229928   1.868   3.925   1.915 -0.2502  1.5051  1.1420
 6156SOL     OW29929   1.082   0.582   9.382 -0.4741  0.7721 -0.3963
 6156SOL    HW129930   1.012   0.630   9.426 -0.3752 -0.3171  0.9430
 6156SOL    HW229931   1.142   0.559   9.453 -0.4447  0.3120 -0.5683
 6157SOL     OW29932   4.204   0.113   9.195 -0.3591 -0.3308 -0.8323
 6157SOL    HW129933   4.138   0.176   9.225 -0.2300 -1.3314  1.5815
 6157SOL    HW229934   4.173   0.033   9.238  2.1345  0.7503  2.8802
 6158SOL     OW29935   2.985   1.639   8.853 -0.0546 -0.3017  0.0066
 6158SOL    HW129936   3.053   1.675   8.796  1.5041 -1.0111  1.4061
 6158SOL    HW229937   2.940   1.723   8.856  0.5305 -0.0670  1.9993
 6159SOL     OW29938   4.123   2.069   5.820 -0.0098 -0.0640  0.0004
 6159SOL    HW129939   4.194   2.020   5.860  0.7271  1.6875  0.8461
 6159SOL    HW229940   4.049   2.020   5.855 -0.3532 -0.2430 -0.9702
 6160SOL     OW29941   0.848   4.234   8.093  0.4268  0.2559  0.4207
 6160SOL    HW129942   0.904   4.178   8.148 -0.4454 -0.3681  0.6705
 6160SOL    HW229943   0.917   4.278   8.043 -0.5164 -0.2326 -1.3473
 6161SOL     OW29944   3.478   2.309   8.329 -0.0629  0.4311  0.1365
 6161SOL    HW129945   3.458   2.330   8.238 -2.4462  1.3032  0.8384
 6161SOL    HW229946   3.562   2.351   8.345 -0.3601  0.8871  0.4944
 6162SOL     OW29947   2.757   3.178   0.566 -0.6349 -0.0339 -0.1097
 6162SOL    HW129948   2.714   3.254   0.525  1.5314  0.5679 -1.2736
 6162SOL    HW229949   2.763   3.108   0.502  0.0353  0.4052 -0.5303
 6163SOL     OW29950   4.560   0.695  11.148 -0.3771  0.3078 -0.7119
 6163SOL    HW129951   4.652   0.674  11.133 -0.3580 -0.7044  0.8793
 6163SOL    HW229952   4.543   0.620  11.205  0.8058  1.1969  0.8351
 6164SOL     OW29953   2.717   0.091   8.758 -0.7325 -0.2334  0.9052
 6164SOL    HW129954   2.805   0.128   8.764  0.4369 -2.9581  0.4297
 6164SOL    HW229955   2.661   0.159   8.722 -0.5472 -1.8039 -2.3395
 6165SOL     OW29956   3.510   0.016   1.163 -0.1891 -0.3464  0.5298
 6165SOL    HW129957   3.559   0.032   1.244  0.1492  2.0851 -0.1722
 6165SOL    HW229958   3.418   0.014   1.189  0.4754 -1.1361  2.8137
 6166SOL     OW29959   0.299   0.009   5.479  0.2926 -0.3018  0.1803
 6166SOL    HW129960   0.242   4.665   5.513 -0.8633 -0.1406 -1.4679
 6166SOL    HW229961   0.318   4.705   5.389  2.7358 -1.0334  0.9133
 6167SOL     OW29962   0.411   4.418   3.394 -0.4423 -0.1076 -0.3332
 6167SOL    HW129963   0.317   4.408   3.408 -0.3068 -2.3012 -1.0890
 6167SOL    HW229964   0.415   4.462   3.309  0.2012 -0.3255 -0.4164
 6168SOL     OW29965   4.269   4.129   3.231 -0.3547 -0.4026  0.1284
 6168SOL    HW129966   4.197   4.086   3.278 -0.1627  0.4442  1.2091
 6168SOL    HW229967   4.219   4.195   3.183 -1.4822 -1.1600  0.2578
 6169SOL     OW29968   1.903   2.779   3.185  0.5153  0.1684  0.7454
 6169SOL    HW129969   1.872   2.750   3.271  0.4126  0.2437  0.7338
 6169SOL    HW229970   1.839   2.841   3.151  4.2147  1.9475 -2.9529
 6170SOL     OW29971   0.754   2.549   2.210  0.5657  0.1254 -0.4223
 6170SOL    HW129972   0.764   2.463   2.251 -0.4948  1.3010  2.3395
 6170SOL    HW229973   0.815   2.605   2.258  0.1074 -1.4991  2.0869
 6171SOL     OW29974   2.354   0.838   3.480 -0.8775  0.6643 -0.2759
 6171SOL    HW129975   2.289   0.908   3.481  1.2169  2.5945  1.3205
 6171SOL    HW229976   2.436   0.884   3.492 -0.2101 -1.1123  2.0598
 6172SOL     OW29977   4.279   2.217  16.573  0.2460 -0.4085 -0.1032
 6172SOL    HW129978   4.215   2.259  16.631  1.9051  1.6551  0.2359
 6172SOL    HW229979   4.329   2.170  16.640  1.9877  0.6364 -0.6777
 6173SOL     OW29980   3.338   4.245   4.072 -0.1603 -0.1016 -0.5156
 6173SOL    HW129981   3.319   4.316   4.011 -0.0922 -0.3203 -0.7897
 6173SOL    HW229982   3.288   4.173   4.033 -0.7326 -0.7879  1.4732
 6174SOL     OW29983   3.954   1.298   2.823 -0.6360 -0.4191 -0.3582
 6174SOL    HW129984   3.931   1.371   2.766  0.5316 -0.7857 -1.2851
 6174SOL    HW229985   3.952   1.227   2.760  0.3553 -0.8799  0.1428
 6175SOL     OW29986   3.673   0.479   9.026  0.2231 -0.9981  0.2131
 6175SOL    HW129987   3.613   0.434   9.085  0.8017  0.1698  1.6806
 6175SOL    HW229988   3.612   0.542   8.987  0.8114  0.3059  1.4298
 6176SOL     OW29989   3.784   0.418  10.559 -0.3349  0.7517  0.0479
 6176SOL    HW129990   3.700   0.464  10.558 -1.8016 -1.8952  1.3352
 6176SOL    HW229991   3.762   0.329  10.587 -1.2446  1.1833  0.7327
 6177SOL     OW29992   2.263   3.654   2.031  0.7923 -0.3666  0.2101
 6177SOL    HW129993   2.180   3.651   2.078  2.7431  0.2764  3.6734
 6177SOL    HW229994   2.303   3.572   2.059  0.7825 -0.8953 -1.2882
 6178SOL     OW29995   3.960   1.326   9.267  0.1845  0.5572  0.0445
 6178SOL    HW129996   4.037   1.368   9.306  0.3422  0.7516 -0.4760
 6178SOL    HW229997   3.941   1.248   9.320  0.6307  1.0089  0.8637
 6179SOL     OW29998   4.492   2.135  15.961 -0.4591  0.2449  0.0091
 6179SOL    HW129999   4.524   2.224  15.972  1.6814 -0.4036 -0.8287
 6179SOL    HW230000   4.530   2.121  15.874  0.1084 -0.5772  0.3904
 6180SOL     OW30001   2.967   1.403   3.932  0.2210 -0.2394  0.1913
 6180SOL    HW130002   2.964   1.309   3.915  1.7402 -0.0261 -1.2058
 6180SOL    HW230003   3.041   1.405   3.992 -0.0977  1.7972  0.5440
 6181SOL     OW30004   2.265   2.956   3.662  0.2342 -0.6241  0.1267
 6181SOL    HW130005   2.279   2.862   3.655 -1.1162 -0.8130  0.0902
 6181SOL    HW230006   2.322   2.986   3.591 -0.0520 -1.1079 -0.3081
 6182SOL     OW30007   2.251   2.353   2.559 -0.1902 -0.5052  0.5052
 6182SOL    HW130008   2.331   2.342   2.610 -1.2704  0.7254  2.4552
 6182SOL    HW230009   2.252   2.266   2.518  0.7989 -1.3211  2.2890
 6183SOL     OW30010   4.127   0.536   9.384  0.3819  0.2082  0.2731
 6183SOL    HW130011   4.125   0.537   9.480  0.4589 -3.0722  0.2995
 6183SOL    HW230012   4.052   0.592   9.361 -1.9277 -3.3922 -0.8937
 6184SOL     OW30013   4.008   4.070  16.119  0.5020 -0.5023 -0.3176
 6184SOL    HW130014   3.994   4.048  16.027  0.8466 -0.8474 -0.2902
 6184SOL    HW230015   4.091   4.028  16.141  0.9182  0.5107  0.0426
 6185SOL     OW30016   3.948   0.200   2.500 -0.0938  0.1143 -0.4900
 6185SOL    HW130017   4.008   0.226   2.431  0.0428 -2.3987 -1.3377
 6185SOL    HW230018   3.888   0.273   2.483  0.1742  0.3109 -0.5882
 6186SOL     OW30019   0.182   2.377   6.230  0.1283 -0.2800  1.2137
 6186SOL    HW130020   0.096   2.357   6.193 -0.6814  0.2758  2.8103
 6186SOL    HW230021   0.178   2.472   6.223  0.6294  0.0362  5.3831
 6187SOL     OW30022   2.338   1.691   5.823 -0.0579 -0.1045  0.6225
 6187SOL    HW130023   2.296   1.772   5.794  0.1786 -0.3230 -0.3138
 6187SOL    HW230024   2.316   1.634   5.750  1.6588  0.4477 -0.3103
 6188SOL     OW30025   2.340   3.360   7.465  0.0924  0.2561  0.1736
 6188SOL    HW130026   2.342   3.266   7.484 -0.7491  0.2153  0.0612
 6188SOL    HW230027   2.421   3.374   7.417 -0.4792  1.6734 -0.3758
 6189SOL     OW30028   4.130   1.907  12.197  0.3295 -0.9113  0.0524
 6189SOL    HW130029   4.068   1.893  12.268 -0.0014  2.1940  0.4122
 6189SOL    HW230030   4.066   1.924  12.128 -1.2765  1.7029  2.1941
 6190SOL     OW30031   2.224   1.368   0.925 -0.3178 -0.1696 -0.0339
 6190SOL    HW130032   2.190   1.416   0.849  0.7085  5.1727  2.8331
 6190SOL    HW230033   2.142   1.353   0.972 -1.2812 -1.4301 -2.1350
 6191SOL     OW30034   1.945   1.750  15.605  0.1105  0.7447  0.0278
 6191SOL    HW130035   1.945   1.723  15.514 -0.2420  0.8077  0.0097
 6191SOL    HW230036   1.883   1.696  15.654  0.5142  0.5471  0.3254
 6192SOL     OW30037   1.053   0.068  16.019  0.0181 -0.6706  0.4419
 6192SOL    HW130038   1.099   0.152  16.014 -3.7098  1.3229 -0.8353
 6192SOL    HW230039   1.103   0.034  15.946 -0.1417 -0.3368  0.1756
 6193SOL     OW30040   2.822   1.286   2.171 -0.0593  0.0101  0.5002
 6193SOL    HW130041   2.846   1.282   2.078  1.1511 -0.3257  0.8249
 6193SOL    HW230042   2.785   1.198   2.180 -2.8070  0.9366 -1.6578
 6194SOL     OW30043   2.033   1.838   2.659  0.7154  0.1297 -0.0839
 6194SOL    HW130044   2.102   1.778   2.630  0.8211 -0.4147  1.2614
 6194SOL    HW230045   2.067   1.927   2.658 -0.6255  0.6609  0.8151
 6195SOL     OW30046   0.370   0.282  16.928 -0.2423  0.0740  0.4597
 6195SOL    HW130047   0.426   0.350  16.890 -0.4039  0.8647  1.6333
 6195SOL    HW230048   0.423   0.208  16.896  0.2553  0.3394  0.6574
 6196SOL     OW30049   3.102   3.872  10.866 -0.3113  0.5586  0.4189
 6196SOL    HW130050   3.124   3.842  10.954 -0.1373  0.4288  0.3311
 6196SOL    HW230051   3.138   3.795  10.822  1.0313  0.0464  2.4252
 6197SOL     OW30052   3.235   3.488   8.595 -0.3044 -0.5214 -0.1117
 6197SOL    HW130053   3.166   3.483   8.661 -1.1661 -1.5247 -1.1018
 6197SOL    HW230054   3.311   3.453   8.641  0.4558  0.1018 -0.8890
 6198SOL     OW30055   1.762   2.987   3.916 -0.4216  0.8810 -0.6562
 6198SOL    HW130056   1.672   2.968   3.942 -0.4924  0.4955 -1.1669
 6198SOL    HW230057   1.808   2.930   3.977 -0.2952  2.1026  0.3865
 6199SOL     OW30058   4.411   1.767   8.560 -0.1758  0.8493 -0.3940
 6199SOL    HW130059   4.455   1.682   8.569 -1.0703  0.8258  3.7931
 6199SOL    HW230060   4.447   1.797   8.643  1.4152  0.0593 -0.7956
 6200SOL     OW30061   3.067   0.873   8.156  0.0776  0.4290 -0.2573
 6200SOL    HW130062   2.989   0.926   8.138  1.5644  2.1598 -1.6081
 6200SOL    HW230063   3.110   0.887   8.071 -0.8467  1.2012 -0.5975
 6201SOL     OW30064   1.243   2.177   2.920  0.2580 -0.0729 -0.0467
 6201SOL    HW130065   1.230   2.269   2.944  0.8982 -0.0630  0.2598
 6201SOL    HW230066   1.285   2.179   2.834 -0.2343 -1.3202 -0.3166
 6202SOL     OW30067   0.255   2.821   9.530  0.2357 -0.8791  0.4325
 6202SOL    HW130068   0.161   2.821   9.510  0.1144  1.0700  0.9874
 6202SOL    HW230069   0.249   2.790   9.620  1.4329 -1.2966  0.3627
 6203SOL     OW30070   4.330   3.622   6.153 -0.3355  0.6090 -0.3115
 6203SOL    HW130071   4.394   3.646   6.085  0.4994 -2.5455 -0.6468
 6203SOL    HW230072   4.246   3.617   6.107  0.0115  0.2663 -0.9264
 6204SOL     OW30073   0.422   1.270  15.760  0.1670 -0.0041 -0.4460
 6204SOL    HW130074   0.494   1.325  15.730  1.0021 -0.5786  0.5247
 6204SOL    HW230075   0.385   1.317  15.835 -0.8895  0.6473 -1.3794
 6205SOL     OW30076   0.951   3.714  15.290  0.5587 -0.5489  0.5033
 6205SOL    HW130077   0.998   3.718  15.373 -0.5076  0.3554  1.0668
 6205SOL    HW230078   0.883   3.656  15.325 -0.8446  1.5602  1.3143
 6206SOL     OW30079   1.113   1.941   7.910  0.5643 -0.6724 -0.0330
 6206SOL    HW130080   1.182   1.999   7.879 -1.1065  0.9782 -0.6806
 6206SOL    HW230081   1.171   1.873   7.944 -0.8349 -2.4345 -1.1202
 6207SOL     OW30082   0.252   3.189   6.141  0.3779  0.1807 -0.5322
 6207SOL    HW130083   0.287   3.100   6.152  0.3803  0.1487 -0.8032
 6207SOL    HW230084   0.179   3.192   6.202  1.7336 -3.2522  1.2532
 6208SOL     OW30085   3.212   4.538   7.019  0.2254  0.1839  0.1287
 6208SOL    HW130086   3.185   4.542   7.111  2.2278  1.9797  0.6346
 6208SOL    HW230087   3.201   4.443   7.007 -2.1159  0.6894 -1.6924
 6209SOL     OW30088   2.975   1.831   7.264  0.1014 -0.4925 -0.2126
 6209SOL    HW130089   3.063   1.807   7.292  0.5463  0.8208 -0.4890
 6209SOL    HW230090   2.928   1.783   7.332  0.4627  1.1309  1.1543
 6210SOL     OW30091   4.117   4.232   5.743 -0.3103 -0.3434 -0.1007
 6210SOL    HW130092   4.131   4.180   5.821  0.5153  0.7927  0.5128
 6210SOL    HW230093   4.023   4.244   5.756 -0.4939 -0.1871 -1.5000
 6211SOL     OW30094   2.170   2.162  10.248 -0.2135 -0.3680 -0.7782
 6211SOL    HW130095   2.157   2.068  10.238 -2.7564 -0.1927  0.8146
 6211SOL    HW230096   2.127   2.192  10.168 -0.3251 -0.1117 -0.6204
 6212SOL     OW30097   2.025   1.603   2.240  0.2188 -0.0088 -0.1044
 6212SOL    HW130098   1.997   1.530   2.184  1.1804 -1.7765  1.7168
 6212SOL    HW230099   1.944   1.654   2.244  2.5269  3.9566 -2.8972
 6213SOL     OW30100   0.012   3.816   5.646 -0.2162 -0.3132  0.0094
 6213SOL    HW130101   0.035   3.870   5.721 -0.1306  0.1824 -0.3715
 6213SOL    HW230102   4.641   3.819   5.648 -0.1805 -0.2619  1.1871
 6214SOL     OW30103   3.470   4.577   8.542  0.3154 -0.0304 -0.2008
 6214SOL    HW130104   3.486   4.669   8.518 -0.3851  0.6661  2.0020
 6214SOL    HW230105   3.490   4.576   8.635  0.5760 -0.4602 -0.2641
 6215SOL     OW30106   4.661   4.067   0.782 -0.6667  0.1953  0.2127
 6215SOL    HW130107   4.617   4.147   0.754  1.0662  0.9725 -0.2723
 6215SOL    HW230108   4.639   4.078   0.874 -3.7616 -2.7590 -0.1781
 6216SOL     OW30109   0.641   0.480  12.511 -0.1685  0.8981 -0.5248
 6216SOL    HW130110   0.550   0.457  12.532  0.2680 -2.3006 -2.2043
 6216SOL    HW230111   0.664   0.521  12.595 -2.7165 -0.7256  0.9627
 6217SOL     OW30112   1.929   0.062   7.946  0.0226  0.0607 -0.2703
 6217SOL    HW130113   1.965   4.718   8.002  1.2855  1.1046  0.1827
 6217SOL    HW230114   1.928   0.017   7.862 -0.7694 -1.1804  0.3933
 6218SOL     OW30115   2.429   0.291   5.009  0.1313  0.2191  0.3380
 6218SOL    HW130116   2.336   0.298   4.990  0.3431  0.2470 -0.6678
 6218SOL    HW230117   2.468   0.377   4.994 -2.6127  1.7050  1.7470
 6219SOL     OW30118   1.864   0.586   6.338  0.4333 -0.0141  0.7035
 6219SOL    HW130119   1.791   0.617   6.391 -1.0835 -1.0525 -0.7741
 6219SOL    HW230120   1.829   0.587   6.249 -1.1189  1.3113  1.3363
 6220SOL     OW30121   1.302   1.112   5.148  0.2570 -0.0661 -0.3720
 6220SOL    HW130122   1.306   1.198   5.192  1.2488  0.6239 -1.8308
 6220SOL    HW230123   1.341   1.133   5.063  1.6607 -0.2539  0.2149
 6221SOL     OW30124   2.775   4.276   8.299 -0.4786 -0.3399 -0.7637
 6221SOL    HW130125   2.703   4.297   8.240 -1.0504 -0.8777 -0.2528
 6221SOL    HW230126   2.785   4.181   8.290  3.7674  0.1483 -1.2843
 6222SOL     OW30127   0.981   4.234   2.230  0.5396  0.0309 -0.6586
 6222SOL    HW130128   1.002   4.153   2.185  0.3207  0.7734 -2.0989
 6222SOL    HW230129   0.886   4.241   2.232  0.4474 -1.5970 -0.1848
 6223SOL     OW30130   1.972   3.067   0.762  0.1498  0.0752  0.0398
 6223SOL    HW130131   2.014   3.034   0.841 -0.2589  1.7137  0.9320
 6223SOL    HW230132   2.041   3.123   0.725 -1.3396  1.9801  0.1480
 6224SOL     OW30133   3.426   3.989   2.873  0.5839 -0.0673 -0.3673
 6224SOL    HW130134   3.370   4.064   2.850 -0.2261 -1.0512 -1.5986
 6224SOL    HW230135   3.406   3.933   2.798  0.2073  0.5541 -0.7306
 6225SOL     OW30136   2.783   4.085  16.248  0.1135  0.0956  0.0681
 6225SOL    HW130137   2.707   4.129  16.288 -0.1415 -0.2052 -0.0867
 6225SOL    HW230138   2.844   4.095  16.321  0.1552  1.6348 -0.1732
 6226SOL     OW30139   1.222   0.545   3.483  0.0026 -0.3795 -0.5561
 6226SOL    HW130140   1.283   0.605   3.525  2.7677 -1.7071 -2.6821
 6226SOL    HW230141   1.273   0.504   3.413 -1.1563 -0.6600 -1.2407
 6227SOL     OW30142   2.910   2.829   8.370  0.0682 -0.1737  0.1000
 6227SOL    HW130143   3.002   2.830   8.396 -0.1369  1.9248  0.7351
 6227SOL    HW230144   2.915   2.889   8.295  0.2280 -0.7510 -0.3563
 6228SOL     OW30145   4.482   3.097  10.960  0.0889 -0.0093 -1.1521
 6228SOL    HW130146   4.428   3.020  10.939 -1.2417  0.4635  0.5534
 6228SOL    HW230147   4.570   3.062  10.948  0.1226 -0.2514 -0.1728
 6229SOL     OW30148   2.910   1.414   5.813  0.0826 -0.8364 -0.2308
 6229SOL    HW130149   2.924   1.381   5.724 -0.0765 -0.6953 -0.3081
 6229SOL    HW230150   2.988   1.469   5.814  0.7773 -1.8745  1.2698
 6230SOL     OW30151   3.803   2.329  14.337 -0.5385  0.3784 -0.7035
 6230SOL    HW130152   3.847   2.289  14.262  1.4451  2.7657 -0.8095
 6230SOL    HW230153   3.712   2.333  14.306 -1.2961  0.7905  1.6144
 6231SOL     OW30154   3.837   3.098  12.907 -0.2431  0.7594  0.5546
 6231SOL    HW130155   3.890   3.169  12.871  2.3105 -0.4474  1.9457
 6231SOL    HW230156   3.880   3.081  12.991 -0.3988 -2.3325 -0.0156
 6232SOL     OW30157   0.806   0.107   6.978  0.2546  0.2450 -0.3483
 6232SOL    HW130158   0.804   0.054   7.058  0.5523  0.5195 -0.1569
 6232SOL    HW230159   0.779   0.040   6.915  1.1568 -1.4052  1.0272
 6233SOL     OW30160   3.392   4.603  10.409 -0.0302  0.0974  0.4233
 6233SOL    HW130161   3.373   4.625  10.500  0.2858 -0.5138  0.6330
 6233SOL    HW230162   3.303   4.591  10.377 -0.1107 -2.7225  1.7114
 6234SOL     OW30163   0.190   4.191   9.053 -0.0853 -0.0184 -0.6903
 6234SOL    HW130164   0.170   4.098   9.063  0.7779  0.0293  1.5376
 6234SOL    HW230165   0.278   4.200   9.090 -1.2085 -0.2789  2.0774
 6235SOL     OW30166   1.028   0.166   8.172  0.4303  0.4191  0.1266
 6235SOL    HW130167   1.094   0.193   8.108  0.1874 -0.7812 -0.6233
 6235SOL    HW230168   1.079   0.110   8.230  1.9260  1.2119 -0.4063
 6236SOL     OW30169   2.164   2.152   7.038 -0.1275 -0.0431  0.6439
 6236SOL    HW130170   2.223   2.220   7.071 -0.2872  0.1077  0.6208
 6236SOL    HW230171   2.087   2.207   7.022 -0.8154 -0.0849  3.7949
 6237SOL     OW30172   2.625   3.983   3.319  0.0647  0.4828  0.0541
 6237SOL    HW130173   2.576   4.065   3.321  1.0499  1.0378  1.2241
 6237SOL    HW230174   2.663   3.993   3.232  0.5373 -0.5414  0.1384
 6238SOL     OW30175   4.313   3.602   6.412 -0.0378 -0.6751 -0.5079
 6238SOL    HW130176   4.329   3.625   6.320  0.6046  2.0580  0.2710
 6238SOL    HW230177   4.265   3.520   6.404 -2.1158  0.4774  0.2023
 6239SOL     OW30178   2.088   3.222   2.071  0.1915  0.2416  0.0292
 6239SOL    HW130179   2.164   3.203   2.126  1.1580  2.0751 -0.6491
 6239SOL    HW230180   2.085   3.149   2.009 -0.9589 -2.3253  3.0973
 6240SOL     OW30181   2.082   3.416   7.567  0.3310 -0.4282  0.0963
 6240SOL    HW130182   2.098   3.394   7.659  1.8357  1.3104  0.2564
 6240SOL    HW230183   2.163   3.383   7.527  1.3547  1.4335  0.6105
 6241SOL     OW30184   3.747   0.282  11.556  0.2204  0.2369  1.0131
 6241SOL    HW130185   3.651   0.276  11.562  0.0733 -0.9971 -2.6007
 6241SOL    HW230186   3.772   0.279  11.648  0.3791 -0.1875  0.9540
 6242SOL     OW30187   1.501   0.080   8.348 -0.2213 -0.3368 -0.1598
 6242SOL    HW130188   1.467   0.080   8.438  0.7218 -0.7660  0.1945
 6242SOL    HW230189   1.524   0.172   8.334 -0.3242 -0.3425 -0.3544
 6243SOL     OW30190   0.429   2.488   4.385  0.4449 -0.1000  0.4476
 6243SOL    HW130191   0.439   2.412   4.443  0.3403 -0.9273 -0.6214
 6243SOL    HW230192   0.336   2.487   4.364  1.2278 -0.9124 -3.1191
 6244SOL     OW30193   4.145   0.232   9.520 -0.5826 -0.3365  0.0201
 6244SOL    HW130194   4.134   0.323   9.549 -0.6811 -0.3335 -0.0253
 6244SOL    HW230195   4.089   0.233   9.443 -1.0711  1.5350  0.3942
 6245SOL     OW30196   4.588   3.276   7.569  0.3317  0.2170  0.1057
 6245SOL    HW130197   4.582   3.199   7.513 -2.9101 -0.2706  1.0967
 6245SOL    HW230198   4.606   3.342   7.502  0.0827  1.4067  1.2048
 6246SOL     OW30199   1.352   0.760   7.803  0.3563 -0.0468 -0.3822
 6246SOL    HW130200   1.428   0.714   7.769 -1.4379 -1.8802 -1.9286
 6246SOL    HW230201   1.284   0.733   7.742 -1.1053  0.8104  0.8516
 6247SOL     OW30202   0.065   0.363  10.731  0.0379  0.0637 -0.1443
 6247SOL    HW130203   0.102   0.275  10.738  0.5878  0.4556  1.7707
 6247SOL    HW230204   0.003   0.342  10.661 -0.2448  3.1837 -0.8250
 6248SOL     OW30205   0.435   0.160   3.172 -0.4447 -0.0240 -0.6957
 6248SOL    HW130206   0.463   0.189   3.086 -1.0079 -2.5119 -1.7323
 6248SOL    HW230207   0.485   0.213   3.234 -0.0849 -1.6233  0.3766
 6249SOL     OW30208   1.381   3.412   4.700  0.1617 -0.7662  0.1540
 6249SOL    HW130209   1.360   3.426   4.792  0.5992 -0.7240  0.2474
 6249SOL    HW230210   1.298   3.375   4.671 -1.3779  1.9649  1.0563
 6250SOL     OW30211   1.298   0.737   5.614  0.5271 -0.6431  0.4892
 6250SOL    HW130212   1.304   0.780   5.700  2.2071  1.2204 -0.5579
 6250SOL    HW230213   1.205   0.745   5.591 -0.2208 -0.7769  3.3802
 6251SOL     OW30214   0.850   2.964   3.350  0.0179 -0.3049  0.2056
 6251SOL    HW130215   0.828   3.055   3.335 -1.8771 -0.8897 -0.5938
 6251SOL    HW230216   0.907   2.963   3.427 -1.0290 -1.3852  0.9650
 6252SOL     OW30217   1.863   2.401   0.641 -0.4661  0.4042 -0.1968
 6252SOL    HW130218   1.882   2.372   0.552 -0.7762  0.9368 -0.4389
 6252SOL    HW230219   1.776   2.369   0.663 -0.8346 -1.5746 -4.6835
 6253SOL     OW30220   2.697   1.820   1.344 -0.5234 -0.1952  0.4268
 6253SOL    HW130221   2.657   1.897   1.302  0.5235  0.3824  0.4770
 6253SOL    HW230222   2.752   1.785   1.274 -0.4412  1.0429 -0.1440
 6254SOL     OW30223   0.429   0.402   4.021 -0.2130 -0.1347  0.0920
 6254SOL    HW130224   0.369   0.335   3.989 -0.3273  0.1341 -0.2665
 6254SOL    HW230225   0.358   0.459   4.050  0.1909  1.0443 -1.2252
 6255SOL     OW30226   0.155   1.742  13.873  0.1939 -0.1244 -0.5782
 6255SOL    HW130227   0.120   1.813  13.928  1.6786 -1.1845  1.7369
 6255SOL    HW230228   0.233   1.779  13.832 -0.3690  1.0241 -0.6189
 6256SOL     OW30229   4.152   2.565  13.804  0.3140  0.1255 -0.2071
 6256SOL    HW130230   4.167   2.657  13.784 -3.6290  0.9085  0.4433
 6256SOL    HW230231   4.093   2.572  13.879 -0.8101  1.5086 -1.1979
 6257SOL     OW30232   1.651   4.491   9.170 -0.7417  0.2572 -0.2515
 6257SOL    HW130233   1.737   4.534   9.175  0.1386 -1.4069 -0.7838
 6257SOL    HW230234   1.674   4.439   9.093  1.5045  1.6886 -0.5655
 6258SOL     OW30235   3.252   0.725   6.229  0.1929  0.1732  0.1745
 6258SOL    HW130236   3.219   0.777   6.155  0.1789  0.1863  0.1902
 6258SOL    HW230237   3.247   0.636   6.195  1.9795  1.0029 -2.2803
 6259SOL     OW30238   4.665   4.634   2.317  0.5540  0.4188  0.0610
 6259SOL    HW130239   4.666   4.589   2.402 -1.3637  1.2049  0.5102
 6259SOL    HW230240   4.688   4.724   2.340 -0.7304  0.9507 -0.7119
 6260SOL     OW30241   2.939   1.063   8.666 -0.2269  0.4084  0.2993
 6260SOL    HW130242   2.976   1.073   8.753 -0.6125 -0.3469  0.5482
 6260SOL    HW230243   2.948   1.154   8.638  1.8741  0.4653  1.1929
 6261SOL     OW30244   3.076   1.538  13.469  0.4239  0.0417 -0.1114
 6261SOL    HW130245   3.110   1.511  13.554 -0.0782 -1.0099 -0.2509
 6261SOL    HW230246   3.131   1.486  13.411  1.6518  2.6210 -1.2740
 6262SOL     OW30247   0.474   3.621   5.410 -0.2260 -0.4977 -0.1795
 6262SOL    HW130248   0.415   3.690   5.383 -1.8971 -1.7944  0.1651
 6262SOL    HW230249   0.422   3.543   5.430 -2.0192  0.4569 -1.2092
 6263SOL     OW30250   2.166   3.017   8.463 -0.4695  0.0274 -0.4377
 6263SOL    HW130251   2.089   2.990   8.513 -0.3543  2.2168  0.8997
 6263SOL    HW230252   2.234   2.954   8.487 -1.6531 -0.3465  1.9020
 6264SOL     OW30253   0.994   4.423  15.448 -0.5924  0.1530 -0.3515
 6264SOL    HW130254   0.940   4.493  15.411  0.4356  0.8897 -0.4528
 6264SOL    HW230255   1.014   4.377  15.366 -0.8042  0.5772 -0.6448
 6265SOL     OW30256   4.667   1.506   0.242 -0.7230  0.4266  0.0929
 6265SOL    HW130257   0.004   1.561   0.291  1.7387 -1.3618 -0.9246
 6265SOL    HW230258   4.701   1.504   0.153 -1.1361 -0.0484 -0.0502
 6266SOL     OW30259   3.198   3.704   5.620  0.3819  0.2994 -0.2207
 6266SOL    HW130260   3.120   3.653   5.645  0.6177  0.8912  1.7032
 6266SOL    HW230261   3.254   3.636   5.584 -0.3639  0.0389 -0.9086
 6267SOL     OW30262   1.981   3.379   1.237  0.4113  0.1290  0.4380
 6267SOL    HW130263   1.930   3.460   1.240 -0.1115 -0.1990  0.3694
 6267SOL    HW230264   2.071   3.408   1.249  0.1107  0.5488  1.6135
 6268SOL     OW30265   0.010   4.328   8.038 -0.5082  0.6156 -0.3862
 6268SOL    HW130266   4.688   4.249   8.064  1.4019 -0.9938 -1.8011
 6268SOL    HW230267   0.098   4.315   8.074 -0.5614 -0.4445 -0.6502
 6269SOL     OW30268   4.063   3.917   9.922 -0.7604 -0.2409 -0.0070
 6269SOL    HW130269   4.087   3.916   9.829  0.8531  1.7568  0.3914
 6269SOL    HW230270   4.001   3.846   9.933  0.2649 -1.2894 -1.0233
 6270SOL     OW30271   0.049   2.653   7.789  0.3153  0.0405  0.2764
 6270SOL    HW130272   0.125   2.595   7.776  1.0104  0.8052  0.9341
 6270SOL    HW230273   0.101   2.733   7.802  2.9015 -1.1542 -2.5543
 6271SOL     OW30274   4.341   4.490  17.513  0.3740  0.0902  0.6351
 6271SOL    HW130275   4.410   4.511  17.450 -1.5204  1.6730 -0.8705
 6271SOL    HW230276   4.267   4.500  17.454  0.6644  0.7093  0.3755
 6272SOL     OW30277   3.646   1.758  15.870  0.1029 -0.1132 -0.0912
 6272SOL    HW130278   3.662   1.828  15.933 -0.4846  0.4859 -0.6096
 6272SOL    HW230279   3.597   1.803  15.802 -1.8701 -0.0466  1.3877
 6273SOL     OW30280   2.231   3.707   2.394 -0.0791 -0.1009 -0.3744
 6273SOL    HW130281   2.186   3.644   2.338 -2.8617  2.9539 -1.5975
 6273SOL    HW230282   2.320   3.670   2.389  0.2493  0.9078 -2.3109
 6274SOL     OW30283   0.557   1.576   5.772  0.3037 -0.1740 -0.0305
 6274SOL    HW130284   0.633   1.532   5.734  0.7501 -1.4416  2.3096
 6274SOL    HW230285   0.565   1.554   5.865  1.0818 -0.4474 -0.1592
 6275SOL     OW30286   2.823   4.118   7.910  0.1922 -0.1717 -0.1905
 6275SOL    HW130287   2.860   4.030   7.905 -0.6028 -0.5115 -0.0961
 6275SOL    HW230288   2.734   4.107   7.942  0.1812  4.6132  1.4301
 6276SOL     OW30289   0.314   2.637   0.805  0.5042  0.3221  0.2703
 6276SOL    HW130290   0.309   2.732   0.819 -1.5240 -0.1185  2.5014
 6276SOL    HW230291   0.270   2.639   0.720  0.1768  0.8774  0.4534
 6277SOL     OW30292   1.399   0.747   8.078 -0.1671 -0.0753  0.0210
 6277SOL    HW130293   1.318   0.703   8.102  0.4365  0.3442  2.7844
 6277SOL    HW230294   1.390   0.746   7.982 -0.8980  0.9513  0.0674
 6278SOL     OW30295   0.144   1.644  12.529  0.1801  0.2237 -0.9841
 6278SOL    HW130296   0.186   1.660  12.444  2.3666  1.0044  0.2682
 6278SOL    HW230297   0.125   1.735  12.552 -1.7759 -0.3181 -0.4351
 6279SOL     OW30298   3.768   1.188   8.150 -0.0153  0.0174 -0.4002
 6279SOL    HW130299   3.845   1.171   8.203 -0.9564 -1.5837  0.4558
 6279SOL    HW230300   3.756   1.110   8.096  0.1001 -1.2578  1.4362
 6280SOL     OW30301   3.213   3.615  10.842 -0.1787  0.1501 -0.3221
 6280SOL    HW130302   3.273   3.553  10.800  1.1921 -1.1755  3.5689
 6280SOL    HW230303   3.160   3.560  10.899 -2.9611  1.3212 -1.7755
 6281SOL     OW30304   4.277   0.188  12.567 -0.1712  0.8105  0.1943
 6281SOL    HW130305   4.223   0.248  12.516  1.3059  2.3585  0.4459
 6281SOL    HW230306   4.277   0.217  12.659  2.3287 -0.3215  0.5406
 6282SOL     OW30307   0.643   1.744   6.104 -0.0118  0.1177 -0.0845
 6282SOL    HW130308   0.602   1.826   6.131 -0.4806  0.1028 -0.7407
 6282SOL    HW230309   0.579   1.683   6.143 -1.4735  0.7614 -1.4476
 6283SOL     OW30310   4.655   0.840   3.638  0.1491 -0.3147  0.2020
 6283SOL    HW130311   4.690   0.928   3.624  0.6378 -0.2863  1.6125
 6283SOL    HW230312   4.693   0.794   3.563  1.9068 -0.4882  1.2079
 6284SOL     OW30313   0.271   2.874   8.182 -0.2451 -0.1583  0.2776
 6284SOL    HW130314   0.269   2.952   8.237 -0.2010  0.3426 -0.4382
 6284SOL    HW230315   0.186   2.887   8.142 -0.2701  0.7097  0.6198
 6285SOL     OW30316   2.516   0.080  10.305 -0.1100 -0.1244 -0.3788
 6285SOL    HW130317   2.483   0.042  10.224  0.9381 -0.6470 -0.5629
 6285SOL    HW230318   2.536   0.004  10.361  0.2978  1.1376  1.1851
 6286SOL     OW30319   3.745   2.820   4.126  0.3268  0.2920  0.0907
 6286SOL    HW130320   3.777   2.771   4.051  2.5633  3.0319 -0.7333
 6286SOL    HW230321   3.655   2.841   4.103  0.0410 -1.8066 -0.6824
 6287SOL     OW30322   4.222   2.435   9.840 -0.2498  0.3893 -0.2416
 6287SOL    HW130323   4.218   2.339   9.838 -0.4630  0.4342 -2.0467
 6287SOL    HW230324   4.256   2.450   9.752 -1.5928  0.1979 -0.7999
 6288SOL     OW30325   4.330   0.483   9.226 -0.3000 -0.2516 -0.0848
 6288SOL    HW130326   4.341   0.416   9.293  0.6033 -0.6209 -0.6160
 6288SOL    HW230327   4.244   0.516   9.254 -0.0297  1.2585 -1.0372
 6289SOL     OW30328   0.713   1.833   5.036  0.2678 -0.3024  0.0079
 6289SOL    HW130329   0.638   1.811   5.091 -0.6996  1.3214 -0.6718
 6289SOL    HW230330   0.698   1.927   5.036 -0.0240 -0.3457  0.3597
 6290SOL     OW30331   4.387   2.108   9.605 -0.7536 -0.0898  0.4143
 6290SOL    HW130332   4.402   2.203   9.612  0.0962 -0.1841 -0.1746
 6290SOL    HW230333   4.342   2.098   9.521 -2.5363 -1.6850  1.5601
 6291SOL     OW30334   3.984   2.611   5.002 -0.4434  0.0016  0.2307
 6291SOL    HW130335   3.896   2.573   5.007 -0.3947 -0.1617 -0.1111
 6291SOL    HW230336   4.035   2.561   5.066 -1.4155 -1.4059 -0.0852
 6292SOL     OW30337   2.591   1.251   7.759 -0.8527  0.1212 -0.8741
 6292SOL    HW130338   2.550   1.216   7.680 -2.1237 -1.6325  0.5648
 6292SOL    HW230339   2.641   1.176   7.790  0.2225  1.3494  0.4002
 6293SOL     OW30340   2.224   3.628   5.311 -0.2399 -0.5795  0.3246
 6293SOL    HW130341   2.217   3.702   5.371 -0.4985 -0.5375  0.2432
 6293SOL    HW230342   2.315   3.609   5.334  0.0290 -3.0688 -2.7931
 6294SOL     OW30343   1.032   2.595   4.885 -0.0027  0.1897 -0.3711
 6294SOL    HW130344   0.984   2.513   4.893  1.3696 -0.5582  0.1526
 6294SOL    HW230345   1.030   2.602   4.790  1.8762 -0.2293 -0.4265
 6295SOL     OW30346   1.567   3.548   6.214 -0.2581 -0.0718 -0.6860
 6295SOL    HW130347   1.519   3.518   6.137 -0.2895 -0.7133 -0.4078
 6295SOL    HW230348   1.497   3.546   6.279  0.8058 -0.9127  0.4171
 6296SOL     OW30349   2.345   4.590   3.378  0.0649  0.0415  0.1229
 6296SOL    HW130350   2.308   4.650   3.443  1.5857  1.6261 -0.4657
 6296SOL    HW230351   2.431   4.632   3.381  1.0980 -2.1393  1.0452
 6297SOL     OW30352   2.602   1.104   8.674  0.3444 -0.0392  0.7005
 6297SOL    HW130353   2.657   1.031   8.703  1.0191 -0.0834 -0.7373
 6297SOL    HW230354   2.642   1.176   8.724 -1.5654 -0.5541  2.9757
 6298SOL     OW30355   0.454   3.082  11.604 -0.6919  0.3229 -0.2612
 6298SOL    HW130356   0.427   3.036  11.683  0.6093  0.3678  0.2161
 6298SOL    HW230357   0.373   3.126  11.581  1.1196  2.4735 -2.6103
 6299SOL     OW30358   4.526   1.871   8.789 -1.1811 -0.7222 -0.4301
 6299SOL    HW130359   4.542   1.949   8.735 -0.5131 -1.3416 -1.1229
 6299SOL    HW230360   4.609   1.863   8.836 -0.9620 -0.6458 -0.8019
 6300SOL     OW30361   0.622   4.001  15.517 -0.2767 -0.0245 -0.1084
 6300SOL    HW130362   0.582   3.983  15.431  1.6481  1.4657 -1.3107
 6300SOL    HW230363   0.605   3.918  15.563 -0.5197  0.1253  0.0737
 6301SOL     OW30364   3.384   3.472   9.830  0.1938 -0.1210 -0.0671
 6301SOL    HW130365   3.291   3.455   9.845  0.1781  0.9290  0.9802
 6301SOL    HW230366   3.420   3.432   9.909 -0.1594 -0.7928 -0.2509
 6302SOL     OW30367   4.212   3.846   5.842 -0.7579  0.2917  0.4853
 6302SOL    HW130368   4.219   3.806   5.755  2.0941 -0.5483  1.0908
 6302SOL    HW230369   4.122   3.878   5.847 -0.4184  1.0283  1.8122
 6303SOL     OW30370   3.490   2.681  12.556 -0.9668 -0.5123  0.1336
 6303SOL    HW130371   3.568   2.664  12.503 -0.0288 -1.3677  1.7933
 6303SOL    HW230372   3.426   2.627  12.509 -2.4830  1.0399  0.4245
 6304SOL     OW30373   0.917   3.012   0.536  0.0101  0.1785 -0.3435
 6304SOL    HW130374   1.004   3.047   0.516 -0.6884  0.0886 -3.6101
 6304SOL    HW230375   0.871   3.093   0.557  1.2237  1.4169 -2.4266
 6305SOL     OW30376   4.126   4.152  10.024 -0.1171  0.0006  0.2054
 6305SOL    HW130377   4.208   4.133  10.069 -0.2700  0.5399  0.7277
 6305SOL    HW230378   4.111   4.065   9.989 -0.1889 -0.0376  0.3296
 6306SOL     OW30379   2.156   3.552  16.888 -0.2036  0.3071  0.5716
 6306SOL    HW130380   2.164   3.647  16.888  0.2527  0.2627 -0.3450
 6306SOL    HW230381   2.250   3.533  16.888 -0.4423 -0.9165 -1.5245
 6307SOL     OW30382   1.118   4.372   5.471 -0.2000  0.0806  0.3048
 6307SOL    HW130383   1.081   4.449   5.514  0.2643  1.4204 -1.7297
 6307SOL    HW230384   1.069   4.296   5.504  1.4552 -0.7177  0.9098
 6308SOL     OW30385   2.229   1.563  11.898 -0.3712 -0.2619 -0.5863
 6308SOL    HW130386   2.268   1.506  11.832  0.1806  0.7528 -1.1159
 6308SOL    HW230387   2.231   1.490  11.960 -1.3123 -0.0566 -0.3072
 6309SOL     OW30388   2.510   2.437   9.278  0.2987  0.1822 -0.0169
 6309SOL    HW130389   2.429   2.462   9.322 -0.1578 -1.9827  0.4042
 6309SOL    HW230390   2.468   2.395   9.203 -2.1888  1.1962  0.8318
 6310SOL     OW30391   1.953   1.124   8.559  0.1733  0.7225  0.2155
 6310SOL    HW130392   1.986   1.073   8.633 -1.9423 -2.0227 -0.7424
 6310SOL    HW230393   2.014   1.096   8.492 -0.4111  0.1858 -0.0941
 6311SOL     OW30394   0.376   0.820   5.698 -0.7706  0.2497 -0.2792
 6311SOL    HW130395   0.402   0.766   5.623  0.2751 -1.3832  1.2544
 6311SOL    HW230396   0.288   0.841   5.668 -0.8758  1.6324  1.0109
 6312SOL     OW30397   0.578   2.713   3.910 -0.1379  0.1127  0.0172
 6312SOL    HW130398   0.564   2.619   3.903 -0.2887  0.1871 -0.6526
 6312SOL    HW230399   0.537   2.735   3.994 -0.9828 -1.9758  0.1499
 6313SOL     OW30400   1.849   1.546   7.820 -0.0176  0.1664  0.4426
 6313SOL    HW130401   1.770   1.558   7.768  0.0261  3.1602  1.0843
 6313SOL    HW230402   1.908   1.617   7.795  1.2307 -1.3448 -0.8872
 6314SOL     OW30403   4.516   2.736   8.103  0.0913  0.0260 -0.0733
 6314SOL    HW130404   4.550   2.657   8.062 -0.4857 -0.4276  0.3229
 6314SOL    HW230405   4.440   2.760   8.050 -0.6988 -2.6300 -0.1295
 6315SOL     OW30406   0.581   1.298  12.450  0.4499 -0.3422  0.0975
 6315SOL    HW130407   0.526   1.357  12.502 -0.5453 -0.4919 -0.7876
 6315SOL    HW230408   0.571   1.216  12.499 -2.2033  0.0072  0.1617
 6316SOL     OW30409   0.716   0.421  15.800  0.0599 -0.0262 -0.5724
 6316SOL    HW130410   0.728   0.516  15.799  0.0058 -0.0242 -1.0077
 6316SOL    HW230411   0.657   0.401  15.727  2.1526  1.4083 -2.6613
 6317SOL     OW30412   3.731   3.475   0.965 -0.3077 -0.4183 -0.2919
 6317SOL    HW130413   3.806   3.525   0.996  0.5969 -1.2781 -1.1011
 6317SOL    HW230414   3.688   3.467   1.050 -0.2487  1.3968 -0.0967
 6318SOL     OW30415   3.599   1.491   6.530 -0.0347 -0.0241 -0.0708
 6318SOL    HW130416   3.688   1.498   6.564 -0.4106  0.8594  0.7561
 6318SOL    HW230417   3.571   1.580   6.551  0.7357  0.0569  0.6039
 6319SOL     OW30418   3.501   3.078   7.663  0.4297  0.0847  0.1442
 6319SOL    HW130419   3.408   3.097   7.660  1.4047  4.5494 -2.2016
 6319SOL    HW230420   3.540   3.145   7.606  3.8376 -0.2800  2.0208
 6320SOL     OW30421   0.747   2.945   3.861  0.5132 -0.0382 -0.4774
 6320SOL    HW130422   0.711   2.865   3.899 -0.0565  0.6270  0.3948
 6320SOL    HW230423   0.718   2.938   3.770  2.0795  0.9783 -1.0524
 6321SOL     OW30424   4.224   3.410   5.494  0.1001  0.3293  0.0379
 6321SOL    HW130425   4.167   3.341   5.459  0.3682  1.7219 -3.1416
 6321SOL    HW230426   4.157   3.467   5.532 -0.6344 -0.5753  0.1123
 6322SOL     OW30427   2.637   4.446   3.471  1.2049  0.2562  0.0927
 6322SOL    HW130428   2.586   4.368   3.494  2.0292 -0.3294 -0.0499
 6322SOL    HW230429   2.626   4.504   3.546 -1.4779 -0.2677  0.0999
 6323SOL     OW30430   3.054   2.669   2.563 -0.2516  0.1189  0.4905
 6323SOL    HW130431   3.072   2.618   2.642  1.8145 -0.8364 -0.5764
 6323SOL    HW230432   3.088   2.619   2.488 -0.4695  1.2664 -0.3743
 6324SOL     OW30433   4.658   0.834  16.928 -0.1032 -0.1892 -0.5690
 6324SOL    HW130434   4.687   0.924  16.935 -0.4155 -0.0241 -1.3428
 6324SOL    HW230435   4.638   0.831  16.834 -0.8409  1.5835 -0.4586
 6325SOL     OW30436   3.801   4.661   6.930  0.5492 -0.2691 -0.5240
 6325SOL    HW130437   3.803   4.628   7.020  2.2515 -0.2608 -0.5550
 6325SOL    HW230438   3.765   0.023   6.949  1.3432 -0.5892  2.4725
 6326SOL     OW30439   4.104   3.245  14.977  0.0539 -0.1202 -0.2064
 6326SOL    HW130440   4.152   3.176  15.022 -1.4957 -1.9582 -1.3172
 6326SOL    HW230441   4.037   3.184  14.945 -1.0367  1.0949 -0.2489
 6327SOL     OW30442   2.394   3.606   0.893  0.1408  0.6761 -0.1746
 6327SOL    HW130443   2.299   3.609   0.904 -0.0009  0.3426 -1.2933
 6327SOL    HW230444   2.424   3.646   0.974 -0.6496 -0.1817  0.5415
 6328SOL     OW30445   1.538   2.019   4.451 -0.0722  0.0045 -0.3604
 6328SOL    HW130446   1.505   2.043   4.364 -1.7746  0.0831  0.3069
 6328SOL    HW230447   1.527   1.924   4.449  1.8912 -0.2610  1.6185
 6329SOL     OW30448   4.520   4.419   6.997  0.3747 -0.0284 -0.2296
 6329SOL    HW130449   4.540   4.326   6.993  0.6545 -0.1325  3.6688
 6329SOL    HW230450   4.600   4.456   6.960  1.0713 -2.2958 -0.9986
 6330SOL     OW30451   0.938   2.655  15.442 -0.1278 -0.3432  0.3186
 6330SOL    HW130452   0.957   2.643  15.349  2.0081  0.0352  0.7169
 6330SOL    HW230453   0.861   2.601  15.460  0.1678 -1.8768 -2.9330
 6331SOL     OW30454   2.608   0.621   0.944 -0.2254 -0.4822 -0.6996
 6331SOL    HW130455   2.590   0.696   0.888 -1.3033 -0.8408 -0.8281
 6331SOL    HW230456   2.635   0.559   0.877  0.6410  1.1288 -1.8514
 6332SOL     OW30457   0.863   4.561   6.129  0.2434 -0.0911  0.0746
 6332SOL    HW130458   0.887   4.535   6.040  3.2354  0.7092  0.6754
 6332SOL    HW230459   0.832   4.649   6.108 -3.1001 -1.0352  1.0412
 6333SOL     OW30460   2.349   0.651   2.596 -0.8722 -0.1986  0.0042
 6333SOL    HW130461   2.337   0.612   2.510 -0.7625 -0.2122 -0.0040
 6333SOL    HW230462   2.370   0.739   2.564  0.4585 -0.7166 -0.5275
 6334SOL     OW30463   1.650   2.050   5.390 -0.0467  0.0332 -0.4395
 6334SOL    HW130464   1.639   2.053   5.485  0.7936  2.5014 -0.4194
 6334SOL    HW230465   1.631   1.958   5.373 -2.1096  0.5285 -0.7553
 6335SOL     OW30466   4.378   4.242   2.436 -0.4444 -0.0010 -0.5789
 6335SOL    HW130467   4.325   4.164   2.451 -1.0570  0.7494  1.0986
 6335SOL    HW230468   4.461   4.196   2.444  0.0879  1.1074  0.2634
 6336SOL     OW30469   1.137   1.767   8.881  0.1557  0.5265 -0.8349
 6336SOL    HW130470   1.216   1.763   8.828 -0.0243  0.2950 -1.0873
 6336SOL    HW230471   1.174   1.801   8.963  1.8738  0.2989 -1.5205
 6337SOL     OW30472   3.187   1.767   2.920  0.0556  0.4250  0.4545
 6337SOL    HW130473   3.120   1.833   2.940  0.4571  1.4066 -1.4062
 6337SOL    HW230474   3.251   1.812   2.863 -2.3316 -1.2480 -3.5691
 6338SOL     OW30475   1.924   3.046   1.527 -0.4617 -0.1873  0.3492
 6338SOL    HW130476   2.016   3.056   1.503  0.2283 -0.4978  2.8871
 6338SOL    HW230477   1.878   3.073   1.448  1.6307 -0.3527 -0.9349
 6339SOL     OW30478   1.784   1.322  15.636 -0.2465  0.0457 -1.0266
 6339SOL    HW130479   1.767   1.229  15.654  0.9466 -0.0793 -0.5692
 6339SOL    HW230480   1.836   1.344  15.713 -0.2201 -0.1180 -0.9972
 6340SOL     OW30481   2.850   1.719   9.977  0.1854  0.3439 -0.2376
 6340SOL    HW130482   2.756   1.736   9.971  0.8057  4.0815  0.3686
 6340SOL    HW230483   2.863   1.662   9.902 -1.9339 -0.9151  0.3635
 6341SOL     OW30484   0.050   3.962   9.114  0.1731 -0.6735  0.1622
 6341SOL    HW130485   0.067   3.897   9.045  1.0981 -2.9515  2.5362
 6341SOL    HW230486   0.012   3.919   9.190  1.0658 -1.6291  0.0685
 6342SOL     OW30487   2.722   4.278   4.260  0.0459  0.5442 -0.4516
 6342SOL    HW130488   2.806   4.233   4.254 -0.5954 -0.8500  1.1205
 6342SOL    HW230489   2.717   4.305   4.351  0.0292 -0.2309 -0.2260
 6343SOL     OW30490   3.839   3.495  10.562  0.0554  1.1817 -0.2150
 6343SOL    HW130491   3.763   3.460  10.607 -0.5659 -1.1823 -3.0975
 6343SOL    HW230492   3.847   3.581  10.602  1.9789  1.3094 -0.8646
 6344SOL     OW30493   4.473   4.143   5.240  0.4364 -0.4157 -0.0366
 6344SOL    HW130494   4.483   4.118   5.148 -0.0602  1.0087 -0.4813
 6344SOL    HW230495   4.481   4.238   5.235  1.9033 -0.4295  2.4036
 6345SOL     OW30496   3.482   1.400  16.179  0.2462  0.1207 -0.2345
 6345SOL    HW130497   3.547   1.449  16.130 -0.5880  1.1089 -0.3638
 6345SOL    HW230498   3.532   1.319  16.182 -0.0456 -0.0520 -0.0486
 6346SOL     OW30499   3.061   4.296   7.959 -0.5600 -0.0303 -0.0479
 6346SOL    HW130500   3.058   4.306   8.054  0.2965  1.8404 -0.2201
 6346SOL    HW230501   2.984   4.241   7.948  0.0117 -1.1350  1.3791
 6347SOL     OW30502   3.557   2.768   6.639 -0.2013  0.0622  0.2875
 6347SOL    HW130503   3.606   2.738   6.716  2.8545  0.6901 -1.4306
 6347SOL    HW230504   3.527   2.854   6.667  0.2977  0.6584 -0.9973
 6348SOL     OW30505   2.685   3.773   2.990 -0.1812  0.0975 -0.0001
 6348SOL    HW130506   2.729   3.856   3.011 -0.5135  0.4195 -0.5688
 6348SOL    HW230507   2.695   3.732   3.076 -0.2354 -3.3051 -1.6295
 6349SOL     OW30508   2.158   3.667  16.486 -0.2092  0.2873 -0.5537
 6349SOL    HW130509   2.229   3.602  16.490 -0.5649 -0.2753 -3.5116
 6349SOL    HW230510   2.091   3.606  16.455  1.2292  0.2619 -3.6297
 6350SOL     OW30511   2.377   3.216   4.509 -0.0675 -0.6486  0.1119
 6350SOL    HW130512   2.327   3.246   4.585 -1.8096 -0.3801 -1.1324
 6350SOL    HW230513   2.396   3.302   4.471 -0.3817 -0.7410 -0.2616
 6351SOL     OW30514   0.086   0.084   5.937  0.1184  0.1943 -0.4052
 6351SOL    HW130515   0.031   0.078   5.859  0.4640  0.6273 -0.6810
 6351SOL    HW230516   0.095   4.717   5.965  1.3245  0.4298 -0.0236
 6352SOL     OW30517   4.526   1.926   8.380 -0.3943  0.4312 -0.6319
 6352SOL    HW130518   4.489   1.849   8.424 -0.2948  1.7970  1.8692
 6352SOL    HW230519   4.592   1.953   8.444 -0.3998 -2.1024  0.4734
 6353SOL     OW30520   3.090   0.128   3.018 -0.3961  0.1693  0.7725
 6353SOL    HW130521   3.035   0.098   2.945  0.0578  1.1568  0.0329
 6353SOL    HW230522   3.039   0.091   3.090 -1.2044  0.8826  0.5767
 6354SOL     OW30523   0.507   1.133   3.778  0.0390 -0.2250 -0.1671
 6354SOL    HW130524   0.421   1.134   3.820 -0.5724  0.6631 -1.4325
 6354SOL    HW230525   0.483   1.082   3.701  0.0361  1.1407 -1.0833
 6355SOL     OW30526   1.977   2.604   4.491  0.6177 -0.5865  0.4912
 6355SOL    HW130527   1.886   2.631   4.505  0.5550 -1.2791  1.4347
 6355SOL    HW230528   2.025   2.683   4.465  0.4586 -0.2344  1.2434
 6356SOL     OW30529   0.842   2.384   2.414  0.2348  0.1759 -0.1282
 6356SOL    HW130530   0.755   2.346   2.429 -0.5741  1.5487 -1.3442
 6356SOL    HW230531   0.881   2.329   2.481 -0.3914 -1.7001 -1.2949
 6357SOL     OW30532   0.055   1.312   1.762  0.2403  0.5727 -0.0207
 6357SOL    HW130533   0.127   1.341   1.706  2.0962  0.0025  2.0901
 6357SOL    HW230534   4.706   1.355   1.719 -2.4457 -3.5106  0.4884
 6358SOL     OW30535   1.215   4.419  16.649 -0.1929  0.0788  0.1853
 6358SOL    HW130536   1.202   4.456  16.561 -2.1996 -0.3804  0.2988
 6358SOL    HW230537   1.240   4.496  16.700  0.8791 -0.6663  0.7916
 6359SOL     OW30538   3.730   0.806  13.307  0.0771 -0.1822  0.0871
 6359SOL    HW130539   3.747   0.715  13.331  2.1649 -0.3045 -1.8877
 6359SOL    HW230540   3.687   0.790  13.223 -1.1464  0.0525  0.6594
 6360SOL     OW30541   2.691   0.786  10.894 -0.3957 -0.8353  0.1346
 6360SOL    HW130542   2.748   0.820  10.963 -0.8420 -1.4111  0.7948
 6360SOL    HW230543   2.648   0.715  10.942 -0.1262 -0.3682  1.0756
 6361SOL     OW30544   1.125   0.629   9.107 -0.0015 -0.4672 -0.1710
 6361SOL    HW130545   1.160   0.570   9.174 -0.5258  0.0284  0.5233
 6361SOL    HW230546   1.119   0.708   9.160 -0.5190  0.9318 -2.3243
 6362SOL     OW30547   4.633   4.704   4.664  0.0105  0.3361 -0.1173
 6362SOL    HW130548   4.559   0.031   4.632 -1.7595 -0.7015  2.2582
 6362SOL    HW230549   4.614   4.614   4.635  2.2516  0.3461 -1.6613
 6363SOL     OW30550   3.632   2.140   7.305  0.3402 -0.2822 -0.3773
 6363SOL    HW130551   3.571   2.151   7.233  0.3889  1.5487 -0.1400
 6363SOL    HW230552   3.662   2.230   7.321  2.6092 -0.8656 -1.3205
 6364SOL     OW30553   2.610   4.132   2.632  0.2006 -0.3251  0.2196
 6364SOL    HW130554   2.604   4.044   2.669 -0.5351  0.3034  1.5746
 6364SOL    HW230555   2.560   4.177   2.700  1.5772 -0.2897  1.2079
 6365SOL     OW30556   3.638   3.263   3.168 -0.8648 -0.0421 -0.3075
 6365SOL    HW130557   3.704   3.323   3.204  0.1871 -1.1138 -0.4245
 6365SOL    HW230558   3.683   3.180   3.186 -0.4605  0.4145  0.7822
 6366SOL     OW30559   4.075   2.122   1.710  0.0871 -0.5911  0.4602
 6366SOL    HW130560   4.102   2.213   1.715  2.0462 -0.9989 -2.7057
 6366SOL    HW230561   4.053   2.118   1.617 -0.9841 -0.8397  0.7266
 6367SOL     OW30562   0.941   2.904  13.557 -0.1102 -0.8390  0.1205
 6367SOL    HW130563   0.981   2.824  13.590 -2.1837 -2.3183 -0.9942
 6367SOL    HW230564   0.851   2.892  13.585 -0.4326 -0.7798 -0.9051
 6368SOL     OW30565   1.353   4.671  15.952 -0.3956  0.3023  0.2596
 6368SOL    HW130566   1.323   4.587  15.918 -3.3876  0.8539  1.5995
 6368SOL    HW230567   1.353   4.651  16.045  1.1531  0.6556  0.3446
 6369SOL     OW30568   3.405   0.275   6.829  0.3925  0.2115  0.2033
 6369SOL    HW130569   3.479   0.322   6.866 -1.0043  1.1527  1.8347
 6369SOL    HW230570   3.385   0.342   6.764 -1.6316 -1.4734 -0.9124
 6370SOL     OW30571   4.517   1.326   8.425  0.0598 -0.3970  0.2543
 6370SOL    HW130572   4.538   1.343   8.334 -0.3625  1.2780  0.4658
 6370SOL    HW230573   4.433   1.279   8.430  0.6883 -1.5953 -0.3440
 6371SOL     OW30574   2.416   4.194   5.199 -0.5048 -0.6141 -0.0837
 6371SOL    HW130575   2.441   4.286   5.189 -1.1854 -0.1272  2.6793
 6371SOL    HW230576   2.481   4.157   5.139 -0.3455 -0.0317 -0.2733
 6372SOL     OW30577   2.852   3.704   8.397  0.1015  0.5546  0.6751
 6372SOL    HW130578   2.935   3.693   8.442 -0.0385  2.3090  1.3630
 6372SOL    HW230579   2.802   3.766   8.449  0.9168  2.0902 -0.3559
 6373SOL     OW30580   3.245   3.430   0.295  0.6076  0.3999 -0.1778
 6373SOL    HW130581   3.274   3.383   0.373  0.5745 -2.1038 -1.6409
 6373SOL    HW230582   3.287   3.385   0.221  2.6922  1.4502  0.3724
 6374SOL     OW30583   2.079   2.413   8.250  0.9568  0.4098 -0.8535
 6374SOL    HW130584   2.038   2.412   8.163 -1.0214  0.8815  0.0906
 6374SOL    HW230585   2.109   2.323   8.257  1.7044  0.6236 -1.3222
 6375SOL     OW30586   0.209   2.162  13.853 -0.0530  0.5855 -0.2051
 6375SOL    HW130587   0.290   2.178  13.901  0.3438 -1.0309 -0.3416
 6375SOL    HW230588   0.243   2.097  13.792 -0.6975 -0.9420  1.0595
 6376SOL     OW30589   0.516   2.702   1.512 -0.7876 -1.4979 -0.4930
 6376SOL    HW130590   0.570   2.635   1.553  1.3016  0.7896  0.4457
 6376SOL    HW230591   0.520   2.784   1.561  2.3861 -1.9753 -0.0013
 6377SOL     OW30592   1.334   1.558  15.572  0.2436 -0.4653  0.7417
 6377SOL    HW130593   1.246   1.594  15.586  0.1371 -0.6626  0.5710
 6377SOL    HW230594   1.374   1.642  15.596 -0.5216 -0.0806  0.6634
 6378SOL     OW30595   4.711   3.759   1.099  0.3896 -0.6576 -0.4142
 6378SOL    HW130596   4.648   3.689   1.083 -0.5517  0.2899 -0.9049
 6378SOL    HW230597   4.659   3.833   1.133 -0.3910 -0.6970 -1.5155
 6379SOL     OW30598   0.044   1.667   1.459  0.2326  0.3006  0.7633
 6379SOL    HW130599   0.034   1.639   1.368 -4.3768 -1.5822  1.8349
 6379SOL    HW230600   0.065   1.757   1.433 -3.0311  1.1650  1.0545
 6380SOL     OW30601   2.357   2.457   9.019  0.7691 -0.1263  0.0210
 6380SOL    HW130602   2.412   2.476   8.943 -0.0488 -1.1392 -0.8257
 6380SOL    HW230603   2.316   2.543   9.022 -0.9244 -0.9546  0.7739
 6381SOL     OW30604   4.446   4.027   0.287 -0.1811  0.2383  0.5659
 6381SOL    HW130605   4.521   4.086   0.288  0.9281 -1.1612  0.4646
 6381SOL    HW230606   4.383   4.092   0.254 -1.2518 -0.1201  1.8886
 6382SOL     OW30607   1.714   2.806   8.047 -0.5488  0.0979 -0.1249
 6382SOL    HW130608   1.792   2.858   8.024 -0.1037 -0.4837  0.0663
 6382SOL    HW230609   1.712   2.758   7.964 -2.4195 -0.2422  0.1306
 6383SOL     OW30610   3.056   0.397  14.597 -0.1789  0.0914 -0.1960
 6383SOL    HW130611   3.122   0.354  14.543 -0.0937 -1.2326  0.9538
 6383SOL    HW230612   3.082   0.371  14.685 -1.6338 -2.8182 -0.6393
 6384SOL     OW30613   4.534   4.146   7.753  0.1102 -0.6011  0.3382
 6384SOL    HW130614   4.542   4.230   7.798 -0.4070 -0.1921 -0.3467
 6384SOL    HW230615   4.579   4.163   7.671 -1.6065  0.7287 -0.3387
 6385SOL     OW30616   3.547   2.102   5.850  0.0079 -0.4566 -0.3492
 6385SOL    HW130617   3.637   2.120   5.876 -0.4795 -1.0217  1.7042
 6385SOL    HW230618   3.533   2.015   5.887  2.0618 -0.4777  0.3826
 6386SOL     OW30619   0.912   2.443   8.264 -0.4096 -0.4554 -0.7929
 6386SOL    HW130620   0.897   2.474   8.353  0.6109  1.3908 -1.2609
 6386SOL    HW230621   0.950   2.523   8.226 -0.4967 -0.7386 -1.4764
 6387SOL     OW30622   4.233   4.163   0.185 -0.0250  0.1471 -0.0425
 6387SOL    HW130623   4.189   4.195   0.106 -0.3776 -1.5746 -0.5365
 6387SOL    HW230624   4.236   4.253   0.219 -1.3720 -0.5022  1.8155
 6388SOL     OW30625   3.744   0.487   1.701  0.5894 -0.3452 -0.0957
 6388SOL    HW130626   3.778   0.576   1.706 -0.3170 -0.0238  0.4695
 6388SOL    HW230627   3.740   0.479   1.796 -1.6255  0.3519 -0.1075
 6389SOL     OW30628   0.713   2.213   4.807  0.0551  0.5486  0.0331
 6389SOL    HW130629   0.673   2.145   4.754  2.2355 -0.9161  0.2531
 6389SOL    HW230630   0.638   2.271   4.800 -0.5578 -0.0354  1.8105
 6390SOL     OW30631   1.349   1.859   6.133 -0.4699 -0.0741  0.3439
 6390SOL    HW130632   1.391   1.798   6.072 -2.1528  1.7662 -2.6705
 6390SOL    HW230633   1.418   1.925   6.133 -0.5841  0.0411  0.7406
 6391SOL     OW30634   4.682   1.514   7.889  0.0622 -0.1826 -0.0555
 6391SOL    HW130635   4.612   1.571   7.858 -0.4225  0.1583  1.6137
 6391SOL    HW230636   0.038   1.552   7.856  0.5248  0.0656  1.3356
 6392SOL     OW30637   0.245   4.296   5.717 -0.2682  0.2422  0.1552
 6392SOL    HW130638   0.233   4.369   5.656  0.0064  0.6038  0.5331
 6392SOL    HW230639   0.179   4.330   5.777 -0.9523 -1.7470  0.5313
 6393SOL     OW30640   4.622   2.976   3.544 -0.2376  0.3441  0.1526
 6393SOL    HW130641   4.586   3.038   3.606  0.4511  1.6371 -0.7207
 6393SOL    HW230642   4.604   2.893   3.589  4.0261 -0.0637  1.1853
 6394SOL     OW30643   2.343   0.062   8.801  0.1879  0.1758  0.2576
 6394SOL    HW130644   2.392   0.042   8.881  0.3688  0.5820  0.2469
 6394SOL    HW230645   2.266   0.106   8.837  2.0182  3.5361  0.0878
 6395SOL     OW30646   3.939   0.810  16.094  0.5733  0.0666  0.0030
 6395SOL    HW130647   3.903   0.849  16.014  0.7944  3.2763  1.4729
 6395SOL    HW230648   3.903   0.870  16.159 -0.6484  0.9774 -1.5050
 6396SOL     OW30649   3.803   2.972   6.693  0.2679 -0.0041  0.0336
 6396SOL    HW130650   3.829   2.883   6.667 -1.7820 -1.1485  1.9349
 6396SOL    HW230651   3.878   3.026   6.668 -0.5225 -0.2418 -2.9188
 6397SOL     OW30652   2.975   2.148  13.294 -0.2298 -0.7338 -0.4588
 6397SOL    HW130653   2.905   2.171  13.355 -1.3658 -0.0957 -1.9967
 6397SOL    HW230654   3.037   2.221  13.297 -1.1659  0.0608 -0.5711
 6398SOL     OW30655   2.067   2.070   6.767 -0.3748 -0.2120 -0.6852
 6398SOL    HW130656   2.022   2.015   6.832 -2.3271  1.9015 -0.2209
 6398SOL    HW230657   2.002   2.139   6.750 -2.5859 -2.4346 -1.3338
 6399SOL     OW30658   2.587   4.570  10.420 -0.6360 -1.0927 -0.0847
 6399SOL    HW130659   2.656   4.579  10.486 -0.0578  0.8524 -0.9423
 6399SOL    HW230660   2.554   4.491  10.462 -0.6485 -0.9392  0.1964
 6400SOL     OW30661   0.001   3.811   3.240 -0.2594 -0.0175 -0.7711
 6400SOL    HW130662   4.699   3.796   3.331  1.1186 -0.2611 -0.3996
 6400SOL    HW230663   4.667   3.882   3.214  0.1276  0.7352  0.4062
 6401SOL     OW30664   4.310   1.044  15.102 -0.1185  0.2484 -0.0459
 6401SOL    HW130665   4.320   1.052  15.007  0.2813 -1.4383 -0.1464
 6401SOL    HW230666   4.222   1.005  15.097 -0.7043  1.7946 -2.3140
 6402SOL     OW30667   4.091   1.979   9.958  0.6480  0.0623  0.4087
 6402SOL    HW130668   4.070   2.072   9.947 -1.4717 -0.4778 -0.1154
 6402SOL    HW230669   4.168   1.988   9.901  0.2043  1.2629 -0.0081
 6403SOL     OW30670   2.997   3.534   8.167  0.2133  0.2368 -0.4169
 6403SOL    HW130671   2.998   3.589   8.089 -0.0750  1.8614  0.7171
 6403SOL    HW230672   2.937   3.585   8.222  0.6801  0.8362 -0.4710
 6404SOL     OW30673   4.467   3.612   6.729 -0.7273  0.6103  0.1840
 6404SOL    HW130674   4.514   3.554   6.669 -1.6534  0.6150 -0.5391
 6404SOL    HW230675   4.527   3.686   6.742 -0.5236  0.7893 -1.9091
 6405SOL     OW30676   0.089   1.781   2.908  0.5645  0.4800  0.0951
 6405SOL    HW130677   0.122   1.694   2.932 -1.0846 -0.6226 -1.6654
 6405SOL    HW230678   0.059   1.813   2.993  1.1547 -2.2206  1.3072
 6406SOL     OW30679   2.189   3.582  17.588  0.1198 -0.4627 -0.0045
 6406SOL    HW130680   2.238   3.662  17.604 -1.7812  0.3557  1.8255
 6406SOL    HW230681   2.241   3.572  17.509  1.4735 -0.7893  0.9105
 6407SOL     OW30682   0.820   0.920  11.744  0.4180  0.3693  0.1967
 6407SOL    HW130683   0.799   0.931  11.652  1.2982  0.8441  0.0528
 6407SOL    HW230684   0.906   0.961  11.741 -1.3596  4.1010  0.3843
 6408SOL     OW30685   1.501   4.723   4.845 -0.6161 -0.6058 -0.0497
 6408SOL    HW130686   1.531   4.692   4.930  0.7023 -1.7694 -0.9454
 6408SOL    HW230687   1.406   4.711   4.857 -0.6899 -0.6377 -0.6502
 6409SOL     OW30688   4.495   3.617   4.614  0.0018  0.1101 -0.0060
 6409SOL    HW130689   4.558   3.654   4.676  0.0470  2.6120 -1.5608
 6409SOL    HW230690   4.457   3.544   4.663 -0.2027 -0.3114 -0.8014
 6410SOL     OW30691   2.977   1.902   7.605 -0.3123 -0.4170  0.5295
 6410SOL    HW130692   2.997   1.814   7.636 -1.1121 -0.3471  1.2461
 6410SOL    HW230693   3.027   1.949   7.672  0.1937 -1.9196  1.2113
 6411SOL     OW30694   2.886   2.110   9.386 -0.1255 -0.6111  0.4679
 6411SOL    HW130695   2.937   2.062   9.452  3.3894  0.9335 -1.0922
 6411SOL    HW230696   2.959   2.155   9.343 -0.6405  0.1347  0.3639
 6412SOL     OW30697   3.333   1.847   9.945 -0.0774  0.3374  0.5527
 6412SOL    HW130698   3.402   1.830  10.009  0.2454  0.7120  0.3092
 6412SOL    HW230699   3.315   1.939   9.961 -1.3812 -0.3082  2.7475
 6413SOL     OW30700   3.369   4.580  10.069 -0.1295 -0.2044 -0.0158
 6413SOL    HW130701   3.320   4.504  10.038 -3.1554  1.2933  1.1596
 6413SOL    HW230702   3.306   4.614  10.132 -0.1957  1.2448 -0.8711
 6414SOL     OW30703   0.612   3.587  14.717  0.3240 -0.7566  0.9304
 6414SOL    HW130704   0.641   3.580  14.626 -0.9356  0.6911  0.4253
 6414SOL    HW230705   0.631   3.681  14.713 -0.3037 -0.6649  0.0389
 6415SOL     OW30706   0.951   3.845   4.901 -0.0567 -0.2982 -0.3299
 6415SOL    HW130707   0.917   3.764   4.864  0.9448 -1.4109  1.1530
 6415SOL    HW230708   1.036   3.859   4.859 -0.5618 -1.4966 -1.7295
 6416SOL     OW30709   3.671   3.754  13.802 -0.1180  0.7201  0.4751
 6416SOL    HW130710   3.590   3.726  13.759 -0.0216  0.6045  0.3671
 6416SOL    HW230711   3.722   3.674  13.792 -0.8110  0.6540 -2.6493
 6417SOL     OW30712   0.527   0.632   8.195  0.0819 -0.0971 -0.0342
 6417SOL    HW130713   0.522   0.663   8.286 -1.6139 -0.9973  0.1753
 6417SOL    HW230714   0.609   0.674   8.168 -0.0861  0.5151  0.4145
 6418SOL     OW30715   4.682   1.703   1.901 -0.1181 -0.1220  0.2672
 6418SOL    HW130716   0.033   1.659   1.862 -1.2918 -1.6196 -0.3407
 6418SOL    HW230717   4.653   1.629   1.954 -0.9922 -0.1056 -0.1943
 6419SOL     OW30718   1.055   2.879   2.977 -0.4159 -0.1700  0.5527
 6419SOL    HW130719   1.144   2.864   3.007 -0.3290 -1.6671 -0.4313
 6419SOL    HW230720   1.053   2.802   2.920 -1.0858  1.7630 -2.0366
 6420SOL     OW30721   2.451   3.328   8.575  0.7767  0.1946  0.2411
 6420SOL    HW130722   2.494   3.406   8.609 -0.4480  0.0908  2.0283
 6420SOL    HW230723   2.524   3.268   8.591 -0.1987 -1.0386  0.0924
 6421SOL     OW30724   3.232   1.802  15.894 -0.1382  0.3706 -0.5787
 6421SOL    HW130725   3.147   1.843  15.911 -0.6317 -1.0778  0.3870
 6421SOL    HW230726   3.212   1.709  15.903  0.3662  0.3239  0.0500
 6422SOL     OW30727   4.605   0.990  15.246  0.1463  0.4235 -0.4793
 6422SOL    HW130728   4.540   1.051  15.210  0.7202  1.1637 -0.2526
 6422SOL    HW230729   4.541   0.933  15.289 -0.3721 -0.0728 -1.8995
 6423SOL     OW30730   2.308   2.962   2.778 -0.6587  0.7256  0.4965
 6423SOL    HW130731   2.339   2.882   2.820  0.4559  0.8596 -0.0602
 6423SOL    HW230732   2.218   2.945   2.749 -0.8957 -0.3655  1.9077
 6424SOL     OW30733   2.671   0.933   9.439  0.5491  0.3549 -0.7218
 6424SOL    HW130734   2.644   0.953   9.528  0.5764 -1.0605 -0.3928
 6424SOL    HW230735   2.740   0.998   9.431  0.4605  0.7298  1.5955
 6425SOL     OW30736   3.072   1.061   2.718 -0.3437  0.2787 -0.1956
 6425SOL    HW130737   3.106   1.092   2.802  1.1138 -0.9202 -0.3555
 6425SOL    HW230738   3.001   1.126   2.715  0.2202  0.8197 -1.8041
 6426SOL     OW30739   4.336   4.424   4.914 -0.2340  0.0593  0.4375
 6426SOL    HW130740   4.273   4.468   4.857  0.9581 -0.2855 -1.1489
 6426SOL    HW230741   4.371   4.366   4.847 -3.7717  0.2300 -1.5915
 6427SOL     OW30742   4.100   3.937   0.063 -0.5853 -0.7236 -0.2878
 6427SOL    HW130743   4.023   3.951   0.119 -0.6803  0.7633 -0.7915
 6427SOL    HW230744   4.171   3.956   0.124  1.5937  1.0202 -3.3358
 6428SOL     OW30745   1.660   4.404   6.162 -0.0993  0.6565  0.2313
 6428SOL    HW130746   1.710   4.419   6.082  0.1075  1.3472  0.4933
 6428SOL    HW230747   1.615   4.324   6.135  0.6107  0.1993  0.3932
 6429SOL     OW30748   1.384   2.775   7.396  0.6238 -0.0227 -0.3065
 6429SOL    HW130749   1.464   2.773   7.449  1.8508  0.0281 -2.1724
 6429SOL    HW230750   1.427   2.756   7.312 -0.3657 -2.5881 -0.2203
 6430SOL     OW30751   4.384   4.659   2.431 -0.0343  0.2739 -0.5778
 6430SOL    HW130752   4.448   4.715   2.386  0.5486  1.4170  1.6537
 6430SOL    HW230753   4.360   4.599   2.361  1.0894 -2.1746  1.1537
 6431SOL     OW30754   3.659   0.852  10.102 -0.1670  0.3092  0.3924
 6431SOL    HW130755   3.589   0.786  10.100  1.7469 -1.7565  1.1248
 6431SOL    HW230756   3.658   0.882  10.193  0.3051  2.1543 -0.2262
 6432SOL     OW30757   0.906   1.402  17.017  0.5942 -0.5324  0.0139
 6432SOL    HW130758   0.944   1.315  17.020 -0.1046 -0.9087 -2.3938
 6432SOL    HW230759   0.966   1.447  16.957  0.5342  0.0991  0.4244
 6433SOL     OW30760   3.778   1.257   3.037  0.1235  0.3116 -0.6931
 6433SOL    HW130761   3.837   1.272   2.963  1.2567 -1.2998 -0.1075
 6433SOL    HW230762   3.715   1.210   2.983 -2.0825  2.8485 -0.3141
 6434SOL     OW30763   4.276   4.460  11.596  0.1398 -0.0029  0.4570
 6434SOL    HW130764   4.187   4.427  11.612 -0.5946  1.7977  0.0867
 6434SOL    HW230765   4.320   4.446  11.680  0.6777  2.1878  0.5286
 6435SOL     OW30766   0.838   1.458   5.326 -0.6356  0.2402  0.2292
 6435SOL    HW130767   0.824   1.504   5.243  1.1386 -1.6511 -1.1267
 6435SOL    HW230768   0.932   1.442   5.325 -0.8604 -1.2026  1.6611
 6436SOL     OW30769   3.488   1.400   8.433 -0.2118 -0.1321 -0.0626
 6436SOL    HW130770   3.573   1.440   8.453 -0.4371  0.1469  0.3265
 6436SOL    HW230771   3.449   1.388   8.519 -0.2055  1.1348  0.1096
 6437SOL     OW30772   4.618   0.308  17.088 -0.0262  0.1243  0.4122
 6437SOL    HW130773   4.576   0.373  17.144  2.6392  0.3279  2.1511
 6437SOL    HW230774   4.563   0.316  17.009  0.4179 -0.3248  0.0579
 6438SOL     OW30775   1.051   0.687   5.494 -0.0821 -0.0427 -0.3049
 6438SOL    HW130776   1.024   0.770   5.534  0.8770  0.6423 -1.0689
 6438SOL    HW230777   1.010   0.690   5.408 -0.5646  1.5502 -0.0266
 6439SOL     OW30778   3.933   1.673   4.666  0.5579  0.2571 -1.1717
 6439SOL    HW130779   3.883   1.614   4.610 -0.2065 -0.5553  0.3804
 6439SOL    HW230780   3.896   1.757   4.637 -0.2830  0.8441  1.5611
 6440SOL     OW30781   0.783   1.729   5.866 -0.0718 -0.2987 -0.2056
 6440SOL    HW130782   0.700   1.755   5.826  0.1872 -0.0873 -0.6106
 6440SOL    HW230783   0.749   1.716   5.954 -0.1283  0.2544 -0.1471
 6441SOL     OW30784   4.209   3.960   6.219 -0.2396  0.2708 -0.1945
 6441SOL    HW130785   4.134   3.902   6.234 -0.8833  1.1282 -0.0901
 6441SOL    HW230786   4.266   3.931   6.290 -0.0242 -0.9543 -0.8586
 6442SOL     OW30787   3.207   4.630   7.600  0.6459 -0.4205 -0.4320
 6442SOL    HW130788   3.149   4.564   7.638  0.3180 -0.4452 -0.9817
 6442SOL    HW230789   3.277   4.629   7.666 -0.8250  0.2726  1.1217
 6443SOL     OW30790   4.388   2.210   4.019 -0.1105  0.0368  0.4506
 6443SOL    HW130791   4.391   2.169   3.932  1.6734 -0.3418  0.6904
 6443SOL    HW230792   4.409   2.302   4.004 -0.3807  0.2013  1.1189
 6444SOL     OW30793   4.412   3.778   6.987 -0.3058 -0.4773  0.0835
 6444SOL    HW130794   4.441   3.726   6.912 -1.3370 -0.2737 -0.4605
 6444SOL    HW230795   4.490   3.777   7.041 -0.5711 -1.0979  0.4572
 6445SOL     OW30796   4.268   2.503   3.111 -0.8387  0.6421  0.8981
 6445SOL    HW130797   4.332   2.454   3.060 -1.2107  2.4918 -1.3726
 6445SOL    HW230798   4.260   2.448   3.189  2.0745 -0.7715  0.1754
 6446SOL     OW30799   4.219   4.486   5.281 -0.3649 -0.2862  0.1312
 6446SOL    HW130800   4.129   4.507   5.257 -0.3116 -0.6659 -0.4190
 6446SOL    HW230801   4.210   4.457   5.372 -0.9520 -0.0682  0.1372
 6447SOL     OW30802   3.500   4.492   6.009 -0.0305 -0.2192  0.0123
 6447SOL    HW130803   3.528   4.498   6.100  0.8843  0.4244 -0.3073
 6447SOL    HW230804   3.407   4.484   6.030 -0.4656  2.0750 -0.9167
 6448SOL     OW30805   1.991   1.719   4.456 -0.4841  0.7125 -0.1861
 6448SOL    HW130806   1.975   1.626   4.470 -1.5346  0.6498 -1.7411
 6448SOL    HW230807   1.966   1.720   4.363 -1.7906  2.6276  0.1858
 6449SOL     OW30808   2.496   1.822   7.738 -0.4452 -0.2062 -0.5009
 6449SOL    HW130809   2.540   1.905   7.720 -1.6502  0.4737 -0.3837
 6449SOL    HW230810   2.406   1.855   7.740  0.2521  1.7217 -0.9015
 6450SOL     OW30811   2.006   3.372   9.139 -0.2580  0.4592  0.1353
 6450SOL    HW130812   2.049   3.438   9.084  0.6550 -1.9543 -2.0619
 6450SOL    HW230813   2.000   3.415   9.224 -0.6722 -3.2174  1.9731
 6451SOL     OW30814   3.902   0.927  11.859 -0.5274 -0.8650 -0.3101
 6451SOL    HW130815   3.973   0.984  11.830 -0.4756 -1.4412 -1.3365
 6451SOL    HW230816   3.920   0.915  11.952  1.7038 -1.9337 -0.8815
 6452SOL     OW30817   0.469   2.523   2.935  0.2587 -0.3632 -0.4982
 6452SOL    HW130818   0.533   2.545   2.868 -1.4207  2.4587 -1.2000
 6452SOL    HW230819   0.466   2.609   2.978 -0.4257 -0.9142  0.5608
 6453SOL     OW30820   3.977   4.531  17.155 -0.0026  0.4492 -0.5632
 6453SOL    HW130821   3.965   4.539  17.060  1.5159  1.0913 -0.7036
 6453SOL    HW230822   3.926   4.606  17.186  2.4540  2.0884 -0.5153
 6454SOL     OW30823   1.984   4.349  17.438 -0.0933 -0.4902 -0.0362
 6454SOL    HW130824   1.972   4.352  17.344 -0.4861  0.2460  0.0403
 6454SOL    HW230825   1.923   4.419  17.462 -1.0900 -0.1812 -3.4700
 6455SOL     OW30826   2.191   2.443   0.655  0.2817  0.3172  0.1597
 6455SOL    HW130827   2.126   2.459   0.586 -1.2144  0.9034  1.6911
 6455SOL    HW230828   2.151   2.373   0.707  0.2906  0.9027  0.9542
 6456SOL     OW30829   4.498   4.241   5.905 -0.0456  0.0274 -0.4174
 6456SOL    HW130830   4.492   4.146   5.912 -1.4049  0.2864  1.7529
 6456SOL    HW230831   4.424   4.247   5.844 -0.9457  2.4224  0.9170
 6457SOL     OW30832   1.037   1.357   7.933 -0.2770  0.3513 -0.5003
 6457SOL    HW130833   1.120   1.378   7.892 -0.6021  0.6774 -0.9942
 6457SOL    HW230834   1.007   1.441   7.966 -1.0585  0.1973 -0.8158
 6458SOL     OW30835   3.965   3.420   1.843 -0.2150 -0.6194 -0.2274
 6458SOL    HW130836   4.049   3.465   1.834 -0.9181  0.5879 -0.7895
 6458SOL    HW230837   3.994   3.334   1.874  0.7430 -0.6835 -1.3047
 6459SOL     OW30838   2.125   1.407   3.519 -0.0653  0.1910 -0.7365
 6459SOL    HW130839   2.173   1.476   3.474  2.6307 -0.8257  0.6140
 6459SOL    HW230840   2.106   1.341   3.452 -1.8213 -0.1024  0.0563
 6460SOL     OW30841   0.752   0.510  16.952 -0.0828 -0.3848 -0.6348
 6460SOL    HW130842   0.787   0.581  16.897  1.3215 -0.6718 -0.1175
 6460SOL    HW230843   0.668   0.512  16.908 -0.4595  1.8281  0.1850
 6461SOL     OW30844   3.843   4.266   6.895 -0.0650  0.2075  0.2764
 6461SOL    HW130845   3.908   4.336   6.901 -0.6066  0.7639 -0.3325
 6461SOL    HW230846   3.901   4.189   6.900  0.6856  0.8844  2.1478
 6462SOL     OW30847   2.356   3.594  17.306 -0.2149  0.0076  0.6570
 6462SOL    HW130848   2.354   3.676  17.356 -1.0181  0.8707 -0.7798
 6462SOL    HW230849   2.418   3.613  17.235 -0.6003 -0.0636  0.2961
 6463SOL     OW30850   2.010   1.368   4.193  0.2845  0.2377 -0.1366
 6463SOL    HW130851   2.090   1.334   4.152  0.5405  0.1877  0.4041
 6463SOL    HW230852   1.941   1.363   4.127 -1.1274  0.2297  1.3467
 6464SOL     OW30853   1.561   2.983   4.117  0.2708 -0.1665 -0.2979
 6464SOL    HW130854   1.467   2.969   4.103  0.4918 -0.3546 -1.5732
 6464SOL    HW230855   1.566   3.075   4.095  0.0969 -0.8333 -3.1558
 6465SOL     OW30856   0.051   1.302   7.060  0.9110  0.3133 -0.1575
 6465SOL    HW130857   0.026   1.218   7.021  1.2458  0.6921 -1.1818
 6465SOL    HW230858   0.132   1.325   7.014  0.6896 -1.2334 -1.3175
 6466SOL     OW30859   3.610   3.128  12.102  0.1181 -0.2873  0.4653
 6466SOL    HW130860   3.667   3.178  12.044  0.5274  0.9183  1.9088
 6466SOL    HW230861   3.543   3.196  12.116 -0.5802 -0.8816  0.0202
 6467SOL     OW30862   3.118   3.802   3.065  0.3897 -0.3386  0.4670
 6467SOL    HW130863   3.084   3.885   3.032  5.1783  2.0399  1.5406
 6467SOL    HW230864   3.035   3.756   3.054  0.6469 -0.6678 -0.0557
 6468SOL     OW30865   1.204   0.796  11.278  0.0548  0.0590  0.0565
 6468SOL    HW130866   1.137   0.755  11.224  1.4753  0.3544 -1.9303
 6468SOL    HW230867   1.163   0.853  11.342  2.5035  2.1406 -0.2253
 6469SOL     OW30868   1.286   2.428   2.763 -0.2265  0.4336  0.0410
 6469SOL    HW130869   1.343   2.499   2.733  1.2105 -0.5323  0.4926
 6469SOL    HW230870   1.310   2.436   2.855  0.5852  0.1309 -0.1430
 6470SOL     OW30871   1.303   3.591   5.555  0.6087 -0.0006  0.0180
 6470SOL    HW130872   1.373   3.654   5.574 -0.5808  1.6331 -1.0850
 6470SOL    HW230873   1.354   3.522   5.513  0.0476 -0.3555 -0.0805
 6471SOL     OW30874   1.586   2.936  11.902  0.4885 -0.3132 -0.4927
 6471SOL    HW130875   1.669   2.919  11.945  0.1213 -0.5377  0.1202
 6471SOL    HW230876   1.580   2.863  11.841 -1.6057 -0.2370 -0.3855
 6472SOL     OW30877   2.563   3.553   0.685 -0.5033 -0.0545  0.4596
 6472SOL    HW130878   2.504   3.570   0.758  0.2300 -0.6345  1.1951
 6472SOL    HW230879   2.603   3.638   0.670 -0.4451 -0.3721 -1.2131
 6473SOL     OW30880   0.400   0.954   6.442 -0.1547  0.0137  0.5271
 6473SOL    HW130881   0.395   0.934   6.535  1.2200  0.7441  0.7477
 6473SOL    HW230882   0.381   0.868   6.403 -0.2176 -0.6054  1.9401
 6474SOL     OW30883   3.234   4.678   1.584 -0.1372  0.0698  0.6238
 6474SOL    HW130884   3.163   0.013   1.609  0.5877  1.7171 -1.2118
 6474SOL    HW230885   3.283   4.679   1.666  0.4228 -3.1382  0.3252
 6475SOL     OW30886   1.051   4.557   3.201 -0.5040 -0.1356 -0.7641
 6475SOL    HW130887   0.977   4.523   3.150  0.3288 -1.5560 -1.0303
 6475SOL    HW230888   1.048   4.651   3.184  0.5774  0.1503  0.6270
 6476SOL     OW30889   1.015   1.879   5.765  0.0079 -0.7673  0.3916
 6476SOL    HW130890   1.060   1.798   5.788  0.4704 -0.4025  0.7797
 6476SOL    HW230891   0.944   1.878   5.829 -0.2317 -1.6912  0.1095
 6477SOL     OW30892   2.465   4.170   9.141 -0.3631  0.1579 -0.4490
 6477SOL    HW130893   2.525   4.184   9.214 -0.8679 -1.1817  0.2265
 6477SOL    HW230894   2.491   4.081   9.118  1.3025  0.3523  0.7367
 6478SOL     OW30895   0.045   3.153  16.823 -0.7093  0.3250 -0.3003
 6478SOL    HW130896   4.682   3.130  16.853 -0.6374  0.2771 -0.1300
 6478SOL    HW230897   0.036   3.192  16.736 -3.2032  0.0391 -0.1761
 6479SOL     OW30898   1.671   4.328   0.739  0.0776 -0.4177  0.2218
 6479SOL    HW130899   1.581   4.303   0.718  0.2519 -1.3822  0.6284
 6479SOL    HW230900   1.700   4.238   0.750 -1.7428 -1.1052 -0.5177
 6480SOL     OW30901   3.167   3.953   5.155 -0.4761  0.0230 -0.3632
 6480SOL    HW130902   3.090   3.983   5.204 -1.3694 -2.1561 -0.4351
 6480SOL    HW230903   3.152   3.858   5.160  2.6724 -0.3437  2.1961
 6481SOL     OW30904   1.952   1.200   5.444  0.2155  0.1022  0.2340
 6481SOL    HW130905   2.042   1.233   5.445 -0.1957  1.2097  0.5550
 6481SOL    HW230906   1.976   1.108   5.460 -0.8016  0.0372  1.3970
 6482SOL     OW30907   2.695   2.825   7.705  0.5974  0.7574  0.4964
 6482SOL    HW130908   2.629   2.758   7.687 -0.3902  1.4300  1.6933
 6482SOL    HW230909   2.645   2.903   7.679 -0.5857 -0.2869 -0.3914
 6483SOL     OW30910   4.615   3.969   1.281 -0.0894  0.3655  0.1678
 6483SOL    HW130911   4.595   3.890   1.331 -1.7021  0.4842 -0.3068
 6483SOL    HW230912   4.633   4.045   1.337  1.7756  0.5297 -0.6531
 6484SOL     OW30913   4.354   3.838   4.510 -0.3758 -0.0925  0.4061
 6484SOL    HW130914   4.399   3.757   4.534  1.5001  0.4261 -1.3764
 6484SOL    HW230915   4.279   3.842   4.570 -1.2485  1.5858 -0.8024
 6485SOL     OW30916   4.145   4.413  10.122 -0.2430  0.2858 -0.3296
 6485SOL    HW130917   4.143   4.466  10.042 -0.6055 -1.9485 -1.7730
 6485SOL    HW230918   4.118   4.327  10.089  1.7316 -0.5949  0.3775
 6486SOL     OW30919   1.900   1.186   8.104  0.5377  0.4167 -0.1629
 6486SOL    HW130920   1.838   1.118   8.078  2.1250 -1.1682  0.1953
 6486SOL    HW230921   1.985   1.151   8.079  0.2869 -1.0904  1.0872
 6487SOL     OW30922   2.469   3.605   2.321  0.4027  0.0874 -0.1339
 6487SOL    HW130923   2.476   3.555   2.239  2.8286  0.7884 -0.3763
 6487SOL    HW230924   2.524   3.543   2.369 -1.3934  0.1702  1.9844
 6488SOL     OW30925   2.626   0.494   8.933  0.4295 -0.1596 -0.1422
 6488SOL    HW130926   2.718   0.516   8.919  0.4390 -1.8496 -2.7496
 6488SOL    HW230927   2.585   0.579   8.950  1.4477  0.3648 -0.3053
 6489SOL     OW30928   0.496   2.164   7.718  0.1033 -0.2319 -0.5952
 6489SOL    HW130929   0.575   2.168   7.772 -0.4008  0.4211  0.0972
 6489SOL    HW230930   0.503   2.073   7.688 -0.4990 -0.0567 -1.2745
 6490SOL     OW30931   1.062   3.848   7.603  0.6581  0.9387  0.0530
 6490SOL    HW130932   1.049   3.935   7.567  2.6352  2.4131  2.8515
 6490SOL    HW230933   1.147   3.851   7.648  1.6843 -2.2668 -1.6457
 6491SOL     OW30934   4.424   1.674   2.110  0.1619 -0.4290 -0.1588
 6491SOL    HW130935   4.411   1.605   2.176  1.9204  1.0526  1.7534
 6491SOL    HW230936   4.471   1.733   2.170  0.9044 -1.4488  0.2749
 6492SOL     OW30937   2.967   3.746   4.210  0.1868  0.7659 -0.3967
 6492SOL    HW130938   3.017   3.681   4.260  2.6338  1.8670 -1.3995
 6492SOL    HW230939   2.896   3.759   4.273  1.5223 -0.2688  1.3153
 6493SOL     OW30940   3.142   0.728  16.124  0.0055  0.3511 -0.4103
 6493SOL    HW130941   3.101   0.804  16.082  0.4835  0.0820 -1.3426
 6493SOL    HW230942   3.187   0.704  16.044 -0.5936 -0.9635 -0.3562
 6494SOL     OW30943   0.798   1.156  11.140 -0.7046 -0.1103 -0.0269
 6494SOL    HW130944   0.791   1.165  11.045  1.1497  1.4134 -0.0213
 6494SOL    HW230945   0.866   1.221  11.155 -0.4270 -0.4917  0.3482
 6495SOL     OW30946   1.966   4.553   0.920  0.0264  0.3970  0.3221
 6495SOL    HW130947   1.997   4.630   0.968 -0.6230  0.7680  0.1383
 6495SOL    HW230948   1.875   4.572   0.940  0.1138  1.3999 -0.2273
 6496SOL     OW30949   2.133   2.737   6.728 -0.0623  0.1783  0.2820
 6496SOL    HW130950   2.091   2.680   6.663  0.3563 -0.0846  0.2418
 6496SOL    HW230951   2.174   2.666   6.778 -0.7879  2.2341  3.7924
 6497SOL     OW30952   4.660   2.317   6.032 -0.0333  0.0436  0.5413
 6497SOL    HW130953   4.610   2.235   6.027  1.3788 -0.7824 -0.3111
 6497SOL    HW230954   4.595   2.375   5.992 -2.7114 -1.9220  2.0482
 6498SOL     OW30955   2.525   1.573   5.564  0.3583  0.2482 -0.4598
 6498SOL    HW130956   2.575   1.563   5.645  2.1930 -0.4913 -1.6828
 6498SOL    HW230957   2.491   1.662   5.572  1.4183  0.5085  1.2538
 6499SOL     OW30958   4.639   3.960  10.952  0.3865  0.4985  0.3155
 6499SOL    HW130959   4.593   3.929  10.874  1.3852 -1.0909  0.3494
 6499SOL    HW230960   4.609   3.907  11.026 -1.1152  2.6072  1.2359
 6500SOL     OW30961   1.811   2.879   6.457  0.3053  0.1049  0.9644
 6500SOL    HW130962   1.821   2.927   6.539  2.3508  1.4961 -0.0867
 6500SOL    HW230963   1.890   2.824   6.460 -0.3561 -0.6985  3.5047
 6501SOL     OW30964   4.034   3.774   6.330  0.2796  0.3591  0.7091
 6501SOL    HW130965   4.010   3.692   6.374 -0.5483 -1.2224 -2.6945
 6501SOL    HW230966   3.956   3.827   6.348  0.5987  0.9293  0.4049
 6502SOL     OW30967   1.751   0.797   3.340  0.3299 -0.2679  0.0718
 6502SOL    HW130968   1.736   0.705   3.321  0.3921 -0.3291  0.3246
 6502SOL    HW230969   1.781   0.807   3.430 -0.9560 -0.1294  0.4930
 6503SOL     OW30970   4.402   4.365  16.120 -0.6272 -0.1111  0.8095
 6503SOL    HW130971   4.360   4.379  16.035 -0.5225 -1.3233  0.5674
 6503SOL    HW230972   4.379   4.447  16.165  3.0240  0.7192  1.1699
 6504SOL     OW30973   2.518   2.230  13.597 -0.0642  0.4305  0.3974
 6504SOL    HW130974   2.476   2.300  13.647  1.0055 -0.6269  2.8298
 6504SOL    HW230975   2.476   2.151  13.632 -0.4836  0.6184  0.3221
 6505SOL     OW30976   3.635   1.877   3.305 -0.7355 -0.4422 -0.5523
 6505SOL    HW130977   3.604   1.790   3.328  0.7813 -0.9713 -0.5407
 6505SOL    HW230978   3.632   1.929   3.385  0.3450 -0.8506 -0.2479
 6506SOL     OW30979   1.718   4.046   0.668 -0.3983  0.0024 -0.0405
 6506SOL    HW130980   1.810   4.045   0.641 -0.4936 -3.4273 -0.1941
 6506SOL    HW230981   1.680   3.984   0.605 -0.3492  2.5500 -2.5717
 6507SOL     OW30982   3.480   1.114   5.631  0.0359 -0.2462  0.4723
 6507SOL    HW130983   3.527   1.043   5.673  1.0769  0.8457  1.1706
 6507SOL    HW230984   3.523   1.182   5.684  0.9849  0.7547 -1.5564
 6508SOL     OW30985   3.045   1.703   4.631 -0.4126 -0.2064  0.1322
 6508SOL    HW130986   3.020   1.792   4.607 -1.6302 -0.6462 -0.2254
 6508SOL    HW230987   3.024   1.663   4.547  0.0123 -0.5296  0.1799
 6509SOL     OW30988   2.101   1.149  10.318 -0.2758  0.6967  0.0909
 6509SOL    HW130989   2.057   1.133  10.402 -1.5067 -0.3389 -0.7448
 6509SOL    HW230990   2.176   1.201  10.346  0.0592  0.9237 -1.2071
 6510SOL     OW30991   4.061   4.528  17.451  0.0607 -0.2806  0.3663
 6510SOL    HW130992   4.020   4.561  17.530 -2.3459 -1.4238 -0.4244
 6510SOL    HW230993   4.052   4.602  17.390 -0.0765  0.2533  1.0274
 6511SOL     OW30994   3.131   3.012   7.618  0.0375  0.1733 -0.0188
 6511SOL    HW130995   3.090   3.078   7.675  0.2908 -2.1202  2.7778
 6511SOL    HW230996   3.063   2.945   7.611  0.0377 -0.2255  3.5924
 6512SOL     OW30997   3.106   1.722  17.655 -0.1385 -0.4493 -0.2756
 6512SOL    HW130998   3.041   1.671  17.606 -1.0627  2.3507 -1.9990
 6512SOL    HW230999   3.183   1.671  17.677  0.6898  1.2512  0.7331
 6513SOL     OW31000   3.239   1.286   7.165  0.4593  0.0653  1.0714
 6513SOL    HW131001   3.168   1.343   7.136  1.4963  0.6752 -0.2737
 6513SOL    HW231002   3.315   1.343   7.153  0.1512 -0.1295 -1.9115
 6514SOL     OW31003   4.632   2.858  12.186 -0.5403 -0.3360 -0.0011
 6514SOL    HW131004   4.598   2.869  12.275  0.2931 -0.7967  0.3703
 6514SOL    HW231005   4.684   2.780  12.205  0.6932  0.5698  0.2961
 6515SOL     OW31006   2.396   2.768   4.827  0.0980 -0.6063  0.1089
 6515SOL    HW131007   2.328   2.718   4.872 -0.9902  0.4854 -0.3307
 6515SOL    HW231008   2.473   2.711   4.838  0.2846 -0.5886 -1.0907
 6516SOL     OW31009   0.408   2.450   6.672 -0.0859  0.1653 -0.7202
 6516SOL    HW131010   0.415   2.377   6.734  0.9501  2.5648  1.9592
 6516SOL    HW231011   0.406   2.531   6.723  0.3911  0.2996 -0.9178
 6517SOL     OW31012   2.203   3.340   4.685  0.2892 -0.2175 -0.1616
 6517SOL    HW131013   2.171   3.300   4.765  2.2017  0.4949  0.9719
 6517SOL    HW231014   2.143   3.412   4.665  0.9220  0.1685 -0.6796
 6518SOL     OW31015   0.463   3.865   0.982  0.1899  0.2570  0.4564
 6518SOL    HW131016   0.490   3.881   1.073 -0.4730  0.0335  0.6977
 6518SOL    HW231017   0.401   3.792   0.983 -2.3567  2.3889  2.2228
 6519SOL     OW31018   1.865   3.737   1.959  0.4335 -0.5100  0.0386
 6519SOL    HW131019   1.902   3.659   2.002 -0.1591 -1.1275 -0.5646
 6519SOL    HW231020   1.805   3.704   1.893 -2.0003  1.5226  1.2498
 6520SOL     OW31021   4.372   3.302   1.480 -0.0273  0.1193 -0.1179
 6520SOL    HW131022   4.435   3.369   1.507  0.3442  0.3865 -1.6569
 6520SOL    HW231023   4.314   3.290   1.556  0.4562  1.4449  0.4580
 6521SOL     OW31024   4.693   4.484   2.550 -0.8059  0.1644 -0.1678
 6521SOL    HW131025   4.615   4.494   2.605 -0.4164  1.4800  0.1288
 6521SOL    HW231026   0.036   4.506   2.613 -2.1711  2.7999  0.3563
 6522SOL     OW31027   3.090   4.523  10.017  1.0124 -0.0685  0.2490
 6522SOL    HW131028   3.035   4.529  10.095  0.8089  0.3284  0.0760
 6522SOL    HW231029   3.018   4.481   9.969 -0.3989  2.0900  0.4773
 6523SOL     OW31030   2.607   2.490  17.544  0.2633  0.3945 -0.1236
 6523SOL    HW131031   2.567   2.405  17.564  0.1128  0.5646  0.3059
 6523SOL    HW231032   2.555   2.525  17.472 -0.4662 -0.3341  0.0442
 6524SOL     OW31033   1.544   2.087   5.644  0.1208 -0.1917  0.3545
 6524SOL    HW131034   1.480   2.155   5.623 -1.2118 -2.0606 -1.5852
 6524SOL    HW231035   1.483   2.023   5.681  1.6952 -1.8639  0.0379
 6525SOL     OW31036   4.340   1.309  17.699  0.7021  0.4994 -0.3034
 6525SOL    HW131037   4.335   1.313  17.603 -2.6159  2.7743 -0.0192
 6525SOL    HW231038   4.285   1.235   0.024  0.4422  0.8239  0.0852
 6526SOL     OW31039   3.617   2.061   2.736  0.3001 -0.6219  0.0294
 6526SOL    HW131040   3.691   2.008   2.705  1.0788 -0.0297  0.8813
 6526SOL    HW231041   3.607   2.035   2.828  0.2513 -0.5064  0.0562
 6527SOL     OW31042   1.401   4.503   4.007  0.4993  0.0335  0.0858
 6527SOL    HW131043   1.340   4.542   3.944 -0.1874  1.6708  1.7802
 6527SOL    HW231044   1.338   4.459   4.064  1.3545 -2.4980 -0.9112
 6528SOL     OW31045   0.385   3.984  17.417  0.0967  0.5308 -0.0076
 6528SOL    HW131046   0.412   3.969  17.507 -1.0233 -2.2076 -0.1309
 6528SOL    HW231047   0.372   3.894  17.388  1.0829  0.1613  0.6775
 6529SOL     OW31048   1.858   4.071   3.817  0.5922  0.1758 -0.0316
 6529SOL    HW131049   1.911   3.996   3.792 -0.5540 -1.2645  1.8704
 6529SOL    HW231050   1.797   4.070   3.742  2.5606  1.0340 -1.6450
 6530SOL     OW31051   1.328   4.069   1.614 -0.0076  0.2431  0.4336
 6530SOL    HW131052   1.347   4.082   1.521  1.2150 -0.4360  0.5738
 6530SOL    HW231053   1.402   4.098   1.667  0.9377 -1.4084  0.0456
 6531SOL     OW31054   0.861   2.387   3.121 -0.2862  0.6453  0.4075
 6531SOL    HW131055   0.945   2.432   3.125 -1.0876  2.0752  1.0539
 6531SOL    HW231056   0.840   2.373   3.029  2.7680 -0.2005 -0.1330
 6532SOL     OW31057   3.318   0.370   4.325 -0.0359  0.4703  0.0432
 6532SOL    HW131058   3.321   0.398   4.233 -2.4330  2.5170  0.6130
 6532SOL    HW231059   3.403   0.398   4.359  0.5073  0.6745 -1.4824
 6533SOL     OW31060   1.560   1.350   4.862  0.4397  0.7787 -0.8255
 6533SOL    HW131061   1.503   1.426   4.857 -1.2747 -0.3331  1.6695
 6533SOL    HW231062   1.489   1.292   4.891 -0.7221  2.7060  0.1619
 6534SOL     OW31063   1.564   4.264  12.303  0.2579  0.4135 -0.7316
 6534SOL    HW131064   1.535   4.341  12.252 -1.7790 -0.5187 -0.9807
 6534SOL    HW231065   1.625   4.308  12.363  0.7686 -2.6840  0.9731
 6535SOL     OW31066   0.111   4.308  13.933 -0.1036 -0.0722 -0.1902
 6535SOL    HW131067   0.056   4.311  13.855 -1.1083  0.2758  0.5419
 6535SOL    HW231068   0.074   4.371  13.995  0.7803  1.0621 -0.7970
 6536SOL     OW31069   3.124   0.729   0.790  0.0999 -0.2490  0.5843
 6536SOL    HW131070   3.049   0.781   0.761  1.7595  1.1749 -1.2185
 6536SOL    HW231071   3.111   0.640   0.759  0.1599 -0.0710  0.0389
 6537SOL     OW31072   0.450   4.586   1.957  0.3679  0.2399  0.4285
 6537SOL    HW131073   0.476   4.548   1.873  2.4373  1.3659  0.5639
 6537SOL    HW231074   0.381   4.646   1.930 -0.3792 -1.6758 -1.9658
 6538SOL     OW31075   0.362   1.332  15.341 -0.6266 -0.3733 -0.1668
 6538SOL    HW131076   0.444   1.378  15.322 -0.1809 -1.0409  0.1631
 6538SOL    HW231077   0.314   1.414  15.351 -0.6805 -0.3707 -0.4416
 6539SOL     OW31078   3.011   3.908   9.416  0.1366 -0.6281 -0.2635
 6539SOL    HW131079   2.988   3.934   9.505 -0.7350  1.4701 -1.0974
 6539SOL    HW231080   2.972   3.821   9.425 -1.1270 -0.1307 -1.0362
 6540SOL     OW31081   1.544   1.543   5.697 -0.0057  0.0849 -0.0167
 6540SOL    HW131082   1.634   1.512   5.690  0.6491  1.3642  2.6702
 6540SOL    HW231083   1.540   1.558   5.791  0.4226  0.2550 -0.0256
 6541SOL     OW31084   0.835   2.504   4.522  0.3653  0.5706  0.6075
 6541SOL    HW131085   0.853   2.470   4.434 -1.3700  0.7529  0.1814
 6541SOL    HW231086   0.875   2.591   4.526  2.0409 -0.0991 -1.7492
 6542SOL     OW31087   0.857   1.923   7.751  0.0971 -0.2955 -0.3448
 6542SOL    HW131088   0.907   1.927   7.833 -0.0135 -2.1426 -0.1853
 6542SOL    HW231089   0.924   1.904   7.685  0.4612  0.7355 -0.2865
 6543SOL     OW31090   3.742   3.013   3.214 -0.0689  0.2157  0.3327
 6543SOL    HW131091   3.815   2.957   3.238 -0.3985 -0.0690  0.6765
 6543SOL    HW231092   3.715   2.972   3.132  0.6680  1.0734 -0.3396
 6544SOL     OW31093   0.189   4.031   1.917  0.1221  0.0197  0.6340
 6544SOL    HW131094   0.176   3.952   1.865 -0.7616 -0.7971  2.0745
 6544SOL    HW231095   0.177   4.001   2.007 -0.7398 -1.8160 -0.0984
 6545SOL     OW31096   4.428   3.468  14.019  0.2419 -0.0447 -0.4141
 6545SOL    HW131097   4.447   3.522  13.943 -0.1405 -0.2483 -0.6558
 6545SOL    HW231098   4.338   3.443  13.998 -0.2121  1.0457  0.2264
 6546SOL     OW31099   2.618   1.781   5.137  0.1262 -0.3374  0.4050
 6546SOL    HW131100   2.582   1.718   5.199  0.5538 -1.9459 -0.9887
 6546SOL    HW231101   2.573   1.762   5.055 -0.5428 -0.1726  0.7358
 6547SOL     OW31102   0.604   1.154   1.723  0.0945  0.2482  0.6060
 6547SOL    HW131103   0.535   1.100   1.760  1.1333 -0.9086  0.8600
 6547SOL    HW231104   0.680   1.115   1.766 -0.0297  0.4078  0.9718
 6548SOL     OW31105   4.163   1.259   7.960  0.1513 -0.1728 -0.5776
 6548SOL    HW131106   4.108   1.338   7.951  1.6312  0.7228 -1.8235
 6548SOL    HW231107   4.228   1.292   7.898  2.0997  1.3422  2.2588
 6549SOL     OW31108   0.632   0.742   7.111 -0.2511  0.3323 -0.3297
 6549SOL    HW131109   0.621   0.660   7.158  3.5201 -0.1751 -0.3480
 6549SOL    HW231110   0.701   0.787   7.161 -2.1293 -0.6219  3.0712
 6550SOL     OW31111   3.124   1.675   1.079  0.2864 -0.4066 -0.1998
 6550SOL    HW131112   3.212   1.712   1.075  0.2153 -0.6493 -4.2616
 6550SOL    HW231113   3.128   1.606   1.012  0.1344 -1.0424  0.4391
 6551SOL     OW31114   2.532   1.704   6.773  0.3355  0.2124 -0.6460
 6551SOL    HW131115   2.576   1.619   6.774 -1.6945 -0.8353  2.1190
 6551SOL    HW231116   2.488   1.708   6.688  0.5257  0.0428 -0.7507
 6552SOL     OW31117   1.055   3.371   5.255 -0.0322  0.5706  0.0843
 6552SOL    HW131118   1.122   3.309   5.283  0.4393  1.2911  0.5649
 6552SOL    HW231119   1.036   3.416   5.338 -0.1170  0.1707  0.2832
 6553SOL     OW31120   1.700   0.936  13.619 -0.1547  0.5094  0.4515
 6553SOL    HW131121   1.639   0.955  13.691 -1.3694  0.5698 -0.5816
 6553SOL    HW231122   1.685   1.013  13.564  0.3094 -1.0584 -1.8645
 6554SOL     OW31123   2.291   3.828   3.345  0.6799 -0.0370  0.3882
 6554SOL    HW131124   2.273   3.737   3.320 -1.1101 -0.0651  1.7704
 6554SOL    HW231125   2.334   3.850   3.263 -0.3759 -1.7046 -0.6152
 6555SOL     OW31126   3.049   4.077   8.387  0.1634 -1.1932  0.1022
 6555SOL    HW131127   2.958   4.047   8.384 -0.2017 -0.1386  0.5213
 6555SOL    HW231128   3.048   4.122   8.472 -0.5567 -0.3567 -0.3514
 6556SOL     OW31129   1.050   4.131   6.383 -0.3859 -0.5125  0.4531
 6556SOL    HW131130   1.043   4.052   6.437 -0.3495 -0.1260  1.0336
 6556SOL    HW231131   0.991   4.116   6.310  1.1339 -1.9801 -0.4771
 6557SOL     OW31132   2.741   0.327   4.806 -0.2565  0.3454  0.0964
 6557SOL    HW131133   2.767   0.315   4.715 -2.2757  2.1844 -0.7140
 6557SOL    HW231134   2.765   0.247   4.851 -1.4220 -1.5076 -2.5925
 6558SOL     OW31135   3.825   3.929   3.338 -0.3087  0.2677  0.4492
 6558SOL    HW131136   3.769   4.002   3.312  0.0740  1.4150  2.8087
 6558SOL    HW231137   3.812   3.860   3.273  0.7340  1.0338 -0.5535
 6559SOL     OW31138   2.591   0.173   7.975 -0.0860  0.7131 -0.1813
 6559SOL    HW131139   2.668   0.127   7.942 -2.4443 -2.2038 -1.7599
 6559SOL    HW231140   2.527   0.102   7.963  0.0585  0.8493 -1.8172
 6560SOL     OW31141   3.287   1.958  11.425  0.3407  0.3007 -0.3216
 6560SOL    HW131142   3.198   1.937  11.399  0.2811  0.8528 -0.5766
 6560SOL    HW231143   3.304   2.043  11.384 -0.2587  2.0408  2.9850
 6561SOL     OW31144   2.314   1.365   5.708 -0.1715  0.1579  0.6618
 6561SOL    HW131145   2.286   1.451   5.678 -1.3000  0.1840  1.7449
 6561SOL    HW231146   2.319   1.310   5.630  0.2662 -1.6186  1.9124
 6562SOL     OW31147   2.631   1.345  16.489  0.1864  0.1557  0.2478
 6562SOL    HW131148   2.572   1.312  16.422  0.2197 -0.1936  0.3910
 6562SOL    HW231149   2.691   1.407  16.447 -0.8162  0.5746 -0.5596
 6563SOL     OW31150   0.759   1.502  15.500  0.0911 -0.1712  0.1080
 6563SOL    HW131151   0.830   1.532  15.557  2.0877 -2.5971 -1.1404
 6563SOL    HW231152   0.713   1.449  15.565 -1.7403 -0.8899 -1.7633
 6564SOL     OW31153   1.447   0.623  12.081  0.0338 -0.1074  0.2409
 6564SOL    HW131154   1.505   0.596  12.153  1.1435 -0.0277 -0.6253
 6564SOL    HW231155   1.416   0.701  12.126 -2.1211 -0.4597 -0.6361
 6565SOL     OW31156   2.234   3.178   0.513 -0.1136 -0.3738 -0.2987
 6565SOL    HW131157   2.186   3.142   0.439 -2.4278  2.4559 -0.2019
 6565SOL    HW231158   2.270   3.103   0.560  1.5593  0.1544 -0.7385
 6566SOL     OW31159   2.629   4.527  10.163 -0.1146 -0.1560  0.1271
 6566SOL    HW131160   2.612   4.560  10.251  2.5395  0.1327  0.5513
 6566SOL    HW231161   2.571   4.578  10.108 -0.1457 -0.1491  0.1663
 6567SOL     OW31162   2.820   1.907   5.381  0.2259 -0.4138 -0.1917
 6567SOL    HW131163   2.788   1.989   5.417 -0.0103 -0.5007 -0.2040
 6567SOL    HW231164   2.842   1.855   5.458 -1.2792 -0.0510  0.4756
 6568SOL     OW31165   2.744   3.355   5.249 -0.7352 -0.3806  0.0045
 6568SOL    HW131166   2.822   3.408   5.234 -2.0074  1.1658 -1.2051
 6568SOL    HW231167   2.725   3.387   5.338  1.7196 -2.7811  1.3653
 6569SOL     OW31168   0.787   0.641  15.362  0.0139 -0.2494  0.3406
 6569SOL    HW131169   0.763   0.733  15.369 -0.0702 -0.1955 -0.5882
 6569SOL    HW231170   0.811   0.643  15.269  2.3458 -0.8093  0.9387
 6570SOL     OW31171   3.810   3.847   4.777 -0.0777 -0.3381  0.9169
 6570SOL    HW131172   3.892   3.800   4.763  1.0746  1.9106  0.2161
 6570SOL    HW231173   3.746   3.796   4.726 -0.8531  0.8799  0.6830
 6571SOL     OW31174   0.476   2.961  13.170 -0.4456  0.0678  0.1073
 6571SOL    HW131175   0.555   2.933  13.218  0.1251  1.1035 -0.2469
 6571SOL    HW231176   0.414   2.922  13.232  0.3747  2.5907  2.5580
 6572SOL     OW31177   0.276   1.952   7.867  0.1365  0.2898  0.0195
 6572SOL    HW131178   0.355   1.993   7.903  1.4336 -1.9586 -0.2448
 6572SOL    HW231179   0.221   2.029   7.852 -1.6201 -1.2781 -1.5689
 6573SOL     OW31180   2.003   0.000   9.351  0.2106  0.3664  0.1760
 6573SOL    HW131181   1.931   4.702   9.410 -0.5189  0.9590 -0.4691
 6573SOL    HW231182   2.073   4.704   9.412  1.9011  4.0132 -0.4951
 6574SOL     OW31183   2.115   1.107   6.203  0.4842 -0.1355 -0.2491
 6574SOL    HW131184   2.094   1.096   6.110 -0.7880  2.4262 -0.2645
 6574SOL    HW231185   2.204   1.071   6.198  0.0518 -1.4559  1.7021
 6575SOL     OW31186   4.103   0.066   4.095 -0.1585 -0.1802 -0.7785
 6575SOL    HW131187   4.119   4.698   4.112  0.4173  0.1961  0.7505
 6575SOL    HW231188   4.079   0.071   4.003  0.2520  1.2624 -0.8050
 6576SOL     OW31189   0.281   0.687   8.923  0.1051  0.6431 -0.1234
 6576SOL    HW131190   0.246   0.761   8.874 -0.8964 -0.7290 -1.4538
 6576SOL    HW231191   0.213   0.620   8.920 -0.0567  0.7818  0.5068
 6577SOL     OW31192   1.441   4.027   9.979  0.2391 -0.5096 -0.0136
 6577SOL    HW131193   1.507   4.070   9.924  0.1164 -0.7980 -0.3869
 6577SOL    HW231194   1.359   4.060   9.943 -1.0732 -2.3696  1.2283
 6578SOL     OW31195   0.182   3.320   6.444 -0.8268 -0.4486 -0.1618
 6578SOL    HW131196   0.181   3.315   6.540  1.3820 -2.9131 -0.2764
 6578SOL    HW231197   0.093   3.299   6.417 -0.5795 -0.6418 -0.8301
 6579SOL     OW31198   1.547   4.712  12.321  0.3534  0.5334 -0.4020
 6579SOL    HW131199   1.494   4.638  12.292  1.2385 -0.1411 -0.2638
 6579SOL    HW231200   1.553   0.043  12.244 -1.8512 -2.0961 -2.4514
 6580SOL     OW31201   3.907   3.186   6.028  0.1092  0.1364  0.1658
 6580SOL    HW131202   3.875   3.277   6.029  2.1954  0.9067 -1.9501
 6580SOL    HW231203   3.854   3.157   5.953 -0.2903  0.4679  0.3139
 6581SOL     OW31204   3.183   2.877   8.906 -0.2715  0.0897  0.2890
 6581SOL    HW131205   3.092   2.849   8.895 -0.0206  0.3382 -2.4602
 6581SOL    HW231206   3.194   2.955   8.959 -0.4684 -0.5918  1.3250
 6582SOL     OW31207   4.248   3.446   8.804 -0.2642  0.6147 -0.5047
 6582SOL    HW131208   4.199   3.473   8.882  2.1744  1.4822  0.7120
 6582SOL    HW231209   4.246   3.529   8.756 -2.0595  1.1001  0.4242
 6583SOL     OW31210   3.936   0.196   7.122  0.6621  0.1398  0.1098
 6583SOL    HW131211   3.929   0.105   7.150 -2.0403 -0.2225 -1.7679
 6583SOL    HW231212   3.844   0.217   7.107  0.7459 -0.9345 -1.9180
 6584SOL     OW31213   4.402   1.096   3.805  0.1978  0.6016 -0.1401
 6584SOL    HW131214   4.326   1.058   3.760  0.1051  0.6834 -0.0530
 6584SOL    HW231215   4.343   1.142   3.864 -0.2074 -0.5071  0.3152
 6585SOL     OW31216   2.996   1.783   3.530  0.2715  0.0836  0.0052
 6585SOL    HW131217   3.024   1.730   3.605 -0.3356 -0.4582 -0.1576
 6585SOL    HW231218   3.064   1.773   3.463  0.5111 -1.1782  0.4320
 6586SOL     OW31219   4.245   3.868   4.223 -0.3666 -0.3258 -0.3239
 6586SOL    HW131220   4.283   3.836   4.304 -1.2572 -1.1773 -0.2407
 6586SOL    HW231221   4.151   3.869   4.243 -0.4293  0.4150 -0.6463
 6587SOL     OW31222   2.580   0.592  13.236 -0.2815 -0.0545  0.1667
 6587SOL    HW131223   2.662   0.608  13.284  1.0261 -3.2968 -1.0136
 6587SOL    HW231224   2.587   0.497  13.230 -0.4228  0.0263 -1.4396
 6588SOL     OW31225   4.478   0.035   6.933 -0.2716 -0.0058  0.2848
 6588SOL    HW131226   4.416   4.688   6.949  0.5829 -1.0760 -1.1222
 6588SOL    HW231227   4.421   0.110   6.951  0.0006  0.7979 -2.2588
 6589SOL     OW31228   1.528   1.943   0.462 -0.4044  0.3032 -0.3060
 6589SOL    HW131229   1.521   1.863   0.515  1.3595  1.9352  2.3762
 6589SOL    HW231230   1.475   2.008   0.506 -0.0677  0.6371 -0.3953
 6590SOL     OW31231   0.298   4.356   3.049  0.0721 -0.6945 -0.1978
 6590SOL    HW131232   0.324   4.420   3.115  1.5080  0.8256 -2.2436
 6590SOL    HW231233   0.370   4.294   3.062  0.3030 -0.2627  0.5920
 6591SOL     OW31234   4.554   0.843   8.084  0.3870 -0.8240  0.5431
 6591SOL    HW131235   4.580   0.816   8.172  1.4065 -3.1677 -0.4780
 6591SOL    HW231236   4.525   0.759   8.048  3.1502 -0.6898 -1.9716
 6592SOL     OW31237   2.685   0.240   5.194 -0.0831 -0.5096  0.1734
 6592SOL    HW131238   2.647   0.323   5.225 -0.8276 -0.5713 -0.5996
 6592SOL    HW231239   2.610   0.184   5.178  0.8312 -1.6230 -0.2201
 6593SOL     OW31240   3.719   3.178   4.553 -0.2425 -0.2145  0.0875
 6593SOL    HW131241   3.652   3.174   4.486  1.0004 -0.5576 -1.1447
 6593SOL    HW231242   3.750   3.087   4.560  0.7583  0.2396  1.6559
 6594SOL     OW31243   4.689   1.154   5.401 -0.1361 -0.2652  0.7030
 6594SOL    HW131244   4.710   1.224   5.339  1.5492 -0.7568  0.7424
 6594SOL    HW231245   0.013   1.079   5.367 -0.4532  0.3977 -1.1909
 6595SOL     OW31246   1.596   2.694   6.385  0.4016  0.4474 -0.2165
 6595SOL    HW131247   1.527   2.745   6.343 -0.8047 -1.8667 -1.0492
 6595SOL    HW231248   1.662   2.763   6.392  1.3997 -0.5967  0.6346
 6596SOL     OW31249   4.380   4.622   9.949  0.5281  0.4374  0.0772
 6596SOL    HW131250   4.386   4.710   9.913  2.1666  0.1342 -0.3643
 6596SOL    HW231251   4.461   4.611   9.999  2.0671  2.8255 -1.8998
 6597SOL     OW31252   2.846   2.859  15.482 -0.1067  0.0836  0.0072
 6597SOL    HW131253   2.926   2.852  15.430 -0.8580 -2.9774 -0.7376
 6597SOL    HW231254   2.781   2.849  15.412  1.8644  1.5738 -2.0297
 6598SOL     OW31255   2.938   0.234   8.629 -0.1011 -0.2930  0.8277
 6598SOL    HW131256   2.940   0.294   8.554  0.4261  2.0710  2.7048
 6598SOL    HW231257   2.988   0.154   8.613  0.3296  0.0589  0.4156
 6599SOL     OW31258   3.310   2.049   4.517 -0.0997 -0.3857  0.1346
 6599SOL    HW131259   3.339   1.965   4.550  1.6046  0.7781  1.5400
 6599SOL    HW231260   3.385   2.069   4.461  1.5260 -1.6452  1.8760
 6600SOL     OW31261   2.624   2.717  14.490 -0.2466  0.4635 -0.4310
 6600SOL    HW131262   2.589   2.786  14.433 -1.5315 -1.7583 -2.3330
 6600SOL    HW231263   2.561   2.715  14.562  0.5121 -1.1758  0.1994
 6601SOL     OW31264   2.419   3.467  14.820 -0.0423 -0.5352 -0.4631
 6601SOL    HW131265   2.430   3.413  14.898  1.7075  1.8804  0.9608
 6601SOL    HW231266   2.499   3.520  14.824 -1.3784  1.4417 -0.0428
 6602SOL     OW31267   0.952   0.633   9.836 -0.1916  0.5419 -0.0233
 6602SOL    HW131268   0.975   0.586   9.755 -1.6091 -1.4165  0.7176
 6602SOL    HW231269   0.918   0.708   9.788 -0.7804  0.7652  0.7449
 6603SOL     OW31270   0.880   3.228  10.441  0.2651  0.0254 -0.3166
 6603SOL    HW131271   0.821   3.153  10.433 -0.5826  1.0526 -3.8953
 6603SOL    HW231272   0.922   3.227  10.355  0.3324  0.5086 -0.2929
 6604SOL     OW31273   4.175   4.470  11.340 -0.1346  0.1084  0.1957
 6604SOL    HW131274   4.205   4.558  11.317  0.3539 -0.1978 -0.3314
 6604SOL    HW231275   4.213   4.461  11.428  1.6094  0.6855 -0.5071
 6605SOL     OW31276   1.201   2.241  16.888 -0.1802  0.2813 -0.0564
 6605SOL    HW131277   1.269   2.191  16.843 -1.0951 -2.0127  1.1303
 6605SOL    HW231278   1.246   2.277  16.965 -1.4167 -1.2209  1.3583
 6606SOL     OW31279   3.791   4.520   8.117 -0.3351  0.7071 -0.9349
 6606SOL    HW131280   3.784   4.601   8.066  0.3226  0.4093 -1.5076
 6606SOL    HW231281   3.700   4.490   8.109 -0.3279  0.6079 -0.6268
 6607SOL     OW31282   2.372   0.363  11.027  0.1859 -0.2024 -0.5200
 6607SOL    HW131283   2.315   0.440  11.025  0.2364 -0.1783 -0.9557
 6607SOL    HW231284   2.322   0.309  11.088 -0.0048 -0.5270 -0.9666
 6608SOL     OW31285   3.216   4.355   4.465 -0.0812  0.0102  0.1647
 6608SOL    HW131286   3.287   4.405   4.423 -0.4311  0.0064 -0.4406
 6608SOL    HW231287   3.162   4.428   4.494  1.1439  0.3291  1.6452
 6609SOL     OW31288   0.765   4.072   5.444 -0.2842  0.4357  0.2222
 6609SOL    HW131289   0.707   4.015   5.494  0.4102  0.0308  0.5743
 6609SOL    HW231290   0.842   4.072   5.501  1.5848 -0.3528 -2.2672
 6610SOL     OW31291   4.598   4.684   9.748 -0.1756  0.4880  0.2404
 6610SOL    HW131292   4.543   4.682   9.669 -1.5344 -0.1118  1.2065
 6610SOL    HW231293   4.557   0.029   9.800 -4.6824 -0.9297 -1.4316
 6611SOL     OW31294   4.647   2.439   0.608 -0.0271  0.2133  0.5908
 6611SOL    HW131295   4.614   2.428   0.519  2.9935  0.2455 -0.5268
 6611SOL    HW231296   4.559   2.448   0.647 -0.9762 -1.5208 -1.1661
 6612SOL     OW31297   2.420   0.813   7.768 -0.5397  0.4390 -0.2555
 6612SOL    HW131298   2.345   0.765   7.733 -0.1667  0.3823 -0.9829
 6612SOL    HW231299   2.481   0.740   7.766 -2.6216 -1.2730 -0.9837
 6613SOL     OW31300   0.478   1.006   8.659 -0.3854 -0.0734 -0.4857
 6613SOL    HW131301   0.512   1.036   8.743 -1.6751  0.1238 -0.0297
 6613SOL    HW231302   0.495   0.913   8.674 -0.9308  0.3119  2.4526
 6614SOL     OW31303   3.679   4.194  15.061 -0.3753 -0.1088  0.3191
 6614SOL    HW131304   3.728   4.226  14.985 -2.6621 -0.6807 -1.4133
 6614SOL    HW231305   3.690   4.262  15.127 -0.3607 -0.0533  0.2587
 6615SOL     OW31306   1.682   3.388  13.195 -0.0685 -0.1658  0.4070
 6615SOL    HW131307   1.770   3.406  13.228  0.2768  0.3092 -0.8082
 6615SOL    HW231308   1.679   3.463  13.136 -0.3517  0.1037  0.7647
 6616SOL     OW31309   4.470   0.404   8.643  0.1261 -0.2225 -1.1633
 6616SOL    HW131310   4.435   0.365   8.563 -0.5261  1.1608 -1.5608
 6616SOL    HW231311   4.564   0.417   8.628 -0.2255  1.7240 -1.6709
 6617SOL     OW31312   3.151   0.046   8.615  0.6800 -0.1323 -0.7743
 6617SOL    HW131313   3.245   0.047   8.637  0.8835 -0.2503 -1.6376
 6617SOL    HW231314   3.158   0.074   8.524 -2.6818  2.8740 -0.0805
 6618SOL     OW31315   4.126   1.938   2.503  0.1153  0.4106 -0.0039
 6618SOL    HW131316   4.109   1.920   2.411  1.7841  3.8276 -1.0205
 6618SOL    HW231317   4.047   1.990   2.519  0.1809  0.1865  1.0774
 6619SOL     OW31318   2.646   4.470  14.101 -0.4812  0.2430 -0.1753
 6619SOL    HW131319   2.727   4.432  14.137  0.5285  1.1137 -1.5467
 6619SOL    HW231320   2.657   4.564  14.109  0.6889 -0.0685  2.0157
 6620SOL     OW31321   0.683   0.908   8.296 -0.6682 -0.2202  0.2172
 6620SOL    HW131322   0.751   0.950   8.349 -1.5369  0.9460  0.3985
 6620SOL    HW231323   0.618   0.972   8.324 -0.9627 -0.7226  0.6835
 6621SOL     OW31324   2.553   2.041   4.529 -0.0627  0.2581  0.1390
 6621SOL    HW131325   2.598   2.017   4.448 -0.1902  1.9548 -0.4230
 6621SOL    HW231326   2.463   2.028   4.500  0.2655 -0.8227 -0.4040
 6622SOL     OW31327   1.977   1.654  13.707  0.4356  0.3907  0.2763
 6622SOL    HW131328   1.969   1.560  13.719 -0.1551  0.4833  0.6129
 6622SOL    HW231329   1.974   1.679  13.799 -1.0800 -1.0118  0.6099
 6623SOL     OW31330   3.004   0.965  10.511  0.1507 -0.1553  0.2125
 6623SOL    HW131331   3.095   0.942  10.491 -0.0225 -1.7792  1.2966
 6623SOL    HW231332   3.017   1.060  10.503  1.1125 -0.4704 -2.0367
 6624SOL     OW31333   0.536   4.627   1.204  0.4910  0.2745  0.2591
 6624SOL    HW131334   0.565   4.711   1.168 -1.0996  0.6496 -0.1448
 6624SOL    HW231335   0.509   4.578   1.127  0.7607 -0.7402  0.8200
 6625SOL     OW31336   2.636   2.172   7.044 -0.5456  0.2999  0.1158
 6625SOL    HW131337   2.716   2.137   7.082  0.7366  0.5869 -2.3550
 6625SOL    HW231338   2.648   2.117   6.967  2.9963  0.6489  0.4298
 6626SOL     OW31339   3.087   4.223   5.534  0.3057 -0.5053 -0.7385
 6626SOL    HW131340   3.088   4.131   5.509  1.8431 -0.6033 -0.3504
 6626SOL    HW231341   3.136   4.268   5.465 -1.4267 -1.4293 -2.5749
 6627SOL     OW31342   1.707   3.426  15.024 -0.2549 -0.1553 -0.1114
 6627SOL    HW131343   1.683   3.489  14.956  0.8291  0.5477  0.1560
 6627SOL    HW231344   1.678   3.342  14.989 -0.4568  0.1442 -0.6541
 6628SOL     OW31345   2.176   4.616   9.978 -0.3587  0.1422 -0.2253
 6628SOL    HW131346   2.246   4.563  10.015 -0.3116  0.6678  0.4434
 6628SOL    HW231347   2.213   4.703   9.964  2.2220 -0.9566 -0.2357
 6629SOL     OW31348   4.438   4.664   5.852 -0.2327  0.0762 -0.3546
 6629SOL    HW131349   4.365   0.000   5.840 -1.2045 -1.3895 -1.9481
 6629SOL    HW231350   4.392   4.583   5.827  0.8894 -0.9462  0.8485
 6630SOL     OW31351   2.996   4.199   9.392 -0.4035 -0.0597  0.5215
 6630SOL    HW131352   2.984   4.281   9.345  0.0572  0.0848  0.6561
 6630SOL    HW231353   2.925   4.195   9.456  1.5874 -3.3446  2.5416
 6631SOL     OW31354   2.774   0.208  10.360  0.1281  0.5735  0.5367
 6631SOL    HW131355   2.780   0.173  10.449 -2.5775 -1.1807  0.0348
 6631SOL    HW231356   2.695   0.159  10.336 -0.8441  1.3556  2.1614
 6632SOL     OW31357   3.472   0.121   7.070 -0.7043 -0.3602  0.3261
 6632SOL    HW131358   3.491   0.029   7.085 -0.5949 -0.7887 -2.3642
 6632SOL    HW231359   3.552   0.140   7.021 -0.8141 -0.3582  0.1454
 6633SOL     OW31360   2.175   2.524  12.944  0.1719  0.0245  0.2735
 6633SOL    HW131361   2.103   2.533  13.006 -1.3685  2.8103 -1.9021
 6633SOL    HW231362   2.142   2.594  12.887 -0.8912 -0.4372  0.3311
 6634SOL     OW31363   1.564   0.679   4.971  0.2340 -0.8974 -0.3267
 6634SOL    HW131364   1.483   0.666   4.922 -0.7687 -0.3838  1.2041
 6634SOL    HW231365   1.585   0.770   4.954 -1.6474 -0.6157 -1.1399
 6635SOL     OW31366   3.129   1.257   3.620 -0.6897 -0.4282 -0.2820
 6635SOL    HW131367   3.147   1.264   3.714  1.0463 -1.9253 -0.5227
 6635SOL    HW231368   3.208   1.305   3.594 -0.3148 -0.7327  0.3030
 6636SOL     OW31369   3.583   3.357  10.949 -0.0736 -0.5183 -0.0645
 6636SOL    HW131370   3.674   3.360  10.980 -0.1516 -0.0566  0.1211
 6636SOL    HW231371   3.594   3.373  10.855  0.3807  0.2145  0.1116
 6637SOL     OW31372   4.701   3.689   4.217  0.4271 -0.5321  0.0873
 6637SOL    HW131373   4.688   3.604   4.259 -2.6847  1.3142  2.8465
 6637SOL    HW231374   4.654   3.752   4.271 -1.2990  0.1360 -2.2198
 6638SOL     OW31375   2.217   2.340  12.093  0.0659 -0.1317 -0.5585
 6638SOL    HW131376   2.215   2.417  12.036  0.2098  0.7607  0.6156
 6638SOL    HW231377   2.226   2.257  12.047 -3.3638 -1.4306  1.0951
 6639SOL     OW31378   3.779   3.964  15.232 -0.4110  0.1631 -0.2328
 6639SOL    HW131379   3.771   3.873  15.259  1.2923  0.3154  0.7873
 6639SOL    HW231380   3.695   3.985  15.190 -2.1521 -0.0923  3.0404
 6640SOL     OW31381   1.208   1.007   4.517  0.7300 -0.0611  0.2460
 6640SOL    HW131382   1.277   1.052   4.470 -0.3564 -1.1419 -2.3985
 6640SOL    HW231383   1.130   1.054   4.488 -0.4744 -2.2902 -0.1856
 6641SOL     OW31384   0.591   1.803   2.002  0.0274 -0.9080 -0.3141
 6641SOL    HW131385   0.617   1.738   2.068 -1.3281  0.1872  1.3042
 6641SOL    HW231386   0.662   1.861   2.029 -0.8365 -0.3051  0.6820
 6642SOL     OW31387   3.543   3.913   9.183 -0.8062  0.6553 -0.6000
 6642SOL    HW131388   3.458   3.870   9.175 -1.6477  2.4880 -1.7352
 6642SOL    HW231389   3.531   3.962   9.265 -1.6665 -2.2584  1.0253
 6643SOL     OW31390   4.051   3.626   7.886  0.1181  0.1051  0.4598
 6643SOL    HW131391   4.026   3.545   7.841 -0.6028  0.7447 -0.2940
 6643SOL    HW231392   4.146   3.618   7.887  0.0977  0.0451  2.5184
 6644SOL     OW31393   1.762   2.958   7.457  0.1338  0.0343 -0.5384
 6644SOL    HW131394   1.689   2.981   7.399  0.1759  1.7624  0.0969
 6644SOL    HW231395   1.825   3.025   7.432  1.7740 -1.0365  0.7374
 6645SOL     OW31396   1.465   3.397   1.836 -0.0461  0.2834  0.2255
 6645SOL    HW131397   1.488   3.331   1.901 -1.0215 -0.7104 -0.4265
 6645SOL    HW231398   1.392   3.355   1.790  1.1670 -0.4662 -1.0025
 6646SOL     OW31399   3.094   0.620   9.599  0.7898 -0.6912 -0.3912
 6646SOL    HW131400   3.074   0.612   9.506  0.9909  0.1653 -0.5113
 6646SOL    HW231401   3.189   0.609   9.593  1.1174  1.9112  0.0049
 6647SOL     OW31402   2.633   1.658   2.018  0.2263  0.1638  0.2863
 6647SOL    HW131403   2.550   1.705   2.017  0.6886  1.0119  0.6452
 6647SOL    HW231404   2.620   1.617   1.933  1.3811  1.2113 -0.4018
 6648SOL     OW31405   1.770   3.778   1.306 -0.1401  0.0347 -0.0609
 6648SOL    HW131406   1.859   3.792   1.336 -0.2482 -1.5075  1.0170
 6648SOL    HW231407   1.733   3.719   1.372 -0.6482 -0.2612 -0.6095
 6649SOL     OW31408   2.073   0.374   3.023  0.3929 -0.0223 -0.5641
 6649SOL    HW131409   2.118   0.290   3.030  0.9017  0.3246  0.2990
 6649SOL    HW231410   2.046   0.378   3.114 -0.6996 -0.7758 -0.8483
 6650SOL     OW31411   0.098   2.939   3.983 -0.1967  0.7204 -0.1604
 6650SOL    HW131412   0.127   2.953   3.893 -2.1449  1.7804 -0.6302
 6650SOL    HW231413   0.170   2.978   4.033  0.9780  0.8238 -1.9594
 6651SOL     OW31414   1.417   1.939   2.286  0.1066 -0.1429 -0.1410
 6651SOL    HW131415   1.503   1.897   2.278 -0.1737 -0.9813  1.1289
 6651SOL    HW231416   1.432   2.032   2.274 -1.3938 -0.0807 -1.4371
 6652SOL     OW31417   2.197   2.432   7.585 -0.1975 -0.1785 -0.1579
 6652SOL    HW131418   2.237   2.387   7.659 -0.1103  0.8140  0.3892
 6652SOL    HW231419   2.193   2.363   7.519  1.1057 -1.4358  1.0733
 6653SOL     OW31420   2.262   1.586   3.373 -0.1750 -0.0533 -0.0679
 6653SOL    HW131421   2.318   1.651   3.415 -2.4494  2.5099 -0.9984
 6653SOL    HW231422   2.307   1.581   3.288 -0.5828  2.2402 -0.4222
 6654SOL     OW31423   3.242   2.055   5.904 -0.2989  0.3396  0.4321
 6654SOL    HW131424   3.286   1.970   5.894 -2.4011 -0.7637  0.4840
 6654SOL    HW231425   3.191   2.059   5.823  1.1094 -2.4640 -0.6009
 6655SOL     OW31426   1.637   0.246  17.638  0.2171 -0.1067 -0.2786
 6655SOL    HW131427   1.726   0.230  17.668  0.6326  1.5882 -0.6017
 6655SOL    HW231428   1.606   0.292   0.017  0.7609 -0.5549  0.1960
 6656SOL     OW31429   4.193   0.915   9.410  0.2042  0.4906  0.0428
 6656SOL    HW131430   4.251   0.904   9.335 -2.7335  1.0321 -2.2933
 6656SOL    HW231431   4.222   0.871   9.490  0.4339  0.8036  0.1294
 6657SOL     OW31432   4.325   0.780   5.046 -0.1689  0.1373 -0.2163
 6657SOL    HW131433   4.264   0.744   4.982 -1.1784 -0.7117  1.2185
 6657SOL    HW231434   4.344   0.712   5.111 -0.9998 -0.8019 -0.9557
 6658SOL     OW31435   4.370   3.206   6.491  0.2258 -0.0124 -0.5413
 6658SOL    HW131436   4.279   3.232   6.474 -0.1647 -0.1511  1.3254
 6658SOL    HW231437   4.398   3.275   6.552  1.2679  0.7358 -1.8539
 6659SOL     OW31438   0.772   1.059   4.782  0.5624 -0.4294 -0.1573
 6659SOL    HW131439   0.848   1.014   4.820  0.8667 -0.2056 -0.5050
 6659SOL    HW231440   0.769   1.018   4.696  1.8436 -1.1783  0.1447
 6660SOL     OW31441   0.730   1.259   3.776  0.4674  0.4131 -0.0304
 6660SOL    HW131442   0.651   1.206   3.766  0.5884  0.2773 -0.2747
 6660SOL    HW231443   0.793   1.195   3.745  0.6353  1.0121 -0.9335
 6661SOL     OW31444   3.630   4.641   4.992 -0.0412 -0.2178  0.1892
 6661SOL    HW131445   3.719   4.661   5.020 -0.4342  0.3290  1.0298
 6661SOL    HW231446   3.628   4.547   5.009 -0.3663 -0.2871 -0.2265
 6662SOL     OW31447   2.874   0.776   6.849  0.1650 -0.2984 -0.4893
 6662SOL    HW131448   2.911   0.689   6.832 -0.7485 -1.5007  3.7828
 6662SOL    HW231449   2.899   0.770   6.941 -0.7771 -1.6409 -0.3241
 6663SOL     OW31450   0.755   4.314  15.011  0.7230  0.1522  0.2483
 6663SOL    HW131451   0.842   4.276  15.024 -0.0118 -1.4691  0.3418
 6663SOL    HW231452   0.769   4.409  15.019  0.4653  0.0901  1.4049
 6664SOL     OW31453   4.084   0.623   6.181 -0.1881  0.5490  0.0748
 6664SOL    HW131454   4.016   0.634   6.248  0.9886 -1.5218  1.6318
 6664SOL    HW231455   4.038   0.668   6.110 -0.3716  1.0442  0.5071
 6665SOL     OW31456   3.303   3.431   7.943  0.3771  0.5099  0.4379
 6665SOL    HW131457   3.309   3.500   8.009  0.8036 -0.6636  1.6220
 6665SOL    HW231458   3.285   3.366   8.011 -2.2567  1.3405  0.5604
 6666SOL     OW31459   2.192   3.095   1.461 -0.3178  1.2817 -0.1589
 6666SOL    HW131460   2.269   3.104   1.405  0.5196  2.0893  1.1091
 6666SOL    HW231461   2.208   3.001   1.474 -1.7324  1.3852  2.4258
 6667SOL     OW31462   0.139   4.716  14.645 -0.2966 -0.0795  0.2980
 6667SOL    HW131463   0.085   0.069  14.655  0.0512  0.6724 -3.5959
 6667SOL    HW231464   0.113   4.660  14.718 -1.5522 -0.5036 -0.4791
 6668SOL     OW31465   2.167   4.033   5.635 -0.0458  0.1942 -0.3776
 6668SOL    HW131466   2.197   3.944   5.654 -1.0808 -0.2928 -1.0293
 6668SOL    HW231467   2.218   4.051   5.555  0.2070  0.6538 -0.1144
 6669SOL     OW31468   3.872   0.151   4.760 -0.1539 -0.1472  0.0041
 6669SOL    HW131469   3.783   0.186   4.773 -0.2350 -0.7469  1.0913
 6669SOL    HW231470   3.849   0.058   4.765 -1.9666  0.4126  2.2823
 6670SOL     OW31471   0.753   1.068   2.096 -0.5682  0.5666 -0.8848
 6670SOL    HW131472   0.779   1.053   2.005 -0.3794  0.3099 -0.7903
 6670SOL    HW231473   0.695   0.994   2.117  1.3212 -0.4875  0.7132
 6671SOL     OW31474   2.653   1.266   1.144 -0.2111  0.3104  0.1473
 6671SOL    HW131475   2.732   1.260   1.090 -0.7965 -0.4855 -0.6266
 6671SOL    HW231476   2.605   1.343   1.115 -1.6549 -0.1783  1.2425
 6672SOL     OW31477   1.426   2.590   6.099  0.3434 -0.3145 -0.2762
 6672SOL    HW131478   1.410   2.611   6.007 -0.8825  0.5078  0.1240
 6672SOL    HW231479   1.353   2.532   6.119 -0.8820  1.9760  2.0093
 6673SOL     OW31480   1.610   1.701   3.385 -0.0237 -0.4641  0.2796
 6673SOL    HW131481   1.671   1.768   3.413 -0.4471  0.6648 -1.4619
 6673SOL    HW231482   1.632   1.699   3.291 -0.7670 -1.0405  0.1169
 6674SOL     OW31483   3.995   4.337   6.133 -0.6782 -0.4253 -0.7558
 6674SOL    HW131484   3.928   4.289   6.182  0.8452 -0.9135  0.8112
 6674SOL    HW231485   4.037   4.385   6.204  0.2338  0.4685 -1.8948
 6675SOL     OW31486   0.837   0.074   1.620  0.6192 -0.2187  0.1329
 6675SOL    HW131487   0.926   0.070   1.585  0.9800  2.0170  0.7960
 6675SOL    HW231488   0.862   0.102   1.709 -1.9023 -0.3524  0.8886
 6676SOL     OW31489   3.039   4.335   2.515  0.2569  0.2309  0.0377
 6676SOL    HW131490   3.096   4.412   2.521  2.1679 -1.2060  0.2637
 6676SOL    HW231491   2.986   4.365   2.441  0.4779 -1.3733 -0.7453
 6677SOL     OW31492   3.265   3.819   9.290 -0.2283 -0.3325  0.0019
 6677SOL    HW131493   3.269   3.749   9.354  0.8600  1.6205  2.0665
 6677SOL    HW231494   3.207   3.879   9.337  0.5336  1.2736 -1.1257
 6678SOL     OW31495   1.367   1.793   3.470 -0.3510  0.3375 -0.1827
 6678SOL    HW131496   1.448   1.781   3.420 -1.8550 -0.2260 -2.5112
 6678SOL    HW231497   1.312   1.718   3.448  0.3142  0.0101 -0.7294
 6679SOL     OW31498   2.279   4.642  16.023  0.0967  0.4197 -0.3257
 6679SOL    HW131499   2.233   4.567  15.984 -1.2447  0.6187  0.8965
 6679SOL    HW231500   2.334   4.611  16.095  0.5711  2.0289 -0.0091
 6680SOL     OW31501   0.733   1.331   8.187 -0.5489 -0.6248  0.0410
 6680SOL    HW131502   0.804   1.266   8.179 -0.4579 -0.4205 -0.7935
 6680SOL    HW231503   0.778   1.401   8.233  0.5325 -1.8367  0.8442
 6681SOL     OW31504   1.518   0.770   7.582  0.4682 -0.2718 -0.0832
 6681SOL    HW131505   1.432   0.802   7.557 -0.0364 -1.0384  0.6818
 6681SOL    HW231506   1.546   0.839   7.643 -2.1454 -0.7453  1.6120
 6682SOL     OW31507   1.885   2.075   3.067 -0.5303 -0.2859  0.3871
 6682SOL    HW131508   1.902   2.136   2.996 -2.1149  0.5400  0.7054
 6682SOL    HW231509   1.903   1.991   3.024  1.4651 -0.6401  1.9181
 6683SOL     OW31510   2.575   0.983   4.532  1.1192 -0.0556  0.4024
 6683SOL    HW131511   2.488   0.988   4.572  0.1503  1.0907 -1.8502
 6683SOL    HW231512   2.596   1.075   4.522  1.3446 -0.2153 -0.5478
 6684SOL     OW31513   3.487   1.281   7.328 -0.0011 -0.5894  0.1479
 6684SOL    HW131514   3.566   1.331   7.308  0.4541 -0.4417  2.3902
 6684SOL    HW231515   3.452   1.328   7.403  0.1643  1.6794 -1.1814
 6685SOL     OW31516   4.358   4.673   7.577 -0.3070  0.0602  1.0920
 6685SOL    HW131517   4.324   4.635   7.658 -0.2648 -0.6637  0.7657
 6685SOL    HW231518   4.393   0.031   7.610  0.4755 -0.1950  0.9022
 6686SOL     OW31519   0.055   0.500   7.044 -0.2745 -0.0919 -0.5166
 6686SOL    HW131520   0.010   0.568   6.994 -3.2043 -2.0909 -0.6160
 6686SOL    HW231521   0.101   0.546   7.115 -1.0170 -0.3770  0.1514
 6687SOL     OW31522   1.160   2.685   8.216  0.6683  0.5454 -0.0376
 6687SOL    HW131523   1.166   2.599   8.174  2.2468  0.0409  1.2009
 6687SOL    HW231524   1.151   2.747   8.144 -1.2758 -0.0092 -0.2621
 6688SOL     OW31525   4.501   3.640  10.994 -0.4165 -0.4398 -0.2054
 6688SOL    HW131526   4.467   3.551  10.990 -0.0181 -0.6006  0.0223
 6688SOL    HW231527   4.428   3.696  11.021  0.4638  0.0540  1.1848
 6689SOL     OW31528   0.412   1.075   1.052  0.3062  0.0002  0.3570
 6689SOL    HW131529   0.460   1.153   1.026  0.6683 -0.3542 -0.0490
 6689SOL    HW231530   0.461   0.999   1.019 -1.6878 -0.9541 -0.4440
 6690SOL     OW31531   1.704   1.706   8.877 -0.9226  0.8801 -0.0419
 6690SOL    HW131532   1.799   1.716   8.886 -0.9554  1.9367 -0.8062
 6690SOL    HW231533   1.696   1.741   8.788  1.1578  0.9186 -0.1993
 6691SOL     OW31534   3.715   2.479   3.932 -0.5541 -0.4609  0.1460
 6691SOL    HW131535   3.620   2.484   3.945 -0.6502  0.4477 -0.9278
 6691SOL    HW231536   3.727   2.568   3.897  0.9122 -1.2098 -1.2518
 6692SOL     OW31537   3.899   1.905   2.967  0.7648 -0.0344 -0.0792
 6692SOL    HW131538   3.875   1.895   2.875 -1.5726  1.0740  0.4017
 6692SOL    HW231539   3.936   1.824   3.002 -1.4207 -0.1065  1.9995
 6693SOL     OW31540   1.530   1.883   7.046  0.4864  0.4422  0.2615
 6693SOL    HW131541   1.586   1.805   7.055  2.4125  1.7817 -0.1172
 6693SOL    HW231542   1.556   1.929   7.126 -2.1728  0.6003  1.0358
 6694SOL     OW31543   3.236   1.352   2.329 -0.9510 -0.5159  0.7958
 6694SOL    HW131544   3.178   1.428   2.330  1.8542  1.6220  1.1283
 6694SOL    HW231545   3.170   1.285   2.343 -0.6065 -0.7008  1.5542
 6695SOL     OW31546   1.530   2.388  10.617 -0.5385 -0.4222 -0.1839
 6695SOL    HW131547   1.510   2.460  10.678 -2.3619 -0.4608 -0.7376
 6695SOL    HW231548   1.623   2.387  10.641 -0.7294  1.6209  0.6979
 6696SOL     OW31549   2.478   3.862   6.420 -0.4378  0.1499  0.4424
 6696SOL    HW131550   2.453   3.782   6.375  0.9094 -0.9982  1.7668
 6696SOL    HW231551   2.558   3.841   6.469  0.2559 -0.3141 -0.9018
 6697SOL     OW31552   3.035   3.514   9.603 -0.1946 -0.6826 -0.3257
 6697SOL    HW131553   2.971   3.517   9.533  0.0800 -0.8952 -0.5860
 6697SOL    HW231554   3.114   3.557   9.571  1.4218 -1.9729  1.8852
 6698SOL     OW31555   2.111   1.257   8.881  0.6525  0.0757  0.3487
 6698SOL    HW131556   2.156   1.173   8.877  0.8787  0.2327 -0.6322
 6698SOL    HW231557   2.154   1.288   8.801 -1.0649  0.5760 -0.3802
 6699SOL     OW31558   0.980   4.377   1.947  0.0322  0.2189 -0.7348
 6699SOL    HW131559   0.952   4.359   2.037  1.2396  0.2032 -0.3610
 6699SOL    HW231560   0.996   4.289   1.913  2.2486 -0.0594  1.0359
 6700SOL     OW31561   3.423   0.771  15.515 -0.4279  0.2690 -0.9066
 6700SOL    HW131562   3.397   0.697  15.462  0.2669 -1.7211  1.5297
 6700SOL    HW231563   3.366   0.753  15.590 -1.4093  1.6948 -1.3071
 6701SOL     OW31564   2.918   4.062  10.759  0.2538 -0.1835  0.4474
 6701SOL    HW131565   2.844   4.010  10.727 -1.4880  2.5546  0.0355
 6701SOL    HW231566   2.971   3.996  10.802 -0.2052 -0.8239  0.0451
 6702SOL     OW31567   3.671   0.494   7.542  0.2979  0.0112 -0.0600
 6702SOL    HW131568   3.721   0.547   7.481 -0.2761  0.8522  0.2104
 6702SOL    HW231569   3.590   0.484   7.492  1.9018 -0.9142 -2.4602
 6703SOL     OW31570   0.331   0.028  12.097  0.8837 -0.0452  0.3120
 6703SOL    HW131571   0.318   0.121  12.077 -0.1866 -0.7000 -1.9324
 6703SOL    HW231572   0.426   0.018  12.092  0.5250 -3.8036  0.8306
 6704SOL     OW31573   3.662   3.258   5.513 -0.4744 -0.7202  0.2439
 6704SOL    HW131574   3.573   3.223   5.507 -1.8261  2.3776  1.9063
 6704SOL    HW231575   3.677   3.276   5.420  0.0609 -2.7708 -0.0588
 6705SOL     OW31576   1.289   0.374   1.923  0.1763  0.0164 -0.2300
 6705SOL    HW131577   1.320   0.441   1.984  0.1737 -2.6310  2.6757
 6705SOL    HW231578   1.321   0.409   1.840 -0.5031  0.0461 -0.4716
 6706SOL     OW31579   1.211   0.951  10.521  0.5564 -0.0760  0.1882
 6706SOL    HW131580   1.276   0.959  10.591  0.9314 -0.1171 -0.1539
 6706SOL    HW231581   1.161   1.031  10.539  0.7039  0.1162 -0.2685
 6707SOL     OW31582   0.903   0.730   8.240  0.3632 -0.1704  0.3673
 6707SOL    HW131583   0.830   0.792   8.236  0.3187 -0.3626 -1.9575
 6707SOL    HW231584   0.893   0.672   8.316  0.1253  1.0762  1.2793
 6708SOL     OW31585   3.826   0.962   2.762  0.1193 -0.0884  0.0122
 6708SOL    HW131586   3.898   0.993   2.708  0.9926 -0.5930  0.8882
 6708SOL    HW231587   3.756   0.937   2.701  0.9422 -2.1151 -0.0991
 6709SOL     OW31588   3.469   1.598  10.080 -0.3879 -0.0543 -0.3237
 6709SOL    HW131589   3.498   1.516  10.121 -0.6697 -1.0877 -2.2126
 6709SOL    HW231590   3.377   1.574  10.072 -0.5852  0.4031  0.5216
 6710SOL     OW31591   4.346   2.405   1.768 -0.0378  0.0156  0.2019
 6710SOL    HW131592   4.403   2.450   1.706 -0.2154 -0.5180 -0.3444
 6710SOL    HW231593   4.338   2.328   1.711 -0.3408 -0.0857  0.3807
 6711SOL     OW31594   4.188   2.669   5.942  0.5168  0.0225 -0.4012
 6711SOL    HW131595   4.274   2.711   5.942 -0.0529  1.1394  1.6177
 6711SOL    HW231596   4.202   2.594   6.000  1.7457  0.7307  0.2213
 6712SOL     OW31597   0.602   2.331  15.681  0.5028 -0.4685  0.0369
 6712SOL    HW131598   0.515   2.337  15.720  2.0453  2.5920  3.0645
 6712SOL    HW231599   0.608   2.423  15.654 -2.3044 -0.1866  0.3137
 6713SOL     OW31600   2.090   2.545  11.866 -0.2256 -0.0402 -0.2851
 6713SOL    HW131601   2.169   2.579  11.908 -0.7924  1.1805 -0.2126
 6713SOL    HW231602   2.134   2.481  11.810 -0.4369 -0.7656  0.3700
 6714SOL     OW31603   4.661   2.773   9.849  0.4658  0.3338  0.7353
 6714SOL    HW131604   4.574   2.733   9.858  0.0350  1.1928  0.4324
 6714SOL    HW231605   4.717   2.704   9.882 -1.1029 -0.0244  2.6342
 6715SOL     OW31606   2.073   4.700   0.054 -0.0793  0.1309 -0.2242
 6715SOL    HW131607   2.158   4.662   0.079 -0.4220 -1.9653 -2.1968
 6715SOL    HW231608   2.065   0.064   0.088 -0.1355  0.2423 -0.5281
 6716SOL     OW31609   0.881   4.277   8.691 -0.3991  0.2020 -0.0620
 6716SOL    HW131610   0.915   4.356   8.649 -0.5471  0.0889 -0.3971
 6716SOL    HW231611   0.955   4.255   8.747 -1.5183  1.2153  1.7980
 6717SOL     OW31612   2.910   0.729   0.026  0.0939  0.8060  0.1289
 6717SOL    HW131613   2.841   0.792   0.049  1.7348  1.8598  2.1206
 6717SOL    HW231614   2.883   0.689  17.643  2.6807  0.9911 -0.8008
 6718SOL     OW31615   4.217   1.580   1.167  0.1301 -0.1184 -0.5353
 6718SOL    HW131616   4.281   1.589   1.237 -0.8464 -0.6762  0.4200
 6718SOL    HW231617   4.160   1.654   1.190  0.9201  0.6117 -0.9385
 6719SOL     OW31618   4.453   4.697   9.496  0.1785  0.2566  0.3974
 6719SOL    HW131619   4.467   4.622   9.438 -0.6452  0.3735  0.0572
 6719SOL    HW231620   4.523   0.030   9.463 -0.6427  0.7159 -0.5332
 6720SOL     OW31621   1.970   0.789   6.703  0.2823  0.3094  0.4143
 6720SOL    HW131622   1.889   0.764   6.749 -0.6863 -1.8617 -2.4564
 6720SOL    HW231623   1.974   0.878   6.737 -0.3276  0.8077 -0.8388
 6721SOL     OW31624   1.732   1.120  10.730  0.4155  0.0535 -0.7982
 6721SOL    HW131625   1.739   1.024  10.733 -0.8411 -0.0923 -2.2209
 6721SOL    HW231626   1.749   1.143  10.821  0.0669  0.9872 -0.9768
 6722SOL     OW31627   0.973   0.124   0.999  0.3491 -0.0794  0.5238
 6722SOL    HW131628   0.980   0.037   0.960  1.2536  0.3430 -0.2532
 6722SOL    HW231629   0.912   0.118   1.072 -1.3209  1.0643 -0.7903
 6723SOL     OW31630   4.683   3.722   1.713 -0.2128  0.1508  0.4683
 6723SOL    HW131631   0.028   3.747   1.652  0.1890  0.2519  0.9749
 6723SOL    HW231632   4.657   3.802   1.759  2.3502  0.9136  0.5650
 6724SOL     OW31633   1.315   4.104  12.147  0.1600 -0.6332  0.4035
 6724SOL    HW131634   1.304   4.147  12.062 -1.9693 -2.2551 -0.1656
 6724SOL    HW231635   1.408   4.119  12.162  0.3667  0.1508 -1.6129
 6725SOL     OW31636   4.665   4.330  14.977 -0.2904  0.2379  0.3139
 6725SOL    HW131637   4.593   4.268  14.966 -1.3127  1.7231 -1.2820
 6725SOL    HW231638   4.639   4.363  15.063  1.2268  1.5381  0.2684
 6726SOL     OW31639   1.108   3.916   7.081 -0.1224  0.4558  0.5359
 6726SOL    HW131640   1.112   3.840   7.024 -1.0860  1.0492 -0.3042
 6726SOL    HW231641   1.058   3.880   7.155  1.3303  0.5767  1.5741
 6727SOL     OW31642   4.028   2.139   6.423 -0.0316  0.5011  0.8264
 6727SOL    HW131643   4.088   2.188   6.479 -2.9936  1.0134  3.5597
 6727SOL    HW231644   3.965   2.208   6.403  0.2215  0.8679  1.3099
 6728SOL     OW31645   2.087   2.225   4.876  0.4852 -0.2710  0.6198
 6728SOL    HW131646   2.076   2.299   4.816  0.8987 -1.7525 -1.3082
 6728SOL    HW231647   2.009   2.241   4.929 -0.5338 -2.0624 -0.3416
 6729SOL     OW31648   2.556   4.453   6.426 -0.6279 -0.2749  0.3589
 6729SOL    HW131649   2.562   4.359   6.408 -2.3807 -0.5224  1.0821
 6729SOL    HW231650   2.564   4.483   6.335  0.2458  1.6538  1.0913
 6730SOL     OW31651   0.944   0.749  15.139  0.4272  0.4202  0.1831
 6730SOL    HW131652   0.934   0.768  15.046  0.5301 -0.5447 -0.0301
 6730SOL    HW231653   0.954   0.836  15.176  0.0227  0.8806 -0.8130
 6731SOL     OW31654   0.258   0.321   8.847 -0.0693 -0.0072 -0.4254
 6731SOL    HW131655   0.168   0.313   8.816  0.4863 -2.5945 -1.2913
 6731SOL    HW231656   0.278   0.398   8.793  3.7190 -1.8515 -1.6586
 6732SOL     OW31657   1.416   2.645   5.188 -0.0430 -0.3876 -0.1287
 6732SOL    HW131658   1.437   2.653   5.095  0.2411  0.7528  0.0350
 6732SOL    HW231659   1.322   2.663   5.182  0.2329  0.4011 -1.8666
 6733SOL     OW31660   0.737   1.129   9.100  0.4706 -0.1082  0.4686
 6733SOL    HW131661   0.804   1.195   9.082 -1.5846  1.3213 -1.9381
 6733SOL    HW231662   0.774   1.106   9.186  0.3075 -0.1697  0.5232
 6734SOL     OW31663   0.330   2.953   0.855 -0.8436 -0.0047  0.4821
 6734SOL    HW131664   0.345   3.034   0.903  2.4538  0.5476 -1.5036
 6734SOL    HW231665   0.274   2.985   0.784 -1.3595 -0.1528  0.8214
 6735SOL     OW31666   3.055   2.367  11.804  0.8839 -0.2404 -0.3030
 6735SOL    HW131667   3.045   2.332  11.715  0.0357 -2.2015  0.5620
 6735SOL    HW231668   3.147   2.349  11.825  0.5775 -1.5328 -0.0263
 6736SOL     OW31669   1.344   0.934   0.808 -0.0048  0.3763 -0.3655
 6736SOL    HW131670   1.285   0.860   0.823  0.1041  0.1772 -0.9051
 6736SOL    HW231671   1.285   1.006   0.828  0.5469  1.4562 -2.5512
 6737SOL     OW31672   3.589   1.555   2.197 -0.8285 -0.0451  0.4581
 6737SOL    HW131673   3.664   1.576   2.142  1.6428 -4.5874  2.1549
 6737SOL    HW231674   3.512   1.593   2.155 -0.5482 -0.6142 -0.5577
 6738SOL     OW31675   2.017   3.500   8.818 -0.3859 -0.1620  0.1954
 6738SOL    HW131676   1.954   3.433   8.844  1.0484 -0.6920  2.3050
 6738SOL    HW231677   2.005   3.505   8.723 -1.7075 -1.9616  0.2766
 6739SOL     OW31678   2.365   2.821   4.556 -0.4215  0.1368 -0.3235
 6739SOL    HW131679   2.322   2.802   4.639  0.2973 -2.7880 -0.6225
 6739SOL    HW231680   2.305   2.886   4.519 -0.7777 -0.9017 -1.5883
 6740SOL     OW31681   4.452   4.206  14.856 -1.1512  0.3615  0.1025
 6740SOL    HW131682   4.369   4.172  14.889 -1.5136  0.1048 -1.0488
 6740SOL    HW231683   4.420   4.273  14.795  2.9285  2.7043  0.5329
 6741SOL     OW31684   4.071   3.560  11.067  0.7285 -0.2827  0.4338
 6741SOL    HW131685   4.112   3.613  11.136  2.6729  2.6810 -3.0077
 6741SOL    HW231686   4.134   3.574  10.997 -0.3626  2.2455 -0.0616
 6742SOL     OW31687   2.217   4.103   8.964  0.1556  0.4270  0.1116
 6742SOL    HW131688   2.290   4.100   9.025 -1.1157  0.4328  1.6139
 6742SOL    HW231689   2.214   4.015   8.926  2.2612  0.1644  0.6003
 6743SOL     OW31690   3.150   0.180   7.486 -0.1963  0.1279 -0.0403
 6743SOL    HW131691   3.236   0.205   7.518 -1.0342  0.1502  2.2472
 6743SOL    HW231692   3.142   0.088   7.512 -1.6623  0.4317  0.5975
 6744SOL     OW31693   1.969   1.921   5.941  0.4111  0.7473  0.3707
 6744SOL    HW131694   1.983   1.935   6.035 -0.8595  3.2247  0.1962
 6744SOL    HW231695   1.886   1.872   5.942  1.7896 -1.5817 -0.8610
 6745SOL     OW31696   2.494   2.030   5.337  0.0829  0.7647 -0.4666
 6745SOL    HW131697   2.543   2.082   5.274  1.8683 -0.2823  0.0737
 6745SOL    HW231698   2.438   1.974   5.282  1.9976 -0.8215 -0.8034
 6746SOL     OW31699   3.609   0.451   6.414 -0.3532  0.3495  0.5470
 6746SOL    HW131700   3.618   0.493   6.500  3.5369  0.1660  0.2215
 6746SOL    HW231701   3.572   0.368   6.444 -0.1401  0.7547  1.9707
 6747SOL     OW31702   0.438   1.607   4.716  0.0670 -0.0133 -1.0550
 6747SOL    HW131703   0.474   1.588   4.803 -2.1033  1.8402  0.2463
 6747SOL    HW231704   0.439   1.703   4.718 -0.7981 -0.0885  2.0213
 6748SOL     OW31705   2.326   0.164   9.337  0.2246 -0.1220 -0.1014
 6748SOL    HW131706   2.403   0.167   9.395 -0.1282 -0.8055  0.4040
 6748SOL    HW231707   2.277   0.231   9.385 -1.4348 -0.3983 -1.3944
 6749SOL     OW31708   3.765   2.562   6.427  0.0269  0.3519  0.1698
 6749SOL    HW131709   3.837   2.619   6.455 -1.0561  0.1019  3.4274
 6749SOL    HW231710   3.707   2.579   6.501  0.0313 -0.7009  0.4074
 6750SOL     OW31711   0.050   2.867   0.444  0.1739  0.3845  0.1288
 6750SOL    HW131712   0.132   2.819   0.456 -0.1372 -0.3139 -0.5506
 6750SOL    HW231713   0.015   2.837   0.361 -2.2929  0.7765  1.0140
 6751SOL     OW31714   2.653   2.501   2.573  0.2804 -0.3131  0.4801
 6751SOL    HW131715   2.714   2.428   2.566  0.9532  0.5081 -2.0341
 6751SOL    HW231716   2.652   2.517   2.668  1.1185 -0.2778  0.4792
 6752SOL     OW31717   4.083   2.714   5.666 -0.1682  0.5468  0.7799
 6752SOL    HW131718   4.070   2.675   5.753  0.0678 -0.3031  0.4403
 6752SOL    HW231719   4.114   2.636   5.619  2.2143  0.6782  2.1375
 6753SOL     OW31720   3.872   2.621   1.045  0.4165  0.7113 -0.1431
 6753SOL    HW131721   3.860   2.581   0.959 -1.3569 -0.9918  0.8836
 6753SOL    HW231722   3.966   2.628   1.058  0.4472 -0.5319  0.2959
 6754SOL     OW31723   1.430   0.042   6.600 -0.2070  0.2591  0.3625
 6754SOL    HW131724   1.366   0.106   6.631 -1.6945  0.7477 -3.7181
 6754SOL    HW231725   1.484   0.112   6.564  1.2309 -1.0587 -0.0784
 6755SOL     OW31726   4.109   0.480   3.455 -0.4948  0.3365  0.2229
 6755SOL    HW131727   4.019   0.512   3.456 -1.0680 -1.1836 -1.9428
 6755SOL    HW231728   4.113   0.430   3.373  0.9243  1.2162 -0.2402
 6756SOL     OW31729   2.163   1.649   2.483 -0.2437  0.0282 -0.7600
 6756SOL    HW131730   2.215   1.720   2.445 -1.7515  0.6388 -1.7070
 6756SOL    HW231731   2.108   1.635   2.406 -1.7361 -0.2949  0.3668
 6757SOL     OW31732   4.236   1.075   6.409  0.5927 -0.2262  0.2955
 6757SOL    HW131733   4.275   1.126   6.339  0.4854  0.4140  0.7024
 6757SOL    HW231734   4.143   1.088   6.389 -0.2195 -0.0646  4.2018
 6758SOL     OW31735   3.424   0.576   2.547  0.0705  0.0666  0.0284
 6758SOL    HW131736   3.407   0.519   2.472  1.5760  0.3068 -0.4972
 6758SOL    HW231737   3.353   0.556   2.608  0.1747 -1.2111 -0.2742
 6759SOL     OW31738   0.967   4.057   3.499  0.7947  0.0396  0.2005
 6759SOL    HW131739   0.937   4.145   3.522 -0.0020 -0.1927  0.0523
 6759SOL    HW231740   0.901   4.003   3.543  0.9599  1.3650  2.0697
 6760SOL     OW31741   3.697   3.394   7.092 -0.1560 -0.4213  0.1496
 6760SOL    HW131742   3.663   3.397   7.182 -0.3644 -0.8500  0.0872
 6760SOL    HW231743   3.695   3.301   7.071  3.1942 -0.9584  2.1754
 6761SOL     OW31744   4.498   3.771   0.400  0.0133  0.0846 -0.3119
 6761SOL    HW131745   4.504   3.867   0.400 -0.0755  0.0927 -0.9120
 6761SOL    HW231746   4.449   3.760   0.318  0.8488 -1.4213 -0.6103
 6762SOL     OW31747   2.074   3.702   0.169  0.3365  0.0105  0.4673
 6762SOL    HW131748   2.052   3.704   0.076  0.6936 -1.1089  0.3535
 6762SOL    HW231749   2.086   3.609   0.188 -2.6735 -0.5077 -0.2028
 6763SOL     OW31750   0.172   4.060   5.268  0.3157  0.1324 -0.5650
 6763SOL    HW131751   0.195   4.103   5.350  0.4441  2.0153 -1.6067
 6763SOL    HW231752   0.081   4.033   5.283  0.3194  1.1033  1.2211
 6764SOL     OW31753   2.019   3.986   0.072 -0.3601 -0.6796  0.4788
 6764SOL    HW131754   2.007   3.893   0.095  1.3400 -1.0470 -0.0731
 6764SOL    HW231755   2.083   4.016   0.137 -0.5090 -0.2246  0.4123
 6765SOL     OW31756   2.221   2.341  11.735 -0.0665  0.3898 -0.3726
 6765SOL    HW131757   2.314   2.333  11.753 -0.4754  2.4589  2.7287
 6765SOL    HW231758   2.220   2.345  11.640 -0.1467 -2.8984 -0.4840
 6766SOL     OW31759   4.581   4.110   2.293 -0.0354 -0.4095 -0.1830
 6766SOL    HW131760   4.614   4.197   2.270 -0.7646 -0.1454 -0.2550
 6766SOL    HW231761   4.528   4.095   2.214 -0.6377  1.0105 -0.0426
 6767SOL     OW31762   1.540   3.579   7.467 -0.3621 -0.0202  0.6919
 6767SOL    HW131763   1.596   3.623   7.404 -1.9840 -1.3582 -1.6954
 6767SOL    HW231764   1.481   3.542   7.401  1.6237 -0.7862 -0.6574
 6768SOL     OW31765   4.105   2.081   7.279 -0.0583 -0.2509 -0.3519
 6768SOL    HW131766   4.121   2.174   7.263 -0.8338 -0.1493 -0.5332
 6768SOL    HW231767   4.010   2.069   7.283 -0.4779  2.5275 -1.9890
 6769SOL     OW31768   2.527   2.385  11.590 -0.5177 -0.1815  0.3753
 6769SOL    HW131769   2.597   2.320  11.587 -1.6326 -1.4000  0.5698
 6769SOL    HW231770   2.560   2.449  11.528 -1.6937  1.2641  1.2417
 6770SOL     OW31771   1.984   2.538  10.781  0.4580 -0.0309 -0.4393
 6770SOL    HW131772   2.041   2.532  10.704  2.5622 -0.3905  1.1477
 6770SOL    HW231773   1.964   2.631  10.790  0.5853 -0.2366  1.9159
 6771SOL     OW31774   4.327   0.370   5.430 -0.7685  0.0940  0.1359
 6771SOL    HW131775   4.247   0.420   5.446 -0.8855  0.3935 -1.4010
 6771SOL    HW231776   4.341   0.396   5.339 -1.1687 -1.1607 -0.2840
 6772SOL     OW31777   2.414   0.814   4.768 -0.2513  0.4135  0.1354
 6772SOL    HW131778   2.322   0.829   4.748  0.0395  1.2674 -0.5716
 6772SOL    HW231779   2.430   0.886   4.828 -1.6297 -0.3979  1.4859
 6773SOL     OW31780   4.261   4.341   9.396  0.1724 -0.6802 -0.9474
 6773SOL    HW131781   4.305   4.285   9.460  0.8643 -0.2832 -1.0739
 6773SOL    HW231782   4.185   4.359   9.451  0.0564 -1.8166 -0.7171
 6774SOL     OW31783   0.176   1.427   9.233 -0.0956 -0.5486  0.4259
 6774SOL    HW131784   0.206   1.491   9.298 -0.3324 -0.9820  0.9627
 6774SOL    HW231785   0.228   1.349   9.254 -0.4044 -0.8683  0.0046
 6775SOL     OW31786   1.503   4.717   3.225 -0.1374 -0.2250 -0.8915
 6775SOL    HW131787   1.455   4.641   3.259  0.6614  0.1088  0.9695
 6775SOL    HW231788   1.495   4.703   3.131 -0.2085 -0.0240 -0.9144
 6776SOL     OW31789   1.378   1.373  16.496  0.4083  0.0166 -0.0280
 6776SOL    HW131790   1.425   1.448  16.532  0.8104 -0.9589  1.5091
 6776SOL    HW231791   1.295   1.394  16.538  0.6824 -0.9597  1.0399
 6777SOL     OW31792   4.145   1.217   4.929  0.5624  0.2668 -0.0858
 6777SOL    HW131793   4.142   1.302   4.973  0.3969  0.8201 -1.1708
 6777SOL    HW231794   4.214   1.225   4.863  1.1239 -0.6739  0.3920
 6778SOL     OW31795   2.776   2.421  11.069  0.3526 -0.2463 -0.2617
 6778SOL    HW131796   2.870   2.410  11.057  0.3764 -0.2442 -0.0726
 6778SOL    HW231797   2.768   2.342  11.121  1.0803  0.6045  1.1415
 6779SOL     OW31798   3.492   1.227  12.374 -0.2929 -0.1593 -0.3017
 6779SOL    HW131799   3.455   1.148  12.414  3.9283 -2.0604 -0.1353
 6779SOL    HW231800   3.553   1.253  12.444  1.6907 -1.7855 -1.4197
 6780SOL     OW31801   1.139   0.768   0.877  0.1770  0.2494 -0.1908
 6780SOL    HW131802   1.108   0.796   0.963 -1.4398  0.5201 -0.8669
 6780SOL    HW231803   1.144   0.672   0.884 -0.2957  0.4111  2.4012
 6781SOL     OW31804   1.057   4.419   4.573  0.5907  0.4055 -0.6580
 6781SOL    HW131805   1.128   4.362   4.601 -0.0193 -0.1329 -0.2070
 6781SOL    HW231806   0.983   4.391   4.627  1.2666 -0.5191 -0.2017
 6782SOL     OW31807   0.414   4.173   2.013  0.5108  0.0579  0.9644
 6782SOL    HW131808   0.356   4.121   1.957 -0.8341  0.3937  2.0376
 6782SOL    HW231809   0.353   4.199   2.082 -0.0323  1.3636  0.0038
 6783SOL     OW31810   0.108   4.655  16.838  0.1781  0.0678  0.4370
 6783SOL    HW131811   0.092   4.685  16.749 -0.6152  1.4015  1.0139
 6783SOL    HW231812   0.092   0.006  16.896  0.3907 -1.4358  2.4492
 6784SOL     OW31813   1.473   1.005   2.274  0.6599 -0.2225 -0.2976
 6784SOL    HW131814   1.551   1.051   2.305 -0.2055  1.3011 -0.3732
 6784SOL    HW231815   1.443   1.063   2.204  1.6747 -0.2901 -0.7967
 6785SOL     OW31816   1.994   3.105   9.178 -0.0401  0.0309 -0.1293
 6785SOL    HW131817   1.930   3.067   9.118 -0.9749 -0.1784  0.9914
 6785SOL    HW231818   1.969   3.196   9.164 -3.6324 -1.1544 -1.4542
 6786SOL     OW31819   3.715   4.076   5.571  0.4220 -0.0516 -0.3881
 6786SOL    HW131820   3.676   4.120   5.495  1.2172  2.5793  0.7443
 6786SOL    HW231821   3.763   4.004   5.529 -0.4925 -0.6658 -0.3936
 6787SOL     OW31822   1.253   2.262   5.371  0.0019 -0.1514  0.2619
 6787SOL    HW131823   1.309   2.188   5.348  0.8402 -0.2871  2.7210
 6787SOL    HW231824   1.227   2.282   5.281 -1.3515  1.6352  1.0421
 6788SOL     OW31825   1.020   4.192   3.790 -0.4792  0.3796 -0.1124
 6788SOL    HW131826   0.954   4.249   3.831 -0.4717 -1.2888  2.2100
 6788SOL    HW231827   1.073   4.255   3.741  0.2723  0.2376  0.5073
 6789SOL     OW31828   0.621   0.288   5.834 -0.3292 -0.0582 -0.7768
 6789SOL    HW131829   0.671   0.240   5.900  0.3662  1.4010 -0.2304
 6789SOL    HW231830   0.543   0.315   5.883 -0.4716 -0.1606 -0.9490
 6790SOL     OW31831   0.837   1.124   8.579  0.2046 -0.0399  0.0875
 6790SOL    HW131832   0.899   1.162   8.642  0.7357 -3.3798  1.5647
 6790SOL    HW231833   0.778   1.080   8.640 -0.8712  1.6326  0.2500
 6791SOL     OW31834   0.871   3.275   4.099  0.3316 -0.3774 -0.0555
 6791SOL    HW131835   0.935   3.213   4.135  1.5769  0.4669 -0.8644
 6791SOL    HW231836   0.881   3.353   4.153 -0.8144  1.0213 -1.8665
 6792SOL     OW31837   4.053   2.762   2.704 -0.5038  0.0175 -0.3472
 6792SOL    HW131838   4.144   2.734   2.718 -1.6665 -2.3624  2.6761
 6792SOL    HW231839   4.071   2.842   2.656  0.9370  1.4775  2.5791
 6793SOL     OW31840   4.142   1.542   4.444 -0.0909 -0.2848  0.1911
 6793SOL    HW131841   4.141   1.637   4.431  1.2769 -0.3167 -0.1410
 6793SOL    HW231842   4.237   1.534   4.445  0.0543  1.5780  0.8088
 6794SOL     OW31843   3.155   2.482  17.599 -0.0951 -0.3264 -0.3741
 6794SOL    HW131844   3.144   2.389  17.619  1.6016 -0.4218  0.1796
 6794SOL    HW231845   3.063   2.508  17.603 -0.3332 -1.0939 -0.9496
 6795SOL     OW31846   2.229   3.596   1.571 -0.4317  0.1262 -0.6873
 6795SOL    HW131847   2.161   3.570   1.633 -1.0964  1.4960 -0.8386
 6795SOL    HW231848   2.284   3.652   1.625 -1.1371 -0.5049  0.6895
 6796SOL     OW31849   3.229   0.319   3.622  0.2416  0.1760 -0.0364
 6796SOL    HW131850   3.176   0.242   3.607 -0.4339  0.8368 -1.0137
 6796SOL    HW231851   3.277   0.332   3.540 -2.4424  3.1387 -1.1131
 6797SOL     OW31852   2.072   2.541   4.210  0.5040 -0.1233  0.1637
 6797SOL    HW131853   2.060   2.634   4.229  1.0173 -0.0474  0.1141
 6797SOL    HW231854   2.020   2.505   4.281 -0.7224  0.7141 -0.3156
 6798SOL     OW31855   3.862   4.597   9.575  0.1891 -0.1317  0.5230
 6798SOL    HW131856   3.851   4.505   9.601  1.0057 -0.4427 -0.2090
 6798SOL    HW231857   3.835   4.597   9.484 -0.4990  0.2881  0.7297
 6799SOL     OW31858   0.197   1.187   7.672  0.2987  0.2164  0.6023
 6799SOL    HW131859   0.232   1.134   7.744 -1.5527 -0.6146  0.9054
 6799SOL    HW231860   0.213   1.124   7.601 -1.1440 -0.6535  1.0429
 6800SOL     OW31861   0.900   3.551   2.431  0.8298  0.0551  0.0223
 6800SOL    HW131862   0.891   3.603   2.351  0.8992  1.0476  0.6566
 6800SOL    HW231863   0.893   3.458   2.409  0.2213  0.0735  0.1163
 6801SOL     OW31864   2.065   3.430   7.850 -0.1284 -0.3451  0.4391
 6801SOL    HW131865   1.977   3.459   7.824  1.4490  3.5954 -0.5530
 6801SOL    HW231866   2.040   3.384   7.929  1.5194 -2.5418 -0.3366
 6802SOL     OW31867   4.082   4.204   3.601  1.0486  0.4237 -0.0677
 6802SOL    HW131868   4.161   4.150   3.601  1.8347  1.5711  0.4501
 6802SOL    HW231869   4.112   4.282   3.554 -0.5301 -0.4430 -2.5324
 6803SOL     OW31870   0.544   2.573  15.224  0.1340  0.2360  0.1457
 6803SOL    HW131871   0.474   2.519  15.262  0.7475 -0.3995  0.3789
 6803SOL    HW231872   0.593   2.510  15.171  1.4649 -0.6798  2.4808
 6804SOL     OW31873   3.062   3.534  12.968 -0.4112 -0.0355 -0.0972
 6804SOL    HW131874   3.046   3.450  13.011  3.3514 -0.0612  1.2263
 6804SOL    HW231875   3.138   3.507  12.918  0.1978  1.1680  0.1796
 6805SOL     OW31876   1.073   1.092   4.788  1.0506 -0.2187 -0.2966
 6805SOL    HW131877   1.058   0.999   4.769 -1.2966  0.3919 -1.3623
 6805SOL    HW231878   1.035   1.129   4.709 -0.5867  1.4462  1.2738
 6806SOL     OW31879   2.777   0.253   3.002 -0.6903 -0.2093 -0.1694
 6806SOL    HW131880   2.825   0.260   3.084 -0.7989 -1.5683  0.0172
 6806SOL    HW231881   2.790   0.341   2.968 -3.0765  0.3984  0.4991
 6807SOL     OW31882   3.699   0.036   2.728 -0.4428  0.5374 -0.1464
 6807SOL    HW131883   3.693   4.665   2.722  0.6794  0.6086 -2.6143
 6807SOL    HW231884   3.610   0.048   2.763 -0.5827  0.1346 -0.3665
 6808SOL     OW31885   3.438   0.874  12.923 -0.2278  0.6812 -0.5376
 6808SOL    HW131886   3.518   0.853  12.971  0.5610  0.3049 -2.0198
 6808SOL    HW231887   3.449   0.819  12.846  0.2551 -0.1415  0.1225
 6809SOL     OW31888   1.686   4.070   4.573 -0.6040 -0.4650  0.8900
 6809SOL    HW131889   1.742   4.007   4.528 -0.4671  0.1438  0.2005
 6809SOL    HW231890   1.604   4.056   4.526  0.4613 -2.8454 -0.2397
 6810SOL     OW31891   0.059   3.858   4.989  0.2359  0.0697 -0.0728
 6810SOL    HW131892   0.150   3.879   4.964 -0.1737 -1.1346 -2.6044
 6810SOL    HW231893   0.065   3.810   5.071  0.7694 -1.6393 -1.1009
 6811SOL     OW31894   1.872   3.347   0.398 -0.0612 -0.2502  0.0759
 6811SOL    HW131895   1.847   3.374   0.310 -1.1729  0.8687  0.7331
 6811SOL    HW231896   1.960   3.317   0.376  0.5262  0.5001  1.4223
 6812SOL     OW31897   0.147   3.881   3.658 -0.5476 -0.4210 -0.0587
 6812SOL    HW131898   0.232   3.884   3.614  0.0873  0.3894  1.2384
 6812SOL    HW231899   0.165   3.804   3.711 -0.9268 -0.5268 -0.0834
 6813SOL     OW31900   3.719   1.449   7.358 -0.3041  0.2053 -0.2157
 6813SOL    HW131901   3.675   1.440   7.443  1.7979 -2.0065  0.6323
 6813SOL    HW231902   3.725   1.545   7.357  0.0416  0.2235  3.4929
 6814SOL     OW31903   4.405   0.863   2.908 -0.5972  0.3435  1.1419
 6814SOL    HW131904   4.349   0.931   2.871  0.6858  0.7712 -0.0162
 6814SOL    HW231905   4.450   0.828   2.831  1.1281  2.1313  1.3404
 6815SOL     OW31906   4.622   3.514   7.380  0.3017  0.3286 -0.3873
 6815SOL    HW131907   4.615   3.494   7.287 -0.1231  0.7662 -0.4509
 6815SOL    HW231908   4.663   3.601   7.382 -1.4695  1.0926  3.7516
 6816SOL     OW31909   3.314   4.364   9.913  0.0285 -0.3924  0.0949
 6816SOL    HW131910   3.400   4.375   9.873 -0.2057 -1.4224 -0.7100
 6816SOL    HW231911   3.247   4.370   9.845 -0.4903  1.8116  0.8336
 6817SOL     OW31912   4.116   3.169   4.431 -0.3532  0.1366 -0.0502
 6817SOL    HW131913   4.032   3.210   4.410  0.3406  1.6244  0.0405
 6817SOL    HW231914   4.078   3.082   4.444 -0.0177  0.0085  0.0771
 6818SOL     OW31915   3.184   4.097   9.524 -0.4625 -0.0238  0.7583
 6818SOL    HW131916   3.197   4.179   9.572 -2.5584  0.2080  0.9312
 6818SOL    HW231917   3.117   4.126   9.462 -0.2748  0.1219  0.6241
 6819SOL     OW31918   3.753   1.814   5.824 -0.0826  0.6100  0.5761
 6819SOL    HW131919   3.756   1.728   5.867 -0.4676  0.8794  1.1525
 6819SOL    HW231920   3.723   1.787   5.738 -0.0214 -1.4486  1.2015
 6820SOL     OW31921   1.636   2.471  13.003 -0.3335  0.2475 -0.2117
 6820SOL    HW131922   1.726   2.460  12.972 -0.7559  0.5834 -1.6073
 6820SOL    HW231923   1.584   2.420  12.941 -1.2484  1.4718 -0.4652
 6821SOL     OW31924   2.759   4.168  16.857 -0.0997  0.2672  0.4733
 6821SOL    HW131925   2.694   4.098  16.852  0.0610  0.1734 -0.2800
 6821SOL    HW231926   2.711   4.241  16.896 -4.0584 -2.1599  0.1863
 6822SOL     OW31927   2.529   3.919   5.552  0.4756 -0.3022  0.5941
 6822SOL    HW131928   2.482   3.938   5.633 -0.2459 -0.4478  0.2096
 6822SOL    HW231929   2.476   3.939   5.475  1.7340 -0.3521 -0.2952
 6823SOL     OW31930   0.484   3.028   7.110  0.6473 -0.3510  0.2286
 6823SOL    HW131931   0.548   2.965   7.076  1.6260  0.3260  0.8350
 6823SOL    HW231932   0.539   3.081   7.168  0.6886 -0.0142 -0.1126
 6824SOL     OW31933   3.583   1.023  10.364 -0.6436 -0.0188 -0.4069
 6824SOL    HW131934   3.583   1.119  10.370 -0.9023  0.0197 -1.0012
 6824SOL    HW231935   3.662   1.002  10.414 -0.9400 -1.5824 -0.6024
 6825SOL     OW31936   4.637   0.560   5.634 -0.5782 -0.3113 -0.8614
 6825SOL    HW131937   4.713   0.514   5.672  0.7065  0.5676 -2.3859
 6825SOL    HW231938   4.581   0.486   5.610  0.0413  0.1268 -3.6314
 6826SOL     OW31939   1.256   1.198  16.210  0.2322 -0.3597 -0.3648
 6826SOL    HW131940   1.181   1.183  16.268  0.1501  0.2766 -0.2960
 6826SOL    HW231941   1.322   1.166  16.271 -0.1485 -1.4029 -0.5024
 6827SOL     OW31942   2.107   4.565   2.306  0.6444  0.2832 -0.0589
 6827SOL    HW131943   2.033   4.608   2.263  0.1966 -0.6610 -0.2216
 6827SOL    HW231944   2.096   4.610   2.389  0.1571  0.0181  0.0143
 6828SOL     OW31945   1.938   2.682  13.107 -0.3895 -0.4296 -0.2143
 6828SOL    HW131946   1.929   2.588  13.120  0.1780 -0.8010 -2.4428
 6828SOL    HW231947   1.845   2.701  13.096 -0.4039  0.8096  2.0888
 6829SOL     OW31948   1.694   2.742  13.029  0.5185  0.4250  0.2659
 6829SOL    HW131949   1.721   2.760  12.939  1.5831  1.3935  0.7805
 6829SOL    HW231950   1.659   2.657  13.004 -1.3862  1.1434  0.4725
 6830SOL     OW31951   0.759   2.849  10.616 -0.8443 -0.1862  0.0355
 6830SOL    HW131952   0.706   2.883  10.544 -0.8269 -1.0457 -0.3750
 6830SOL    HW231953   0.712   2.899  10.683  0.1433 -0.1323  0.6730
 6831SOL     OW31954   0.450   3.222  14.374 -0.1047  0.6735  0.3654
 6831SOL    HW131955   0.428   3.137  14.337 -2.6356  2.4332 -2.2313
 6831SOL    HW231956   0.531   3.234  14.325 -0.7041  2.5254 -0.1741
 6832SOL     OW31957   3.851   1.125   9.508  0.2927  0.2518  0.0295
 6832SOL    HW131958   3.901   1.073   9.571  0.6308 -1.6106 -1.7828
 6832SOL    HW231959   3.781   1.161   9.563 -1.0013 -1.6119 -0.3994
 6833SOL     OW31960   2.001   0.521  10.287  0.2074  0.5141  0.3011
 6833SOL    HW131961   2.022   0.430  10.307 -0.6546  0.2580  0.0669
 6833SOL    HW231962   2.081   0.569  10.310  0.8020  0.3109 -1.3383
 6834SOL     OW31963   1.751   0.123   4.464  0.0378 -0.6223  0.0264
 6834SOL    HW131964   1.717   0.211   4.448 -1.4836 -1.4010 -1.0268
 6834SOL    HW231965   1.718   0.104   4.551 -0.1832  1.0933  0.3059
 6835SOL     OW31966   3.888   3.482  10.878  0.3638 -0.1962 -0.1367
 6835SOL    HW131967   3.894   3.556  10.818  3.1439  1.1901  1.8459
 6835SOL    HW231968   3.923   3.523  10.958  0.1449 -0.9492  0.3459
 6836SOL     OW31969   1.730   0.733   5.444 -1.0619  0.0335  0.3082
 6836SOL    HW131970   1.742   0.653   5.393 -0.4348 -0.4379  1.2069
 6836SOL    HW231971   1.639   0.746   5.415 -0.6762  0.7582 -0.5745
 6837SOL     OW31972   0.141   4.201   0.012 -0.2565  0.2864  0.0115
 6837SOL    HW131973   0.087   4.206  17.632  1.7377 -1.7617 -1.4688
 6837SOL    HW231974   0.180   4.113   0.007 -0.0835  0.4666 -2.1904
 6838SOL     OW31975   2.090   4.476   4.412  0.0012 -0.3788 -0.1101
 6838SOL    HW131976   2.123   4.386   4.418 -0.9281 -0.7390 -0.5069
 6838SOL    HW231977   2.117   4.499   4.323 -1.7027  1.4329 -0.1441
 6839SOL     OW31978   1.597   0.874   2.060 -0.7594  0.2307 -0.0639
 6839SOL    HW131979   1.555   0.921   2.132  0.6317 -0.6470  1.3227
 6839SOL    HW231980   1.687   0.907   2.060 -1.0517  1.0202  0.0796
 6840SOL     OW31981   0.661   0.100   4.465  0.2120 -0.0505 -0.3392
 6840SOL    HW131982   0.628   0.026   4.413 -0.1846  0.2728 -0.5506
 6840SOL    HW231983   0.663   0.057   4.550  1.1163 -1.6605 -1.1749
 6841SOL     OW31984   1.086   4.259   8.866  0.0742 -0.1154 -0.1422
 6841SOL    HW131985   1.130   4.302   8.940 -0.8213  1.9236 -0.7807
 6841SOL    HW231986   1.078   4.170   8.900  1.4432 -0.2457 -0.1552
 6842SOL     OW31987   0.713   4.052   0.012 -0.4098  0.5870 -0.0676
 6842SOL    HW131988   0.731   4.013   0.097 -2.0864  1.5467  0.7151
 6842SOL    HW231989   0.756   3.990  17.652 -0.9260  0.0414  0.1254
 6843SOL     OW31990   2.818   0.334  16.071  0.0499 -0.1150 -0.1586
 6843SOL    HW131991   2.736   0.375  16.043 -0.2003 -0.5325 -0.0281
 6843SOL    HW231992   2.796   0.259  16.126  0.0962 -0.6283 -0.8497
 6844SOL     OW31993   4.075   1.262   7.596 -0.0029 -0.6966  0.1791
 6844SOL    HW131994   4.062   1.167   7.604 -0.4591 -0.7081 -0.6804
 6844SOL    HW231995   4.167   1.264   7.623 -0.1781  0.2982  0.7020
 6845SOL     OW31996   3.826   0.160   1.126 -0.0418 -0.2647  0.0970
 6845SOL    HW131997   3.850   0.225   1.192 -0.1585  0.0879 -0.2056
 6845SOL    HW231998   3.766   0.111   1.183  1.5572 -0.4968  1.5878
 6846SOL     OW31999   2.047   0.682   8.915 -0.3696  0.0914  0.1034
 6846SOL    HW132000   2.045   0.636   8.999 -1.4055  0.3788  0.2458
 6846SOL    HW232001   1.973   0.641   8.869  0.2742 -0.8836 -0.0630
 6847SOL     OW32002   2.464   4.235   2.812  0.1382  0.0188 -0.0457
 6847SOL    HW132003   2.472   4.219   2.907  0.2707 -2.6545 -0.4951
 6847SOL    HW232004   2.463   4.330   2.812 -2.4848 -0.0107  1.3472
 6848SOL     OW32005   4.503   0.037  16.919 -0.2883  0.5472  0.3428
 6848SOL    HW132006   4.462   0.006  16.838  1.2248  0.4548 -0.3886
 6848SOL    HW232007   4.426   0.069  16.966 -2.6215  0.6832 -3.6205
 6849SOL     OW32008   3.992   1.623   2.375 -0.0935  0.3140  0.0123
 6849SOL    HW132009   3.998   1.635   2.280 -0.1108 -1.1163 -0.1658
 6849SOL    HW232010   3.988   1.528   2.383  1.5888  0.3749  1.6373
 6850SOL     OW32011   1.708   0.012   5.945  0.2450  0.1999  0.5703
 6850SOL    HW132012   1.778   0.002   6.010  2.2542 -1.6124 -1.9084
 6850SOL    HW232013   1.640   0.053   6.000 -0.1949 -1.1414  1.0125
 6851SOL     OW32014   2.387   1.832   8.126 -0.4709 -0.4527 -0.1297
 6851SOL    HW132015   2.295   1.838   8.101 -1.5235 -0.2104  3.7199
 6851SOL    HW232016   2.429   1.773   8.064  0.3514  0.3874 -0.3723
 6852SOL     OW32017   0.024   2.218   2.357 -0.5357 -0.5335  0.1050
 6852SOL    HW132018   4.707   2.256   2.280 -0.6168  0.2365  0.5223
 6852SOL    HW232019   0.060   2.137   2.323 -1.3322 -1.5759  1.7276
 6853SOL     OW32020   2.061   2.782  12.311  0.0618 -0.2128 -0.0098
 6853SOL    HW132021   2.146   2.817  12.285  0.7476  0.0982  2.6905
 6853SOL    HW232022   2.013   2.804  12.231  3.1481 -0.1467 -1.8392
 6854SOL     OW32023   1.705   4.178   5.429 -0.4110  0.3224  0.9567
 6854SOL    HW132024   1.797   4.203   5.435 -0.5106  0.4735  1.7966
 6854SOL    HW232025   1.704   4.101   5.487  1.2292 -0.9805 -0.7390
 6855SOL     OW32026   1.031   0.727   8.590 -0.3056 -0.2008 -0.0303
 6855SOL    HW132027   1.083   0.787   8.536  0.7191 -1.5254 -0.5279
 6855SOL    HW232028   1.050   0.760   8.678  0.5577  1.1220 -0.7010
 6856SOL     OW32029   2.746   1.525   4.247  1.0781 -0.0998 -0.4234
 6856SOL    HW132030   2.728   1.436   4.214  0.3283  0.1635 -0.7309
 6856SOL    HW232031   2.656   1.555   4.258  0.7333 -0.9750 -0.8607
 6857SOL     OW32032   2.820   1.309   1.902 -0.5302 -0.3747 -0.5217
 6857SOL    HW132033   2.885   1.292   1.834  0.7356  0.9315  0.3615
 6857SOL    HW232034   2.742   1.278   1.856 -0.1860  0.7867 -1.8586
 6858SOL     OW32035   2.489   2.652  15.082 -0.4782 -0.1765  0.4372
 6858SOL    HW132036   2.490   2.568  15.128  2.0295  0.2889  1.2425
 6858SOL    HW232037   2.403   2.638  15.042 -0.8167 -0.5932  1.3211
 6859SOL     OW32038   2.896   3.989   4.561  0.0746  0.1781  0.3052
 6859SOL    HW132039   2.912   3.975   4.654  1.0732 -0.5974  0.0188
 6859SOL    HW232040   2.943   4.072   4.550 -0.8348  0.2777 -2.7960
 6860SOL     OW32041   3.125   1.121   1.965  0.1334 -0.7354 -0.6077
 6860SOL    HW132042   3.100   1.147   1.876 -0.5022 -0.1800 -0.2612
 6860SOL    HW232043   3.177   1.043   1.946  0.0399 -1.1934  1.0112
 6861SOL     OW32044   2.801   4.611   6.440 -0.1687  0.3161  0.1382
 6861SOL    HW132045   2.780   4.544   6.504 -1.5828 -0.2261 -0.8744
 6861SOL    HW232046   2.841   4.675   6.499 -0.1669  0.8406 -0.4305
 6862SOL     OW32047   1.528   2.098  15.440 -0.2564  0.3781  0.5146
 6862SOL    HW132048   1.583   2.113  15.364 -0.5295 -2.4814 -0.2362
 6862SOL    HW232049   1.466   2.029  15.416 -0.2150 -0.0068  1.4939
 6863SOL     OW32050   1.151   3.213   3.584  0.1720  0.1193  0.6536
 6863SOL    HW132051   1.092   3.284   3.610  2.2421  0.3715  4.7735
 6863SOL    HW232052   1.220   3.261   3.538  0.3518  0.9412  1.7784
 6864SOL     OW32053   0.235   3.986   4.563  0.2363 -0.5043 -0.1764
 6864SOL    HW132054   0.252   3.958   4.652  2.5003  0.3283 -0.3558
 6864SOL    HW232055   0.169   3.929   4.524 -0.1825 -0.7999  0.9985
 6865SOL     OW32056   3.848   3.877   8.354 -0.0022 -0.0401 -0.0150
 6865SOL    HW132057   3.811   3.965   8.348 -0.2688 -0.2308 -1.1883
 6865SOL    HW232058   3.878   3.862   8.264  2.4072  0.1919  0.7470
 6866SOL     OW32059   2.916   0.663   1.909 -0.1748  0.4377 -0.5491
 6866SOL    HW132060   2.857   0.589   1.924  0.4319  0.4009  1.6347
 6866SOL    HW232061   3.000   0.639   1.947  0.2362  1.0914 -1.0508
 6867SOL     OW32062   4.602   1.451   2.015 -0.6234 -0.2033  0.1868
 6867SOL    HW132063   4.634   1.362   1.999 -1.3743 -0.7801  1.8559
 6867SOL    HW232064   4.537   1.448   1.945  1.7624  1.3809 -2.0557
 6868SOL     OW32065   4.003   1.713  13.522  0.0762  0.2052  0.1470
 6868SOL    HW132066   3.972   1.623  13.508  2.6544 -0.4985 -1.0008
 6868SOL    HW232067   4.090   1.692  13.489 -0.4912 -1.2895 -0.4142
 6869SOL     OW32068   3.291   3.300   6.266 -0.3794 -0.4867 -0.4532
 6869SOL    HW132069   3.312   3.315   6.358 -0.5457  1.5136 -0.7355
 6869SOL    HW232070   3.195   3.298   6.263 -0.4660  2.9778  0.0178
 6870SOL     OW32071   2.415   3.338  15.068 -0.0275  0.1606 -0.0571
 6870SOL    HW132072   2.330   3.341  15.111 -0.1322  1.2637 -0.3564
 6870SOL    HW232073   2.473   3.278  15.114 -0.1036 -0.7967 -1.1906
 6871SOL     OW32074   1.530   2.226   8.311  0.2674 -0.2683  0.2790
 6871SOL    HW132075   1.593   2.236   8.383  1.3144  2.9357 -1.0693
 6871SOL    HW232076   1.463   2.284   8.348  0.4722  0.8391 -1.1073
 6872SOL     OW32077   1.794   1.199   3.975  0.1894 -0.1747 -0.1252
 6872SOL    HW132078   1.866   1.140   3.999  0.5793  0.4938  0.3395
 6872SOL    HW232079   1.737   1.154   4.038  1.2541  2.6334  2.8414
 6873SOL     OW32080   1.155   2.640   5.104  0.0664  0.2362 -0.6513
 6873SOL    HW132081   1.092   2.618   5.036 -1.5406 -0.8194  1.1689
 6873SOL    HW232082   1.149   2.733   5.083  2.3849  0.4686 -0.2984
 6874SOL     OW32083   0.405   1.577  17.276  0.5406 -0.4869 -0.3176
 6874SOL    HW132084   0.415   1.498  17.223  2.0526 -1.6518  1.7139
 6874SOL    HW232085   0.446   1.567  17.362 -0.8752 -0.6300  0.3401
 6875SOL     OW32086   4.319   4.599   7.094  0.2410  0.4605 -0.5023
 6875SOL    HW132087   4.392   4.538   7.086 -0.2417 -0.1199 -0.5007
 6875SOL    HW232088   4.248   4.542   7.063  2.0326 -0.6114 -2.5988
 6876SOL     OW32089   2.966   3.877   6.324 -0.2362  0.4126  0.2865
 6876SOL    HW132090   2.976   3.971   6.307  3.0329  0.7039  3.9988
 6876SOL    HW232091   3.056   3.848   6.336 -0.6135 -0.7605  0.2633
 6877SOL     OW32092   3.221   0.868   7.440  0.7288  0.4327  0.2838
 6877SOL    HW132093   3.234   0.941   7.379  1.4029  0.6780  0.7107
 6877SOL    HW232094   3.296   0.887   7.498  0.7960 -2.3500  1.0825
 6878SOL     OW32095   0.736   3.574  15.344 -0.3806 -0.0499  0.1062
 6878SOL    HW132096   0.728   3.493  15.294  0.6944  0.2797 -0.6020
 6878SOL    HW232097   0.648   3.610  15.354 -0.0751  0.7838 -0.1308
 6879SOL     OW32098   2.253   2.547   6.864  0.2445 -0.5566 -0.1427
 6879SOL    HW132099   2.229   2.458   6.890 -1.3151  0.7294  2.8455
 6879SOL    HW232100   2.347   2.537   6.849 -0.0701 -1.2992 -1.6210
 6880SOL     OW32101   2.964   1.308   5.561 -0.0075 -0.1248 -0.2083
 6880SOL    HW132102   2.877   1.303   5.521 -0.6626 -0.4344  1.2495
 6880SOL    HW232103   3.022   1.293   5.486 -2.2138 -0.5499 -1.8271
 6881SOL     OW32104   0.069   2.219   0.297  0.6983  0.7215  0.1773
 6881SOL    HW132105   0.101   2.129   0.294 -1.4222 -0.0354  0.0367
 6881SOL    HW232106   0.031   2.240   0.212 -0.9914 -2.8322  0.0315
 6882SOL     OW32107   3.397   1.669   6.749  0.5547 -0.0252 -0.0069
 6882SOL    HW132108   3.492   1.660   6.737  0.3228 -1.9615 -0.4719
 6882SOL    HW232109   3.382   1.616   6.827  0.0703  2.9127  1.8801
 6883SOL     OW32110   2.920   2.589   9.975  0.2019  0.1995 -0.7003
 6883SOL    HW132111   2.929   2.619   9.884  2.6755 -1.0161 -0.8357
 6883SOL    HW232112   2.849   2.651   9.995  1.0856  2.0446 -3.3152
 6884SOL     OW32113   3.585   2.963  16.728 -0.0869 -0.3999 -0.2956
 6884SOL    HW132114   3.569   2.919  16.645  2.1603 -1.8428  0.0570
 6884SOL    HW232115   3.505   2.932  16.771 -0.7445  0.8372 -0.6107
 6885SOL     OW32116   3.908   3.829  11.209 -0.3985  0.1111 -0.4334
 6885SOL    HW132117   3.984   3.770  11.208 -1.8449 -1.7828  0.8306
 6885SOL    HW232118   3.933   3.905  11.157 -0.7695  0.3462 -0.2652
 6886SOL     OW32119   4.036   2.384   1.366 -0.0757 -1.1518  0.2852
 6886SOL    HW132120   4.082   2.440   1.303 -2.0672 -1.8518 -1.7798
 6886SOL    HW232121   4.103   2.395   1.433  0.3216  1.4163 -0.5136
 6887SOL     OW32122   2.857   0.427   6.535  0.1268  0.2580 -0.0340
 6887SOL    HW132123   2.846   0.399   6.444  0.0883  0.2482 -0.0263
 6887SOL    HW232124   2.775   0.395   6.572  0.3490 -1.0286 -0.6532
 6888SOL     OW32125   1.831   1.899   7.783  0.0314 -0.0413 -0.4216
 6888SOL    HW132126   1.836   1.849   7.702  0.2923 -0.9420  0.1489
 6888SOL    HW232127   1.741   1.924   7.760  0.6238  0.4940 -2.1460
 6889SOL     OW32128   2.776   4.646   0.811 -0.3263 -0.3943  0.0276
 6889SOL    HW132129   2.777   4.644   0.715  2.5675  0.6553  0.0403
 6889SOL    HW232130   2.708   4.712   0.820 -1.4680 -1.4239 -0.9356
 6890SOL     OW32131   1.207   2.817   3.345  0.3872  0.2606 -0.2153
 6890SOL    HW132132   1.261   2.772   3.410  0.8537  1.7213  0.4229
 6890SOL    HW232133   1.142   2.870   3.391  1.6237  3.1346 -1.7641
 6891SOL     OW32134   4.584   3.636   2.927 -0.5125  0.0798  0.7497
 6891SOL    HW132135   4.594   3.588   2.845 -0.4059 -0.1518  0.8973
 6891SOL    HW232136   4.622   3.721   2.902 -2.0193  0.1952 -1.1389
 6892SOL     OW32137   3.312   4.091   8.566  0.3882  0.0548  0.3153
 6892SOL    HW132138   3.278   4.010   8.603  0.3841  0.0543  0.3104
 6892SOL    HW232139   3.237   4.114   8.511 -0.0128 -0.9060  0.4699
 6893SOL     OW32140   0.444   0.998   2.075 -0.3056  0.2067  0.5872
 6893SOL    HW132141   0.435   1.014   1.981  1.1362  2.2122  0.7747
 6893SOL    HW232142   0.399   1.077   2.107 -1.3820 -0.3301  0.3816
 6894SOL     OW32143   3.377   2.721   1.169 -0.1984  0.1046  0.0313
 6894SOL    HW132144   3.412   2.730   1.258 -0.6617 -0.4785  0.2766
 6894SOL    HW232145   3.310   2.789   1.173 -1.9310 -1.6497  0.9597
 6895SOL     OW32146   2.395   3.440   6.196  0.3868  0.3959 -0.2329
 6895SOL    HW132147   2.400   3.354   6.240  1.5024  1.0556  0.9628
 6895SOL    HW232148   2.443   3.435   6.113  0.0086 -0.7399 -0.3894
 6896SOL     OW32149   0.445   0.261  16.019 -0.4971 -0.0735  0.3819
 6896SOL    HW132150   0.427   0.183  16.072  0.6187 -0.3490  0.3625
 6896SOL    HW232151   0.379   0.258  15.949 -1.7554 -0.1907  1.5889
 6897SOL     OW32152   3.526   1.860   5.558  0.2315  0.0267 -0.4633
 6897SOL    HW132153   3.473   1.921   5.609 -0.3251  0.0192 -1.0318
 6897SOL    HW232154   3.515   1.771   5.590 -1.3890  0.5302  0.3669
 6898SOL     OW32155   0.997   2.432   4.303  0.2664 -0.5293 -0.1707
 6898SOL    HW132156   1.074   2.487   4.299  1.3610 -2.2352 -2.7422
 6898SOL    HW232157   0.958   2.446   4.217 -0.7976 -1.6466  0.1277
 6899SOL     OW32158   1.627   3.136   7.705  0.7197  0.1191  0.2499
 6899SOL    HW132159   1.679   3.076   7.650  0.0747 -0.9567  0.8137
 6899SOL    HW232160   1.653   3.217   7.662  0.5296  0.7222  1.2924
 6900SOL     OW32161   3.329   2.115   9.951  0.1075 -0.2205  0.0209
 6900SOL    HW132162   3.254   2.162   9.914 -0.9129 -0.2198  2.0902
 6900SOL    HW232163   3.386   2.186   9.981 -0.2975 -0.0589  0.3963
 6901SOL     OW32164   2.196   1.294  11.944 -0.1737  0.2714 -0.0906
 6901SOL    HW132165   2.184   1.230  11.874  0.1767 -0.0275  0.1244
 6901SOL    HW232166   2.146   1.255  12.016  0.6205 -0.7308 -0.0917
 6902SOL     OW32167   4.130   4.288   9.127 -0.1357 -0.1237  0.2897
 6902SOL    HW132168   4.082   4.369   9.111  0.3038  0.0969  0.0801
 6902SOL    HW232169   4.134   4.302   9.221 -0.3872 -0.4297  0.3441
 6903SOL     OW32170   1.875   0.666  12.984  0.2370 -0.6538 -0.0349
 6903SOL    HW132171   1.880   0.571  12.995  2.5872 -0.3355  1.8192
 6903SOL    HW232172   1.821   0.674  12.906  0.6611  0.3184 -0.2261
 6904SOL     OW32173   3.453   0.748  12.691 -1.2922 -0.5830  0.4414
 6904SOL    HW132174   3.460   0.655  12.669 -0.8406 -0.5805  0.5679
 6904SOL    HW232175   3.545   0.775  12.686 -2.0624  1.5618 -2.2554
 6905SOL     OW32176   3.139   1.653  11.375  0.2359 -0.0512 -0.5588
 6905SOL    HW132177   3.104   1.616  11.457 -0.8566 -2.5813 -2.1701
 6905SOL    HW232178   3.115   1.745  11.388 -0.8000 -0.0914 -2.3005
 6906SOL     OW32179   1.794   0.223   8.343 -0.3033  0.6513 -0.3405
 6906SOL    HW132180   1.808   0.235   8.249  0.5121 -1.3250 -0.4730
 6906SOL    HW232181   1.857   0.152   8.356  1.3775  2.0780 -0.6658
 6907SOL     OW32182   4.041   0.873  10.084  0.3142 -0.5458 -0.4038
 6907SOL    HW132183   3.984   0.815  10.033 -1.7087  2.1485 -1.2077
 6907SOL    HW232184   4.106   0.906  10.023 -1.2726  0.0672 -1.7715
 6908SOL     OW32185   2.732   2.985  11.020  0.7170  0.1180  0.5289
 6908SOL    HW132186   2.799   3.034  10.972  0.3905 -0.8713 -0.9628
 6908SOL    HW232187   2.684   3.054  11.066 -3.2775 -0.1298 -3.2704
 6909SOL     OW32188   3.665   0.814   1.556 -0.1217  0.3612 -0.6261
 6909SOL    HW132189   3.750   0.828   1.599 -1.5534  1.5194  1.8405
 6909SOL    HW232190   3.605   0.814   1.630 -0.7668  1.0952 -1.1550
 6910SOL     OW32191   3.121   0.897   9.034 -0.0981  0.2177  0.2572
 6910SOL    HW132192   3.161   0.907   9.121  0.6272 -0.8144  0.0468
 6910SOL    HW232193   3.145   0.980   8.992  0.5337  0.2668  0.7099
 6911SOL     OW32194   0.204   3.292  16.991 -0.4765  0.1981 -0.2104
 6911SOL    HW132195   0.290   3.302  16.951 -0.5572  1.5021 -0.0544
 6911SOL    HW232196   0.146   3.258  16.922 -0.3788  0.0864 -0.2384
 6912SOL     OW32197   2.673   3.849   7.843 -0.0561 -0.0897 -0.5808
 6912SOL    HW132198   2.707   3.775   7.895 -2.0613 -1.0660 -0.6882
 6912SOL    HW232199   2.684   3.815   7.755  0.4066 -2.8452  0.5317
 6913SOL     OW32200   1.186   0.734   4.021  0.3890 -0.6818 -0.5156
 6913SOL    HW132201   1.122   0.756   3.953  2.5698  1.3945 -1.8994
 6913SOL    HW232202   1.165   0.642   4.036 -0.7183 -0.0009  2.1686
 6914SOL     OW32203   0.863   3.503   4.237  0.0855  0.7895  0.7778
 6914SOL    HW132204   0.803   3.479   4.308 -1.1603 -0.2288 -0.6137
 6914SOL    HW232205   0.860   3.599   4.234  1.3943  0.8217  0.6159
 6915SOL     OW32206   0.678   0.471   6.057  0.3240 -0.1956  0.5223
 6915SOL    HW132207   0.663   0.434   5.970 -0.9001 -0.4821  0.8564
 6915SOL    HW232208   0.669   0.562   6.029  0.9012 -1.1355 -2.6556
 6916SOL     OW32209   1.632   3.143   8.762  0.1603 -0.4008 -0.2495
 6916SOL    HW132210   1.554   3.169   8.810  0.8019 -1.5557  1.4210
 6916SOL    HW232211   1.630   3.048   8.772  0.0190 -0.3483  0.2009
 6917SOL     OW32212   1.914   4.498   8.337 -0.0961  0.0364  0.2437
 6917SOL    HW132213   1.961   4.580   8.327 -0.6081  0.1236 -1.4810
 6917SOL    HW232214   1.838   4.502   8.279  0.3254 -1.6089 -0.4295
 6918SOL     OW32215   1.530   3.111  17.355 -0.3153 -0.0395 -0.8622
 6918SOL    HW132216   1.614   3.151  17.335  0.3771 -1.1456 -0.1853
 6918SOL    HW232217   1.471   3.164  17.300 -0.6276  1.1422  0.5992
 6919SOL     OW32218   4.090   0.094   7.433  0.0241  0.4579 -0.1668
 6919SOL    HW132219   4.122   0.106   7.522  0.8039  1.0243 -0.5225
 6919SOL    HW232220   3.997   0.115   7.442 -0.4278 -2.0242  0.8986
 6920SOL     OW32221   0.526   1.143   4.700  0.0208 -0.5853  0.1085
 6920SOL    HW132222   0.608   1.133   4.747  1.0041 -0.9062 -1.6788
 6920SOL    HW232223   0.487   1.056   4.694  0.3350 -0.9188  2.8735
 6921SOL     OW32224   2.080   4.568  10.901  0.2047  0.2393 -0.2519
 6921SOL    HW132225   2.021   4.643  10.891  1.2920  1.1655  0.3204
 6921SOL    HW232226   2.148   4.616  10.949 -0.1523  2.1632 -1.6905
 6922SOL     OW32227   2.257   1.049   4.638 -0.0912 -0.1901 -0.0016
 6922SOL    HW132228   2.198   1.099   4.581  0.1714  0.6424  0.4578
 6922SOL    HW232229   2.204   0.970   4.649  0.7924 -0.6236  1.0907
 6923SOL     OW32230   1.474   1.669   7.893  0.3559 -0.3403  0.3598
 6923SOL    HW132231   1.418   1.681   7.816  0.2581  0.5688  0.5773
 6923SOL    HW232232   1.507   1.759   7.900  0.2941 -0.4483  1.8753
 6924SOL     OW32233   3.590   1.244   6.650 -0.5065  0.1537 -0.1538
 6924SOL    HW132234   3.582   1.340   6.653  0.4325  0.2756 -1.8164
 6924SOL    HW232235   3.623   1.230   6.739  0.2945  0.5059 -0.3973
 6925SOL     OW32236   4.705   1.998  13.713 -0.1640  0.2709  0.1565
 6925SOL    HW132237   0.010   2.044  13.791 -3.3270  0.4310  1.2494
 6925SOL    HW232238   0.065   1.974  13.676  0.3081  0.4781  1.1184
 6926SOL     OW32239   3.293   0.752   3.750 -0.2072 -0.0094  0.8077
 6926SOL    HW132240   3.286   0.844   3.773  1.5809  0.2647  0.2803
 6926SOL    HW232241   3.373   0.758   3.697  0.5109 -0.7902  1.7853
 6927SOL     OW32242   4.173   4.320  14.390  0.0327 -0.3138 -0.3972
 6927SOL    HW132243   4.141   4.318  14.300 -0.3524 -2.1261 -0.2076
 6927SOL    HW232244   4.088   4.329  14.432  0.3633  1.0416 -0.0178
 6928SOL     OW32245   0.408   2.957   1.642 -0.4944 -0.0539  0.0349
 6928SOL    HW132246   0.495   2.996   1.651 -0.0781 -0.8183 -0.6054
 6928SOL    HW232247   0.355   3.037   1.643 -0.8740 -0.2899 -1.1729
 6929SOL     OW32248   2.857   1.608   7.381 -0.1002  0.1677  0.0908
 6929SOL    HW132249   2.804   1.558   7.320 -0.6505  0.0680  0.6523
 6929SOL    HW232250   2.807   1.620   7.462  0.0253 -0.4109  0.2581
 6930SOL     OW32251   4.400   1.492   4.171  0.5730 -0.3096 -0.2600
 6930SOL    HW132252   4.450   1.412   4.152  0.0703 -0.3999 -1.1869
 6930SOL    HW232253   4.439   1.557   4.113  1.7298 -0.4722  0.3328
 6931SOL     OW32254   0.391   2.353  10.485 -0.2666  0.5365  0.1655
 6931SOL    HW132255   0.304   2.387  10.506 -0.5758  0.1370 -0.4648
 6931SOL    HW232256   0.398   2.285  10.552 -0.3385 -0.7554 -1.1383
 6932SOL     OW32257   0.447   0.923   1.301  0.1226  0.2855  0.8091
 6932SOL    HW132258   0.510   0.856   1.273 -0.7163 -0.3794  0.4870
 6932SOL    HW232259   0.442   0.987   1.230  2.3897 -0.3047  0.1093
 6933SOL     OW32260   3.489   0.674   5.144 -0.5146 -0.6191  0.4381
 6933SOL    HW132261   3.488   0.583   5.174  1.2210 -0.1855  1.8110
 6933SOL    HW232262   3.402   0.683   5.107 -0.2226  1.6397  0.2870
 6934SOL     OW32263   1.164   1.651   0.759 -0.1513  0.4329 -0.4579
 6934SOL    HW132264   1.145   1.570   0.711  0.1805  0.4081 -0.5483
 6934SOL    HW232265   1.241   1.624   0.810 -0.2716  0.5285 -0.2245
 6935SOL     OW32266   0.268   2.491   2.641 -0.1912  0.1280 -0.2125
 6935SOL    HW132267   0.207   2.422   2.613 -0.7583  0.8215 -0.6797
 6935SOL    HW232268   0.334   2.491   2.572  0.8393 -0.5121  0.7641
 6936SOL     OW32269   4.688   0.614   2.831 -0.3572  0.2343 -0.5776
 6936SOL    HW132270   4.639   0.536   2.857  1.7996 -1.1998 -0.8865
 6936SOL    HW232271   0.028   0.581   2.770  1.3200  1.0502  0.7525
 6937SOL     OW32272   4.319   3.268   7.910  1.0171  0.5856  0.7977
 6937SOL    HW132273   4.376   3.338   7.942  0.2511 -0.0284  3.5349
 6937SOL    HW232274   4.381   3.196   7.908  4.3557  3.5055 -0.6472
 6938SOL     OW32275   1.140   4.688   6.893  0.1701  0.2252 -0.2474
 6938SOL    HW132276   1.099   4.668   6.808 -0.8191  1.2902 -0.0142
 6938SOL    HW232277   1.189   4.607   6.908  2.2155  1.3502 -0.9768
 6939SOL     OW32278   4.554   3.105   3.297 -0.0493 -0.1367 -0.0980
 6939SOL    HW132279   4.575   3.034   3.358  2.3311 -2.5847 -3.7984
 6939SOL    HW232280   4.501   3.060   3.231  0.4791  1.2321 -1.4432
 6940SOL     OW32281   0.851   1.763   8.786 -0.2499 -0.3926 -0.3807
 6940SOL    HW132282   0.827   1.850   8.820  1.4605 -0.8414  1.8862
 6940SOL    HW232283   0.946   1.761   8.788 -0.3136 -0.0352  2.5957
 6941SOL     OW32284   0.268   1.303   8.077 -0.3182 -0.0268 -0.6830
 6941SOL    HW132285   0.303   1.385   8.111 -0.8790  0.0072 -0.1729
 6941SOL    HW232286   0.335   1.244   8.111 -0.0685  1.2886  1.1102
 6942SOL     OW32287   0.194   2.607   8.168 -0.6399  0.3424 -0.1068
 6942SOL    HW132288   0.271   2.572   8.122  1.1243  2.2902  1.3865
 6942SOL    HW232289   0.243   2.682   8.202 -0.6300 -0.0703  0.7834
 6943SOL     OW32290   2.322   0.948   3.079  0.1881 -0.5558 -0.3081
 6943SOL    HW132291   2.367   0.910   3.004  1.7869  2.0978 -0.7139
 6943SOL    HW232292   2.396   0.974   3.135  0.6681 -2.3544 -0.1178
 6944SOL     OW32293   1.736   2.046  15.647  0.1265 -0.2594 -0.6885
 6944SOL    HW132294   1.668   2.082  15.590 -0.5193 -0.0894  0.1870
 6944SOL    HW232295   1.700   1.959  15.661  1.5649 -0.4051  2.1442
 6945SOL     OW32296   0.288   0.221   3.475  0.5867 -0.4775 -0.4338
 6945SOL    HW132297   0.371   0.260   3.448 -0.1478  1.2178 -0.2354
 6945SOL    HW232298   0.254   0.288   3.534 -0.7703 -0.1671 -1.5520
 6946SOL     OW32299   0.331   4.272  15.476 -0.6865  0.7040  0.0507
 6946SOL    HW132300   0.293   4.257  15.390  1.8145 -0.2409 -0.8992
 6946SOL    HW232301   0.257   4.305  15.528 -2.9871 -0.4683 -2.5029
 6947SOL     OW32302   4.119   1.544  17.563  0.5385 -0.3170  0.1305
 6947SOL    HW132303   4.035   1.559  17.519  1.3229  0.9327 -0.9489
 6947SOL    HW232304   4.169   1.524  17.484  1.1944  0.9244  0.2373
 6948SOL     OW32305   4.623   3.413   4.895  0.0908  0.6923 -0.4284
 6948SOL    HW132306   4.596   3.331   4.937 -2.6782  1.6857 -0.3192
 6948SOL    HW232307   4.711   3.419   4.933  1.2440 -1.6598 -2.7217
 6949SOL     OW32308   2.998   3.205   9.481 -0.5122 -0.2373 -0.3089
 6949SOL    HW132309   2.976   3.244   9.565  0.0004 -0.7878  0.0822
 6949SOL    HW232310   3.004   3.113   9.506 -1.1991 -0.3814 -0.6847
 6950SOL     OW32311   0.476   0.295   2.932  0.1428 -0.0511 -0.2138
 6950SOL    HW132312   0.504   0.260   2.848  3.8945 -1.9711  1.8310
 6950SOL    HW232313   0.408   0.357   2.906 -2.3219 -1.6098  2.5911
 6951SOL     OW32314   1.451   2.350   5.671  0.6385  0.0339  0.0170
 6951SOL    HW132315   1.528   2.402   5.694  1.9008 -1.5685 -0.6191
 6951SOL    HW232316   1.438   2.317   5.760 -0.2793  1.9960  0.5929
 6952SOL     OW32317   2.338   4.592   0.088 -0.2197 -0.1128  0.3359
 6952SOL    HW132318   2.356   4.513   0.037 -1.1007  0.3113 -0.6136
 6952SOL    HW232319   2.380   4.568   0.171 -1.5002  1.8054  1.5218
 6953SOL     OW32320   0.161   3.754   2.655  0.0199  0.2897 -0.1428
 6953SOL    HW132321   0.163   3.686   2.723  0.0619  1.1423  0.7111
 6953SOL    HW232322   0.222   3.719   2.591  0.1715  0.3768 -0.0456
 6954SOL     OW32323   3.196   0.327   5.636 -0.0927 -0.1961 -0.1245
 6954SOL    HW132324   3.185   0.271   5.559 -3.0902  0.3001 -0.0510
 6954SOL    HW232325   3.125   0.310   5.698  0.7910 -0.4278  0.8314
 6955SOL     OW32326   2.662   3.306   0.990 -0.7955 -0.4472  0.0701
 6955SOL    HW132327   2.591   3.341   1.044  0.1783 -2.0421  2.3930
 6955SOL    HW232328   2.610   3.282   0.913  1.6877 -0.8196 -1.4753
 6956SOL     OW32329   0.662   1.846   9.016  0.1049  0.0406 -0.7892
 6956SOL    HW132330   0.699   1.855   9.104 -2.1641  0.5068  0.1275
 6956SOL    HW232331   0.570   1.866   9.033  0.8350  1.2876  1.6224
 6957SOL     OW32332   3.767   2.320   1.293  0.1274  0.5041 -0.1383
 6957SOL    HW132333   3.788   2.272   1.213  1.0605  2.5938 -1.1314
 6957SOL    HW232334   3.851   2.348   1.331 -1.0582  0.5003  2.5069
 6958SOL     OW32335   3.444   3.832   0.327  0.6030  0.7752  0.4803
 6958SOL    HW132336   3.507   3.761   0.344  0.1727  0.2064 -0.3046
 6958SOL    HW232337   3.466   3.887   0.403  2.5215 -0.7468  1.0473
 6959SOL     OW32338   3.415   0.515   5.920  0.3207  0.2577 -0.0944
 6959SOL    HW132339   3.432   0.464   6.000  1.8951 -0.8430 -1.1438
 6959SOL    HW232340   3.326   0.482   5.906  0.1321  0.9890 -0.6081
 6960SOL     OW32341   0.274   4.448   2.786  0.1973 -0.4269  0.6854
 6960SOL    HW132342   0.225   4.529   2.801 -0.4826 -0.3503 -1.8912
 6960SOL    HW232343   0.277   4.419   2.877 -1.2056 -1.7577  0.3094
 6961SOL     OW32344   1.673   4.651   2.868  0.5222  0.0624 -0.3130
 6961SOL    HW132345   1.587   4.674   2.903  1.4970  1.4535  1.1954
 6961SOL    HW232346   1.691   0.007   2.818  2.8200 -0.8983 -1.0183
 6962SOL     OW32347   3.683   4.196   6.686 -0.3553 -0.0128 -0.1362
 6962SOL    HW132348   3.755   4.166   6.629 -0.6846  0.0431 -0.5829
 6962SOL    HW232349   3.746   4.220   6.754 -1.5076 -0.5255  1.1041
 6963SOL     OW32350   2.100   3.626  11.704 -0.0517  0.1705  0.5374
 6963SOL    HW132351   2.099   3.703  11.647  1.7409 -0.7800 -0.7820
 6963SOL    HW232352   2.185   3.587  11.682 -0.2763  0.4038 -0.7502
 6964SOL     OW32353   0.678   2.443   1.321  0.7210 -0.0337  0.2147
 6964SOL    HW132354   0.673   2.536   1.302  0.1597 -0.1243 -0.1051
 6964SOL    HW232355   0.773   2.434   1.326  1.1539  2.0186 -3.8324
 6965SOL     OW32356   2.560   2.281   5.809 -0.6722 -0.3142  0.3698
 6965SOL    HW132357   2.652   2.261   5.827 -0.5093  0.3491  0.2534
 6965SOL    HW232358   2.551   2.232   5.727  0.2991  0.4027 -0.1566
 6966SOL     OW32359   2.437   1.990   3.383 -0.1538 -0.1462 -0.1169
 6966SOL    HW132360   2.351   1.958   3.358 -0.5622  0.4024  0.5744
 6966SOL    HW232361   2.472   1.911   3.425  0.7385  0.0366 -0.5202
 6967SOL     OW32362   0.240   2.737   5.342 -0.9345 -0.0834  0.3385
 6967SOL    HW132363   0.179   2.804   5.313 -1.1317 -0.0773  0.7610
 6967SOL    HW232364   0.282   2.720   5.258 -0.9817 -0.6800  0.4312
 6968SOL     OW32365   4.335   2.425  10.706  0.5455 -0.2722  0.1302
 6968SOL    HW132366   4.255   2.416  10.654  0.9010 -0.1139 -0.4497
 6968SOL    HW232367   4.360   2.514  10.681 -0.6337  0.4451  1.5750
 6969SOL     OW32368   3.716   2.893   0.542 -0.3609 -0.1285 -0.4525
 6969SOL    HW132369   3.749   2.877   0.631  0.7731 -0.5181 -0.9451
 6969SOL    HW232370   3.746   2.982   0.525 -0.8263 -0.4040 -2.6488
 6970SOL     OW32371   1.511   1.422   3.391 -0.1282  0.0903  0.6443
 6970SOL    HW132372   1.460   1.421   3.310  0.4202 -1.7213  0.3232
 6970SOL    HW232373   1.542   1.513   3.384  2.0003 -0.8495 -2.5393
 6971SOL     OW32374   2.748   0.162   5.879  0.0492 -0.4580 -0.1424
 6971SOL    HW132375   2.679   0.228   5.878  0.2659 -0.2013  2.1914
 6971SOL    HW232376   2.757   0.148   5.973 -2.3251 -0.3617  0.0961
 6972SOL     OW32377   4.477   3.823   5.637 -0.1446  0.0227  0.1120
 6972SOL    HW132378   4.427   3.870   5.704 -1.4237  0.2587 -0.9942
 6972SOL    HW232379   4.405   3.771   5.600  1.4052  0.8024 -4.0570
 6973SOL     OW32380   0.555   3.864   7.966  0.0870  0.4661  0.3554
 6973SOL    HW132381   0.557   3.826   7.878 -0.4007 -0.6149  0.8023
 6973SOL    HW232382   0.555   3.955   7.939 -0.0738  0.3238 -0.1168
 6974SOL     OW32383   4.015   2.051   4.907 -0.0500 -1.0402 -0.3619
 6974SOL    HW132384   4.111   2.059   4.913 -0.1495 -0.7927  0.7604
 6974SOL    HW232385   4.001   1.957   4.904  0.2863 -1.1605  2.1105
 6975SOL     OW32386   4.082   4.567   2.223 -0.1000  0.6236 -0.6561
 6975SOL    HW132387   4.168   4.542   2.191 -0.2454 -1.4804  0.5937
 6975SOL    HW232388   4.025   4.527   2.157 -0.0146  2.4814 -1.8522
 6976SOL     OW32389   3.231   2.817  12.925  0.2998  0.1417 -0.3545
 6976SOL    HW132390   3.151   2.865  12.902  1.0112  2.4510  1.9927
 6976SOL    HW232391   3.201   2.766  13.000  0.0562 -0.6480 -0.9724
 6977SOL     OW32392   0.181   4.368   9.871 -0.4170  0.3212 -0.6414
 6977SOL    HW132393   0.122   4.442   9.855 -0.4907  0.2027 -0.9256
 6977SOL    HW232394   0.190   4.386   9.965 -0.7318  0.1132 -0.5688
 6978SOL     OW32395   0.244   2.136  11.135  0.0617 -0.1108 -0.5991
 6978SOL    HW132396   0.161   2.092  11.154 -0.2867  1.9696  2.6884
 6978SOL    HW232397   0.285   2.167  11.216  0.2378  0.2979 -0.8463
 6979SOL     OW32398   0.280   3.223   3.113 -0.0902  0.1373  0.1540
 6979SOL    HW132399   0.287   3.289   3.182  0.7998  1.2826 -1.0483
 6979SOL    HW232400   0.227   3.158   3.160  0.9931 -1.5950 -0.9920
 6980SOL     OW32401   4.194   0.733   6.562 -0.4396 -0.9067 -0.3468
 6980SOL    HW132402   4.220   0.642   6.546 -0.1111 -0.5198 -1.9740
 6980SOL    HW232403   4.221   0.768   6.477 -0.6372 -1.6093 -0.6999
 6981SOL     OW32404   4.215   3.994   4.761 -0.2896  0.0489  0.3199
 6981SOL    HW132405   4.298   4.040   4.757 -0.2951 -0.1754 -2.1156
 6981SOL    HW232406   4.155   4.067   4.745 -0.9316 -0.6506 -0.4428
 6982SOL     OW32407   1.571   2.441   5.329  0.1224  0.3183  0.1972
 6982SOL    HW132408   1.516   2.475   5.258  0.0064 -3.8190 -1.6842
 6982SOL    HW232409   1.557   2.514   5.390  2.0008 -0.0071  1.0067
 6983SOL     OW32410   0.291   3.148  14.159 -0.4100  0.1681 -0.0965
 6983SOL    HW132411   0.320   3.060  14.185  0.1862  0.4539  0.2213
 6983SOL    HW232412   0.264   3.153  14.068  0.2394  0.2354 -0.2859
 6984SOL     OW32413   2.502   2.069   2.165  0.3982  0.2991 -0.2447
 6984SOL    HW132414   2.462   2.084   2.251 -1.4272  0.2250 -1.0728
 6984SOL    HW232415   2.514   2.162   2.146 -1.3167  0.2830 -1.4617
 6985SOL     OW32416   4.324   1.787  11.430 -0.5461  0.3907  0.0425
 6985SOL    HW132417   4.343   1.723  11.499 -4.3567  0.5184  1.2440
 6985SOL    HW232418   4.344   1.732  11.355  1.2304 -0.5731  1.2418
 6986SOL     OW32419   3.643   3.941   6.888 -0.0394  0.1340  0.6561
 6986SOL    HW132420   3.665   3.998   6.814  0.9400  1.8105  2.2591
 6986SOL    HW232421   3.718   3.882   6.893 -0.6532 -0.7747 -0.8110
 6987SOL     OW32422   4.333   0.271   6.989  0.0274  0.5224 -0.1585
 6987SOL    HW132423   4.366   0.345   7.039 -1.2313  1.2304 -0.3590
 6987SOL    HW232424   4.245   0.308   6.980  0.2091  1.6318  2.9315
 6988SOL     OW32425   1.826   3.079  13.837  0.1809 -0.1283  0.2032
 6988SOL    HW132426   1.858   3.170  13.840  0.5576 -0.2172 -1.1850
 6988SOL    HW232427   1.773   3.081  13.917  0.3687  0.3115  0.3197
 6989SOL     OW32428   3.368   4.723  10.889 -0.4545 -0.0967  0.2382
 6989SOL    HW132429   3.456   0.024  10.915  0.0128 -1.3145 -0.1649
 6989SOL    HW232430   3.327   4.694  10.970 -1.5516 -0.3280 -0.3903
 6990SOL     OW32431   0.293   2.802   1.130 -0.4090 -0.4822  0.3884
 6990SOL    HW132432   0.377   2.776   1.169 -0.7150 -0.5653  0.9931
 6990SOL    HW232433   0.320   2.853   1.054  1.8667 -1.9216  0.2134
 6991SOL     OW32434   0.646   3.033   5.832  0.0891  0.0970 -0.3303
 6991SOL    HW132435   0.592   3.112   5.839 -1.3059 -0.7047 -2.0622
 6991SOL    HW232436   0.597   2.958   5.864 -2.8462  2.3738  0.4892
 6992SOL     OW32437   3.410   2.097   5.623 -0.2786 -0.2236 -0.2807
 6992SOL    HW132438   3.428   2.182   5.583  0.1024 -0.3149 -0.2956
 6992SOL    HW232439   3.447   2.104   5.711  1.3087  0.7900 -1.0426
 6993SOL     OW32440   2.103   1.168   2.951  0.4030  0.2123 -0.0198
 6993SOL    HW132441   2.110   1.260   2.977  0.7502  0.0921  0.3109
 6993SOL    HW232442   2.145   1.179   2.866 -0.5300  0.1397 -0.4909
 6994SOL     OW32443   1.651   0.217   6.533  0.2705  0.1044 -0.1008
 6994SOL    HW132444   1.714   0.234   6.463 -0.5259  1.4636 -0.4905
 6994SOL    HW232445   1.710   0.239   6.605 -1.5136  1.2361  0.9989
 6995SOL     OW32446   0.857   0.552   2.977  0.2306 -0.3792  0.1812
 6995SOL    HW132447   0.937   0.545   3.028 -0.8026 -0.3951  1.8207
 6995SOL    HW232448   0.797   0.516   3.043  1.1730 -0.7286  0.8455
 6996SOL     OW32449   0.128   0.405   3.927  0.1315  0.2493 -0.4709
 6996SOL    HW132450   0.034   0.420   3.914  0.0054 -0.7050 -0.7049
 6996SOL    HW232451   0.131   0.339   3.997 -2.4991 -0.8105 -1.3343
 6997SOL     OW32452   2.010   4.038  17.116  0.0657  0.2537  0.0164
 6997SOL    HW132453   1.918   4.064  17.118  0.8153  2.8251 -0.1813
 6997SOL    HW232454   2.038   4.018  17.027 -1.2582 -2.6181  0.2390
 6998SOL     OW32455   3.446   2.954   2.261 -0.2348 -0.4801  0.1990
 6998SOL    HW132456   3.437   2.976   2.168 -1.9382  0.6562  0.6422
 6998SOL    HW232457   3.369   2.903   2.286 -0.0090 -1.1648 -0.4899
 6999SOL     OW32458   3.960   3.939   5.797  0.1002 -0.3495  0.0916
 6999SOL    HW132459   3.903   3.942   5.720  1.6350  2.2246 -0.9155
 6999SOL    HW232460   3.963   4.030   5.827  3.0338 -0.4486  0.1002
 7000SOL     OW32461   0.271   4.510   7.706 -0.0196  0.7094  0.3313
 7000SOL    HW132462   0.295   4.491   7.797  0.8256  0.0340 -0.0336
 7000SOL    HW232463   0.202   4.443   7.697  0.5339  0.0122  1.2847
 7001SOL     OW32464   2.110   1.834   4.997 -0.4245 -0.2855 -0.0112
 7001SOL    HW132465   2.030   1.858   5.043 -1.2930  0.3083 -1.8538
 7001SOL    HW232466   2.094   1.866   4.908  1.0016  2.2220  0.6522
 7002SOL     OW32467   2.061   4.196   3.363  0.0739 -0.2232 -0.8200
 7002SOL    HW132468   2.069   4.189   3.268 -1.9984  0.3357 -1.0335
 7002SOL    HW232469   1.983   4.250   3.365  0.2241 -0.0346  0.1603
 7003SOL     OW32470   0.968   3.002  17.083  0.2172  0.0801 -0.3938
 7003SOL    HW132471   0.998   2.946  17.155  0.3921  1.7028  0.8034
 7003SOL    HW232472   0.873   2.994  17.092  0.2746  0.9598  1.0465
 7004SOL     OW32473   2.995   1.373   0.547  0.4830  0.2405 -0.7545
 7004SOL    HW132474   2.931   1.440   0.570  3.1668  1.0023  4.3485
 7004SOL    HW232475   2.969   1.303   0.607 -0.0158 -0.8227 -2.2148
 7005SOL     OW32476   2.338   2.457   1.044 -0.4088 -0.5121  0.1071
 7005SOL    HW132477   2.431   2.453   1.022 -0.0929  1.4034  1.0891
 7005SOL    HW232478   2.336   2.462   1.139  0.1637  1.7067  0.0124
 7006SOL     OW32479   2.885   0.762   9.367 -0.4964  0.2158  0.3487
 7006SOL    HW132480   2.804   0.790   9.410 -1.9674  0.9912 -2.9420
 7006SOL    HW232481   2.949   0.818   9.411  0.6790  0.2373 -1.4278
 7007SOL     OW32482   1.276   1.525   3.968 -0.2383  0.5300  0.0051
 7007SOL    HW132483   1.263   1.607   4.016  2.7133  0.0606  1.5945
 7007SOL    HW232484   1.227   1.465   4.025 -0.5737  1.6368  0.8910
 7008SOL     OW32485   0.793   1.736   3.947 -0.1941  0.7370 -0.0116
 7008SOL    HW132486   0.764   1.665   4.005 -0.0752  0.3237 -0.4649
 7008SOL    HW232487   0.764   1.715   3.859 -0.8798  1.4189  0.0477
 7009SOL     OW32488   3.855   3.943   1.473  0.0107 -0.6536 -0.0629
 7009SOL    HW132489   3.875   3.922   1.382  1.2295  1.5250 -0.2906
 7009SOL    HW232490   3.763   3.972   1.472 -0.2571 -1.4929  0.1099
 7010SOL     OW32491   0.389   1.204   6.639 -0.1575  0.9228 -0.0794
 7010SOL    HW132492   0.367   1.112   6.653  0.7197  0.2746 -2.9030
 7010SOL    HW232493   0.478   1.213   6.671 -0.3242  1.0033  0.3622
 7011SOL     OW32494   4.100   2.038   7.759  0.1729  0.4993  0.3764
 7011SOL    HW132495   4.089   1.954   7.714  2.8626  0.6946 -0.6769
 7011SOL    HW232496   4.113   2.011   7.849  1.3182  1.1784  0.4216
 7012SOL     OW32497   4.426   0.687   7.660  0.0057 -0.1668  0.3977
 7012SOL    HW132498   4.347   0.639   7.687  0.1937  0.3181  1.8341
 7012SOL    HW232499   4.411   0.780   7.678  2.2922  0.6603 -2.1744
 7013SOL     OW32500   4.714   4.031   5.484  0.0560  0.3193 -0.7966
 7013SOL    HW132501   0.004   3.942   5.517 -0.1689 -0.4815 -2.8414
 7013SOL    HW232502   4.632   4.022   5.436  0.8808  0.1720 -2.1610
 7014SOL     OW32503   1.696   1.857   4.201 -0.0623 -0.0472 -0.4093
 7014SOL    HW132504   1.790   1.847   4.209 -0.3313 -2.7445 -0.7146
 7014SOL    HW232505   1.690   1.940   4.153 -0.2219 -0.5950 -1.3315
 7015SOL     OW32506   0.326   3.602   3.065  0.2817  0.1142 -0.3293
 7015SOL    HW132507   0.295   3.555   3.142 -1.1806  0.0465 -0.9663
 7015SOL    HW232508   0.261   3.565   3.005 -2.1389 -0.4560  2.6661
 7016SOL     OW32509   2.723   0.790   2.904  0.2505  0.3221 -0.7566
 7016SOL    HW132510   2.666   0.850   2.856 -2.7881 -1.0755  1.1345
 7016SOL    HW232511   2.763   0.736   2.835 -1.3032  0.3673 -1.7047
 7017SOL     OW32512   4.023   4.569  16.715  0.3763  0.3321  0.0207
 7017SOL    HW132513   4.012   4.530  16.629 -2.3428  0.9305  0.1234
 7017SOL    HW232514   3.980   4.508  16.775  0.4522 -0.6856 -0.9669
 7018SOL     OW32515   3.983   4.118   0.436  0.5520 -0.5889  0.0644
 7018SOL    HW132516   4.016   4.166   0.360 -0.2486  1.2805  0.8921
 7018SOL    HW232517   4.047   4.048   0.449  0.5302 -0.0047  3.3573
 7019SOL     OW32518   1.816   1.882   8.061 -0.2779 -0.2815 -0.2096
 7019SOL    HW132519   1.814   1.901   7.967 -0.1506  2.4046  0.3393
 7019SOL    HW232520   1.755   1.940   8.107 -1.7715 -0.6287 -1.7228
 7020SOL     OW32521   1.457   1.005  10.623  0.2802  0.0390  0.1393
 7020SOL    HW132522   1.409   1.041  10.698 -0.8252  1.6215 -1.3407
 7020SOL    HW232523   1.545   1.042  10.629  0.2378  0.2215 -0.3710
 7021SOL     OW32524   4.722   2.648   6.531  0.0290  0.7037  0.0666
 7021SOL    HW132525   4.676   2.564   6.524 -0.0042  0.9837 -3.0823
 7021SOL    HW232526   0.090   2.625   6.540  0.1196 -0.2697 -3.0791
 7022SOL     OW32527   0.593   3.250  12.709 -0.7237 -0.6740 -0.4662
 7022SOL    HW132528   0.509   3.292  12.695  0.3375  0.4876 -3.2881
 7022SOL    HW232529   0.650   3.298  12.649  0.2507  0.5314  1.4155
 7023SOL     OW32530   3.858   2.965   4.863 -0.1640  0.2630  0.1576
 7023SOL    HW132531   3.799   2.916   4.920  0.2302  1.5932  1.7300
 7023SOL    HW232532   3.825   2.959   4.774  2.5301 -0.2810 -0.7811
 7024SOL     OW32533   2.496   3.382   5.074 -0.3023  0.5135 -0.1566
 7024SOL    HW132534   2.521   3.355   5.162 -1.6281  2.2983  0.7712
 7024SOL    HW232535   2.561   3.447   5.045 -0.7890  1.5798  1.1433
 7025SOL     OW32536   1.217   3.567  15.810 -0.4336 -0.2902 -0.7407
 7025SOL    HW132537   1.294   3.605  15.767  0.4593 -1.5767 -0.2463
 7025SOL    HW232538   1.260   3.547  15.893 -0.1832  1.8904 -0.3290
 7026SOL     OW32539   1.277   1.626   2.799  0.0747 -0.1633 -0.2500
 7026SOL    HW132540   1.234   1.705   2.767 -1.7681 -1.2357 -0.4627
 7026SOL    HW232541   1.295   1.646   2.891  0.3729  2.9790 -1.0229
 7027SOL     OW32542   0.287   2.559   4.878  0.0173  0.6595 -0.3120
 7027SOL    HW132543   0.223   2.597   4.817 -1.4466  0.7285  1.2845
 7027SOL    HW232544   0.243   2.586   4.958 -1.3500 -0.2953 -0.7390
 7028SOL     OW32545   4.584   1.357   6.519  0.2319  0.8087 -0.0374
 7028SOL    HW132546   4.632   1.352   6.601 -2.1056 -0.1028  1.2743
 7028SOL    HW232547   4.594   1.272   6.476 -1.4231  1.1606 -1.1517
 7029SOL     OW32548   3.893   2.342   2.510 -0.3355  0.4083 -0.5600
 7029SOL    HW132549   3.882   2.420   2.564  2.5306  2.2980 -2.6471
 7029SOL    HW232550   3.895   2.383   2.423 -1.1203 -1.9738 -1.6969
 7030SOL     OW32551   0.841   4.301   3.517 -0.1296  0.6391  0.1764
 7030SOL    HW132552   0.815   4.386   3.484 -0.7753  0.0635 -0.7901
 7030SOL    HW232553   0.759   4.277   3.559  1.5351 -3.7096  0.9631
 7031SOL     OW32554   2.035   3.469   2.422  0.5490  1.0658  0.3712
 7031SOL    HW132555   1.962   3.461   2.484 -0.3861  0.6277 -0.7814
 7031SOL    HW232556   2.070   3.380   2.420  0.6720  1.1567 -1.2274
 7032SOL     OW32557   3.800   3.316  12.208  0.2317 -0.1670  0.5053
 7032SOL    HW132558   3.835   3.240  12.256  1.0994  0.3577  0.7121
 7032SOL    HW232559   3.727   3.349  12.261 -1.5228  0.5295 -2.3796
 7033SOL     OW32560   2.090   0.898   7.701  0.0458  0.6687  0.0899
 7033SOL    HW132561   2.072   0.992   7.693 -1.2741  0.3167 -1.2163
 7033SOL    HW232562   2.086   0.881   7.607  0.8154 -0.8382  0.3397
 7034SOL     OW32563   2.752   3.373   2.953  0.1133 -0.0645  0.7573
 7034SOL    HW132564   2.813   3.319   2.903 -2.2479 -0.5548 -1.6349
 7034SOL    HW232565   2.722   3.312   3.020  0.1446  1.2843  2.0031
 7035SOL     OW32566   1.001   0.411   9.650  0.1384  0.0905 -0.1457
 7035SOL    HW132567   1.093   0.433   9.636  0.0449  1.0179  0.7661
 7035SOL    HW232568   0.996   0.316   9.634 -1.4655 -0.2377  2.2720
 7036SOL     OW32569   4.574   3.255   1.315  0.1538 -0.0525  0.2079
 7036SOL    HW132570   4.500   3.276   1.373 -1.5216 -1.4179 -1.4427
 7036SOL    HW232571   4.604   3.344   1.296  0.4071  0.0197  0.9211
 7037SOL     OW32572   3.404   1.856   8.102 -0.2982 -0.0590 -0.0605
 7037SOL    HW132573   3.349   1.867   8.180 -0.0732  0.0013  0.0900
 7037SOL    HW232574   3.466   1.785   8.120 -1.7573 -1.4667 -0.5796
 7038SOL     OW32575   4.633   2.602  15.704  0.7718 -0.1393 -0.1965
 7038SOL    HW132576   4.600   2.637  15.622  0.2575  0.2838  0.1893
 7038SOL    HW232577   4.599   2.512  15.711  1.0227 -0.1631  0.8000
 7039SOL     OW32578   3.205   2.629   1.726 -0.3231 -0.1938 -0.0843
 7039SOL    HW132579   3.163   2.552   1.765 -0.3046 -0.5880 -0.8403
 7039SOL    HW232580   3.131   2.664   1.678  0.5209  0.1539 -1.1309
 7040SOL     OW32581   4.441   2.657   0.433  0.1555 -0.9051  0.1362
 7040SOL    HW132582   4.500   2.711   0.381  2.5386 -1.3369  2.3761
 7040SOL    HW232583   4.477   2.568   0.424  0.4377 -0.7878  0.1139
 7041SOL     OW32584   4.297   1.181  15.322 -0.0634  0.4051  0.7178
 7041SOL    HW132585   4.202   1.170  15.328 -0.0156  0.0355  0.8025
 7041SOL    HW232586   4.311   1.143  15.235 -0.1796 -0.6813  1.1678
 7042SOL     OW32587   2.476   0.247   1.615 -0.2345  0.6760  0.1980
 7042SOL    HW132588   2.524   0.213   1.540 -0.3464  0.5550  0.1821
 7042SOL    HW232589   2.408   0.295   1.567  1.4908  0.9906 -1.8934
 7043SOL     OW32590   4.237   1.358   5.254  0.4143  0.0104  0.0184
 7043SOL    HW132591   4.202   1.414   5.185  1.3673  0.1436 -0.3522
 7043SOL    HW232592   4.160   1.326   5.301  1.6262 -0.8989  1.3646
 7044SOL     OW32593   0.448   3.926  13.703 -0.0721  0.3157  0.1476
 7044SOL    HW132594   0.371   3.964  13.663 -0.3429  0.2809  0.6406
 7044SOL    HW232595   0.446   3.960  13.793  0.6415  2.5679 -0.6926
 7045SOL     OW32596   3.437   4.237   9.252  0.7535 -0.1666 -0.2614
 7045SOL    HW132597   3.531   4.218   9.251  0.7260 -0.3223  0.5956
 7045SOL    HW232598   3.429   4.331   9.242  2.4075  0.0758  0.6336
 7046SOL     OW32599   2.527   3.245   3.642  0.0299  0.1588  0.1342
 7046SOL    HW132600   2.547   3.332   3.676  1.2980  0.1532 -0.6028
 7046SOL    HW232601   2.595   3.193   3.685 -1.2741 -2.1960 -0.6524
 7047SOL     OW32602   2.845   4.260  10.588  0.3898 -0.1619 -0.0996
 7047SOL    HW132603   2.862   4.206  10.666 -2.2137 -1.4215 -0.3655
 7047SOL    HW232604   2.780   4.199  10.551 -0.2404  0.9701 -0.8510
 7048SOL     OW32605   4.669   2.268   1.737 -0.8625  0.6974 -0.0511
 7048SOL    HW132606   4.634   2.280   1.825 -0.1447  0.7257  0.2379
 7048SOL    HW232607   4.642   2.183   1.703  2.4847 -0.2449 -0.3458
 7049SOL     OW32608   2.807   2.078   9.704  0.4083 -0.1155 -0.4493
 7049SOL    HW132609   2.888   2.104   9.748  0.1545  1.9749 -1.2394
 7049SOL    HW232610   2.840   2.012   9.643  0.5387 -1.3601  0.9595
 7050SOL     OW32611   2.205   1.489  15.659  0.5077  0.0296 -0.4157
 7050SOL    HW132612   2.142   1.560  15.671  1.7175  1.2531 -1.2635
 7050SOL    HW232613   2.275   1.527  15.605  1.9716 -1.6306  0.3443
 7051SOL     OW32614   3.832   3.229   5.073  0.1711 -0.5442 -0.0634
 7051SOL    HW132615   3.842   3.211   4.979  1.7411  1.6587 -0.3158
 7051SOL    HW232616   3.822   3.137   5.096 -3.7786 -0.3218 -0.9055
 7052SOL     OW32617   3.452   1.219   6.325  0.0642 -0.4811  0.1755
 7052SOL    HW132618   3.447   1.201   6.419  0.7786  2.1415  0.7136
 7052SOL    HW232619   3.481   1.310   6.329 -0.0141 -0.3417 -2.5188
 7053SOL     OW32620   0.499   0.326   7.809 -0.1102 -0.4831  0.2184
 7053SOL    HW132621   0.484   0.245   7.857 -0.4327 -0.9689 -0.7178
 7053SOL    HW232622   0.564   0.362   7.870  0.4124 -0.8858 -0.1016
 7054SOL     OW32623   4.033   0.384   8.982  0.1073  0.3345 -0.6253
 7054SOL    HW132624   4.126   0.365   8.969  0.5531  1.0957  1.5959
 7054SOL    HW232625   4.025   0.474   9.012  0.5123  0.3138 -0.4634
 7055SOL     OW32626   0.298   1.974   1.118 -0.4434  0.1706 -0.3748
 7055SOL    HW132627   0.370   2.002   1.174 -0.7027 -0.7495  0.4315
 7055SOL    HW232628   0.343   1.939   1.041 -1.4540  0.1155 -0.9432
 7056SOL     OW32629   1.545   2.551   2.879  0.5371  0.3110  0.1329
 7056SOL    HW132630   1.526   2.644   2.878 -1.3337 -0.0560  1.8626
 7056SOL    HW232631   1.496   2.530   2.958  2.5316 -1.0724  1.0049
 7057SOL     OW32632   3.403   3.182   7.204 -0.3024  0.2136  0.5009
 7057SOL    HW132633   3.403   3.277   7.190 -1.3359  0.4787  2.2898
 7057SOL    HW232634   3.338   3.173   7.275  0.1982  0.6230  1.0140
 7058SOL     OW32635   1.778   2.004   2.463 -0.3494  0.1207 -0.1923
 7058SOL    HW132636   1.862   2.043   2.485 -0.7631  0.4391  0.8368
 7058SOL    HW232637   1.723   2.079   2.488 -0.5449  0.4753 -1.7353
 7059SOL     OW32638   4.260   3.414   3.136  0.0607  0.8586  0.4416
 7059SOL    HW132639   4.337   3.364   3.108  1.5695  2.2945  1.9992
 7059SOL    HW232640   4.262   3.499   3.093 -0.4445  0.4247 -0.4398
 7060SOL     OW32641   2.962   3.254   5.460  0.4155 -0.0051  0.2135
 7060SOL    HW132642   2.964   3.187   5.392 -0.4422 -1.8906  2.0629
 7060SOL    HW232643   3.028   3.229   5.524  0.2432  1.7746  1.0772
 7061SOL     OW32644   3.862   3.124  14.910  0.1299  0.2367  0.0277
 7061SOL    HW132645   3.887   3.127  14.817  0.9704  1.9370  0.3200
 7061SOL    HW232646   3.834   3.032  14.909  0.9004  0.0022  0.0842
 7062SOL     OW32647   3.786   2.954  12.201 -0.5858 -0.7515  0.1901
 7062SOL    HW132648   3.716   3.009  12.166  1.0920  0.3895 -1.4175
 7062SOL    HW232649   3.808   3.013  12.273 -0.6679  0.6887 -0.9465
 7063SOL     OW32650   2.556   2.048  16.991  0.9463 -0.0461 -0.5586
 7063SOL    HW132651   2.505   2.112  17.042 -0.1387 -0.5948 -0.9542
 7063SOL    HW232652   2.569   2.086  16.904  1.4285  0.1973 -0.3823
 7064SOL     OW32653   4.320   1.300   9.732 -0.1094 -0.9478 -0.2751
 7064SOL    HW132654   4.271   1.244   9.671  0.6272 -1.5817 -0.2840
 7064SOL    HW232655   4.359   1.230   9.785 -0.9351 -0.8810  0.4239
 7065SOL     OW32656   3.698   3.798   2.513 -0.3716  0.0882 -0.2996
 7065SOL    HW132657   3.603   3.795   2.506 -0.2253  0.7494 -2.6680
 7065SOL    HW232658   3.716   3.709   2.543  1.9384  0.4368 -0.6531
 7066SOL     OW32659   2.743   3.210   8.078  0.0245 -0.0492 -0.0927
 7066SOL    HW132660   2.651   3.183   8.067 -0.3442  1.1560  0.0548
 7066SOL    HW232661   2.745   3.279   8.012  0.0405 -0.9884 -1.0816
 7067SOL     OW32662   1.714   4.538   3.519 -0.3905  0.4036 -0.4923
 7067SOL    HW132663   1.670   4.603   3.573 -0.3243  1.3219 -1.5636
 7067SOL    HW232664   1.741   4.590   3.443  0.3212  3.3772  1.8112
 7068SOL     OW32665   4.667   0.159  13.279 -0.1759 -0.1596 -0.1087
 7068SOL    HW132666   4.598   0.100  13.310  0.7452 -1.7103 -0.9645
 7068SOL    HW232667   4.683   0.218  13.352  3.8306 -2.1567  0.6029
 7069SOL     OW32668   2.773   2.123   3.396  0.0494  0.4540  0.4503
 7069SOL    HW132669   2.765   2.050   3.458 -0.9174  0.7733  0.7131
 7069SOL    HW232670   2.738   2.205   3.429  0.8467  0.8055  0.4161
 7070SOL     OW32671   0.775   1.369  13.776  0.3873 -0.6467 -0.0272
 7070SOL    HW132672   0.748   1.279  13.759  2.1622 -1.0770 -0.6043
 7070SOL    HW232673   0.825   1.353  13.857  0.3621  1.2404  0.3724
 7071SOL     OW32674   1.200   3.064   5.253  0.9707  0.1121 -0.0616
 7071SOL    HW132675   1.152   3.007   5.193 -1.9026 -0.0142  2.3374
 7071SOL    HW232676   1.228   3.001   5.320  0.5533 -0.5467 -0.5024
 7072SOL     OW32677   4.132   0.124   2.165 -0.3283  0.5306  0.2058
 7072SOL    HW132678   4.197   0.113   2.096  0.1965 -1.5431  1.0291
 7072SOL    HW232679   4.132   0.045   2.218 -0.9069 -0.5681 -1.4011
 7073SOL     OW32680   2.145   1.762  11.742 -0.2546 -0.1237  0.5541
 7073SOL    HW132681   2.142   1.832  11.807  2.1331  3.2775 -3.0019
 7073SOL    HW232682   2.156   1.687  11.800 -2.6812  0.2220  1.4615
 7074SOL     OW32683   2.828   2.405  13.225  0.2892 -0.0399  0.1320
 7074SOL    HW132684   2.805   2.331  13.282 -2.8087 -0.0714 -1.1129
 7074SOL    HW232685   2.850   2.465  13.296  0.0366  1.2768 -0.9148
 7075SOL     OW32686   4.294   2.481   3.708  0.3331 -0.6264 -0.2920
 7075SOL    HW132687   4.316   2.422   3.636  0.8753 -2.5241  1.4643
 7075SOL    HW232688   4.213   2.447   3.747 -1.5284  2.4672 -1.4002
 7076SOL     OW32689   3.718   1.536   8.508  0.0285  0.2225 -0.0681
 7076SOL    HW132690   3.752   1.450   8.533 -1.2237  0.1129  1.2326
 7076SOL    HW232691   3.794   1.586   8.539 -0.7206  0.7095  0.9652
 7077SOL     OW32692   1.726   1.287   0.025  0.3598  0.6659 -0.2269
 7077SOL    HW132693   1.649   1.254   0.072  1.8336 -1.7531  0.4707
 7077SOL    HW232694   1.755   1.198   0.009  0.0273  0.4730  0.2207
 7078SOL     OW32695   2.260   0.288   5.908 -0.1448  0.1400 -0.1402
 7078SOL    HW132696   2.353   0.287   5.883 -0.5112 -2.1125 -1.4369
 7078SOL    HW232697   2.247   0.193   5.907  1.8645 -0.1422 -0.5771
 7079SOL     OW32698   2.832   4.018   7.589  0.2779  0.0624  0.5594
 7079SOL    HW132699   2.743   4.040   7.563  1.2882  1.2925 -1.8271
 7079SOL    HW232700   2.836   3.927   7.562 -1.3988 -0.0243  0.6264
 7080SOL     OW32701   1.614   2.240   2.467  0.1114  0.2722  0.1350
 7080SOL    HW132702   1.529   2.280   2.452  0.4136  0.8742  0.0313
 7080SOL    HW232703   1.674   2.312   2.448 -1.0500  1.1308 -0.2571
 7081SOL     OW32704   0.120   1.529   4.744 -0.4611  0.3143 -0.0306
 7081SOL    HW132705   0.183   1.601   4.740 -2.6685  2.2879  0.5815
 7081SOL    HW232706   0.177   1.453   4.757 -1.3707 -0.5806 -1.2809
 7082SOL     OW32707   2.661   4.518  16.692  0.3067  0.1246 -0.3355
 7082SOL    HW132708   2.752   4.490  16.692  0.9599  2.2460  0.3198
 7082SOL    HW232709   2.656   4.544  16.784  0.2928 -1.1641  0.0315
 7083SOL     OW32710   4.539   3.349  10.568 -0.3773 -0.5793 -0.0457
 7083SOL    HW132711   4.625   3.391  10.563  0.7224 -2.2257  4.6590
 7083SOL    HW232712   4.519   3.364  10.660 -0.4024  1.2072 -0.3338
 7084SOL     OW32713   0.646   3.227   9.008 -0.3156 -0.6311  0.0361
 7084SOL    HW132714   0.658   3.150   8.952  0.4806 -1.8209  1.8397
 7084SOL    HW232715   0.584   3.191   9.072 -1.8507  0.6880 -0.7371
 7085SOL     OW32716   0.340   2.457   0.115 -0.2571 -0.1771  0.1976
 7085SOL    HW132717   0.389   2.539   0.111 -2.8186  1.3453 -0.3753
 7085SOL    HW232718   0.346   2.444   0.020  0.4644  1.7010 -0.0101
 7086SOL     OW32719   1.459   1.748  15.381  0.5823 -0.2289  0.6512
 7086SOL    HW132720   1.468   1.687  15.308  0.7312 -1.5181  1.7540
 7086SOL    HW232721   1.365   1.764  15.384  0.5026 -1.0703  2.5004
 7087SOL     OW32722   0.511   1.742   5.266  0.8222 -0.0177  0.2076
 7087SOL    HW132723   0.595   1.747   5.311  0.2744  0.1151  1.2233
 7087SOL    HW232724   0.449   1.727   5.338 -0.7102 -1.3889 -1.3913
 7088SOL     OW32725   1.443   1.664   5.965 -0.0901 -0.1538 -0.4664
 7088SOL    HW132726   1.379   1.598   5.939 -1.6021  1.4386 -0.7902
 7088SOL    HW232727   1.479   1.617   6.040 -1.4239  1.5382  1.2246
 7089SOL     OW32728   1.195   2.934   1.805 -0.0555 -0.2464 -0.0230
 7089SOL    HW132729   1.200   2.954   1.711 -0.7859 -1.6401 -0.3586
 7089SOL    HW232730   1.120   2.987   1.832  0.0190  1.0433 -2.2905
 7090SOL     OW32731   3.027   4.433   5.127  0.3513  0.4165 -0.2520
 7090SOL    HW132732   2.970   4.357   5.128 -1.1018  1.5101  0.1076
 7090SOL    HW232733   3.078   4.419   5.207  1.7507 -2.0124 -1.5911
 7091SOL     OW32734   3.719   2.924   2.215  0.2540 -0.0183  0.1532
 7091SOL    HW132735   3.629   2.918   2.248  0.4682  0.6989  0.8600
 7091SOL    HW232736   3.761   2.860   2.273  0.3912 -0.9877 -1.0051
 7092SOL     OW32737   1.815   3.565   7.846 -0.2524  0.1365 -0.3187
 7092SOL    HW132738   1.795   3.585   7.938 -1.5930  0.9350 -0.7841
 7092SOL    HW232739   1.743   3.504   7.828 -1.5346  0.9657  2.0120
 7093SOL     OW32740   1.525   0.619   5.884 -0.6309 -0.0065  0.5614
 7093SOL    HW132741   1.587   0.623   5.957  0.0312  1.5494 -0.1104
 7093SOL    HW232742   1.576   0.667   5.819 -1.3668  0.5095  0.3654
 7094SOL     OW32743   4.461   2.380   2.961 -0.1578 -0.9418 -0.2341
 7094SOL    HW132744   4.447   2.294   2.920 -3.2072  0.0030 -1.1206
 7094SOL    HW232745   4.517   2.425   2.899  0.9998 -1.9398  0.0891
 7095SOL     OW32746   1.379   2.061   0.221  0.0191  0.1938  0.1544
 7095SOL    HW132747   1.358   2.078   0.312  0.7226 -1.7386  0.6761
 7095SOL    HW232748   1.317   1.990   0.202 -0.4536  0.8335 -0.7089
 7096SOL     OW32749   3.145   2.852   5.507 -0.4472 -0.1145 -0.3721
 7096SOL    HW132750   3.203   2.808   5.570  1.9040  0.3357 -2.2107
 7096SOL    HW232751   3.062   2.805   5.514 -0.2469 -0.4078  0.0263
 7097SOL     OW32752   1.797   0.752   7.767  0.0095 -0.5124  0.2712
 7097SOL    HW132753   1.884   0.775   7.734 -1.7471 -0.4037 -4.3221
 7097SOL    HW232754   1.760   0.837   7.792 -2.2348 -1.1581 -0.8443
 7098SOL     OW32755   0.015   1.222  13.149  0.2767  0.2206  0.4011
 7098SOL    HW132756   4.692   1.143  13.124 -0.0092  0.6884 -0.5412
 7098SOL    HW232757   4.698   1.294  13.102  0.7143 -0.6039 -1.2617
 7099SOL     OW32758   2.601   4.040   8.831 -0.5253  0.0347  0.0624
 7099SOL    HW132759   2.579   4.013   8.920 -1.3006  3.1274  0.8145
 7099SOL    HW232760   2.683   4.082   8.859 -0.6836  0.5594 -0.2543
 7100SOL     OW32761   3.175   3.262   8.420  0.3994 -0.0804  0.4638
 7100SOL    HW132762   3.208   3.326   8.484 -0.2477  1.6210 -0.9201
 7100SOL    HW232763   3.119   3.216   8.483  2.0198  0.0273  1.9877
 7101SOL     OW32764   0.081   2.022   1.523  0.2084 -0.6860  0.2881
 7101SOL    HW132765   0.135   2.097   1.547 -0.7092  0.0610  0.0129
 7101SOL    HW232766   0.094   2.023   1.428 -1.1648 -1.7975  0.0934
 7102SOL     OW32767   1.342   3.972  14.870  0.2827 -0.8459  0.0888
 7102SOL    HW132768   1.383   3.966  14.956 -0.9686  0.0460  0.7509
 7102SOL    HW232769   1.396   4.034  14.821 -0.1762 -0.8913 -0.4857
 7103SOL     OW32770   1.787   2.515  11.071 -0.0000 -0.2608  0.3554
 7103SOL    HW132771   1.767   2.457  11.145 -1.8652 -0.6342 -0.4394
 7103SOL    HW232772   1.877   2.487  11.052  0.6615  2.0404  0.0466
 7104SOL     OW32773   1.002   3.767  15.574 -0.2133 -0.2033 -0.0394
 7104SOL    HW132774   0.947   3.843  15.560 -0.5735  0.0067  2.4909
 7104SOL    HW232775   1.093   3.799  15.576 -0.4237  0.5280 -1.9861
 7105SOL     OW32776   0.220   1.574   5.737  0.4512 -0.6027 -0.0129
 7105SOL    HW132777   0.145   1.516   5.753 -1.7686  2.9420  2.4681
 7105SOL    HW232778   0.282   1.509   5.770  2.3664  0.5848 -1.3503
 7106SOL     OW32779   3.164   1.567  10.079  0.3779  0.4123  0.2278
 7106SOL    HW132780   3.176   1.564   9.984  0.7585 -3.6901  0.4049
 7106SOL    HW232781   3.100   1.638  10.082  0.6999  0.6504  1.1883
 7107SOL     OW32782   3.507   1.599   7.787 -0.0900  0.1384  0.3802
 7107SOL    HW132783   3.596   1.616   7.819  0.1484  0.6591 -0.5578
 7107SOL    HW232784   3.484   1.544   7.862  1.1570 -1.9304 -0.7829
 7108SOL     OW32785   2.552   0.447  16.053 -0.3293  0.0255 -0.1504
 7108SOL    HW132786   2.548   0.511  16.124  1.4331  0.3287 -0.3407
 7108SOL    HW232787   2.458   0.427  16.054  0.0968 -1.9787  1.7994
 7109SOL     OW32788   2.938   3.168  11.223 -0.1115  0.4782 -0.2437
 7109SOL    HW132789   2.944   3.206  11.310 -0.0904  0.6317 -0.3124
 7109SOL    HW232790   2.846   3.150  11.202  0.0088  0.3858 -0.6839
 7110SOL     OW32791   0.410   3.828   3.543 -0.2182 -0.5660 -0.0559
 7110SOL    HW132792   0.424   3.734   3.556  0.9635 -0.5014 -0.8747
 7110SOL    HW232793   0.499   3.862   3.538  0.1147 -1.2731  0.9968
 7111SOL     OW32794   0.729   1.289  14.128 -0.2054  0.0917 -0.2069
 7111SOL    HW132795   0.811   1.303  14.081 -0.5515 -0.2303 -0.9087
 7111SOL    HW232796   0.775   1.260  14.207 -1.2254 -0.8771  0.0404
 7112SOL     OW32797   0.017   3.423  12.923  0.0870 -0.3737 -0.1863
 7112SOL    HW132798   0.101   3.389  12.951  1.4741  1.2459 -2.3421
 7112SOL    HW232799   0.031   3.518  12.916 -0.4907 -0.1178  2.2681
 7113SOL     OW32800   4.064   3.179   1.915  0.1373 -0.1303 -0.8001
 7113SOL    HW132801   4.125   3.184   1.989  0.6944 -0.9163 -1.1960
 7113SOL    HW232802   4.028   3.099   1.951  0.6515  0.1177  0.2447
 7114SOL     OW32803   0.851   3.793   4.205 -0.0806 -0.2139  0.6389
 7114SOL    HW132804   0.861   3.888   4.205 -1.2103 -0.0840 -0.4006
 7114SOL    HW232805   0.846   3.771   4.297  0.9455  0.1806  0.7875
 7115SOL     OW32806   2.775   0.830  13.546  0.0533 -0.3419 -0.3846
 7115SOL    HW132807   2.869   0.848  13.552  0.1795 -0.9913 -0.3553
 7115SOL    HW232808   2.740   0.902  13.599  0.4656 -1.6455  1.6764
 7116SOL     OW32809   0.170   1.436   8.321  0.6342  0.0094  0.9303
 7116SOL    HW132810   0.186   1.346   8.348 -2.4501 -0.6299  0.5808
 7116SOL    HW232811   0.249   1.459   8.272  0.1514  1.8467  0.9970
 7117SOL     OW32812   0.680   2.576   3.222 -0.1114 -0.0853  0.4821
 7117SOL    HW132813   0.706   2.536   3.139 -1.6323 -0.6224  0.2680
 7117SOL    HW232814   0.743   2.531   3.280 -0.8067 -1.5993  0.0703
 7118SOL     OW32815   2.351   0.596  17.275 -0.0430 -0.1898 -0.1679
 7118SOL    HW132816   2.319   0.578  17.186 -0.4014 -0.3136 -0.0131
 7118SOL    HW232817   2.361   0.507  17.309  1.3135  0.5356  1.3294
 7119SOL     OW32818   2.423   3.545  16.845  0.4286  0.2594  0.2463
 7119SOL    HW132819   2.473   3.538  16.763  0.7608  1.5835  0.3318
 7119SOL    HW232820   2.426   3.453  16.869  0.4766  0.5238  1.2288
 7120SOL     OW32821   1.191   2.749  11.305  0.0419 -0.0882 -0.0367
 7120SOL    HW132822   1.265   2.713  11.256 -0.2780  1.1386 -1.4368
 7120SOL    HW232823   1.229   2.734  11.391 -6.2289 -0.3805  2.6913
 7121SOL     OW32824   1.009   1.720   3.743  0.1817 -0.0949  0.5132
 7121SOL    HW132825   0.981   1.740   3.832 -2.2637 -0.9734 -0.0710
 7121SOL    HW232826   0.972   1.791   3.690  2.3310  2.4731  2.4555
 7122SOL     OW32827   4.163   3.571   9.943  0.5261  0.5403  0.3297
 7122SOL    HW132828   4.181   3.479   9.925 -0.1822  0.2957  0.9126
 7122SOL    HW232829   4.160   3.573  10.038  1.0585  2.1848  0.3251
 7123SOL     OW32830   0.903   2.592  13.035  0.3410 -0.2553  0.3723
 7123SOL    HW132831   0.972   2.655  13.013  0.4907 -0.8417 -0.8476
 7123SOL    HW232832   0.941   2.549  13.111  2.1855  0.3093 -0.2345
 7124SOL     OW32833   0.888   4.058  15.568  0.2161  0.0313 -0.0264
 7124SOL    HW132834   0.906   4.081  15.477  0.0088 -2.1014 -0.6016
 7124SOL    HW232835   0.795   4.036  15.558 -0.4881  2.7679  0.4849
 7125SOL     OW32836   1.631   2.309   4.424  0.2964  0.2522  0.1652
 7125SOL    HW132837   1.683   2.236   4.457 -0.7463  0.9499  3.3694
 7125SOL    HW232838   1.582   2.330   4.504 -0.1519  0.3065 -0.1250
 7126SOL     OW32839   4.644   2.811   6.714 -0.5768  0.8286  0.4319
 7126SOL    HW132840   4.720   2.860   6.744  1.8346 -2.0802 -0.8882
 7126SOL    HW232841   4.685   2.747   6.655 -0.4472  1.0596  0.2697
 7127SOL     OW32842   3.173   3.304  12.877  0.2171 -0.7281  0.1602
 7127SOL    HW132843   3.239   3.240  12.903  1.5900  0.9977  0.8194
 7127SOL    HW232844   3.110   3.289  12.948  0.7033  2.7947  1.3058
 7128SOL     OW32845   1.975   1.357   4.882 -0.2465  0.5576 -0.1764
 7128SOL    HW132846   1.964   1.446   4.915 -0.1016 -0.3514  2.2807
 7128SOL    HW232847   2.065   1.343   4.912 -0.4649 -1.0391 -0.2525
 7129SOL     OW32848   1.323   1.147   2.875 -0.1268  0.3400 -0.1284
 7129SOL    HW132849   1.322   1.069   2.931 -0.7779  0.2316 -0.2942
 7129SOL    HW232850   1.336   1.097   2.795 -0.4223 -0.7788  0.5294
 7130SOL     OW32851   3.367   1.853   7.837 -0.1220  0.4295  0.0751
 7130SOL    HW132852   3.403   1.766   7.820 -1.0311 -0.2677  1.6685
 7130SOL    HW232853   3.348   1.846   7.930  0.0320 -0.7650  0.0098
 7131SOL     OW32854   2.785   3.985  15.917 -0.1808  1.1513  0.4304
 7131SOL    HW132855   2.702   4.005  15.960 -1.4971 -2.5879 -0.3787
 7131SOL    HW232856   2.766   3.990  15.823  0.0927 -1.1807  0.2348
 7132SOL     OW32857   4.339   0.203   2.953  0.5839 -0.8785 -0.2866
 7132SOL    HW132858   4.342   0.135   2.885  1.8726  0.3606 -1.4460
 7132SOL    HW232859   4.247   0.228   2.940  0.9903  0.2491 -0.9509
 7133SOL     OW32860   1.472   3.122   3.825 -0.0117 -0.1938  0.7166
 7133SOL    HW132861   1.541   3.144   3.887 -0.5737 -1.9780  1.9685
 7133SOL    HW232862   1.403   3.174   3.867 -0.7624 -0.2994 -0.3543
 7134SOL     OW32863   0.924   0.287   0.776  0.2112 -0.3539  0.2994
 7134SOL    HW132864   0.890   0.212   0.825 -2.3818 -0.2867 -1.4048
 7134SOL    HW232865   0.848   0.314   0.723  0.7735  0.7695  0.0556
 7135SOL     OW32866   3.635   2.042   0.723  0.0742 -0.8123 -0.6685
 7135SOL    HW132867   3.572   1.969   0.725 -0.5665 -0.1933  1.3798
 7135SOL    HW232868   3.594   2.082   0.646  0.9316 -2.6253 -2.0914
 7136SOL     OW32869   2.852   1.854   5.669  0.3157  0.1583  0.3691
 7136SOL    HW132870   2.767   1.844   5.712  1.2164  0.4650  2.2102
 7136SOL    HW232871   2.908   1.836   5.744  0.1227  2.4347  1.0309
 7137SOL     OW32872   2.821   2.014  11.227 -0.2204  0.2890 -0.0039
 7137SOL    HW132873   2.745   1.997  11.172 -0.2068 -1.8650  0.6488
 7137SOL    HW232874   2.793   2.092  11.274 -1.9470  0.3770 -1.1872
 7138SOL     OW32875   2.884   3.578   6.325  0.2841  0.2471 -0.1360
 7138SOL    HW132876   2.941   3.519   6.276 -1.1281 -1.4456  0.2654
 7138SOL    HW232877   2.895   3.660   6.276  0.8557 -0.0040 -0.4166
 7139SOL     OW32878   3.203   0.633   5.026 -0.2523  0.0723  0.3689
 7139SOL    HW132879   3.131   0.695   5.037 -0.9926 -0.7959  0.3967
 7139SOL    HW232880   3.160   0.550   5.006  3.5985 -2.0767  0.9768
 7140SOL     OW32881   4.529   1.243   4.207  0.1116 -0.1466  0.3219
 7140SOL    HW132882   4.596   1.252   4.274 -3.3006  2.3891  3.3765
 7140SOL    HW232883   4.570   1.181   4.147 -0.0226  0.0170  0.0589
 7141SOL     OW32884   4.461   2.855   7.667 -0.0857  0.1358 -0.9733
 7141SOL    HW132885   4.514   2.809   7.602 -0.0256  0.7750 -1.3764
 7141SOL    HW232886   4.397   2.788   7.690 -0.3324  0.0452 -1.9411
 7142SOL     OW32887   2.396   4.641   6.139  0.2153  0.4749 -0.2375
 7142SOL    HW132888   2.409   0.001   6.182  0.2306  0.9315 -1.1312
 7142SOL    HW232889   2.482   4.603   6.153 -0.4761 -0.2958  1.8541
 7143SOL     OW32890   2.112   2.286  14.524 -0.2438  0.0624  0.6058
 7143SOL    HW132891   2.035   2.325  14.566  0.8337  2.8817  0.0199
 7143SOL    HW232892   2.106   2.198  14.560 -0.0237 -0.8019 -1.4378
 7144SOL     OW32893   1.720   0.805  14.798 -0.1724  0.1585 -0.2829
 7144SOL    HW132894   1.696   0.835  14.711  0.5734  0.3017 -0.4374
 7144SOL    HW232895   1.806   0.844  14.815 -0.5255  0.4575  0.8293
 7145SOL     OW32896   3.783   2.465   5.161 -0.0424 -0.0683 -0.4146
 7145SOL    HW132897   3.835   2.389   5.136 -1.2914 -0.5916 -1.4284
 7145SOL    HW232898   3.711   2.438   5.218 -0.5808  0.7784 -0.6911
 7146SOL     OW32899   2.467   0.205   0.197 -0.0507 -0.0353 -0.8173
 7146SOL    HW132900   2.539   0.150   0.168  1.6453  1.5862  0.2823
 7146SOL    HW232901   2.387   0.157   0.174 -0.7756  0.9572 -0.3828
 7147SOL     OW32902   2.028   1.692  16.943 -0.3365  0.2761 -0.3091
 7147SOL    HW132903   2.105   1.728  16.985 -1.4561  1.1469  0.9791
 7147SOL    HW232904   1.952   1.743  16.972 -1.6580 -1.0940 -1.3204
 7148SOL     OW32905   4.000   1.331   6.568 -0.1034 -0.1573 -0.4399
 7148SOL    HW132906   4.052   1.274   6.624  0.8814  0.2001 -0.9965
 7148SOL    HW232907   4.068   1.352   6.504 -0.7234  2.8156 -0.1600
 7149SOL     OW32908   1.394   0.964   5.376  0.4371  0.1432 -0.4247
 7149SOL    HW132909   1.428   0.878   5.349 -1.2327 -0.2027 -1.4559
 7149SOL    HW232910   1.355   0.996   5.294 -1.1055  1.1953  0.7123
 7150SOL     OW32911   1.158   2.395   7.471 -0.4091 -0.4440 -0.0135
 7150SOL    HW132912   1.201   2.333   7.411 -0.1507 -0.1849 -0.0932
 7150SOL    HW232913   1.227   2.451   7.504  0.2581 -0.7957 -0.8082
 7151SOL     OW32914   3.999   0.700  10.701 -0.2542 -0.2549 -0.5437
 7151SOL    HW132915   4.001   0.784  10.746  0.0429 -2.2732  3.1867
 7151SOL    HW232916   4.032   0.640  10.767 -0.1454  1.1370  0.6675
 7152SOL     OW32917   3.489   1.942   1.758 -0.5766 -0.4014  0.2518
 7152SOL    HW132918   3.485   2.021   1.704  2.6889 -0.4768 -0.0857
 7152SOL    HW232919   3.442   1.876   1.708 -1.3900 -0.1041  0.6244
 7153SOL     OW32920   2.722   3.341   5.527 -0.3692  0.1446  0.1081
 7153SOL    HW132921   2.705   3.356   5.620  0.9137 -1.1571  0.5572
 7153SOL    HW232922   2.815   3.317   5.522 -0.2797  0.3410  0.7579
 7154SOL     OW32923   1.333   4.413   1.922  0.0769 -0.2878  0.1116
 7154SOL    HW132924   1.272   4.418   1.995  0.2709  2.6058  0.0692
 7154SOL    HW232925   1.334   4.319   1.904 -0.0539 -0.3030  0.1819
 7155SOL     OW32926   4.014   2.820   7.725 -0.3587  0.1509  0.3031
 7155SOL    HW132927   4.047   2.877   7.656  3.9334 -2.2012  0.4165
 7155SOL    HW232928   4.066   2.863   7.793 -0.4970  1.0706 -0.1716
 7156SOL     OW32929   3.676   2.059   5.301 -0.0888  0.0678 -0.0399
 7156SOL    HW132930   3.657   2.153   5.303  0.1054  0.1108 -0.3532
 7156SOL    HW232931   3.711   2.034   5.387  0.7240 -1.1465 -0.7438
 7157SOL     OW32932   3.694   1.134  11.689 -0.0260  0.2051  0.3527
 7157SOL    HW132933   3.751   1.211  11.690  3.1649 -2.1331 -0.0938
 7157SOL    HW232934   3.758   1.063  11.701  0.8355  0.9807  0.3213
 7158SOL     OW32935   4.508   2.735   4.026  0.0279  0.0584  0.0963
 7158SOL    HW132936   4.556   2.773   4.099  1.8390 -1.6250 -0.2225
 7158SOL    HW232937   4.490   2.814   3.975  1.9970  0.3508 -0.1164
 7159SOL     OW32938   1.831   2.944   2.402  0.1090 -0.4906 -0.2594
 7159SOL    HW132939   1.926   2.932   2.394  0.5134  0.1281  3.8920
 7159SOL    HW232940   1.823   2.932   2.497  0.5801 -0.3966 -0.2061
 7160SOL     OW32941   0.286   1.052   7.896  0.7041 -0.3526 -0.0446
 7160SOL    HW132942   0.231   1.099   7.958  1.8379  0.9936 -0.0641
 7160SOL    HW232943   0.320   0.977   7.945 -0.3476 -0.9968 -0.2946
 7161SOL     OW32944   1.042   4.695   2.601 -0.0827  0.1772 -0.6151
 7161SOL    HW132945   0.968   0.018   2.638 -1.7598 -0.3924 -3.1846
 7161SOL    HW232946   1.115   0.023   2.634 -1.7450  1.2422  1.3814
 7162SOL     OW32947   1.524   2.607   5.542  0.3100 -0.1673 -0.1627
 7162SOL    HW132948   1.593   2.571   5.599  0.3531 -0.8941 -0.6685
 7162SOL    HW232949   1.443   2.556   5.552 -0.7580  1.1580 -2.1563
 7163SOL     OW32950   1.770   3.298  11.328 -0.2347 -0.6591  0.2998
 7163SOL    HW132951   1.856   3.340  11.330  0.0865 -1.1868 -2.2232
 7163SOL    HW232952   1.718   3.367  11.370  0.1247  0.8315 -1.7128
 7164SOL     OW32953   0.434   2.326  11.633  0.3481  0.2455 -0.0243
 7164SOL    HW132954   0.384   2.290  11.560  1.0775 -0.9112  0.0547
 7164SOL    HW232955   0.506   2.365  11.582 -1.0122  0.5284 -1.7385
 7165SOL     OW32956   4.338   4.200   2.912 -0.4812  0.2218 -0.1743
 7165SOL    HW132957   4.285   4.121   2.928 -0.7980  0.6380  0.8414
 7165SOL    HW232958   4.426   4.166   2.897 -0.2524  0.7849 -0.0738
 7166SOL     OW32959   3.317   2.439   4.637  0.8557  0.0992 -0.0027
 7166SOL    HW132960   3.291   2.520   4.592 -0.4855 -1.1617 -1.5306
 7166SOL    HW232961   3.232   2.395   4.633  1.0988 -0.1029 -2.7853
 7167SOL     OW32962   0.687   0.153   6.611  0.0281 -0.0401 -0.0822
 7167SOL    HW132963   0.759   0.193   6.661  1.3589 -0.5995 -1.5597
 7167SOL    HW232964   0.713   0.168   6.520  0.2030  0.4374  0.0467
 7168SOL     OW32965   4.147   2.714   1.018 -0.4030  0.0871  0.8552
 7168SOL    HW132966   4.230   2.745   0.981 -0.3379 -3.4279 -1.9160
 7168SOL    HW232967   4.134   2.771   1.093  2.7309  1.6351  0.2171
 7169SOL     OW32968   1.900   0.075   6.122  0.4582 -0.3376 -0.5524
 7169SOL    HW132969   1.980   0.118   6.093 -0.8719  2.8172  0.3923
 7169SOL    HW232970   1.874   0.135   6.192 -0.6991 -0.1229 -1.1647
 7170SOL     OW32971   1.644   1.124   3.717 -0.3952 -0.1072 -0.3387
 7170SOL    HW132972   1.558   1.157   3.690  0.4728  2.8320  0.4980
 7170SOL    HW232973   1.675   1.195   3.773 -0.5461  0.0758 -0.4881
 7171SOL     OW32974   1.567   3.454   1.039  0.5955 -0.2790  0.1704
 7171SOL    HW132975   1.596   3.544   1.022 -1.4587  0.1290 -1.2656
 7171SOL    HW232976   1.493   3.467   1.098 -0.5920  0.1843 -1.4163
 7172SOL     OW32977   4.617   4.457   3.484 -0.3925 -0.4731 -0.2581
 7172SOL    HW132978   4.674   4.419   3.551  0.6492  0.6479 -0.5051
 7172SOL    HW232979   4.580   4.377   3.446  0.0390 -0.9700  0.3684
 7173SOL     OW32980   4.544   0.937   6.700  0.4770 -0.0090  0.2851
 7173SOL    HW132981   4.497   1.014   6.668  0.3085 -0.5097 -0.6968
 7173SOL    HW232982   4.475   0.881   6.735 -0.7597  0.7526 -0.9395
 7174SOL     OW32983   2.557   1.489   1.806 -0.0644 -0.5702  0.1511
 7174SOL    HW132984   2.486   1.486   1.742 -0.9897  1.9259  1.0653
 7174SOL    HW232985   2.559   1.396   1.831  1.0917 -0.6927 -0.4174
 7175SOL     OW32986   2.410   2.226   3.119  1.5557  0.1506 -0.4023
 7175SOL    HW132987   2.351   2.283   3.068  1.9092  1.9841  1.2421
 7175SOL    HW232988   2.371   2.139   3.104 -1.2966  1.0271  1.9565
 7176SOL     OW32989   3.483   0.059   5.451 -0.4633 -0.0963  0.0462
 7176SOL    HW132990   3.477   0.154   5.443 -1.8017 -0.0359  2.0431
 7176SOL    HW232991   3.486   0.042   5.356 -0.1449  0.1067  0.0210
 7177SOL     OW32992   4.090   0.930   1.694  0.4873  0.2033 -0.2809
 7177SOL    HW132993   4.159   0.902   1.632  0.3636 -0.8501  0.0610
 7177SOL    HW232994   4.067   1.011   1.648  0.4981  0.0723 -0.5171
 7178SOL     OW32995   2.635   0.567   2.385 -0.1701 -0.0354  0.1268
 7178SOL    HW132996   2.723   0.568   2.346 -0.3018 -1.4114 -0.1765
 7178SOL    HW232997   2.642   0.644   2.442  0.3009  1.2713 -1.6908
 7179SOL     OW32998   2.422   1.958   7.363 -0.3901  0.9427 -0.4639
 7179SOL    HW132999   2.380   1.987   7.443 -0.9603  1.2517 -0.8709
 7179SOL    HW233000   2.351   1.915   7.316  0.1014  0.3651 -0.6899
 7180SOL     OW33001   2.013   1.050   1.487  0.0348  0.1111  0.2416
 7180SOL    HW133002   2.031   1.115   1.419 -1.6077  0.6788  0.3589
 7180SOL    HW233003   1.957   1.102   1.544 -3.5978 -0.6345 -2.6585
 7181SOL     OW33004   0.699   1.110   3.267  0.1984 -0.3792  0.3007
 7181SOL    HW133005   0.724   1.148   3.183  1.1592 -0.9902  0.3186
 7181SOL    HW233006   0.781   1.066   3.289  0.7214 -0.3215 -1.5179
 7182SOL     OW33007   0.442   4.535  15.037 -0.1041  0.2701  0.4585
 7182SOL    HW133008   0.413   4.622  15.011 -0.9707  0.0193  0.6077
 7182SOL    HW233009   0.378   4.482  14.991 -0.2779  1.2013 -0.3631
 7183SOL     OW33010   3.344   3.547   8.875  0.5640 -0.0723  0.5428
 7183SOL    HW133011   3.328   3.506   8.960 -1.7043  0.0689  0.1682
 7183SOL    HW233012   3.418   3.499   8.837  1.3614  0.9201  0.8147
 7184SOL     OW33013   1.694   1.216   3.426 -0.1705  0.1210  0.4805
 7184SOL    HW133014   1.675   1.200   3.518  1.7671  0.5605  0.9636
 7184SOL    HW233015   1.609   1.258   3.413  1.3935  2.4272 -2.1869
 7185SOL     OW33016   3.444   2.979   1.993  0.0094  0.4947  0.1600
 7185SOL    HW133017   3.444   2.915   1.922  0.9341  1.4892 -0.7262
 7185SOL    HW233018   3.469   3.053   1.938  0.9940 -1.8228 -2.5234
 7186SOL     OW33019   1.026   2.632   3.886 -0.1444  0.0709  0.1294
 7186SOL    HW133020   0.998   2.716   3.848  2.6608 -0.3184 -2.7492
 7186SOL    HW233021   0.995   2.565   3.825 -0.1092  0.6507 -0.5272
 7187SOL     OW33022   4.002   2.065  16.816  0.1185 -0.7691  0.3166
 7187SOL    HW133023   3.940   2.058  16.889 -0.4689  0.5318 -0.0727
 7187SOL    HW233024   4.064   2.127  16.854 -0.5860 -0.4557  0.9573
 7188SOL     OW33025   3.075   0.831   7.877  0.0150 -0.2748  0.1589
 7188SOL    HW133026   3.053   0.909   7.826  0.6034  0.9545  1.7615
 7188SOL    HW233027   3.159   0.803   7.841 -0.6741 -0.4146 -1.3429
 7189SOL     OW33028   2.987   0.697   7.562  0.6375 -0.2595  0.0963
 7189SOL    HW133029   3.014   0.608   7.540 -1.8611 -1.1412  0.6506
 7189SOL    HW233030   3.062   0.737   7.519 -0.4005  1.0705 -0.4849
 7190SOL     OW33031   1.937   1.262   6.402 -0.2488  0.4569 -0.1388
 7190SOL    HW133032   2.007   1.319   6.433 -0.2021  1.4652 -2.0675
 7190SOL    HW233033   1.982   1.199   6.345 -0.5731  0.0737  0.0293
 7191SOL     OW33034   3.662   4.648   3.688 -0.7751  0.2009  0.4572
 7191SOL    HW133035   3.708   4.682   3.611 -2.7440 -0.8779 -1.1849
 7191SOL    HW233036   3.722   4.667   3.761 -0.9727 -0.2266  0.7340
 7192SOL     OW33037   0.339   1.521  16.930  0.1536 -0.1349 -0.7586
 7192SOL    HW133038   0.245   1.516  16.911  0.1562  2.0014 -1.3437
 7192SOL    HW233039   0.340   1.430  16.959  0.3224  0.0170 -0.2892
 7193SOL     OW33040   4.724   0.476  12.193 -0.0646  0.4989 -0.1886
 7193SOL    HW133041   4.700   0.513  12.108 -1.7674 -0.7169 -0.2327
 7193SOL    HW233042   4.678   0.394  12.179  1.1650 -0.5021  1.6020
 7194SOL     OW33043   4.588   3.287   0.947 -0.1602 -0.1076  0.4287
 7194SOL    HW133044   4.655   3.234   0.989  0.1006  1.4286  1.9419
 7194SOL    HW233045   4.651   3.306   0.878 -0.1307 -0.8246  0.2540
 7195SOL     OW33046   3.167   2.363   7.106  0.3413  0.4952  0.6649
 7195SOL    HW133047   3.239   2.424   7.091 -1.0558  1.8303 -0.5970
 7195SOL    HW233048   3.174   2.312   7.025 -0.4315  1.9726 -0.3207
 7196SOL     OW33049   2.265   2.726   4.049 -0.7029 -0.0631  0.1923
 7196SOL    HW133050   2.235   2.801   3.998  0.2718  0.2221  0.0457
 7196SOL    HW233051   2.204   2.662   4.011 -1.4685  1.2999 -0.8747
 7197SOL     OW33052   1.504   3.694   5.903 -0.4959  0.2404 -0.4067
 7197SOL    HW133053   1.453   3.773   5.888 -0.0455  0.3744 -1.2734
 7197SOL    HW233054   1.566   3.724   5.969 -0.9624 -0.2895  0.2671
 7198SOL     OW33055   4.656   2.364  15.977  0.2476  0.4406  0.0096
 7198SOL    HW133056   4.710   2.391  15.903  1.1386  2.7474  1.5098
 7198SOL    HW233057   4.721   2.369  16.047  0.8051  1.9241 -0.6206
 7199SOL     OW33058   4.008   1.091   2.569  0.0277 -0.5137  0.0929
 7199SOL    HW133059   3.980   1.160   2.507  2.5011  0.1436 -0.2878
 7199SOL    HW233060   4.007   1.007   2.524 -0.0536 -0.4555 -0.0160
 7200SOL     OW33061   0.524   0.292  13.545 -0.0435  0.5055 -0.0280
 7200SOL    HW133062   0.608   0.269  13.505  1.5828  1.0256  3.0482
 7200SOL    HW233063   0.557   0.289  13.635  0.5072 -0.5290 -0.2585
 7201SOL     OW33064   2.476   1.545  13.157  0.0700  0.3376  0.4884
 7201SOL    HW133065   2.483   1.533  13.062 -1.0125  0.2192  0.4222
 7201SOL    HW233066   2.539   1.480  13.187  0.9281  0.5351 -0.8820
 7202SOL     OW33067   4.203   2.861   8.670  0.2333 -0.0965  0.5292
 7202SOL    HW133068   4.232   2.770   8.672  2.5881  0.6633  1.3834
 7202SOL    HW233069   4.138   2.865   8.741 -0.8538  1.1076 -0.5387
 7203SOL     OW33070   2.309   0.528   5.280 -0.3950 -1.0129  0.0056
 7203SOL    HW133071   2.263   0.458   5.327  1.3900 -0.5823  2.4189
 7203SOL    HW233072   2.367   0.560   5.350 -0.4180 -0.8104 -0.0695
 7204SOL     OW33073   3.620   1.455   7.090  0.2208 -0.3546 -0.1148
 7204SOL    HW133074   3.661   1.422   7.171  0.4133 -0.6510 -0.3304
 7204SOL    HW233075   3.663   1.541   7.087  0.6848 -0.6344 -1.2535
 7205SOL     OW33076   0.494   4.049   4.187  0.4049 -0.1298  0.1225
 7205SOL    HW133077   0.502   3.955   4.203  5.9380  0.4071  0.5142
 7205SOL    HW233078   0.443   4.077   4.262  3.0368  1.8403  1.1637
 7206SOL     OW33079   2.325   3.214   4.022 -0.5688  0.1874  0.3047
 7206SOL    HW133080   2.278   3.238   3.942  1.1309 -1.3919 -1.1373
 7206SOL    HW233081   2.302   3.287   4.080 -2.0496 -0.1310  0.1193
 7207SOL     OW33082   2.522   4.183   2.375  0.0111  0.4353 -0.6240
 7207SOL    HW133083   2.554   4.094   2.386 -0.7779  0.2736  0.3661
 7207SOL    HW233084   2.566   4.222   2.450 -2.4855  0.3360  0.8812
 7208SOL     OW33085   1.316   0.148  16.187  0.0547  0.6681  0.2131
 7208SOL    HW133086   1.392   0.172  16.133 -1.9130 -0.0124 -2.8561
 7208SOL    HW233087   1.308   0.057  16.159  1.8828  0.3227  0.8118
 7209SOL     OW33088   2.783   2.202   0.889 -0.2191 -0.1381 -0.3222
 7209SOL    HW133089   2.746   2.140   0.953 -0.3611  0.7869  0.4987
 7209SOL    HW233090   2.707   2.219   0.834 -0.4461  0.1055  0.0695
 7210SOL     OW33091   0.217   2.762   2.764 -0.1576 -0.1417 -0.4888
 7210SOL    HW133092   0.190   2.788   2.852 -1.7426 -0.1909 -0.9629
 7210SOL    HW233093   0.266   2.680   2.768 -1.0591 -0.5731  2.2992
 7211SOL     OW33094   1.434   0.171   2.457  0.2998  0.6284 -0.2849
 7211SOL    HW133095   1.375   0.213   2.395 -2.0702 -0.4001  1.2936
 7211SOL    HW233096   1.520   0.207   2.435  1.0401 -1.9001 -1.5058
 7212SOL     OW33097   3.189   0.456   0.614  0.0200 -0.7521 -0.2079
 7212SOL    HW133098   3.250   0.396   0.657  1.9579 -0.2806 -2.2413
 7212SOL    HW233099   3.241   0.478   0.536  1.9887 -2.0225  0.7528
 7213SOL     OW33100   1.461   0.840   8.567 -0.0347 -1.1139  0.1891
 7213SOL    HW133101   1.400   0.833   8.494  0.9534  1.7281 -0.9182
 7213SOL    HW233102   1.536   0.793   8.529 -0.7743 -1.3269 -0.9986
 7214SOL     OW33103   4.185   4.481   9.745 -0.1181  0.2028 -0.1089
 7214SOL    HW133104   4.264   4.498   9.796  1.3660 -2.0864 -1.5999
 7214SOL    HW233105   4.188   4.562   9.695 -3.0743  0.2201 -0.2577
 7215SOL     OW33106   2.396   1.351   8.997  0.0841  0.1775 -0.0769
 7215SOL    HW133107   2.380   1.443   9.018  1.8042  0.3477  0.4219
 7215SOL    HW233108   2.361   1.349   8.908 -1.6069  3.2849  0.5092
 7216SOL     OW33109   4.709   1.798   2.581 -0.0916 -0.3373  0.1104
 7216SOL    HW133110   0.053   1.820   2.518 -1.7386 -1.3687 -2.0232
 7216SOL    HW233111   0.007   1.717   2.628 -2.1347 -1.4736 -0.8701
 7217SOL     OW33112   2.787   1.370   8.089 -0.0769 -0.6042  0.0146
 7217SOL    HW133113   2.814   1.278   8.082  0.3163 -0.4384 -0.5751
 7217SOL    HW233114   2.801   1.396   7.998  0.2182 -2.0720 -0.3671
 7218SOL     OW33115   2.028   3.315   8.082 -0.5692 -0.0163 -0.0481
 7218SOL    HW133116   2.079   3.359   8.151  1.1171  0.5601 -1.6528
 7218SOL    HW233117   2.104   3.277   8.039  0.8251  2.1464  0.4678
 7219SOL     OW33118   4.043   1.466   8.365 -0.2462  0.0262  0.5478
 7219SOL    HW133119   4.110   1.530   8.340 -0.2825  0.4076  1.4195
 7219SOL    HW233120   3.976   1.493   8.302  1.1677 -0.4780 -1.1795
 7220SOL     OW33121   4.026   0.890   5.485  0.0570 -0.2388 -0.1444
 7220SOL    HW133122   3.962   0.904   5.555  0.4010 -4.9329  1.1569
 7220SOL    HW233123   4.103   0.866   5.537 -0.2133  0.5346  0.6042
 7221SOL     OW33124   0.930   2.981   1.786  0.1180  0.4919 -0.5881
 7221SOL    HW133125   0.974   3.009   1.706  1.1351 -0.6646 -0.4270
 7221SOL    HW233126   0.844   2.977   1.743  0.2219 -2.0200 -0.5764
 7222SOL     OW33127   1.976   1.227  15.467 -0.6817  0.7875 -0.0240
 7222SOL    HW133128   1.953   1.138  15.495 -1.4238  0.9361 -0.1657
 7222SOL    HW233129   1.930   1.288  15.525 -3.5424 -0.8027 -0.5745
 7223SOL     OW33130   1.814   2.573   8.870 -0.3710  0.4113  0.2346
 7223SOL    HW133131   1.868   2.649   8.891 -0.2904  0.8240 -1.4324
 7223SOL    HW233132   1.738   2.623   8.839  0.3367  1.2936 -0.0804
 7224SOL     OW33133   1.592   2.639   8.276  0.2961 -0.0065 -0.4263
 7224SOL    HW133134   1.620   2.716   8.227 -2.1443  0.0610 -1.6792
 7224SOL    HW233135   1.602   2.573   8.208  0.3825  0.7382 -1.1322
 7225SOL     OW33136   3.350   2.107   8.057 -0.4223 -0.2303 -0.0499
 7225SOL    HW133137   3.336   2.016   8.032 -1.0662 -0.3139  0.6532
 7225SOL    HW233138   3.424   2.121   7.998 -0.9014 -0.6950 -0.7601
 7226SOL     OW33139   3.394   3.718   0.716 -0.2512  0.2667 -0.0185
 7226SOL    HW133140   3.446   3.774   0.773  1.5087 -0.9179 -0.4644
 7226SOL    HW233141   3.451   3.643   0.700 -4.1478 -2.6758 -0.1728
 7227SOL     OW33142   1.937   4.413   7.983 -0.0447 -0.6707  0.2214
 7227SOL    HW133143   1.931   4.324   7.949  1.0499 -1.7060  2.6984
 7227SOL    HW233144   1.962   4.451   7.899 -0.7385 -2.2849 -0.7011
 7228SOL     OW33145   2.907   0.964   7.670 -1.0291  0.0863 -0.2606
 7228SOL    HW133146   2.943   1.029   7.610  0.6013 -0.9559 -0.4196
 7228SOL    HW233147   2.953   0.884   7.644 -0.7651  0.3936 -0.7208
 7229SOL     OW33148   0.775   4.516   7.950 -0.1946  0.1784 -0.6708
 7229SOL    HW133149   0.865   4.482   7.943  0.2527  1.3644 -0.6449
 7229SOL    HW233150   0.746   4.493   8.038 -1.5421  2.4571 -0.5399
 7230SOL     OW33151   1.486   3.729   7.018  0.6376  0.0148 -0.8815
 7230SOL    HW133152   1.549   3.740   7.089  0.0681  2.0016 -0.6926
 7230SOL    HW233153   1.479   3.818   6.982 -2.3122  0.6918  1.3818
 7231SOL     OW33154   2.572   3.679  12.718  0.0485  0.0215  0.0121
 7231SOL    HW133155   2.556   3.630  12.637  0.0584  0.0446 -0.0036
 7231SOL    HW233156   2.583   3.769  12.689  1.9253 -0.8319 -1.9174
 7232SOL     OW33157   0.903   4.126   7.566  0.5691 -0.3363  0.0225
 7232SOL    HW133158   0.887   4.174   7.484  2.5096  1.3630  0.6453
 7232SOL    HW233159   0.974   4.181   7.598 -1.6115  2.7356 -0.4137
 7233SOL     OW33160   0.042   2.623  12.095 -0.1015 -0.0672 -1.2277
 7233SOL    HW133161   0.118   2.633  12.152 -0.2140 -1.9424 -0.7467
 7233SOL    HW233162   0.008   2.537  12.119 -0.7610  1.1741  2.1814
 7234SOL     OW33163   1.169   1.026   1.977  0.2625  0.0652 -0.0070
 7234SOL    HW133164   1.148   1.066   1.893  0.7009 -0.8159 -0.5287
 7234SOL    HW233165   1.083   1.014   2.017  0.4179 -2.9091 -0.6248
 7235SOL     OW33166   2.687   2.986   0.797 -0.0124 -0.0679 -0.5311
 7235SOL    HW133167   2.761   3.031   0.838 -0.2047 -0.0009 -0.2584
 7235SOL    HW233168   2.662   3.053   0.733  1.4023 -0.9345 -1.9920
 7236SOL     OW33169   2.879   0.411   5.466 -0.0150 -0.4233 -0.2044
 7236SOL    HW133170   2.928   0.491   5.449 -0.1196 -0.2870  0.1427
 7236SOL    HW233171   2.945   0.354   5.426  2.0935  1.1924  1.0435
 7237SOL     OW33172   1.084   2.826   5.457 -0.4235  0.3234  0.4134
 7237SOL    HW133173   1.179   2.829   5.468 -0.3958 -1.1481  0.5804
 7237SOL    HW233174   1.067   2.756   5.521  0.2563  1.6726  2.0858
 7238SOL     OW33175   1.320   3.444   6.094  0.0625  0.1746  0.1615
 7238SOL    HW133176   1.253   3.500   6.054  0.2146  0.0912 -0.2125
 7238SOL    HW233177   1.274   3.424   6.176  0.2908 -1.6328 -0.1532
 7239SOL     OW33178   3.839   2.608  12.827 -0.1043  0.5437 -0.1147
 7239SOL    HW133179   3.873   2.572  12.745 -0.7790 -0.6517  0.1311
 7239SOL    HW233180   3.894   2.686  12.838 -1.2819  1.1499  1.4865
 7240SOL     OW33181   2.564   3.424   7.305  0.1808 -1.0318  0.1312
 7240SOL    HW133182   2.520   3.496   7.259  2.8017  0.5951  0.1225
 7240SOL    HW233183   2.587   3.370   7.229  0.1351 -1.4919  0.4486
 7241SOL     OW33184   3.877   4.217   9.924  0.3960 -0.0445  0.3190
 7241SOL    HW133185   3.915   4.228   9.837 -0.8685  0.3473 -0.1881
 7241SOL    HW233186   3.957   4.180   9.961  0.6738  0.3588  0.1118
 7242SOL     OW33187   1.892   4.198   6.007 -0.1696  0.0122  0.1709
 7242SOL    HW133188   1.939   4.150   5.939  1.2423  2.1940 -0.3722
 7242SOL    HW233189   1.810   4.149   6.007 -0.9519  1.3143 -0.2499
 7243SOL     OW33190   0.417   0.250   6.612 -0.1874 -0.6639 -0.0057
 7243SOL    HW133191   0.447   0.330   6.655 -0.5352 -0.9044  0.6829
 7243SOL    HW233192   0.490   0.194   6.637  1.9887  2.7030  1.1743
 7244SOL     OW33193   0.441   0.891  15.383 -0.0127 -0.0161 -0.1659
 7244SOL    HW133194   0.444   0.964  15.322 -0.9479 -0.4517 -0.7185
 7244SOL    HW233195   0.349   0.868  15.390  0.1825 -0.7663 -0.0095
 7245SOL     OW33196   3.261   1.563   9.817 -0.4427 -0.3303  0.2848
 7245SOL    HW133197   3.317   1.638   9.839 -2.3898  0.7363  1.5555
 7245SOL    HW233198   3.249   1.574   9.723  0.7849 -0.9232  0.0531
 7246SOL     OW33199   3.785   2.531   4.736 -0.1526 -0.1697  0.2559
 7246SOL    HW133200   3.723   2.481   4.681 -0.3325 -1.3374  1.5216
 7246SOL    HW233201   3.810   2.587   4.662 -3.3636  2.7470  1.3906
 7247SOL     OW33202   3.044   2.851   7.264  0.3081  0.2188  0.8673
 7247SOL    HW133203   2.964   2.836   7.315  0.2152 -1.1595  0.3294
 7247SOL    HW233204   3.040   2.932   7.213 -0.6116 -0.6822 -0.5146
 7248SOL     OW33205   1.101   4.570  15.110 -0.2065 -0.2704  0.3166
 7248SOL    HW133206   1.145   4.625  15.175 -1.6316  1.3058 -0.0553
 7248SOL    HW233207   1.167   4.565  15.041 -0.0017 -1.6706  0.6152
 7249SOL     OW33208   3.520   2.354  11.547  0.0640 -0.3312  0.2913
 7249SOL    HW133209   3.527   2.336  11.640 -2.6274 -0.1128  0.5473
 7249SOL    HW233210   3.439   2.405  11.546 -0.4815 -1.2163 -0.4481
 7250SOL     OW33211   2.956   0.876   6.552 -0.1194  0.2758 -0.0015
 7250SOL    HW133212   3.009   0.797   6.537 -2.0282 -0.8877 -0.6063
 7250SOL    HW233213   2.866   0.843   6.552  0.3078 -0.9078  1.4275
 7251SOL     OW33214   3.339   4.566   3.524  0.1121 -0.3789  0.2482
 7251SOL    HW133215   3.425   4.563   3.482 -0.4651  1.6359 -1.0913
 7251SOL    HW233216   3.296   4.481   3.521 -0.8133  0.1164 -0.4947
 7252SOL     OW33217   1.935   3.988   0.855 -0.6939  0.1989  0.3227
 7252SOL    HW133218   2.024   4.021   0.869 -0.3952 -0.4213 -0.1393
 7252SOL    HW233219   1.882   4.063   0.883 -0.7523  0.4272 -0.4030
 7253SOL     OW33220   2.351   1.672   6.104 -0.8319 -0.1546 -0.1623
 7253SOL    HW133221   2.347   1.706   6.015  0.7216  0.2473 -0.0761
 7253SOL    HW233222   2.442   1.686   6.129 -0.8047 -0.9244  0.1699
 7254SOL     OW33223   2.048   1.053  16.197 -0.1899 -0.3689 -0.3338
 7254SOL    HW133224   1.995   0.978  16.172  1.0573 -2.1266  2.3124
 7254SOL    HW233225   2.020   1.119  16.134  0.1150  0.4783  0.4197
 7255SOL     OW33226   2.521   0.551   4.853  0.0269  0.0210 -0.4317
 7255SOL    HW133227   2.525   0.638   4.814 -1.6770 -0.1017 -0.8681
 7255SOL    HW233228   2.591   0.502   4.810  0.0182  0.0187 -0.4434
 7256SOL     OW33229   3.030   0.433   7.936  0.0461  0.3553 -0.1441
 7256SOL    HW133230   2.978   0.458   8.013  0.0500  0.6978 -0.2537
 7256SOL    HW233231   2.975   0.452   7.860 -0.4439  0.1309  0.1528
 7257SOL     OW33232   3.284   0.377   4.627  0.0805  0.9641  0.0878
 7257SOL    HW133233   3.341   0.454   4.622  0.6851  0.6602  2.6984
 7257SOL    HW233234   3.346   0.318   4.584  0.5766  0.9904  0.7816
 7258SOL     OW33235   1.833   1.744   7.574  0.3951 -0.1112 -0.2000
 7258SOL    HW133236   1.820   1.731   7.480 -1.9261 -0.2415  0.1407
 7258SOL    HW233237   1.915   1.697   7.591  2.4944  3.4223 -0.5849
 7259SOL     OW33238   4.050   2.685  16.663 -0.7496 -0.3876 -0.2570
 7259SOL    HW133239   4.016   2.681  16.753 -2.1854  0.5308 -0.7664
 7259SOL    HW233240   3.985   2.743  16.623  0.2531  0.5471 -0.5146
 7260SOL     OW33241   3.563   3.856   6.191 -0.4739 -0.4862  0.3057
 7260SOL    HW133242   3.655   3.879   6.200 -0.3831  0.1149 -2.0057
 7260SOL    HW233243   3.528   3.944   6.208 -1.1671 -0.7088  0.0519
 7261SOL     OW33244   3.266   3.359   9.095 -0.2636 -0.1792 -0.0596
 7261SOL    HW133245   3.248   3.307   9.174  2.0231 -0.2203  0.4456
 7261SOL    HW233246   3.214   3.436   9.116 -2.9167 -1.4696 -2.0195
 7262SOL     OW33247   2.038   0.830   2.549  0.0652 -0.3363 -0.1069
 7262SOL    HW133248   2.082   0.856   2.469  0.9864  0.3086  0.6165
 7262SOL    HW233249   1.975   0.898   2.570  0.0346 -0.1461 -0.8149
 7263SOL     OW33250   1.804   2.118   1.438  0.2392 -0.2119  0.5921
 7263SOL    HW133251   1.747   2.175   1.491  0.4735  0.4033  0.1740
 7263SOL    HW233252   1.756   2.035   1.445 -0.4782  0.1761  0.3334
 7264SOL     OW33253   3.627   1.070   1.211 -0.4927  0.1714  0.0134
 7264SOL    HW133254   3.696   1.066   1.144 -0.9714 -0.3870 -0.4421
 7264SOL    HW233255   3.624   1.165   1.210 -0.7855  0.1483 -4.3284
 7265SOL     OW33256   3.575   1.619   5.701  0.0186  0.6441 -0.3135
 7265SOL    HW133257   3.528   1.571   5.769  0.7729 -0.6986 -0.7454
 7265SOL    HW233258   3.590   1.550   5.636  0.0681  0.0307  0.3564
 7266SOL     OW33259   4.200   1.548   9.645 -0.1187 -0.4182  0.0619
 7266SOL    HW133260   4.141   1.568   9.718 -0.3293 -0.3826 -0.1187
 7266SOL    HW233261   4.237   1.463   9.670 -2.1363 -0.4460  2.8895
 7267SOL     OW33262   4.029   1.182   5.388 -0.7897  0.5139  0.5940
 7267SOL    HW133263   4.012   1.091   5.413 -1.3527  0.3120 -0.5227
 7267SOL    HW233264   3.951   1.223   5.425  0.1717 -0.0074  3.2290
 7268SOL     OW33265   2.087   2.957   1.954 -0.3987 -0.3764  0.2730
 7268SOL    HW133266   2.037   2.896   2.009 -1.1819  3.5672  3.9474
 7268SOL    HW233267   2.172   2.931   1.990 -0.1616  0.9791  0.6810
 7269SOL     OW33268   1.437   1.389  12.638 -0.3738 -0.9188 -0.4624
 7269SOL    HW133269   1.395   1.465  12.678  1.4243 -0.9428  1.4787
 7269SOL    HW233270   1.508   1.434  12.592  0.3809 -0.6113  0.9717
 7270SOL     OW33271   0.372   0.214   7.589  0.5571 -0.4044  0.0415
 7270SOL    HW133272   0.297   0.267   7.562  0.7561  0.6018  1.4888
 7270SOL    HW233273   0.402   0.267   7.662  0.7459 -0.8509  0.2874
 7271SOL     OW33274   3.050   1.580   2.293 -0.3035 -0.2427 -0.1778
 7271SOL    HW133275   3.070   1.670   2.265  0.8402  0.2369  2.1078
 7271SOL    HW233276   3.024   1.548   2.207  0.8283  1.4850 -1.1708
 7272SOL     OW33277   0.521   1.489   4.963  0.6834  0.1946 -0.6467
 7272SOL    HW133278   0.489   1.493   5.053  2.4578  0.5212 -0.0184
 7272SOL    HW233279   0.592   1.427   4.977  1.0250  0.9928  1.0929
 7273SOL     OW33280   0.734   1.308   7.890  0.0860  0.4992  1.0528
 7273SOL    HW133281   0.704   1.329   7.979 -2.7204 -1.4572  0.5503
 7273SOL    HW233282   0.775   1.224   7.908 -3.1920 -1.7256 -1.9866
 7274SOL     OW33283   2.146   1.558   9.973  0.1657 -0.5332 -0.4617
 7274SOL    HW133284   2.116   1.527  10.058 -1.7307 -0.6815 -1.1855
 7274SOL    HW233285   2.241   1.554   9.984  0.3184  0.1042 -1.5629
 7275SOL     OW33286   2.306   0.839   3.840  0.6480  0.3906 -0.2902
 7275SOL    HW133287   2.307   0.933   3.857  1.0413  0.1960  0.7474
 7275SOL    HW233288   2.397   0.810   3.843  0.4254 -0.2724  0.0623
 7276SOL     OW33289   2.617   1.360   1.421  0.8408 -0.0533  0.4725
 7276SOL    HW133290   2.565   1.290   1.462  0.9154 -2.5141 -3.6684
 7276SOL    HW233291   2.656   1.311   1.349 -0.9254 -1.9150  0.7749
 7277SOL     OW33292   2.728   3.784  10.856  0.4744  0.0741  0.2950
 7277SOL    HW133293   2.701   3.841  10.784  1.3594  3.8265  2.9687
 7277SOL    HW233294   2.651   3.783  10.912  0.7628 -0.1922  0.6842
 7278SOL     OW33295   0.958   1.290   9.067  0.0163 -0.6962 -0.5869
 7278SOL    HW133296   1.043   1.247   9.062  0.6612  0.2640  1.7087
 7278SOL    HW233297   0.968   1.381   9.037 -2.2634 -0.5726 -0.9547
 7279SOL     OW33298   2.893   2.284  14.002 -0.2547  0.2347  0.2061
 7279SOL    HW133299   2.943   2.202  14.004 -1.2104 -0.3250  0.8647
 7279SOL    HW233300   2.951   2.352  14.036  0.0629 -1.2970  2.7156
 7280SOL     OW33301   3.306   2.403   3.526 -0.0056  0.4638 -0.2577
 7280SOL    HW133302   3.256   2.400   3.608  0.3786  1.1050  0.0034
 7280SOL    HW233303   3.305   2.499   3.521 -1.8579  0.6063  2.3381
 7281SOL     OW33304   4.105   2.932   4.637 -0.2935 -0.0475  0.6096
 7281SOL    HW133305   4.184   2.909   4.588 -2.4043 -3.1666 -1.3279
 7281SOL    HW233306   4.120   2.900   4.726 -0.3915 -3.0028 -0.4604
 7282SOL     OW33307   3.804   3.385   0.722  0.5477 -0.3005  0.3688
 7282SOL    HW133308   3.769   3.411   0.807  2.3995 -0.0594  1.0658
 7282SOL    HW233309   3.897   3.373   0.744  0.6184 -2.0893 -0.8678
 7283SOL     OW33310   0.881   3.178   6.639 -0.2783  0.4011 -0.0387
 7283SOL    HW133311   0.933   3.254   6.613 -3.9745  2.1537 -2.3961
 7283SOL    HW233312   0.815   3.205   6.703  0.4122  2.5829 -0.2422
 7284SOL     OW33313   1.514   3.981  16.973  0.4061 -0.7272  0.1742
 7284SOL    HW133314   1.590   4.036  16.992 -2.1547  2.5127  0.9531
 7284SOL    HW233315   1.486   4.014  16.887 -0.0121  0.5971  0.8191
 7285SOL     OW33316   1.680   0.441   3.598 -0.2957 -0.9324 -0.4769
 7285SOL    HW133317   1.672   0.535   3.584  0.5245 -1.0493 -1.6734
 7285SOL    HW233318   1.658   0.407   3.512  1.0792 -1.5977 -0.5594
 7286SOL     OW33319   0.147   1.165   4.952 -0.4905  0.3830  0.0589
 7286SOL    HW133320   0.190   1.213   4.881 -0.4613  1.9904  1.1660
 7286SOL    HW233321   0.183   1.205   5.031 -0.1652  0.1505  0.0299
 7287SOL     OW33322   3.809   1.202   5.569  0.2665  0.5501  0.1007
 7287SOL    HW133323   3.810   1.293   5.600  2.3500 -0.4889  2.9861
 7287SOL    HW233324   3.819   1.149   5.648 -1.3680  0.7268  0.4360
 7288SOL     OW33325   0.898   2.511  15.155 -0.2236  0.8526  0.1938
 7288SOL    HW133326   0.839   2.441  15.182  0.8490 -0.1605 -0.1174
 7288SOL    HW233327   0.960   2.452  15.113 -0.1580  0.5109  0.7825
 7289SOL     OW33328   3.665   4.037   8.167 -0.0353  0.2289 -0.2329
 7289SOL    HW133329   3.612   4.059   8.091  0.1065 -0.8945 -0.6596
 7289SOL    HW233330   3.749   4.009   8.131 -0.4936 -1.2103 -0.1950
 7290SOL     OW33331   4.316   4.333   4.227 -0.3221  0.0491  0.0186
 7290SOL    HW133332   4.253   4.354   4.158 -1.0524  2.7251  1.5221
 7290SOL    HW233333   4.267   4.338   4.309 -2.3247  2.2955 -1.3049
 7291SOL     OW33334   3.101   1.508  13.067  0.3428  0.0053  0.3135
 7291SOL    HW133335   3.082   1.587  13.117 -3.6058 -0.8192  0.1283
 7291SOL    HW233336   3.023   1.458  13.092  1.2374 -0.5631  1.9969
 7292SOL     OW33337   2.953   2.391   9.678 -0.2296 -0.2378  0.1046
 7292SOL    HW133338   2.959   2.478   9.717 -2.3394  0.5292 -1.3128
 7292SOL    HW233339   2.864   2.379   9.647  0.5485 -0.0006 -2.1705
 7293SOL     OW33340   0.561   2.094   1.608  0.3328  0.1522  0.1047
 7293SOL    HW133341   0.526   2.106   1.696 -1.2087 -0.4638 -0.4255
 7293SOL    HW233342   0.547   2.185   1.583 -2.9172 -0.0547  1.2615
 7294SOL     OW33343   2.621   1.988  11.013 -0.1486  0.4116  0.0825
 7294SOL    HW133344   2.620   1.920  10.945 -2.9782  2.0430 -1.5010
 7294SOL    HW233345   2.683   2.052  10.977 -2.3920 -0.1002 -4.6744
 7295SOL     OW33346   2.819   4.123   8.953 -0.6981  0.2392 -0.4228
 7295SOL    HW133347   2.811   4.080   9.038 -0.8776  1.3728  0.1200
 7295SOL    HW233348   2.910   4.147   8.936 -0.7978  2.2551  1.8949
 7296SOL     OW33349   1.428   0.025  17.483  0.8360 -0.4281  0.1156
 7296SOL    HW133350   1.406   0.112  17.449 -2.1882 -0.1760  2.7332
 7296SOL    HW233351   1.344   4.705  17.482  1.0519 -0.8739  2.6595
 7297SOL     OW33352   1.961   4.674   4.036  0.3174  0.1973  0.3515
 7297SOL    HW133353   1.957   0.001   4.117  2.3613 -0.5193  0.9186
 7297SOL    HW233354   1.886   4.706   3.988  0.7601  1.0735  0.2495
 7298SOL     OW33355   3.718   0.467  11.890 -0.4203 -0.2102 -0.3681
 7298SOL    HW133356   3.780   0.501  11.954 -1.5463 -0.2969  0.7591
 7298SOL    HW233357   3.743   0.375  11.876  0.3156 -0.1668  0.6800
 7299SOL     OW33358   1.885   3.716   0.841 -0.1190  0.3746  0.5047
 7299SOL    HW133359   1.965   3.711   0.790 -0.8276 -1.5132 -0.4431
 7299SOL    HW233360   1.881   3.810   0.822 -1.5196  0.3396  0.6072
 7300SOL     OW33361   2.921   4.020   4.138  0.3611 -0.1296  0.1294
 7300SOL    HW133362   2.937   3.928   4.159 -1.9347 -0.6986 -0.5930
 7300SOL    HW233363   2.961   4.060   4.215 -0.3652 -1.5884  1.2583
 7301SOL     OW33364   1.899   3.833  14.718 -0.0886 -0.4211 -0.0007
 7301SOL    HW133365   1.973   3.776  14.740  0.4188  0.5260  0.7717
 7301SOL    HW233366   1.883   3.790  14.634  2.8246 -1.8873  0.2009
 7302SOL     OW33367   2.553   1.319   2.100 -0.5149  0.3636 -0.5154
 7302SOL    HW133368   2.644   1.294   2.120 -0.1347  2.8221  0.7280
 7302SOL    HW233369   2.520   1.230   2.088  0.3041 -0.0237 -0.0008
 7303SOL     OW33370   4.108   3.422   9.054 -0.4049  0.0539  0.2682
 7303SOL    HW133371   4.153   3.338   9.061  0.9399  0.7444 -0.1251
 7303SOL    HW233372   4.017   3.397   9.040 -0.6599  0.8527  0.4656
 7304SOL     OW33373   3.276   3.100   9.041 -0.7923  0.3941  0.4868
 7304SOL    HW133374   3.362   3.087   9.082 -1.1597 -2.6836  0.3107
 7304SOL    HW233375   3.281   3.195   9.039 -2.4797  0.4858  1.0259
 7305SOL     OW33376   1.077   1.583   5.543 -0.2706 -0.2827  0.2510
 7305SOL    HW133377   1.152   1.526   5.528  0.7646  1.2497 -0.3853
 7305SOL    HW233378   1.072   1.639   5.466 -0.4114 -0.3132  0.2387
 7306SOL     OW33379   4.533   2.545   6.135  0.1535 -0.6784  0.0629
 7306SOL    HW133380   4.506   2.481   6.201 -2.0117  0.3109  0.1354
 7306SOL    HW233381   4.466   2.612   6.147  0.6417  0.0995 -1.6036
 7307SOL     OW33382   2.550   0.453   3.523  0.5187 -0.2461  0.0710
 7307SOL    HW133383   2.462   0.424   3.549 -0.8893  1.8752 -2.2199
 7307SOL    HW233384   2.609   0.415   3.587  2.0690  1.2878 -0.4595
 7308SOL     OW33385   0.625   1.103   6.733  0.3468  0.2938 -0.3524
 7308SOL    HW133386   0.649   1.019   6.772 -0.2971  0.7126  0.9148
 7308SOL    HW233387   0.613   1.147   6.817  1.7499  0.5503 -0.2857
 7309SOL     OW33388   4.006   3.259   7.021  0.2977 -0.0302 -0.0274
 7309SOL    HW133389   3.918   3.234   7.049 -1.3566  2.4776 -3.0796
 7309SOL    HW233390   4.048   3.173   7.024  0.9200  0.2751  0.1885
 7310SOL     OW33391   2.386   3.193  16.365  0.3548  0.1980  0.1636
 7310SOL    HW133392   2.370   3.102  16.392 -0.5596  0.2815 -0.0874
 7310SOL    HW233393   2.387   3.174  16.271  1.1249  1.6952 -0.1195
 7311SOL     OW33394   0.965   4.447   3.899  0.3633  0.3347 -0.8078
 7311SOL    HW133395   0.965   4.459   3.994  0.9909  0.1599 -0.7828
 7311SOL    HW233396   0.872   4.459   3.883  0.0799  0.6842  1.0683
 7312SOL     OW33397   4.495   2.974   9.763 -0.3005  0.0256  0.3295
 7312SOL    HW133398   4.413   2.924   9.758  0.8025 -1.7888  0.3836
 7312SOL    HW233399   4.555   2.900   9.760  0.1336  0.4175 -0.3577
 7313SOL     OW33400   1.561   2.183  10.835  0.4523 -0.3818 -0.4359
 7313SOL    HW133401   1.574   2.273  10.866  1.7868 -1.0930  1.0209
 7313SOL    HW233402   1.544   2.137  10.917 -2.0013 -0.3546 -0.9340
 7314SOL     OW33403   1.178   3.755   6.194  0.1488 -0.5765  0.5770
 7314SOL    HW133404   1.154   3.683   6.135  0.7623 -0.2503 -0.0699
 7314SOL    HW233405   1.096   3.803   6.207 -0.1394 -0.2364 -2.5021
 7315SOL     OW33406   4.555   2.172   7.916  0.0506  0.4262  0.2845
 7315SOL    HW133407   4.571   2.235   7.986  1.5842  0.4533 -0.0816
 7315SOL    HW233408   4.467   2.193   7.886 -0.2731 -0.2047  0.8151
 7316SOL     OW33409   1.172   3.618   8.511 -0.1694 -0.6347 -0.2809
 7316SOL    HW133410   1.115   3.546   8.485  0.1847 -1.0776  0.1806
 7316SOL    HW233411   1.194   3.651   8.423  1.7038 -0.0346  0.4064
 7317SOL     OW33412   2.268   1.339  13.872  0.5582  0.3603 -0.3064
 7317SOL    HW133413   2.174   1.323  13.872  0.7879 -1.0920 -1.9017
 7317SOL    HW233414   2.271   1.433  13.857 -0.1794  0.1149 -2.0551
 7318SOL     OW33415   1.182   4.515   1.077 -0.0049 -0.3522  0.3012
 7318SOL    HW133416   1.137   4.574   1.137  0.2561  0.7218 -0.5649
 7318SOL    HW233417   1.215   4.571   1.007  0.7750  0.9360  1.6910
 7319SOL     OW33418   0.986   4.028  16.182  0.3074 -0.1925  0.0695
 7319SOL    HW133419   1.060   4.011  16.240  0.8280  0.8728 -0.2900
 7319SOL    HW233420   0.916   4.001  16.242 -1.1227  0.1352 -1.4282
 7320SOL     OW33421   2.935   0.084   2.797 -0.7324  0.1950 -0.3655
 7320SOL    HW133422   2.944   0.007   2.741  2.2807  0.1752  0.1433
 7320SOL    HW233423   2.943   0.158   2.737  2.1464  1.4476  1.5921
 7321SOL     OW33424   2.738   0.774   2.525  0.1690 -0.4684  0.5931
 7321SOL    HW133425   2.818   0.811   2.487 -0.2149  0.7039  0.9160
 7321SOL    HW233426   2.716   0.849   2.579 -0.3523 -0.5668  0.5142
 7322SOL     OW33427   1.952   0.955  13.665  0.4090  0.0379 -0.0585
 7322SOL    HW133428   1.860   0.932  13.649  0.5272  1.3460 -2.5989
 7322SOL    HW233429   1.962   1.034  13.612  1.4223  0.3440  0.5789
 7323SOL     OW33430   3.206   3.807   6.369 -0.0677 -0.2758  0.1211
 7323SOL    HW133431   3.279   3.745   6.364 -0.7118 -1.1849  2.0713
 7323SOL    HW233432   3.257   3.882   6.400  0.7042 -0.3243 -1.0337
 7324SOL     OW33433   1.948   0.503  12.665 -0.4284 -0.2900 -0.3825
 7324SOL    HW133434   2.023   0.558  12.687 -1.2835 -0.5484  3.1528
 7324SOL    HW233435   1.948   0.488  12.571 -0.2150  3.5745 -1.0041
 7325SOL     OW33436   1.138   3.218  10.090 -0.1774  0.3677  0.4231
 7325SOL    HW133437   1.047   3.245  10.106 -0.5250 -0.8670  0.4820
 7325SOL    HW233438   1.139   3.126  10.115 -1.2911 -0.3640 -2.3089
 7326SOL     OW33439   3.231   1.516  16.191 -0.2328  0.0287 -0.8302
 7326SOL    HW133440   3.314   1.468  16.200 -0.4777 -0.4118 -0.9373
 7326SOL    HW233441   3.259   1.592  16.139 -2.9494 -0.3649 -2.8808
 7327SOL     OW33442   1.534   4.103   6.008  0.0622 -0.0024 -0.2406
 7327SOL    HW133443   1.551   4.169   5.940 -0.6445  0.1857 -0.2267
 7327SOL    HW233444   1.456   4.059   5.975 -0.4843 -0.0513  1.1307
 7328SOL     OW33445   0.091   1.512   3.640  0.1554  0.2151  0.2155
 7328SOL    HW133446   0.173   1.472   3.668 -1.4068 -2.1064  1.4887
 7328SOL    HW233447   0.114   1.537   3.551 -0.9776 -0.5247 -0.2958
 7329SOL     OW33448   1.997   2.073   3.309  0.0251  0.0635 -0.1908
 7329SOL    HW133449   2.009   2.158   3.352 -3.5896  0.2499  0.4782
 7329SOL    HW233450   1.980   2.097   3.218  3.9616  0.9627 -0.6619
 7330SOL     OW33451   1.978   1.759   4.150 -0.5855  0.0955  0.4344
 7330SOL    HW133452   2.027   1.841   4.151 -0.7958  0.2133  0.9117
 7330SOL    HW233453   2.044   1.690   4.141 -1.2709 -0.7890  2.1527
 7331SOL     OW33454   2.811   2.175  10.875 -0.3567  0.1517  0.7894
 7331SOL    HW133455   2.728   2.222  10.867  0.1562  0.8136 -0.6401
 7331SOL    HW233456   2.858   2.215  10.802 -0.5070 -0.7461  0.1933
 7332SOL     OW33457   2.388   3.869   7.724  0.5765 -0.1978 -0.6320
 7332SOL    HW133458   2.424   3.892   7.810 -2.8917  0.3594  0.6924
 7332SOL    HW233459   2.293   3.859   7.727  0.5695  0.9403  2.8451
 7333SOL     OW33460   1.591   1.657   1.943 -0.1584 -0.7789  0.6283
 7333SOL    HW133461   1.501   1.665   1.974  0.3227  2.4758  1.2046
 7333SOL    HW233462   1.578   1.672   1.850  0.6564 -0.8765  0.4997
 7334SOL     OW33463   3.779   1.725   2.084  0.3452 -0.4990  0.3606
 7334SOL    HW133464   3.815   1.655   2.030  1.0543 -1.1151  1.6300
 7334SOL    HW233465   3.860   1.773   2.101  1.7370 -1.7342 -2.7203
 7335SOL     OW33466   1.500   0.829   6.152 -0.0268 -0.1328  0.6003
 7335SOL    HW133467   1.436   0.787   6.209 -0.3398  2.0955  1.8895
 7335SOL    HW233468   1.485   0.920   6.175 -0.3418 -0.0346 -0.0065
 7336SOL     OW33469   3.611   4.593  11.298  0.1275  0.4222  0.3196
 7336SOL    HW133470   3.646   4.531  11.362 -0.2573 -1.4204 -1.2680
 7336SOL    HW233471   3.519   4.566  11.308  0.4855 -1.3631 -1.2796
 7337SOL     OW33472   1.069   3.903   6.526  0.6387  0.3139 -0.0465
 7337SOL    HW133473   1.006   3.840   6.560  0.3262  0.0548 -1.0819
 7337SOL    HW233474   1.101   3.944   6.606 -2.5461  0.0443  1.3439
 7338SOL     OW33475   3.505   3.992   5.252  0.1232 -0.3475 -0.7095
 7338SOL    HW133476   3.416   3.970   5.279  0.9501 -3.5997 -0.5710
 7338SOL    HW233477   3.472   4.026   5.169  1.4530 -1.5518 -1.7228
 7339SOL     OW33478   0.907   1.419   1.511  0.4645  0.0905 -0.0982
 7339SOL    HW133479   0.863   1.369   1.441  2.7433 -1.0587 -0.7071
 7339SOL    HW233480   0.848   1.494   1.512  0.2531 -0.0454 -1.5928
 7340SOL     OW33481   1.639   0.290   3.373  0.3675  0.0518  0.2116
 7340SOL    HW133482   1.713   0.230   3.370 -0.9630 -1.4861 -1.9266
 7340SOL    HW233483   1.656   0.341   3.294  0.1908  1.3221  0.9882
 7341SOL     OW33484   3.520   4.332  16.419  0.0980  0.0944 -0.2621
 7341SOL    HW133485   3.535   4.359  16.329  0.1689  1.8231  0.2732
 7341SOL    HW233486   3.425   4.338  16.426  0.1407 -1.3848  1.6944
 7342SOL     OW33487   4.186   4.690   6.516  0.1041  0.2704  0.0149
 7342SOL    HW133488   4.198   4.595   6.507  0.2570  0.3889 -1.0287
 7342SOL    HW233489   4.164   4.694   6.609 -1.2444 -0.2987 -0.2787
 7343SOL     OW33490   0.838   3.405   1.777 -0.1522 -0.1820  0.6811
 7343SOL    HW133491   0.874   3.493   1.787 -0.8534  0.2877 -0.8206
 7343SOL    HW233492   0.765   3.397   1.715 -0.3483 -0.2964  0.9287
 7344SOL     OW33493   2.965   0.536   6.779 -0.5987  0.6212  0.2603
 7344SOL    HW133494   2.930   0.503   6.696  1.4610  1.0685 -0.7785
 7344SOL    HW233495   3.026   0.466   6.805 -0.9403  0.1234 -0.2665
 7345SOL     OW33496   2.564   2.166   9.658 -0.2746 -0.3499  0.0110
 7345SOL    HW133497   2.649   2.122   9.662 -0.7649 -1.4817 -2.0758
 7345SOL    HW233498   2.578   2.233   9.591  3.0769 -1.1444 -0.0874
 7346SOL     OW33499   0.088   0.314   7.596  0.3489 -0.4309 -0.1080
 7346SOL    HW133500   0.016   0.287   7.539  0.3314  0.8081 -0.6798
 7346SOL    HW233501   0.045   0.385   7.644  0.7705  0.4509 -1.0279
 7347SOL     OW33502   1.299   2.935   0.324  0.0747  0.3203  0.4326
 7347SOL    HW133503   1.254   2.988   0.259 -0.3486 -1.3480 -0.6048
 7347SOL    HW233504   1.246   2.956   0.401 -0.8198  0.7998 -0.3236
 7348SOL     OW33505   1.907   3.436   3.271  0.4004  0.4372  0.2027
 7348SOL    HW133506   1.817   3.468   3.265  0.9998  2.4566  2.0631
 7348SOL    HW233507   1.912   3.384   3.191  1.4700  1.4631 -0.4092
 7349SOL     OW33508   4.039   4.128   4.592 -0.1923 -0.1112  0.4335
 7349SOL    HW133509   3.958   4.158   4.632 -1.4588 -0.0398 -2.1851
 7349SOL    HW233510   4.004   4.074   4.521 -1.6217  0.1844  0.9245
 7350SOL     OW33511   2.219   2.703   3.574 -0.3742  0.0706 -0.3386
 7350SOL    HW133512   2.196   2.611   3.590  1.5673 -0.5024 -0.7303
 7350SOL    HW233513   2.136   2.741   3.546 -0.8157 -2.1080 -2.0407
 7351SOL     OW33514   0.474   1.318  10.199  0.1618 -0.3126  0.3072
 7351SOL    HW133515   0.443   1.408  10.201 -0.7252 -0.6476  1.3791
 7351SOL    HW233516   0.395   1.274  10.167  0.4702 -1.0621  0.5749
 7352SOL     OW33517   3.546   0.796   3.222 -0.1405 -0.1331  0.4366
 7352SOL    HW133518   3.568   0.800   3.129 -2.3777 -1.2642 -0.1387
 7352SOL    HW233519   3.626   0.835   3.258  0.0285 -0.3633  0.3097
 7353SOL     OW33520   4.723   0.122   5.359 -0.2095 -0.5438 -0.1681
 7353SOL    HW133521   4.642   0.083   5.326 -0.9952  2.4020 -1.6683
 7353SOL    HW233522   0.044   0.038   5.373 -0.9435 -1.0132 -0.5827
 7354SOL     OW33523   0.477   1.570   6.276 -0.2362 -0.3634 -0.1521
 7354SOL    HW133524   0.566   1.568   6.310 -1.3195 -0.4338  2.7328
 7354SOL    HW233525   0.436   1.533   6.354 -0.0847 -1.4621 -0.6030
 7355SOL     OW33526   0.847   2.541   5.149 -0.9773 -0.3947 -0.1914
 7355SOL    HW133527   0.813   2.454   5.129 -1.8220 -0.2214  0.4918
 7355SOL    HW233528   0.939   2.534   5.176 -1.0645 -1.3245 -0.1597
 7356SOL     OW33529   3.296   3.111  11.923 -0.2935 -0.5412 -0.1682
 7356SOL    HW133530   3.259   3.115  12.012 -3.5797 -1.0140 -1.5255
 7356SOL    HW233531   3.318   3.204  11.910 -1.4876 -0.5094 -1.9249
 7357SOL     OW33532   4.208   1.729   4.177  0.2879 -0.0384  0.3379
 7357SOL    HW133533   4.228   1.819   4.151  0.7039 -0.3648 -0.4715
 7357SOL    HW233534   4.287   1.684   4.148 -0.2895 -0.4661 -0.5664
 7358SOL     OW33535   1.502   2.806   5.850  0.1325  0.1997  0.1405
 7358SOL    HW133536   1.407   2.801   5.839  0.6161 -0.8842 -3.7547
 7358SOL    HW233537   1.508   2.881   5.909 -0.2599 -0.9054  1.5751
 7359SOL     OW33538   3.283   1.284   5.699 -0.0571  0.1613  0.5910
 7359SOL    HW133539   3.354   1.224   5.677 -0.3700  1.1967 -3.1967
 7359SOL    HW233540   3.239   1.296   5.615 -1.6344  0.8463  1.5149
 7360SOL     OW33541   3.318   1.554   1.639 -0.6051  0.5443  0.5701
 7360SOL    HW133542   3.261   1.486   1.603  0.5698  1.2548 -2.6526
 7360SOL    HW233543   3.375   1.506   1.698  0.7085  0.9049 -0.4048
 7361SOL     OW33544   2.706   3.515   3.971 -0.0405  0.1094 -0.3317
 7361SOL    HW133545   2.627   3.502   4.024  1.0262 -2.7442  0.6157
 7361SOL    HW233546   2.662   3.522   3.887 -2.4444  1.6499  1.0611
 7362SOL     OW33547   4.196   2.544   6.357 -0.6641 -0.3928  0.2605
 7362SOL    HW133548   4.227   2.598   6.284 -0.5347 -1.4646 -0.4717
 7362SOL    HW233549   4.102   2.528   6.342  0.1391 -3.4792 -1.4421
 7363SOL     OW33550   0.806   3.748   2.623  0.1390  0.4262 -0.4117
 7363SOL    HW133551   0.854   3.711   2.697 -0.0185 -0.5957 -0.8177
 7363SOL    HW233552   0.836   3.687   2.556 -0.5132  0.2436 -0.5432
 7364SOL     OW33553   1.817   4.200  16.476 -0.0719 -0.1304  0.2824
 7364SOL    HW133554   1.779   4.287  16.465 -0.6958 -0.4837 -0.3010
 7364SOL    HW233555   1.814   4.183  16.570 -0.2866 -0.3612  0.2332
 7365SOL     OW33556   2.115   1.183   3.319 -0.7813  0.1317  0.3639
 7365SOL    HW133557   2.152   1.103   3.283 -2.3993 -0.1275 -0.7101
 7365SOL    HW233558   2.027   1.180   3.281 -0.1453 -2.1167 -0.9367
 7366SOL     OW33559   0.301   3.052  16.199  0.4239  0.0382 -0.6666
 7366SOL    HW133560   0.256   3.093  16.125 -0.2140  2.6026  1.1184
 7366SOL    HW233561   0.275   2.962  16.182  0.6457  0.0928 -1.2810
 7367SOL     OW33562   3.962   2.568   3.401  0.3244  0.7070  0.3331
 7367SOL    HW133563   3.882   2.616   3.379 -0.2212 -0.0980  0.5671
 7367SOL    HW233564   3.999   2.621   3.471  0.3885  1.3839 -0.2165
 7368SOL     OW33565   1.533   0.066   5.688  0.7545  0.2441 -0.0185
 7368SOL    HW133566   1.625   0.038   5.686  0.7375  0.1950 -0.1186
 7368SOL    HW233567   1.529   0.103   5.776  0.7379 -1.1435  0.5700
 7369SOL     OW33568   1.354   1.501   8.421 -0.5005 -0.2785  0.3089
 7369SOL    HW133569   1.366   1.535   8.333 -2.4886  1.3511  0.6684
 7369SOL    HW233570   1.362   1.584   8.468 -0.4663 -0.4556  0.6183
 7370SOL     OW33571   3.028   1.079   6.313 -0.0967 -0.2248  0.2136
 7370SOL    HW133572   2.961   1.012   6.321  0.4296 -0.9241 -1.2651
 7370SOL    HW233573   2.985   1.148   6.263  1.4852 -0.5689 -1.6341
 7371SOL     OW33574   4.521   3.367  15.114 -0.2520 -0.8554 -0.2409
 7371SOL    HW133575   4.525   3.456  15.078  0.3313 -0.0249  1.9001
 7371SOL    HW233576   4.613   3.350  15.094 -0.2742 -0.9479 -0.2649
 7372SOL     OW33577   0.334   3.942   4.946 -0.2779 -0.5227  0.1802
 7372SOL    HW133578   0.375   3.900   5.021  0.3573 -2.4789 -1.2579
 7372SOL    HW233579   0.372   4.028   4.962  0.1182 -0.8566  1.0257
 7373SOL     OW33580   1.609   1.124   5.149 -0.2968 -0.1981 -0.1857
 7373SOL    HW133581   1.649   1.207   5.175 -2.3331 -0.2732  3.2295
 7373SOL    HW233582   1.565   1.104   5.232  2.5422 -1.6684  0.9539
 7374SOL     OW33583   2.253   4.363  11.910 -0.2166 -0.1464 -0.1378
 7374SOL    HW133584   2.245   4.361  11.815  0.4517 -1.3992 -0.1681
 7374SOL    HW233585   2.347   4.379  11.924 -0.3574  0.8355 -0.3123
 7375SOL     OW33586   4.189   1.833   5.256  0.0949  0.5853 -0.1312
 7375SOL    HW133587   4.266   1.817   5.202  1.9629  0.0198  2.6743
 7375SOL    HW233588   4.205   1.924   5.279 -2.3515  0.9038  0.3900
 7376SOL     OW33589   2.923   0.650   9.135  0.5218  0.0219  0.0846
 7376SOL    HW133590   2.908   0.688   9.221  1.4373 -0.0209  0.2603
 7376SOL    HW233591   3.012   0.621   9.155  0.8981  1.4223  0.3773
 7377SOL     OW33592   2.846   0.297   8.100  0.1196  0.3435 -0.0216
 7377SOL    HW133593   2.771   0.239   8.086  0.2897  0.0052  0.4592
 7377SOL    HW233594   2.898   0.276   8.023 -0.9186  0.3744 -0.7383
 7378SOL     OW33595   2.799   2.008  10.421  0.2497  0.2739  0.6450
 7378SOL    HW133596   2.732   2.023  10.355  0.0459  0.8776  0.9898
 7378SOL    HW233597   2.882   2.016  10.374 -1.1108  2.1839 -1.4134
 7379SOL     OW33598   0.616   0.281   8.871 -0.4272 -0.2681 -0.1277
 7379SOL    HW133599   0.654   0.194   8.863  0.2064 -0.0725  0.7330
 7379SOL    HW233600   0.553   0.268   8.941  0.1732 -1.1578  0.2403
 7380SOL     OW33601   4.417   4.245  17.600 -0.4982 -0.4066 -0.0291
 7380SOL    HW133602   4.391   4.334  17.577  1.1304  0.2627  0.7188
 7380SOL    HW233603   4.487   4.265  17.661 -0.8566  1.9010 -0.3955
 7381SOL     OW33604   4.336   2.003   4.353 -0.2664 -0.1843  0.5626
 7381SOL    HW133605   4.286   1.935   4.398 -2.8354  1.6236  0.4356
 7381SOL    HW233606   4.298   2.008   4.266  1.7999  1.1314 -0.2872
 7382SOL     OW33607   2.263   0.625  17.032 -0.3273  0.5962  0.2028
 7382SOL    HW133608   2.351   0.662  17.042 -0.1140  0.4349 -1.0350
 7382SOL    HW233609   2.268   0.611  16.938  0.1067 -0.1689  0.3372
 7383SOL     OW33610   4.395   0.623   0.053  0.0309 -0.3207 -0.6103
 7383SOL    HW133611   4.399   0.539   0.009  1.8621 -1.4717  1.7591
 7383SOL    HW233612   4.457   0.678   0.005 -1.6419  2.1297 -0.0099
 7384SOL     OW33613   1.645   1.726   3.922  0.2459  0.4326 -0.4986
 7384SOL    HW133614   1.595   1.681   3.854  1.5669 -0.6105 -0.7767
 7384SOL    HW233615   1.571   1.768   3.966  1.6955  1.2640  1.1398
 7385SOL     OW33616   0.446   1.993  12.066 -0.3180  0.0706  0.8224
 7385SOL    HW133617   0.408   2.004  12.153  3.2224  0.7316  2.2689
 7385SOL    HW233618   0.409   2.061  12.009  0.4811  1.6858  2.2516
 7386SOL     OW33619   1.812   1.562   4.042 -0.2819  0.1166  0.2269
 7386SOL    HW133620   1.868   1.634   4.069 -0.7536  0.3280  0.6426
 7386SOL    HW233621   1.759   1.605   3.975 -0.6100 -1.5434 -0.5750
 7387SOL     OW33622   2.659   1.101  11.927 -0.1081  0.7780 -0.6129
 7387SOL    HW133623   2.590   1.072  11.986  1.0238 -2.1893 -0.7685
 7387SOL    HW233624   2.606   1.113  11.848  0.9931  0.5565 -1.3895
 7388SOL     OW33625   4.045   2.508   4.355 -0.0189 -0.1454 -0.4356
 7388SOL    HW133626   4.098   2.429   4.351  1.2461  0.6455  0.8869
 7388SOL    HW233627   4.083   2.547   4.276 -1.0933  0.6348 -0.5767
 7389SOL     OW33628   4.695   3.162   1.619  0.8961  0.2356  0.0176
 7389SOL    HW133629   4.687   3.248   1.579 -0.8233  0.1139  0.1198
 7389SOL    HW233630   4.607   3.131   1.638 -0.5889  4.1937 -0.4860
 7390SOL     OW33631   4.664   1.548   5.521  0.2523  0.0211  0.0177
 7390SOL    HW133632   4.606   1.491   5.470 -0.5779 -0.5470  1.6066
 7390SOL    HW233633   4.690   1.485   5.588 -1.5560 -0.5079  0.2282
 7391SOL     OW33634   4.004   3.049   8.385  0.5283  0.0704  0.5949
 7391SOL    HW133635   4.006   3.057   8.480 -1.0773 -1.2657  0.7258
 7391SOL    HW233636   3.920   3.084   8.356  0.4610 -1.4657 -1.1042
 7392SOL     OW33637   1.362   3.280   5.198  0.0367  0.2970 -0.3182
 7392SOL    HW133638   1.298   3.211   5.212  1.2925 -0.5173  1.4833
 7392SOL    HW233639   1.440   3.234   5.169  0.1394 -0.0570  0.5221
 7393SOL     OW33640   1.805   3.673   0.534 -0.5903 -0.8104  0.3486
 7393SOL    HW133641   1.803   3.677   0.630 -3.2341  1.4694  0.2271
 7393SOL    HW233642   1.875   3.735   0.516 -2.5814  0.4750 -3.0353
 7394SOL     OW33643   1.032   4.196  10.953  0.2585  0.1266 -0.9201
 7394SOL    HW133644   1.119   4.224  10.927  0.8883  0.0266  1.1217
 7394SOL    HW233645   1.046   4.189  11.047  0.4859  1.8818 -0.8199
 7395SOL     OW33646   2.734   2.989   6.079  0.8834  0.2703 -0.2290
 7395SOL    HW133647   2.828   3.007   6.085  1.4720 -1.2803 -4.4008
 7395SOL    HW233648   2.712   2.995   6.172  1.4627  0.5914 -0.1146
 7396SOL     OW33649   2.845   4.436   9.658  0.7216 -0.1844 -0.3374
 7396SOL    HW133650   2.850   4.341   9.665 -0.5470 -0.2407 -0.0750
 7396SOL    HW233651   2.762   4.448   9.611  0.3946  0.0426  0.2846
 7397SOL     OW33652   4.038   3.179   3.383  0.5495  0.4251 -0.4613
 7397SOL    HW133653   4.073   3.103   3.429 -3.3043 -1.2524 -0.2882
 7397SOL    HW233654   4.018   3.148   3.295 -0.7894  2.2418 -0.8047
 7398SOL     OW33655   4.147   1.695  11.000  0.0844 -0.2255  0.4959
 7398SOL    HW133656   4.055   1.722  10.997  0.5081  1.2214  0.6811
 7398SOL    HW233657   4.170   1.700  10.908  0.1552 -0.2250  0.5138
 7399SOL     OW33658   3.507   0.126   9.305 -0.0313 -0.0582 -0.0932
 7399SOL    HW133659   3.533   0.133   9.396  1.8510 -1.1547 -0.5496
 7399SOL    HW233660   3.428   0.072   9.312  0.5747 -1.1222 -1.4426
 7400SOL     OW33661   2.557   1.023   3.449  0.0253 -0.2255 -0.0508
 7400SOL    HW133662   2.494   1.095   3.458  0.5258  0.3994 -1.5098
 7400SOL    HW233663   2.640   1.067   3.463  0.3871 -0.9242  0.0085
 7401SOL     OW33664   3.273   2.043   8.649  0.0600  0.4287 -0.4341
 7401SOL    HW133665   3.196   1.994   8.619 -0.5932  0.4997  1.1299
 7401SOL    HW233666   3.256   2.129   8.610 -0.4732 -0.0791 -1.3217
 7402SOL     OW33667   2.799   1.083   4.734  0.4686  0.2109 -0.5915
 7402SOL    HW133668   2.744   1.152   4.697  1.1784  0.3511 -1.4021
 7402SOL    HW233669   2.882   1.120   4.705  0.5435 -1.6123 -2.7244
 7403SOL     OW33670   3.872   1.554   6.598  0.1909 -0.4992 -0.1917
 7403SOL    HW133671   3.922   1.482   6.562  2.1509 -0.3661  2.2734
 7403SOL    HW233672   3.931   1.611   6.647 -2.0026  1.1154  0.5875
 7404SOL     OW33673   2.884   4.310   5.918 -0.4636  0.2051  0.4663
 7404SOL    HW133674   2.971   4.325   5.881 -0.4997 -2.4340 -0.6636
 7404SOL    HW233675   2.864   4.221   5.890  0.4298  0.7524 -1.8771
 7405SOL     OW33676   1.477   4.168   4.308  0.4414  0.2634  0.1708
 7405SOL    HW133677   1.451   4.250   4.349  0.5522  0.6878 -0.6005
 7405SOL    HW233678   1.412   4.111   4.350  0.9600 -0.4366  0.0176
 7406SOL     OW33679   2.158   3.567   3.243  0.3194  0.1831 -0.0605
 7406SOL    HW133680   2.079   3.526   3.280 -0.0001 -0.6560 -1.7012
 7406SOL    HW233681   2.132   3.571   3.151 -0.5467 -0.1594  0.1625
 7407SOL     OW33682   3.528   1.135   9.361  0.2292 -0.0840  0.4344
 7407SOL    HW133683   3.566   1.095   9.439  0.4604  0.6740  0.7159
 7407SOL    HW233684   3.443   1.093   9.362  0.6762 -0.9965 -0.4681
 7408SOL     OW33685   3.204   2.527   6.339  0.5724 -0.0887 -0.0185
 7408SOL    HW133686   3.277   2.493   6.391  1.1575  1.0019 -0.1307
 7408SOL    HW233687   3.133   2.509   6.401 -0.6395 -0.6051 -1.5663
 7409SOL     OW33688   0.813   0.442   4.358  0.6788 -0.4825  0.2266
 7409SOL    HW133689   0.857   0.401   4.283 -0.3878 -0.9375 -0.1605
 7409SOL    HW233690   0.841   0.533   4.348  0.6708 -0.7402 -2.2414
 7410SOL     OW33691   0.228   3.149  11.432  0.2415  0.3090  0.2493
 7410SOL    HW133692   0.271   3.137  11.348  1.5190 -3.7541  1.4966
 7410SOL    HW233693   0.194   3.065  11.461  1.7220 -1.0812 -2.1043
 7411SOL     OW33694   3.186   4.556   2.596  0.3554 -0.1123 -0.0978
 7411SOL    HW133695   3.123   4.547   2.668 -1.4428 -1.9281 -1.9018
 7411SOL    HW233696   3.160   4.640   2.559 -1.2153 -1.1632 -1.4000
 7412SOL     OW33697   3.136   2.086   5.635 -0.6347 -0.7394  0.4584
 7412SOL    HW133698   3.099   2.033   5.564  1.7438  1.0948 -2.1645
 7412SOL    HW233699   3.229   2.078   5.612 -0.3282  2.5588  0.6395
 7413SOL     OW33700   0.884   0.329   3.388  0.3364  0.2370 -0.0397
 7413SOL    HW133701   0.966   0.279   3.388 -0.6711 -1.4115  1.8055
 7413SOL    HW233702   0.913   0.417   3.413  3.7536 -0.6061 -1.1073
 7414SOL     OW33703   1.445   4.236   3.271  0.0310 -0.3413  1.0169
 7414SOL    HW133704   1.486   4.234   3.358  0.7248  0.1001  0.7048
 7414SOL    HW233705   1.517   4.258   3.212 -0.4382 -1.1921  0.1251
 7415SOL     OW33706   2.035   0.885   3.697  0.3170  0.2128 -0.4269
 7415SOL    HW133707   1.995   0.908   3.613  0.9161 -0.8977 -1.0180
 7415SOL    HW233708   2.102   0.954   3.694 -0.3347  0.9756  2.4862
 7416SOL     OW33709   2.206   3.632   7.452  0.5863 -0.1032  0.6742
 7416SOL    HW133710   2.204   3.589   7.366  0.3357  2.8675 -0.8288
 7416SOL    HW233711   2.150   3.575   7.504 -1.0064  1.2840  0.5038
 7417SOL     OW33712   2.710   1.024   7.836  0.0712 -0.0762  0.2914
 7417SOL    HW133713   2.778   1.010   7.769  1.6698  3.4559  1.1358
 7417SOL    HW233714   2.733   0.944   7.883  0.1757 -0.4519 -0.3973
 7418SOL     OW33715   2.948   4.237   7.685 -0.0635 -0.6094 -0.2394
 7418SOL    HW133716   2.910   4.165   7.636 -0.9929 -0.4150  0.1938
 7418SOL    HW233717   2.898   4.228   7.766  0.7413 -0.9343  0.2241
 7419SOL     OW33718   4.438   4.273  14.351  0.1723 -0.0003  0.0936
 7419SOL    HW133719   4.445   4.312  14.263 -1.1708 -0.8252 -0.3743
 7419SOL    HW233720   4.360   4.323  14.375 -0.4431 -1.3581  0.8657
 7420SOL     OW33721   3.740   3.771   4.356  0.0209 -0.1527  0.0290
 7420SOL    HW133722   3.693   3.747   4.276  0.5688  0.6129 -0.5245
 7420SOL    HW233723   3.675   3.760   4.426  0.8551 -2.0761  0.5160
 7421SOL     OW33724   3.348   3.689   5.330 -0.6526  0.1810 -0.3967
 7421SOL    HW133725   3.305   3.624   5.274 -0.5881  0.2725 -0.5523
 7421SOL    HW233726   3.381   3.633   5.399  0.9367  2.1528  0.4299
 7422SOL     OW33727   4.609   3.457   2.697 -0.4964 -0.3065 -0.3399
 7422SOL    HW133728   4.642   3.513   2.627  1.7768 -0.9994  0.1769
 7422SOL    HW233729   4.556   3.400   2.641 -1.7399  0.7628 -0.2612
 7423SOL     OW33730   0.807   0.086   2.898 -0.3797  0.1973  0.3888
 7423SOL    HW133731   0.793   0.148   2.970 -0.9684  0.1502  0.3088
 7423SOL    HW233732   0.866   0.025   2.944  1.3123  1.0404 -0.6596
 7424SOL     OW33733   2.766   0.469  10.845  0.3416 -0.6546  0.8230
 7424SOL    HW133734   2.839   0.434  10.897  2.0235  0.2600 -0.8997
 7424SOL    HW233735   2.707   0.496  10.915  0.0231  0.7133  0.0236
 7425SOL     OW33736   2.225   0.155   2.192  0.1635  0.8519  0.2252
 7425SOL    HW133737   2.299   0.102   2.163 -0.8605 -0.5476  0.1793
 7425SOL    HW233738   2.235   0.154   2.287 -2.7006  0.8133  0.5335
 7426SOL     OW33739   2.875   3.453   9.011  0.6179 -0.3311  0.0177
 7426SOL    HW133740   2.813   3.445   8.938 -0.6619  0.5142  0.9971
 7426SOL    HW233741   2.895   3.362   9.028  0.9017 -0.2630  0.0440
 7427SOL     OW33742   3.008   2.105   3.754  0.4716 -0.5796 -0.3040
 7427SOL    HW133743   3.054   2.025   3.780  0.0827 -0.8283 -0.3803
 7427SOL    HW233744   2.930   2.105   3.809 -0.1769 -0.2123 -1.2313
 7428SOL     OW33745   4.382   2.893  13.109  0.2595  0.6809 -0.5977
 7428SOL    HW133746   4.427   2.825  13.160  1.1845  2.1073  0.4739
 7428SOL    HW233747   4.397   2.865  13.019 -1.9975 -2.3590 -0.0431
 7429SOL     OW33748   3.692   4.096  13.020  0.1509  0.1212 -0.7600
 7429SOL    HW133749   3.608   4.051  13.023  0.6444 -0.8289 -1.3639
 7429SOL    HW233750   3.687   4.169  12.958 -5.1924  0.2921 -0.1319
 7430SOL     OW33751   4.376   0.624   9.502  0.8040  0.3419 -0.4131
 7430SOL    HW133752   4.290   0.605   9.464  0.4100 -2.5814  1.9467
 7430SOL    HW233753   4.434   0.554   9.473  1.0393 -0.1123  1.1536
 7431SOL     OW33754   2.646   2.374  12.678 -0.2486  0.2894 -0.0183
 7431SOL    HW133755   2.742   2.367  12.684 -0.1193  1.5295 -0.7025
 7431SOL    HW233756   2.625   2.398  12.768  0.6281 -0.3820  0.3704
 7432SOL     OW33757   0.592   3.619   8.093  0.5802  0.0264 -0.4392
 7432SOL    HW133758   0.510   3.647   8.133 -1.3521 -1.7530 -3.0757
 7432SOL    HW233759   0.594   3.679   8.019  0.0733 -0.0818 -0.5451
 7433SOL     OW33760   1.769   3.387   7.277 -0.7742 -0.0743 -0.0391
 7433SOL    HW133761   1.783   3.297   7.304  1.1296  0.3901  0.5629
 7433SOL    HW233762   1.686   3.381   7.230  0.4444 -0.2721 -2.2053
 7434SOL     OW33763   2.372   0.109   4.463  0.0442  0.0043  0.0165
 7434SOL    HW133764   2.343   0.162   4.388 -0.4948 -0.9258 -0.4344
 7434SOL    HW233765   2.434   0.176   4.491  1.6050 -2.3194  2.0913
 7435SOL     OW33766   1.637   2.805  11.331  0.0599 -0.1345 -0.0722
 7435SOL    HW133767   1.550   2.776  11.303 -0.2700  3.5527 -2.8686
 7435SOL    HW233768   1.685   2.799  11.248 -0.3747 -0.3999 -0.3042
 7436SOL     OW33769   3.298   0.520   8.242 -0.3385  0.5180 -0.1742
 7436SOL    HW133770   3.285   0.466   8.320  1.2689  0.6048  0.1594
 7436SOL    HW233771   3.365   0.574   8.285 -0.1282  0.0314  0.1014
 7437SOL     OW33772   0.631   2.681   5.037 -0.0371 -0.3221 -0.0858
 7437SOL    HW133773   0.710   2.629   5.046  0.0844  0.0240  0.8197
 7437SOL    HW233774   0.565   2.619   5.069  1.4167 -2.3100 -0.9707
 7438SOL     OW33775   0.672   4.414   8.232  0.2652 -0.6240 -0.4292
 7438SOL    HW133776   0.703   4.335   8.187  1.5102  0.0825 -0.8122
 7438SOL    HW233777   0.610   4.375   8.294 -0.0670 -1.1774 -1.1145
 7439SOL     OW33778   4.702   2.369   7.696 -0.5287  0.6003  0.3289
 7439SOL    HW133779   0.021   2.449   7.665  3.4643 -1.7052 -0.0844
 7439SOL    HW233780   4.688   2.390   7.788 -0.3174 -1.4995  0.8219
 7440SOL     OW33781   0.233   2.002   8.653  0.0036 -0.2736  0.7015
 7440SOL    HW133782   0.257   2.036   8.739  0.3459  0.8582  0.1567
 7440SOL    HW233783   0.276   2.068   8.598 -1.6178 -1.6242 -2.1768
 7441SOL     OW33784   3.233   4.213   6.017  0.2701 -0.0463 -0.0595
 7441SOL    HW133785   3.218   4.265   5.938  3.0432 -1.0334 -1.2459
 7441SOL    HW233786   3.314   4.174   5.982 -1.2387 -2.4850 -0.8996
 7442SOL     OW33787   3.884   0.372   4.412  0.1920  0.3535 -0.3874
 7442SOL    HW133788   3.865   0.371   4.319  0.6639 -4.2790 -0.4325
 7442SOL    HW233789   3.908   0.282   4.435 -0.4873 -0.1852 -1.7925
 7443SOL     OW33790   0.824   2.972   7.619  0.7724  0.0611  0.5385
 7443SOL    HW133791   0.914   2.942   7.632  1.3188  0.9498 -1.2820
 7443SOL    HW233792   0.833   3.066   7.608  0.3466  0.3333  2.4864
 7444SOL     OW33793   3.979   0.261   9.271 -0.2614 -0.3564 -0.7132
 7444SOL    HW133794   3.965   0.346   9.232  0.1123 -0.3269 -0.7790
 7444SOL    HW233795   3.896   0.219   9.250  0.5975 -2.9033  0.8514
 7445SOL     OW33796   3.431   4.210   9.672 -0.0097 -0.8919  0.0735
 7445SOL    HW133797   3.426   4.121   9.638  0.5249 -0.4557 -1.1717
 7445SOL    HW233798   3.344   4.247   9.655  0.2535 -0.5926 -0.6319
 7446SOL     OW33799   1.857   0.789   5.044  0.4332  0.2012 -0.0881
 7446SOL    HW133800   1.784   0.843   5.015  1.6270  1.8793  0.0538
 7446SOL    HW233801   1.811   0.714   5.081 -0.6905  0.6040 -0.6906
 7447SOL     OW33802   1.646   0.939   4.948 -0.6276  0.1156 -0.2454
 7447SOL    HW133803   1.677   0.985   4.870  2.0943 -2.9562 -1.0102
 7447SOL    HW233804   1.638   1.005   5.017  1.0990  0.2696 -0.1856
 7448SOL     OW33805   3.425   3.802   5.943  0.0220 -0.3882  0.2068
 7448SOL    HW133806   3.467   3.785   6.028  0.2727 -0.1829  0.1248
 7448SOL    HW233807   3.377   3.880   5.973  1.1670  0.2147  0.4986
 7449SOL     OW33808   3.297   4.219   2.773  0.2199 -0.7341  0.3143
 7449SOL    HW133809   3.376   4.215   2.718 -0.2994 -0.3595 -0.4653
 7449SOL    HW233810   3.267   4.308   2.754  0.5619 -0.4411  1.1285
 7450SOL     OW33811   0.485   3.972  15.281  0.3838 -0.2718 -0.2657
 7450SOL    HW133812   0.490   4.052  15.229 -1.1341 -0.8214 -1.2404
 7450SOL    HW233813   0.390   3.978  15.292  0.4371 -0.6311  0.4148
 7451SOL     OW33814   3.523   2.041   8.358  0.4717 -0.6234 -0.0664
 7451SOL    HW133815   3.429   2.051   8.374  0.3444 -1.2834 -0.3691
 7451SOL    HW233816   3.529   2.132   8.331 -1.3927  0.3615  2.7811
 7452SOL     OW33817   3.909   2.933   7.367  0.3501  0.3963 -0.1117
 7452SOL    HW133818   3.870   2.999   7.424 -0.5540  1.7537 -2.3140
 7452SOL    HW233819   4.000   2.962   7.365 -0.2137  2.2139  0.7330
 7453SOL     OW33820   3.819   1.991   3.787  0.1024 -0.3412  0.4902
 7453SOL    HW133821   3.781   2.077   3.770 -2.3879 -1.5943 -0.2763
 7453SOL    HW233822   3.745   1.944   3.826  0.1448 -0.4766  0.4093
 7454SOL     OW33823   3.838   0.905  15.837  0.3440 -0.1468 -0.8487
 7454SOL    HW133824   3.759   0.948  15.870 -0.0456 -0.7000 -1.0583
 7454SOL    HW233825   3.861   0.971  15.772 -2.0848 -0.8909 -2.4860
 7455SOL     OW33826   2.595   1.743   0.766 -0.3728 -0.6749 -0.0393
 7455SOL    HW133827   2.668   1.693   0.801 -0.8153 -1.7689 -0.6762
 7455SOL    HW233828   2.577   1.800   0.841  2.1330 -0.5258  0.4313
 7456SOL     OW33829   2.095   3.905   8.796  0.2353  0.0472 -0.5099
 7456SOL    HW133830   2.015   3.853   8.799 -0.2987  0.8155 -1.3159
 7456SOL    HW233831   2.056   3.989   8.773 -1.3869 -0.5658  0.0296
 7457SOL     OW33832   3.205   0.084   6.018  0.5176 -0.2221 -0.3207
 7457SOL    HW133833   3.262   0.081   5.940 -0.1399  2.0543 -0.8769
 7457SOL    HW233834   3.123   0.061   5.974 -0.8176  2.0252  0.9845
 7458SOL     OW33835   1.067   0.442   5.976 -0.7768 -0.2760  0.3990
 7458SOL    HW133836   1.150   0.456   5.931 -1.3783 -0.6310 -0.8229
 7458SOL    HW233837   1.014   0.513   5.941 -1.1363 -1.7453 -2.0567
 7459SOL     OW33838   2.882   3.327   7.307 -0.4258 -0.3327  0.2275
 7459SOL    HW133839   2.919   3.278   7.380  1.9464  0.7910 -0.1773
 7459SOL    HW233840   2.807   3.367   7.350 -0.7779 -1.5818  0.7636
 7460SOL     OW33841   2.986   4.673   3.212  0.5963 -0.0134  0.3111
 7460SOL    HW133842   2.990   4.584   3.179 -2.0810  0.6171 -1.7202
 7460SOL    HW233843   2.919   4.655   3.277  0.0533 -0.4445 -0.3690
 7461SOL     OW33844   1.035   0.547  12.303 -0.7577 -0.8131  0.0176
 7461SOL    HW133845   0.977   0.480  12.340 -0.9840 -1.4552 -1.4662
 7461SOL    HW233846   0.979   0.621  12.282  1.2649  1.0759  1.3702
 7462SOL     OW33847   1.998   1.599   8.663 -0.4263  0.3299 -0.0256
 7462SOL    HW133848   2.021   1.635   8.749 -0.2198  0.2749 -0.0582
 7462SOL    HW233849   1.911   1.636   8.647 -0.9376 -0.5362  0.7770
 7463SOL     OW33850   2.978   3.312  16.774 -0.8145 -0.6926 -0.2809
 7463SOL    HW133851   2.957   3.389  16.720 -1.7009  0.0281  1.0916
 7463SOL    HW233852   3.043   3.269  16.719 -1.6512  0.0595 -1.8843
 7464SOL     OW33853   2.655   0.071   2.866  0.2191 -0.2220 -0.1948
 7464SOL    HW133854   2.737   0.072   2.816  1.4520 -1.1350  1.8424
 7464SOL    HW233855   2.682   0.132   2.935  0.4435  0.5317 -0.9440
 7465SOL     OW33856   4.251   0.530  11.254  0.3730 -0.0118  0.2294
 7465SOL    HW133857   4.323   0.488  11.300  1.1693  0.6326 -0.4437
 7465SOL    HW233858   4.260   0.499  11.163 -1.3054 -3.1049  1.1031
 7466SOL     OW33859   0.850   0.713   2.370 -0.5205 -0.6831 -0.1047
 7466SOL    HW133860   0.937   0.679   2.391  0.0111  0.9544  0.3206
 7466SOL    HW233861   0.797   0.663   2.432 -2.7036 -1.3537 -2.5262
 7467SOL     OW33862   0.872   0.627  15.617  0.3265 -0.2417  0.3474
 7467SOL    HW133863   0.842   0.600  15.530 -1.0749 -0.2043  0.8160
 7467SOL    HW233864   0.854   0.720  15.631  0.6098 -0.1204 -0.0978
 7468SOL     OW33865   3.808   2.164   5.839 -0.4716 -0.0363  0.7233
 7468SOL    HW133866   3.832   2.254   5.816 -2.3744  0.2309 -0.2755
 7468SOL    HW233867   3.875   2.123   5.892  1.6159  0.2991 -1.6294
 7469SOL     OW33868   3.366   0.516   5.615 -0.1330  0.4823  0.1592
 7469SOL    HW133869   3.297   0.451   5.622  0.7264 -0.3404  1.0027
 7469SOL    HW233870   3.389   0.529   5.707  0.0893 -2.9975  0.5806
 7470SOL     OW33871   4.643   3.014   8.680 -0.1902 -0.0961  0.4285
 7470SOL    HW133872   4.558   3.035   8.641 -0.2044 -0.6572  0.1566
 7470SOL    HW233873   4.664   3.089   8.736  0.4058  0.8052 -1.0009
 7471SOL     OW33874   4.505   3.897  11.198 -0.5252  0.2486 -0.4579
 7471SOL    HW133875   4.574   3.939  11.249 -0.5911 -1.7658  1.2678
 7471SOL    HW233876   4.447   3.872  11.270  1.4798  0.5871  1.2565
 7472SOL     OW33877   1.575   1.945   7.864 -0.4790  0.3553 -0.1114
 7472SOL    HW133878   1.487   1.983   7.862 -0.9922 -0.9686 -2.3411
 7472SOL    HW233879   1.624   2.018   7.903 -1.4262  1.6886 -1.3892
 7473SOL     OW33880   4.591   4.113  17.214  0.3600 -0.4160  0.3903
 7473SOL    HW133881   4.576   4.204  17.187  3.2297 -0.0430  0.0708
 7473SOL    HW233882   4.665   4.086  17.160 -0.3169  2.1316 -1.8330
 7474SOL     OW33883   2.189   2.159   8.283  0.0768 -0.0835 -0.2484
 7474SOL    HW133884   2.175   2.125   8.372 -0.2548  2.4906  0.6711
 7474SOL    HW233885   2.166   2.077   8.239  2.0468 -0.2451 -0.9946
 7475SOL     OW33886   1.903   3.887   6.529  0.2732  0.2844 -0.1517
 7475SOL    HW133887   1.868   3.805   6.562 -1.6299  1.0818 -0.2067
 7475SOL    HW233888   1.996   3.870   6.516  0.4191  1.7253 -1.0465
 7476SOL     OW33889   0.677   4.471   3.198 -0.2616 -0.0919 -0.0900
 7476SOL    HW133890   0.656   4.446   3.287  1.1327  0.1559  0.3089
 7476SOL    HW233891   0.603   4.528   3.176  1.1281  1.4910 -0.7503
 7477SOL     OW33892   0.735   0.723   5.417  0.3744  0.0585  0.0437
 7477SOL    HW133893   0.792   0.692   5.346  0.8518  1.0038  0.0145
 7477SOL    HW233894   0.752   0.816   5.407 -2.3067  0.5539  0.2541
 7478SOL     OW33895   0.518   3.331   4.094  0.0921 -0.1657 -0.2805
 7478SOL    HW133896   0.557   3.244   4.088  2.2798  0.9230 -2.0274
 7478SOL    HW233897   0.456   3.316   4.022  0.0788  1.9758 -0.7045
 7479SOL     OW33898   3.535   2.772  16.084 -0.3138  0.2238  0.1612
 7479SOL    HW133899   3.487   2.805  16.008 -1.4031  1.0897  1.2210
 7479SOL    HW233900   3.562   2.848  16.135  0.6721 -0.0755  0.0787
 7480SOL     OW33901   2.994   4.203   6.371 -0.2852  0.4896  0.2890
 7480SOL    HW133902   2.915   4.186   6.421  0.2830  0.1335  1.0643
 7480SOL    HW233903   2.960   4.210   6.282 -0.1051 -0.7768  0.1236
 7481SOL     OW33904   2.438   0.304  17.041  0.0867  0.3083 -0.1729
 7481SOL    HW133905   2.392   0.221  17.028  0.0695  0.0700  1.4076
 7481SOL    HW233906   2.438   0.334  16.951 -3.1646  0.9122  0.0134
 7482SOL     OW33907   0.959   2.510   6.477 -0.9507  0.2937  0.0925
 7482SOL    HW133908   0.866   2.531   6.469 -0.4386  2.2893 -0.5327
 7482SOL    HW233909   0.989   2.601   6.472 -1.9188  0.5512 -0.9652
 7483SOL     OW33910   2.748   2.556   7.769 -0.1500  0.0083  0.3317
 7483SOL    HW133911   2.662   2.547   7.728  0.5013 -0.3527 -0.9528
 7483SOL    HW233912   2.803   2.589   7.698  0.0899 -2.8588 -0.7911
 7484SOL     OW33913   2.214   3.603   3.617 -0.7800 -0.1188 -0.2514
 7484SOL    HW133914   2.238   3.595   3.524  0.7638 -2.0691  0.3098
 7484SOL    HW233915   2.122   3.581   3.608 -0.9311  0.9541 -1.3860
 7485SOL     OW33916   1.428   2.715  11.147 -0.0557  0.0324  0.2222
 7485SOL    HW133917   1.439   2.797  11.099 -0.1563  0.6711  1.2871
 7485SOL    HW233918   1.461   2.650  11.086 -0.0997 -0.8695  1.1565
 7486SOL     OW33919   4.572   3.984   0.035 -0.1936 -0.2308 -0.1992
 7486SOL    HW133920   4.516   4.007   0.109  0.8135 -0.2651  0.5728
 7486SOL    HW233921   4.586   4.069  17.692  0.1938  0.1129  0.6046
 7487SOL     OW33922   2.857   4.062   5.820 -0.1948 -0.1537 -0.1335
 7487SOL    HW133923   2.839   4.063   5.726  0.6430 -2.1413 -0.3130
 7487SOL    HW233924   2.908   3.982   5.832  1.3886  0.7151 -1.0687
 7488SOL     OW33925   4.538   3.550   7.657  0.7265  0.2779 -0.0515
 7488SOL    HW133926   4.631   3.549   7.679 -0.0554  0.0984  3.3597
 7488SOL    HW233927   4.551   3.502   7.575  0.3395 -0.0607  0.0848
 7489SOL     OW33928   1.401   0.743  15.663 -0.1656 -0.6021 -0.4668
 7489SOL    HW133929   1.477   0.800  15.657  0.0862 -0.9931 -0.9463
 7489SOL    HW233930   1.361   0.748  15.576  0.2231  1.1602 -0.5458
 7490SOL     OW33931   1.606   1.015   7.119 -0.3643  0.0837 -0.6768
 7490SOL    HW133932   1.546   0.943   7.137 -0.6584  0.3736 -0.5260
 7490SOL    HW233933   1.564   1.077   7.059 -0.5443  1.7895  1.2502
 7491SOL     OW33934   0.722   4.334   3.840  0.5989 -0.6262  0.3170
 7491SOL    HW133935   0.707   4.262   3.901 -2.1404  0.5357  1.0003
 7491SOL    HW233936   0.681   4.298   3.761  0.7603 -0.6673  0.2516
 7492SOL     OW33937   4.609   0.244   6.339  0.0525 -0.0246  0.3266
 7492SOL    HW133938   4.535   0.214   6.393  0.7592 -1.5217  0.4667
 7492SOL    HW233939   4.660   0.288   6.407  1.1758 -0.7630 -0.0449
 7493SOL     OW33940   0.095   1.876   4.386 -0.1078 -0.4588 -0.2625
 7493SOL    HW133941   0.101   1.952   4.328 -1.7243  0.3713  0.6539
 7493SOL    HW233942   0.161   1.821   4.343 -1.3940 -1.0405 -1.5213
 7494SOL     OW33943   0.237   3.661   4.275  0.2482  0.4008  0.0235
 7494SOL    HW133944   0.270   3.653   4.186 -1.2995  0.0730 -0.5311
 7494SOL    HW233945   0.148   3.697   4.270  0.1668 -0.0296 -1.4543
 7495SOL     OW33946   3.220   1.863   9.236  0.0210 -0.7036 -0.9603
 7495SOL    HW133947   3.231   1.914   9.156 -1.5241 -0.8669 -1.2827
 7495SOL    HW233948   3.124   1.855   9.235  0.0741 -1.2332 -3.7640
 7496SOL     OW33949   4.680   2.895   6.038  0.5110 -0.2307  0.7303
 7496SOL    HW133950   4.703   2.853   6.121  0.0066 -0.8608  0.5552
 7496SOL    HW233951   0.010   2.850   5.973  0.3651  0.2066  0.3030
 7497SOL     OW33952   1.496   1.522   8.928 -0.4052  0.7692  0.0019
 7497SOL    HW133953   1.492   1.537   9.022 -1.1859 -0.8471  0.2055
 7497SOL    HW233954   1.573   1.574   8.903  1.1622 -0.7484  1.7075
 7498SOL     OW33955   2.017   2.129   4.374 -0.4021  0.0441  0.2901
 7498SOL    HW133956   1.997   2.164   4.287 -0.1065  1.0259  0.6068
 7498SOL    HW233957   1.953   2.059   4.381 -0.9855  0.5634  0.1223
 7499SOL     OW33958   1.538   0.149   0.975  0.3350  0.5439  0.0438
 7499SOL    HW133959   1.488   0.079   1.018  0.8114 -0.8764 -1.7316
 7499SOL    HW233960   1.539   0.119   0.884  1.7692 -1.3602  0.6773
 7500SOL     OW33961   4.057   1.981   8.313 -0.9449 -0.1359  0.1189
 7500SOL    HW133962   4.013   1.902   8.282 -1.6284 -0.3701  1.6942
 7500SOL    HW233963   3.980   2.038   8.322  0.0085  1.4266 -1.6015
 7501SOL     OW33964   2.199   0.548   1.556  0.4109  0.3408 -0.2868
 7501SOL    HW133965   2.130   0.535   1.491  1.8256  0.4232 -1.7827
 7501SOL    HW233966   2.269   0.504   1.509 -0.8515 -1.8116 -0.1335
 7502SOL     OW33967   4.534   0.356   7.839  0.1831 -0.4517 -0.0321
 7502SOL    HW133968   4.505   0.295   7.908 -1.6462  0.3101 -0.1132
 7502SOL    HW233969   4.597   0.309   7.784  0.3245  0.7933 -0.9354
 7503SOL     OW33970   0.355   0.646   3.107 -0.2235  0.1487  0.0812
 7503SOL    HW133971   0.382   0.662   3.197 -0.0180  0.6967 -0.0770
 7503SOL    HW233972   0.261   0.658   3.122 -0.1998  1.3838 -0.6817
 7504SOL     OW33973   0.972   1.266   6.689  0.5403  0.1492 -0.2330
 7504SOL    HW133974   1.063   1.277   6.659 -0.3320  1.5081 -2.4058
 7504SOL    HW233975   0.949   1.177   6.662 -2.6105  0.1847  2.4115
 7505SOL     OW33976   1.291   0.291   8.449 -0.5729  0.0187  0.0709
 7505SOL    HW133977   1.371   0.304   8.398 -0.5860  1.2027  0.3620
 7505SOL    HW233978   1.299   0.352   8.522  2.6074  0.2532 -0.4874
 7506SOL     OW33979   3.983   3.889   7.788  0.1391 -0.0251 -0.4803
 7506SOL    HW133980   4.060   3.940   7.812  0.5484 -1.9206  2.1670
 7506SOL    HW233981   4.021   3.801   7.786 -1.0323 -0.6076  2.9305
 7507SOL     OW33982   1.750   4.135  17.153  0.5046  0.3333 -0.4775
 7507SOL    HW133983   1.681   4.199  17.139 -0.2340 -0.0856  1.2770
 7507SOL    HW233984   1.703   4.065  17.197 -2.9945  1.4453 -2.4467
 7508SOL     OW33985   3.179   4.677   3.951  0.1693  0.5590 -0.6630
 7508SOL    HW133986   3.200   0.025   4.010  1.3191 -0.3231 -0.0022
 7508SOL    HW233987   3.241   4.685   3.878  2.3466 -0.3212  1.1251
 7509SOL     OW33988   4.055   3.387   3.575 -0.2066  0.3063  0.3010
 7509SOL    HW133989   4.070   3.327   3.502 -3.1790 -1.4453  1.1152
 7509SOL    HW233990   4.028   3.469   3.533 -0.9656 -0.0481  0.0927
 7510SOL     OW33991   3.955   1.093   8.433  0.5028  0.5950  0.0839
 7510SOL    HW133992   3.986   1.046   8.510  0.9603  1.5139  0.4490
 7510SOL    HW233993   4.021   1.080   8.365 -0.1791  2.5246 -0.9504
 7511SOL     OW33994   2.255   1.489   1.799  0.0335 -0.0670  0.1462
 7511SOL    HW133995   2.265   1.584   1.791  1.5568 -0.1509  0.9076
 7511SOL    HW233996   2.235   1.461   1.710  0.1475 -0.3728  0.2171
 7512SOL     OW33997   3.721   2.248  10.956 -0.2968 -0.6827 -0.3437
 7512SOL    HW133998   3.757   2.325  10.999  1.6637 -0.6277 -2.0541
 7512SOL    HW233999   3.627   2.267  10.960 -0.5144 -1.7394 -0.3947
 7513SOL     OW34000   0.315   0.539   4.242  0.3824  0.2662  0.4545
 7513SOL    HW134001   0.240   0.532   4.302 -1.4859  2.1936 -1.6386
 7513SOL    HW234002   0.370   0.481   4.295  0.0360  1.0160  1.6224
 7514SOL     OW34003   3.387   2.401   2.550 -0.1101  0.4648 -0.2317
 7514SOL    HW134004   3.379   2.307   2.535 -0.5118  0.4497  0.0822
 7514SOL    HW234005   3.477   2.402   2.583 -0.0814 -0.5688 -0.2850
 7515SOL     OW34006   1.286   0.192  14.853  0.0499  0.1089  0.1187
 7515SOL    HW134007   1.227   0.123  14.823  0.7555 -0.9327  1.1826
 7515SOL    HW234008   1.352   0.143  14.901  1.2131 -0.0506 -1.6415
 7516SOL     OW34009   3.580   3.101   4.350 -0.5494  0.2609 -0.1779
 7516SOL    HW134010   3.497   3.067   4.385 -0.3722 -0.0684 -0.0810
 7516SOL    HW234011   3.542   3.158   4.283 -1.3745 -0.2706 -0.1702
 7517SOL     OW34012   3.160   0.602   8.636 -0.2593 -0.4407  0.2774
 7517SOL    HW134013   3.213   0.675   8.604 -1.4967  0.2123 -0.2853
 7517SOL    HW234014   3.202   0.525   8.597  1.0916  1.0411 -1.1766
 7518SOL     OW34015   1.905   1.063   9.333 -0.4247 -0.5474 -0.1773
 7518SOL    HW134016   1.991   1.093   9.304 -0.3449 -0.1040  0.5230
 7518SOL    HW234017   1.887   1.123   9.405 -0.1020 -1.5288  0.7124
 7519SOL     OW34018   3.983   0.968  13.732 -0.5180  0.6305  0.0096
 7519SOL    HW134019   4.069   0.929  13.750 -0.7685  0.1471  0.1644
 7519SOL    HW234020   4.008   1.061  13.732 -4.2052  1.6265 -0.1305
 7520SOL     OW34021   3.973   4.153   3.871  0.1751 -0.4794 -0.2648
 7520SOL    HW134022   4.008   4.152   3.782  3.0751  0.8619  0.8671
 7520SOL    HW234023   3.945   4.066   3.899  2.9918 -0.6852  1.8876
 7521SOL     OW34024   0.248   3.450   4.465 -0.3471  0.5215 -0.0656
 7521SOL    HW134025   0.204   3.382   4.415  1.3330 -0.5218 -0.1278
 7521SOL    HW234026   0.235   3.524   4.405  0.6107  0.1728 -0.7142
 7522SOL     OW34027   2.272   3.909   0.972  0.9413  0.1059  0.3117
 7522SOL    HW134028   2.249   3.976   1.037  0.9609 -0.1148  0.5447
 7522SOL    HW234029   2.263   3.953   0.887 -1.0562  0.7433  0.8617
 7523SOL     OW34030   0.250   2.020  16.684 -0.0121 -0.5906 -0.1334
 7523SOL    HW134031   0.194   1.993  16.757  0.2151 -3.3795 -0.9922
 7523SOL    HW234032   0.302   2.085  16.733 -2.0649  0.9846 -0.0659
 7524SOL     OW34033   0.569   2.855   5.326 -0.3087 -0.1354  0.1838
 7524SOL    HW134034   0.551   2.928   5.386  0.1785  1.5017 -1.6513
 7524SOL    HW234035   0.603   2.785   5.382  1.0025  2.0249  2.0762
 7525SOL     OW34036   1.930   2.763   2.058 -0.3818 -0.0241  0.1202
 7525SOL    HW134037   1.980   2.718   2.125  0.3546  0.4553 -0.1122
 7525SOL    HW234038   1.947   2.731   1.969  1.6985 -1.1562  0.9297
 7526SOL     OW34039   3.048   2.950   3.165  0.1971 -0.0899  0.2503
 7526SOL    HW134040   3.096   2.960   3.083 -0.0821  2.7493  0.4216
 7526SOL    HW234041   3.099   2.882   3.209 -0.4686 -2.1203 -2.1543
 7527SOL     OW34042   4.117   3.022  13.122  0.1443  0.2230 -0.1921
 7527SOL    HW134043   4.204   2.984  13.133  0.1028  0.4757  1.0157
 7527SOL    HW234044   4.074   2.953  13.072 -0.1739  0.2865 -0.0051
 7528SOL     OW34045   0.826   3.885   8.418 -0.0700  0.0693 -0.5527
 7528SOL    HW134046   0.839   3.948   8.490  2.2764 -1.1609  0.1268
 7528SOL    HW234047   0.900   3.905   8.360 -0.3253 -1.5195 -1.4225
 7529SOL     OW34048   4.508   1.462  16.008  0.2003  0.1320  0.5838
 7529SOL    HW134049   4.589   1.486  16.052  0.2349 -0.7172  0.9899
 7529SOL    HW234050   4.540   1.404  15.938 -3.3440 -0.7215 -0.3536
 7530SOL     OW34051   4.047   1.403  15.920  0.3565  0.2468  0.3045
 7530SOL    HW134052   3.990   1.471  15.884 -0.1670  0.0557  0.7804
 7530SOL    HW234053   4.134   1.433  15.896 -0.0262  2.2871  1.4590
 7531SOL     OW34054   0.267   0.405  14.847  0.2573 -0.1410 -0.6197
 7531SOL    HW134055   0.232   0.407  14.758 -1.5160  1.5269  0.1131
 7531SOL    HW234056   0.317   0.487  14.851  0.1393 -0.1242  0.4763
 7532SOL     OW34057   0.451   1.969   0.168 -0.1519 -0.1783  0.1186
 7532SOL    HW134058   0.408   2.047   0.133  1.0041  0.3507 -0.1258
 7532SOL    HW234059   0.445   1.990   0.261 -1.0601  0.1068 -0.0069
 7533SOL     OW34060   2.432   4.469   1.605 -0.3715 -0.2242 -0.8213
 7533SOL    HW134061   2.524   4.477   1.580  0.3391 -1.3632  1.3959
 7533SOL    HW234062   2.421   4.532   1.677  2.2366 -3.3533  2.3087
 7534SOL     OW34063   2.480   4.443   5.150  0.3055  0.1800  0.4464
 7534SOL    HW134064   2.544   4.460   5.081 -0.1494  0.1304  0.0146
 7534SOL    HW234065   2.410   4.504   5.128  0.5826  0.2177 -0.3195
 7535SOL     OW34066   3.742   3.027   5.852 -0.3503  0.0917 -0.2956
 7535SOL    HW134067   3.737   2.971   5.929  1.7084  0.7634  0.3450
 7535SOL    HW234068   3.708   2.968   5.785  0.7413 -0.0241 -0.7454
 7536SOL     OW34069   2.243   0.841  12.649  0.2106  0.6742  0.0478
 7536SOL    HW134070   2.335   0.821  12.667 -0.2804 -1.0109  0.6801
 7536SOL    HW234071   2.193   0.800  12.719  1.3264 -2.2056 -0.8080
 7537SOL     OW34072   1.656   0.522  11.350 -0.1494 -0.3148  0.1936
 7537SOL    HW134073   1.705   0.575  11.413 -2.0490  1.6923 -0.0719
 7537SOL    HW234074   1.594   0.587  11.320  1.1668  0.8873  0.0968
 7538SOL     OW34075   3.105   2.664   6.920 -0.5595  0.2022 -0.0193
 7538SOL    HW134076   3.186   2.632   6.961 -0.4287 -0.7473 -1.0099
 7538SOL    HW234077   3.135   2.663   6.829  2.0151 -1.5051  0.8352
 7539SOL     OW34078   2.285   0.439   8.713  0.0868  0.3384 -0.3515
 7539SOL    HW134079   2.269   0.507   8.778  1.1043  0.7063 -0.4860
 7539SOL    HW234080   2.245   0.368   8.763 -0.7066 -0.0852 -1.6024
 7540SOL     OW34081   2.202   1.926   3.623  0.5516  0.0098 -0.9422
 7540SOL    HW134082   2.216   1.928   3.528 -0.0957  0.3769 -1.0286
 7540SOL    HW234083   2.216   1.833   3.640  0.3782  0.5087  1.9358
 7541SOL     OW34084   0.516   2.915   5.062  0.2339 -0.2323 -0.3167
 7541SOL    HW134085   0.542   2.893   5.151 -0.4873 -0.8268 -0.2470
 7541SOL    HW234086   0.543   2.832   5.023 -0.0077 -0.9849  1.1527
 7542SOL     OW34087   4.664   1.521   2.644 -0.4095  0.2772 -0.1485
 7542SOL    HW134088   4.683   1.431   2.672 -0.8501  0.4763  0.7887
 7542SOL    HW234089   4.594   1.513   2.579  0.2723  1.2833 -0.9999
 7543SOL     OW34090   3.744   4.428  11.047 -0.1281 -0.0950  0.4921
 7543SOL    HW134091   3.835   4.439  11.020 -0.4529  0.4130 -0.3685
 7543SOL    HW234092   3.750   4.461  11.137  0.2591 -0.4111  0.5814
 7544SOL     OW34093   1.117   0.072   1.623  0.1300  0.3786  0.5065
 7544SOL    HW134094   1.093   4.712   1.659 -0.9780  0.1153 -0.8623
 7544SOL    HW234095   1.201   0.083   1.668 -0.2289 -0.5256  1.3799
 7545SOL     OW34096   0.034   3.839   8.145  0.9661 -0.2471  0.2516
 7545SOL    HW134097   0.073   3.860   8.230  1.9722  0.6892 -0.4351
 7545SOL    HW234098   0.114   3.860   8.096  0.0761  0.2824 -0.9502
 7546SOL     OW34099   1.926   1.234   7.325 -0.0121 -0.6178 -0.0050
 7546SOL    HW134100   1.893   1.167   7.265  0.9557 -0.0887 -1.1228
 7546SOL    HW234101   1.931   1.184   7.406 -1.1412 -1.7311 -0.6184
 7547SOL     OW34102   0.009   0.793   2.427 -0.6214 -0.0094  0.4082
 7547SOL    HW134103   4.672   0.866   2.436 -1.5853 -0.7366 -0.3043
 7547SOL    HW234104   0.032   0.785   2.335  0.2329 -2.8514  0.8577
 7548SOL     OW34105   2.515   2.880   6.898  0.0152  0.4543  0.1443
 7548SOL    HW134106   2.587   2.899   6.959 -0.2079 -0.1318  0.5948
 7548SOL    HW234107   2.538   2.792   6.869  0.5814  0.1890  1.3627
 7549SOL     OW34108   0.148   2.380  14.829  0.5081  0.0453  0.3573
 7549SOL    HW134109   0.141   2.285  14.825  3.0005 -0.1478  0.3002
 7549SOL    HW234110   0.064   2.407  14.793  0.9281  0.4866 -0.2965
 7550SOL     OW34111   4.638   4.391  12.545  0.0593  0.0014 -0.0956
 7550SOL    HW134112   4.691   4.332  12.599  0.3782  0.1012 -0.3032
 7550SOL    HW234113   4.556   4.383  12.594 -0.0113  3.5548  0.3317
 7551SOL     OW34114   4.090   3.109   3.063  0.0122 -0.0643 -0.1264
 7551SOL    HW134115   4.117   3.161   2.987  0.8562 -1.2237 -0.6152
 7551SOL    HW234116   4.033   3.044   3.024 -2.9627  1.4468  1.6504
 7552SOL     OW34117   4.250   1.564   0.397 -0.0973 -0.0110 -0.2911
 7552SOL    HW134118   4.301   1.522   0.327 -0.8237 -1.8312  0.3000
 7552SOL    HW234119   4.174   1.607   0.357  1.1101  0.6272 -1.9585
 7553SOL     OW34120   2.102   2.117   5.614 -0.0118  0.2325  0.1546
 7553SOL    HW134121   2.052   2.196   5.636 -1.3440 -0.4615 -0.3632
 7553SOL    HW234122   2.097   2.127   5.519  0.3978 -1.3160 -0.0296
 7554SOL     OW34123   0.217   2.094   6.999 -0.4839  0.1593  0.0365
 7554SOL    HW134124   0.183   2.127   7.082  0.2598  0.6422  0.1477
 7554SOL    HW234125   0.291   2.044   7.033 -1.0659 -0.5830  0.1950
 7555SOL     OW34126   3.125   1.404  14.435  0.2602  0.4355  0.4102
 7555SOL    HW134127   3.048   1.457  14.458  0.1873  0.3175  0.4383
 7555SOL    HW234128   3.157   1.434  14.350  0.1600 -2.6844 -0.7250
 7556SOL     OW34129   2.649   1.089   7.322  0.0151 -0.1168 -0.1141
 7556SOL    HW134130   2.598   1.088   7.403  1.4922  1.2792  0.8220
 7556SOL    HW234131   2.734   1.118   7.355  0.1501  1.9664 -2.2923
 7557SOL     OW34132   3.194   0.677   4.533  0.8604 -0.2943  0.2695
 7557SOL    HW134133   3.226   0.712   4.616 -0.3744  0.8774  0.2537
 7557SOL    HW234134   3.100   0.676   4.551  1.1861  0.3847  1.9574
 7558SOL     OW34135   0.219   3.487   3.557  0.2360  0.1697 -0.0006
 7558SOL    HW134136   0.126   3.506   3.571  0.2304  0.2162 -0.0966
 7558SOL    HW234137   0.252   3.518   3.641  1.7510  1.0821 -0.9204
 7559SOL     OW34138   1.720   4.018   4.983  0.7484 -0.0530 -0.4245
 7559SOL    HW134139   1.779   3.987   5.052  0.4258  3.2866  1.3460
 7559SOL    HW234140   1.661   4.076   5.032  1.7925 -0.6460  1.5169
 7560SOL     OW34141   4.037   1.762   4.921 -0.3975  0.5768  0.6972
 7560SOL    HW134142   3.982   1.698   4.876  1.6785 -1.1186  0.5751
 7560SOL    HW234143   4.120   1.715   4.914  1.0451  2.8591  2.2559
 7561SOL     OW34144   1.400   3.780   1.629 -0.4601 -0.1541 -0.3222
 7561SOL    HW134145   1.379   3.867   1.594 -0.7650  0.2404  0.8529
 7561SOL    HW234146   1.492   3.768   1.604 -0.5866 -0.2684 -0.7267
 7562SOL     OW34147   3.856   0.106  10.152 -0.5507  0.6074 -0.2396
 7562SOL    HW134148   3.879   0.066  10.236 -0.1851  0.4020 -0.4347
 7562SOL    HW234149   3.862   0.026  10.100  2.7650  0.0945  0.9352
 7563SOL     OW34150   4.427   3.305  17.211 -0.4617  0.1426 -0.6135
 7563SOL    HW134151   4.413   3.308  17.306 -0.6407 -1.9280 -0.5634
 7563SOL    HW234152   4.499   3.244  17.197 -1.6867 -1.9624  2.2323
 7564SOL     OW34153   2.019   4.088  13.561 -0.2573 -0.2350  0.0155
 7564SOL    HW134154   2.007   4.162  13.621 -3.1404 -0.9332  0.3332
 7564SOL    HW234155   1.930   4.053  13.570 -0.8706  1.1035 -0.7718
 7565SOL     OW34156   3.613   1.324  12.611  0.2350  0.1308  0.4384
 7565SOL    HW134157   3.671   1.379  12.665  0.0517  0.9640 -0.2172
 7565SOL    HW234158   3.593   1.260  12.678  1.0701  0.1970  0.7590
 7566SOL     OW34159   2.960   2.500  13.459  0.3211  0.0075 -0.3482
 7566SOL    HW134160   2.943   2.592  13.437  4.8239  0.7008 -0.8295
 7566SOL    HW234161   3.031   2.491  13.523  0.2260  0.2894 -0.2035
 7567SOL     OW34162   1.020   3.333   2.943  0.2484 -0.1357  0.4720
 7567SOL    HW134163   0.938   3.284   2.944 -1.5280  2.8471  0.1110
 7567SOL    HW234164   1.059   3.289   3.018 -0.3422 -2.0781 -0.3612
 7568SOL     OW34165   1.644   4.071   3.644  0.0942 -0.6057  0.3752
 7568SOL    HW134166   1.672   4.099   3.557  1.8503 -1.3951  0.6898
 7568SOL    HW234167   1.555   4.038   3.631  1.1993 -3.0840 -0.9717
 7569SOL     OW34168   2.269   4.305   5.422 -0.4660  0.5339 -0.2587
 7569SOL    HW134169   2.312   4.268   5.344  0.4880 -1.2999  1.1403
 7569SOL    HW234170   2.253   4.396   5.395 -0.1940  0.3563 -1.0355
 7570SOL     OW34171   3.166   3.020   3.713  0.0821 -0.2198 -0.3618
 7570SOL    HW134172   3.144   2.933   3.680  0.1863 -0.3495 -0.0845
 7570SOL    HW234173   3.098   3.024   3.780 -1.8203 -1.3786 -2.2194
 7571SOL     OW34174   3.307   2.513   1.424  0.3390  0.8420  0.1075
 7571SOL    HW134175   3.374   2.577   1.450  1.2594 -0.9410  2.1122
 7571SOL    HW234176   3.353   2.458   1.361  1.4911 -0.2623  1.8969
 7572SOL     OW34177   1.078   2.617   5.694 -0.2816  0.4107  0.0010
 7572SOL    HW134178   1.097   2.526   5.669 -0.1354  1.0520 -2.2387
 7572SOL    HW234179   0.983   2.618   5.710 -0.4821 -1.6057 -0.9829
 7573SOL     OW34180   1.408   4.241  17.393  0.6094  0.2546  0.1786
 7573SOL    HW134181   1.479   4.225  17.331 -0.3668  1.4130 -1.2198
 7573SOL    HW234182   1.380   4.331  17.377  0.3483  0.2156  0.4197
 7574SOL     OW34183   1.631   3.769   3.866 -0.0915  0.5360  0.6303
 7574SOL    HW134184   1.558   3.799   3.811 -0.8409 -0.5460  1.0402
 7574SOL    HW234185   1.701   3.780   3.801 -1.9581 -2.2784 -1.8248
 7575SOL     OW34186   4.253   3.437  14.842  0.7696 -0.1252  0.6417
 7575SOL    HW134187   4.218   3.382  14.912 -0.7751  1.4258  1.0812
 7575SOL    HW234188   4.311   3.372  14.801  0.4892  1.7675 -2.8212
 7576SOL     OW34189   4.465   2.370   8.302 -0.0939 -0.7978 -0.6071
 7576SOL    HW134190   4.417   2.408   8.376 -0.7902  0.0064 -1.4768
 7576SOL    HW234191   4.552   2.408   8.315 -0.6904  0.2922  0.1854
 7577SOL     OW34192   3.787   0.477  10.864  0.0767 -0.3883  0.3566
 7577SOL    HW134193   3.882   0.468  10.877  0.0632  0.3038  0.9589
 7577SOL    HW234194   3.760   0.421  10.791 -1.4957 -1.6732  1.9203
 7578SOL     OW34195   0.973   1.140  13.343 -0.7937  0.1085  0.9443
 7578SOL    HW134196   1.019   1.086  13.407 -0.8390 -0.6661  0.3221
 7578SOL    HW234197   0.954   1.070  13.280  1.3115  1.1786 -0.8599
 7579SOL     OW34198   2.496   1.948   9.303 -0.1089  0.3387 -0.3029
 7579SOL    HW134199   2.510   1.861   9.340 -0.6579  0.1715 -0.4823
 7579SOL    HW234200   2.440   1.915   9.232 -0.6593  1.0994 -0.2235
 7580SOL     OW34201   4.005   0.572   2.524 -0.5865  0.4432  0.2695
 7580SOL    HW134202   4.047   0.519   2.592 -0.6357 -1.2247 -0.9834
 7580SOL    HW234203   3.916   0.537   2.528  0.2750 -1.7597  0.5764
 7581SOL     OW34204   3.678   4.476   5.443  0.5720 -0.4649 -0.7939
 7581SOL    HW134205   3.736   4.400   5.432  1.7703  0.4367 -0.6276
 7581SOL    HW234206   3.748   4.528   5.481 -3.5635  3.7893  0.9557
 7582SOL     OW34207   3.485   1.943   2.399 -0.0669  0.0411 -0.4328
 7582SOL    HW134208   3.518   1.861   2.363 -0.2381  0.4608 -1.5448
 7582SOL    HW234209   3.490   1.930   2.494 -1.7191  0.9665 -0.2104
 7583SOL     OW34210   2.510   4.493  12.845  0.3637  0.1395  0.2935
 7583SOL    HW134211   2.459   4.537  12.778  0.3721 -0.3232 -0.0145
 7583SOL    HW234212   2.490   4.402  12.824  0.6813  0.0880  0.2145
 7584SOL     OW34213   4.023   3.655   8.744  0.6906  0.1007 -0.0315
 7584SOL    HW134214   4.108   3.696   8.758  0.7678 -0.5045  1.2478
 7584SOL    HW234215   3.977   3.688   8.821 -0.9510  1.1152 -1.4446
 7585SOL     OW34216   3.586   0.143   4.843 -0.8971  0.5299  0.4942
 7585SOL    HW134217   3.596   0.064   4.895  0.4604  0.8004  0.6462
 7585SOL    HW234218   3.596   0.208   4.913 -0.8602 -1.1447  2.0341
 7586SOL     OW34219   2.984   3.034   5.289 -0.5754  0.3472 -0.1956
 7586SOL    HW134220   2.978   2.954   5.342 -0.2356  0.4730  0.0318
 7586SOL    HW234221   3.076   3.046   5.265 -0.2747  0.5496  1.0816
 7587SOL     OW34222   4.137   2.486   5.177 -0.0172 -0.0480  0.5080
 7587SOL    HW134223   4.156   2.393   5.191 -3.1491 -1.2139 -2.8560
 7587SOL    HW234224   4.147   2.524   5.265  0.4611  1.7327 -0.3182
 7588SOL     OW34225   2.662   2.814  15.246 -0.0235 -0.1499  0.3260
 7588SOL    HW134226   2.597   2.794  15.180 -0.3156 -2.7005  1.3632
 7588SOL    HW234227   2.604   2.853  15.311 -1.0967 -1.9626  0.4493
 7589SOL     OW34228   2.361   3.612   0.427  0.1646  0.3833 -0.1341
 7589SOL    HW134229   2.331   3.701   0.413 -1.1630 -0.3704 -1.9918
 7589SOL    HW234230   2.456   3.619   0.422  0.3416 -1.6751  0.0090
 7590SOL     OW34231   1.893   2.158   6.420  0.8735 -0.2697 -0.0534
 7590SOL    HW134232   1.879   2.193   6.332 -0.5761  1.7578  0.9657
 7590SOL    HW234233   1.801   2.147   6.442  0.6942 -1.2099 -1.2990
 7591SOL     OW34234   4.251   1.995   4.098  0.5788 -0.3705  0.4962
 7591SOL    HW134235   4.308   2.070   4.079  0.0989  0.5985  2.8001
 7591SOL    HW234236   4.193   2.001   4.022  1.7445  1.1932 -0.2757
 7592SOL     OW34237   4.188   4.055   7.211  0.3942 -0.2418 -0.0534
 7592SOL    HW134238   4.121   3.988   7.193 -0.0992  0.3926 -0.5589
 7592SOL    HW234239   4.218   4.022   7.296  0.5496 -2.6623 -1.0343
 7593SOL     OW34240   4.576   1.936  14.590  0.3990 -0.5214  0.2786
 7593SOL    HW134241   4.485   1.907  14.599  0.5277 -1.3149 -0.9413
 7593SOL    HW234242   4.565   1.984  14.507 -1.6099 -1.8811 -0.2591
 7594SOL     OW34243   1.738   0.023   2.424 -0.3123  0.2332  0.3714
 7594SOL    HW134244   1.643   0.024   2.413  0.0187  2.2040 -2.2480
 7594SOL    HW234245   1.773   4.708   2.345 -3.0192  1.6143 -1.5136
 7595SOL     OW34246   3.272   1.507  14.677  0.1020 -0.3386 -0.3637
 7595SOL    HW134247   3.362   1.480  14.656  1.1148  3.4505 -0.8139
 7595SOL    HW234248   3.230   1.491  14.592  1.5629  0.4349 -1.2269
 7596SOL     OW34249   2.329   4.615   3.094 -0.1083 -0.2264 -0.2429
 7596SOL    HW134250   2.339   4.596   3.187 -0.0696 -0.1929 -0.2401
 7596SOL    HW234251   2.236   4.639   3.089 -0.2261 -1.1555 -2.9263
 7597SOL     OW34252   3.415   4.014  13.443 -0.1575 -0.0893 -0.0283
 7597SOL    HW134253   3.447   4.100  13.473 -0.9986 -0.8066  2.9326
 7597SOL    HW234254   3.474   3.995  13.370  1.3981  2.2783  0.6072
 7598SOL     OW34255   2.451   2.918  17.031  0.3424  0.4268 -0.4309
 7598SOL    HW134256   2.491   3.003  17.046 -0.9603  0.9211  0.2316
 7598SOL    HW234257   2.447   2.882  17.120  1.5377 -1.1389 -0.9934
 7599SOL     OW34258   3.483   3.853   3.360 -0.4107 -0.1792  0.0368
 7599SOL    HW134259   3.538   3.929   3.342 -1.1931  0.0619 -1.3215
 7599SOL    HW234260   3.418   3.865   3.291 -1.5735 -1.4364  0.9195
 7600SOL     OW34261   1.644   2.164   6.973  0.3975  0.0899  0.2874
 7600SOL    HW134262   1.565   2.115   6.948  0.8302 -0.3666 -0.1715
 7600SOL    HW234263   1.604   2.237   7.022  0.1747  0.4401 -0.4257
 7601SOL     OW34264   0.546   1.108   8.923 -0.0611 -0.3552 -0.1124
 7601SOL    HW134265   0.617   1.110   8.987 -0.2935  0.3663  0.1259
 7601SOL    HW234266   0.524   1.200   8.937  2.5812 -0.1276  2.4201
 7602SOL     OW34267   1.765   3.881   5.865  0.0524  0.1065  0.0032
 7602SOL    HW134268   1.736   3.882   5.957 -0.4553 -0.4639 -0.1478
 7602SOL    HW234269   1.789   3.789   5.860  1.1691  0.4008  0.1125
 7603SOL     OW34270   4.453   0.959   4.183 -0.1593 -0.3612 -0.6823
 7603SOL    HW134271   4.385   0.893   4.199 -0.6263  0.4191  0.5675
 7603SOL    HW234272   4.488   0.926   4.100  1.2942 -2.9134  0.9581
 7604SOL     OW34273   4.505   1.678   4.802  0.2166  0.8392 -0.0965
 7604SOL    HW134274   4.443   1.655   4.733  0.3802  0.8318 -0.2403
 7604SOL    HW234275   4.512   1.773   4.798  0.4680  0.8050 -0.3599
 7605SOL     OW34276   2.322   2.408  10.729  0.9148  0.3045 -0.7118
 7605SOL    HW134277   2.316   2.329  10.675  0.8770  0.0432 -0.3195
 7605SOL    HW234278   2.284   2.481  10.680  0.2530 -0.2460 -1.0160
 7606SOL     OW34279   0.160   4.065   0.975  0.6404 -0.6426  0.0464
 7606SOL    HW134280   0.104   3.989   0.962 -0.1453 -0.0536 -0.0041
 7606SOL    HW234281   0.225   4.053   0.905  1.1024  0.2412  0.3194
 7607SOL     OW34282   0.174   3.534   6.286  0.3336  0.0232  0.1957
 7607SOL    HW134283   0.182   3.467   6.355  2.4852 -0.7012 -0.7635
 7607SOL    HW234284   0.081   3.554   6.286  0.5687  1.0440 -1.2810
 7608SOL     OW34285   4.457   3.323   6.241  0.0784 -0.3634 -0.6767
 7608SOL    HW134286   4.373   3.312   6.198 -0.9043  0.5889  0.9799
 7608SOL    HW234287   4.448   3.269   6.319 -0.2942  0.3262 -0.2344
 7609SOL     OW34288   0.826   2.933   5.061 -0.0486 -0.2232  0.2656
 7609SOL    HW134289   0.812   2.949   4.967 -1.7529 -1.7706  0.2742
 7609SOL    HW234290   0.747   2.884   5.080  0.3954 -0.7682  0.6980
 7610SOL     OW34291   3.508   3.337   6.055 -0.0433 -0.7025  0.2318
 7610SOL    HW134292   3.457   3.387   5.991  0.5930 -2.2735 -1.5136
 7610SOL    HW234293   3.437   3.301   6.108 -2.0451 -0.7614 -2.4868
 7611SOL     OW34294   0.514   0.975   5.213 -0.5361  0.1242 -0.1527
 7611SOL    HW134295   0.524   0.943   5.123 -3.0802 -0.7337 -0.1536
 7611SOL    HW234296   0.451   0.905   5.231  0.5936 -1.0039 -0.6091
 7612SOL     OW34297   4.264   2.447   2.594  0.2719  0.3180 -0.2867
 7612SOL    HW134298   4.169   2.436   2.593  0.1351  1.7074 -3.1013
 7612SOL    HW234299   4.300   2.363   2.623  0.5028  0.4887 -0.0787
 7613SOL     OW34300   0.980   0.422  11.960  0.5256 -0.3560  0.1743
 7613SOL    HW134301   0.995   0.516  11.950  1.1389 -0.5563 -0.8048
 7613SOL    HW234302   0.900   0.424  12.012 -0.0634 -1.0958 -0.6977
 7614SOL     OW34303   2.076   4.275  17.698  0.2531  0.0011 -0.2533
 7614SOL    HW134304   2.049   4.266  17.607 -1.2877 -2.9341  0.5015
 7614SOL    HW234305   2.079   4.184   0.025 -0.7054 -0.0665 -0.4056
 7615SOL     OW34306   0.153   1.698   7.028  0.0612 -0.0950 -0.7625
 7615SOL    HW134307   0.107   1.772   7.068  0.4128  0.6875 -1.8297
 7615SOL    HW234308   0.195   1.660   7.106 -0.5446 -0.5834 -0.6747
 7616SOL     OW34309   0.796   0.407  13.409  0.2796 -0.1135  0.3666
 7616SOL    HW134310   0.837   0.343  13.466 -1.9513 -0.6356  1.3951
 7616SOL    HW234311   0.794   0.487  13.460 -1.0224  0.3536 -0.4271
 7617SOL     OW34312   2.785   1.495   9.545 -0.3573  0.0636  0.0001
 7617SOL    HW134313   2.707   1.441   9.540  0.4915 -0.9493 -2.3006
 7617SOL    HW234314   2.796   1.536   9.459 -1.0169 -0.8350 -0.5085
 7618SOL     OW34315   1.892   0.957  11.371  0.5803 -0.6390 -0.4478
 7618SOL    HW134316   1.897   1.052  11.360 -1.7985 -0.4496  0.0941
 7618SOL    HW234317   1.930   0.946  11.459  0.9829  0.9956 -0.4301
 7619SOL     OW34318   3.644   3.074   0.858 -0.0904 -0.1167  0.5133
 7619SOL    HW134319   3.625   2.997   0.911  1.1208  0.4444  1.7732
 7619SOL    HW234320   3.705   3.117   0.918  0.8203  0.9448 -1.1593
 7620SOL     OW34321   1.255   3.439   1.593 -0.8004  0.6134 -0.0867
 7620SOL    HW134322   1.214   3.376   1.652 -1.6911  0.0641 -1.3113
 7620SOL    HW234323   1.178   3.480   1.555 -1.4247 -0.4026  0.0927
 7621SOL     OW34324   2.907   3.146   5.759 -0.1467  0.6199  0.4088
 7621SOL    HW134325   2.858   3.102   5.690 -2.8852 -1.1280  3.4919
 7621SOL    HW234326   2.850   3.223   5.763 -0.4506  0.4138 -0.0195
 7622SOL     OW34327   0.829   1.019   1.841  0.2249 -0.0852  0.4986
 7622SOL    HW134328   0.831   0.943   1.782  0.9687 -0.1074  0.5482
 7622SOL    HW234329   0.910   1.066   1.820 -1.0617  1.8005 -0.2306
 7623SOL     OW34330   2.567   4.216  16.369  0.0321  0.8687  0.1739
 7623SOL    HW134331   2.518   4.269  16.306 -0.0628  0.1530 -0.3582
 7623SOL    HW234332   2.550   4.253  16.455  0.2854 -1.0104  1.0342
 7624SOL     OW34333   1.287   1.932  13.766 -0.4473 -0.2068  0.9117
 7624SOL    HW134334   1.262   1.974  13.683 -1.7489 -2.6183  0.0875
 7624SOL    HW234335   1.321   1.843  13.753 -0.3772 -0.1543  0.7322
 7625SOL     OW34336   3.812   3.955   0.185 -0.1811  0.5367  0.3256
 7625SOL    HW134337   3.795   4.027   0.245 -0.7266 -1.3979  2.4583
 7625SOL    HW234338   3.775   3.883   0.236  0.1367  1.2543  1.5725
 7626SOL     OW34339   1.537   2.523  14.637  0.2973  0.0185 -1.1236
 7626SOL    HW134340   1.548   2.539  14.731 -2.6299  1.2525 -1.0070
 7626SOL    HW234341   1.618   2.556  14.597  1.7798 -0.4943  1.4450
 7627SOL     OW34342   4.715   4.672  14.376 -0.0870  0.3274 -0.4525
 7627SOL    HW134343   0.054   4.627  14.320  1.2782  0.0995  1.3087
 7627SOL    HW234344   0.019   4.630  14.457  0.7580 -1.2983 -1.5771
 7628SOL     OW34345   2.011   1.458   9.116  0.0711  0.2873  0.1915
 7628SOL    HW134346   2.026   1.376   9.069  1.7159  2.1047 -2.4635
 7628SOL    HW234347   1.949   1.501   9.057 -1.1224 -2.1332 -0.3204
 7629SOL     OW34348   3.331   0.338   7.626 -0.3445  0.3980  0.5606
 7629SOL    HW134349   3.348   0.410   7.566  0.7200 -0.4518 -0.1467
 7629SOL    HW234350   3.400   0.346   7.692 -1.3225  0.1470  1.6118
 7630SOL     OW34351   0.645   1.464   2.854 -0.2737  0.2444 -0.1847
 7630SOL    HW134352   0.635   1.394   2.918  0.3723 -1.9546 -2.4536
 7630SOL    HW234353   0.706   1.527   2.893 -0.2344  0.6113 -0.8397
 7631SOL     OW34354   4.340   0.638  15.927 -0.1690  0.0400  0.7332
 7631SOL    HW134355   4.250   0.667  15.942 -0.7403 -2.0988  1.4399
 7631SOL    HW234356   4.313   0.590  15.848  0.8293  0.6910 -0.0036
 7632SOL     OW34357   3.141   3.434  11.075  0.0081  0.5931 -0.2935
 7632SOL    HW134358   3.099   3.454  11.158  0.6805  0.8542 -0.0147
 7632SOL    HW234359   3.071   3.390  11.027  0.5884  0.0320 -0.6236
 7633SOL     OW34360   0.707   4.137   4.025 -0.5326 -0.2556  0.4125
 7633SOL    HW134361   0.784   4.132   4.081  0.7551  1.2385 -1.1938
 7633SOL    HW234362   0.643   4.100   4.086  0.9247  0.3217  2.3026
 7634SOL     OW34363   0.710   2.237   6.599 -0.7847 -0.1155  0.2883
 7634SOL    HW134364   0.663   2.278   6.527 -1.3555 -1.6746 -0.2280
 7634SOL    HW234365   0.763   2.314   6.619 -2.0542  0.5181  1.2089
 7635SOL     OW34366   1.886   2.228   5.099 -0.2042  0.2332  0.1868
 7635SOL    HW134367   1.878   2.142   5.057 -0.5984  0.9928 -1.2953
 7635SOL    HW234368   1.795   2.253   5.113 -0.2656  0.6473 -0.9479
 7636SOL     OW34369   1.717   0.131  11.734  0.3741  0.0073  0.1680
 7636SOL    HW134370   1.625   0.105  11.727 -0.1683  1.4216  2.0868
 7636SOL    HW234371   1.709   0.226  11.739 -1.1576 -0.1116 -0.0357
 7637SOL     OW34372   0.130   0.049  17.502 -0.1428 -0.3379  0.4172
 7637SOL    HW134373   0.054   0.090  17.461  0.6604  0.8313  0.0831
 7637SOL    HW234374   0.173   0.121  17.548 -2.3557  0.1022  1.7776
 7638SOL     OW34375   2.866   1.400  13.123 -0.3662 -0.5766  0.0131
 7638SOL    HW134376   2.776   1.381  13.094 -0.1540 -0.2046 -0.8771
 7638SOL    HW234377   2.842   1.478  13.173  0.4522 -1.8147  2.3249
 7639SOL     OW34378   4.213   2.662   1.778 -0.9448  0.4631 -0.0734
 7639SOL    HW134379   4.180   2.740   1.733  1.3884  1.1295 -0.6541
 7639SOL    HW234380   4.260   2.620   1.706 -2.4695 -0.0623 -0.7560
 7640SOL     OW34381   0.451   3.716  12.186  0.0360 -0.0001 -0.7790
 7640SOL    HW134382   0.448   3.805  12.149 -2.0168 -0.8344 -2.6058
 7640SOL    HW234383   0.452   3.654  12.113  1.8859  1.7076 -2.2002
 7641SOL     OW34384   3.414   2.890   9.279  0.2017 -0.1522 -0.2301
 7641SOL    HW134385   3.454   2.807   9.255 -2.3186 -0.7600 -2.3246
 7641SOL    HW234386   3.322   2.885   9.252  0.2432  0.0123 -0.4001
 7642SOL     OW34387   0.901   3.712   8.720  0.6604  0.0694  0.1059
 7642SOL    HW134388   0.915   3.771   8.794  0.4021  1.0807 -0.6581
 7642SOL    HW234389   0.974   3.741   8.664  0.5325 -0.9622 -0.5943
 7643SOL     OW34390   0.240   0.820  10.584 -0.0563  0.0131  0.5191
 7643SOL    HW134391   0.224   0.726  10.571 -1.6907  0.6778 -2.1187
 7643SOL    HW234392   0.179   0.839  10.656  0.1003 -0.8228  0.8711
 7644SOL     OW34393   3.471   2.117  13.309 -0.2637 -0.8141  0.1316
 7644SOL    HW134394   3.525   2.042  13.283  4.0094  2.4577 -0.3982
 7644SOL    HW234395   3.388   2.093  13.267 -1.3396 -0.7853  2.2746
 7645SOL     OW34396   3.735   4.487   2.532  0.1958 -0.0430  0.7770
 7645SOL    HW134397   3.772   4.413   2.482  0.4646 -0.0865  1.0407
 7645SOL    HW234398   3.658   4.504   2.478  1.2831 -1.1847 -1.1715
 7646SOL     OW34399   1.020   4.150   5.606  0.0001 -0.1971 -0.1678
 7646SOL    HW134400   1.103   4.112   5.636 -1.1723 -1.0801  1.9849
 7646SOL    HW234401   0.974   4.170   5.688  0.1920 -0.5893  0.0397
 7647SOL     OW34402   0.621   1.912   2.430  0.1843 -0.0368 -0.5026
 7647SOL    HW134403   0.590   1.933   2.518 -0.4667 -0.3079 -0.6721
 7647SOL    HW234404   0.652   1.831   2.470  2.5069  0.5470 -1.0783
 7648SOL     OW34405   3.075   3.270   8.080  0.9018 -0.3268  0.2437
 7648SOL    HW134406   3.072   3.355   8.124 -2.2105 -0.9751  1.2775
 7648SOL    HW234407   3.170   3.258   8.076  0.7344 -0.9976 -1.7976
 7649SOL     OW34408   0.177   1.634   1.771 -0.6491  0.0175  0.2005
 7649SOL    HW134409   0.198   1.561   1.713 -1.7862 -0.3369  0.2241
 7649SOL    HW234410   0.264   1.661   1.800  0.3020 -0.9784 -1.7335
 7650SOL     OW34411   2.537   4.074   6.593  0.0421  0.5318 -0.1354
 7650SOL    HW134412   2.450   4.103   6.621  0.2751  1.2489 -0.1527
 7650SOL    HW234413   2.512   4.004   6.532  1.0431  0.4969 -0.5089
 7651SOL     OW34414   2.767   2.539  14.984 -0.2191 -0.2388  0.3016
 7651SOL    HW134415   2.743   2.477  14.916  0.5645 -0.6107  0.3723
 7651SOL    HW234416   2.684   2.546  15.032 -0.7821 -1.2182 -0.5146
 7652SOL     OW34417   4.184   1.434   9.385  0.1979 -0.7912 -0.1553
 7652SOL    HW134418   4.184   1.513   9.438  0.6956 -0.2330 -0.9824
 7652SOL    HW234419   4.267   1.436   9.337  1.8201 -0.2617  2.6892
 7653SOL     OW34420   3.184   3.899   0.857  0.2334  0.1285 -0.4183
 7653SOL    HW134421   3.254   3.844   0.823 -0.9602 -1.6447 -0.0129
 7653SOL    HW234422   3.189   3.867   0.947  0.4525  1.3779  0.0204
 7654SOL     OW34423   4.423   2.438   1.133  0.1067 -0.1111  0.5631
 7654SOL    HW134424   4.491   2.476   1.077 -0.6463  0.6807  0.1839
 7654SOL    HW234425   4.476   2.371   1.176 -0.1869  0.3101  1.5710
 7655SOL     OW34426   1.385   2.585   4.885 -0.6412  0.5797  0.7327
 7655SOL    HW134427   1.361   2.670   4.850 -1.4834 -0.0794 -0.2788
 7655SOL    HW234428   1.295   2.551   4.881 -0.3136 -0.5617  2.5952
 7656SOL     OW34429   3.502   3.842   4.783  0.4790 -0.2127 -0.1153
 7656SOL    HW134430   3.477   3.924   4.740  1.6650  0.1231 -0.1581
 7656SOL    HW234431   3.505   3.872   4.873  2.4698 -0.7599 -0.0061
 7657SOL     OW34432   3.206   2.580   8.297 -0.3245 -0.0701 -0.1030
 7657SOL    HW134433   3.170   2.502   8.253  1.6227 -2.0317  1.8202
 7657SOL    HW234434   3.199   2.567   8.391 -0.2873 -0.6377 -0.1773
 7658SOL     OW34435   1.657   4.009   2.345 -0.6540 -0.3951  0.5858
 7658SOL    HW134436   1.614   3.943   2.291  1.0268 -0.6814 -0.4037
 7658SOL    HW234437   1.658   3.965   2.430  0.5703 -2.4008 -0.4635
 7659SOL     OW34438   2.795   3.286   1.560 -0.6539  0.3236 -0.4091
 7659SOL    HW134439   2.884   3.319   1.567 -0.4785 -0.4649  1.1340
 7659SOL    HW234440   2.756   3.293   1.647  1.6010  0.4069  0.5797
 7660SOL     OW34441   2.998   0.998   3.616  0.2941  0.4657 -0.0730
 7660SOL    HW134442   3.069   1.045   3.573 -0.2404  1.2482 -0.0932
 7660SOL    HW234443   3.003   0.910   3.579 -1.2942  0.3221  0.0652
 7661SOL     OW34444   2.635   1.965   6.841  0.4733 -0.3512  0.4631
 7661SOL    HW134445   2.722   1.932   6.864  1.6163  1.4698 -1.1764
 7661SOL    HW234446   2.585   1.890   6.810 -1.2444  0.4625  1.2386
 7662SOL     OW34447   3.277   2.211   9.625 -0.0361 -0.2022  0.2432
 7662SOL    HW134448   3.351   2.193   9.568 -0.5047  2.2156 -1.1234
 7662SOL    HW234449   3.298   2.301   9.652  1.2801 -0.5356  0.3287
 7663SOL     OW34450   3.371   3.123   4.070  0.3947  0.2398 -0.4116
 7663SOL    HW134451   3.450   3.172   4.090  0.4858 -0.2585  0.4747
 7663SOL    HW234452   3.340   3.167   3.991 -0.8029  1.5786  0.8052
 7664SOL     OW34453   1.191   1.679   6.803  0.5531 -0.3992 -0.1296
 7664SOL    HW134454   1.226   1.766   6.823 -2.9263  0.7502  1.0337
 7664SOL    HW234455   1.171   1.685   6.709  0.4214 -0.8974 -0.1359
 7665SOL     OW34456   2.883   4.382   2.286 -0.3350  0.2890  0.2951
 7665SOL    HW134457   2.819   4.311   2.289  1.6374 -1.4061  1.9887
 7665SOL    HW234458   2.903   4.384   2.193  0.0107  0.5147  0.3755
 7666SOL     OW34459   1.260   2.710   4.309  0.5580  0.4575  0.0148
 7666SOL    HW134460   1.278   2.648   4.238  1.4249  0.2265  0.4329
 7666SOL    HW234461   1.315   2.675   4.379 -0.0165  0.8229  0.6472
 7667SOL     OW34462   1.103   0.690   2.471 -0.1089  0.0675 -0.3834
 7667SOL    HW134463   1.119   0.733   2.555  1.3128 -2.4641  0.6415
 7667SOL    HW234464   1.140   0.755   2.412  0.5429  1.3034  1.3681
 7668SOL     OW34465   0.725   2.724   6.159  0.5025  0.4580  0.1911
 7668SOL    HW134466   0.724   2.709   6.253  1.1980  1.2471  0.3224
 7668SOL    HW234467   0.818   2.726   6.137  0.3300  1.1040 -0.4928
 7669SOL     OW34468   1.121   3.337   0.736  0.5092  0.5385  0.1996
 7669SOL    HW134469   1.122   3.321   0.830  2.4332 -0.2460  0.0338
 7669SOL    HW234470   1.061   3.412   0.736 -1.8139 -1.3095  0.0967
 7670SOL     OW34471   3.013   2.885   6.358  0.4168 -0.3752  0.1603
 7670SOL    HW134472   3.082   2.863   6.420  0.1392 -0.9407  0.2639
 7670SOL    HW234473   3.001   2.979   6.376 -1.2647 -0.7907  1.1901
 7671SOL     OW34474   0.144   1.702   5.445 -0.1156 -0.7450 -0.2106
 7671SOL    HW134475   0.213   1.643   5.476  0.4203  0.0236  0.0613
 7671SOL    HW234476   0.066   1.664   5.485 -1.0803 -0.9658 -2.2837
 7672SOL     OW34477   1.583   4.112   2.663  0.0998 -0.1119 -0.6646
 7672SOL    HW134478   1.665   4.156   2.689  1.5024 -2.1070 -1.7202
 7672SOL    HW234479   1.625   4.027   2.650 -2.3717 -1.0979 -2.1026
 7673SOL     OW34480   1.201   1.917   2.817 -0.1332  0.2946 -0.5172
 7673SOL    HW134481   1.261   1.971   2.766  0.8469  1.6605  2.0728
 7673SOL    HW234482   1.170   1.976   2.886 -1.1607  0.6190 -1.2448
 7674SOL     OW34483   3.528   2.322   9.241 -0.5935 -0.1470  0.2207
 7674SOL    HW134484   3.473   2.258   9.286  0.4500 -0.2169  1.3794
 7674SOL    HW234485   3.614   2.281   9.250 -0.2945  0.0936 -1.4182
 7675SOL     OW34486   4.579   2.795   4.668  0.0522  0.0258 -0.0377
 7675SOL    HW134487   4.513   2.735   4.633 -0.3972 -0.4974  1.7044
 7675SOL    HW234488   4.651   2.732   4.675  0.4740  0.6337  1.1597
 7676SOL     OW34489   2.490   3.957   1.814  0.5789 -0.3277  0.5799
 7676SOL    HW134490   2.465   3.890   1.750 -0.4559  1.0986 -0.5271
 7676SOL    HW234491   2.504   4.027   1.751 -0.2338  1.7092  2.6713
 7677SOL     OW34492   3.402   0.403   5.141  0.0386 -0.0511 -0.5904
 7677SOL    HW134493   3.359   0.338   5.086  0.0231 -0.3061 -0.2739
 7677SOL    HW234494   3.357   0.391   5.224  1.9159 -1.0200  0.2915
 7678SOL     OW34495   1.889   3.196   2.536 -0.2373 -0.8180 -0.0038
 7678SOL    HW134496   1.853   3.166   2.453  0.0300 -1.3784  0.0775
 7678SOL    HW234497   1.852   3.283   2.537  2.0808  0.1754  0.8095
 7679SOL     OW34498   4.245   2.006   1.357 -0.3237  0.3788 -0.5645
 7679SOL    HW134499   4.284   2.091   1.338  0.1291  0.5456  1.0966
 7679SOL    HW234500   4.329   1.961   1.347 -0.1890  0.0706  2.0308
 7680SOL     OW34501   1.830   3.620   5.861 -0.0717  0.6323 -0.5944
 7680SOL    HW134502   1.854   3.544   5.913  0.9886  1.3216 -0.0634
 7680SOL    HW234503   1.754   3.596   5.809  0.5616  0.7759 -1.5892
 7681SOL     OW34504   1.636   0.167  17.105  0.5281 -0.6041  0.5166
 7681SOL    HW134505   1.543   0.146  17.109  0.3325 -0.1714 -1.8561
 7681SOL    HW234506   1.673   0.143  17.190  0.8347  2.3394  1.2278
 7682SOL     OW34507   3.845   2.163   8.336 -0.0024 -0.0770  0.1988
 7682SOL    HW134508   3.815   2.251   8.356  1.8296 -0.1480  3.2806
 7682SOL    HW234509   3.766   2.116   8.360 -0.3933  1.4053  1.7943
 7683SOL     OW34510   0.081   3.645   7.723 -0.0523  0.0040 -0.1963
 7683SOL    HW134511   0.036   3.654   7.807  0.0637  1.5855 -0.3045
 7683SOL    HW234512   0.094   3.739   7.707 -0.1499 -0.2742 -1.8527
 7684SOL     OW34513   2.544   1.807   0.501  0.1357  0.4786 -0.0217
 7684SOL    HW134514   2.533   1.777   0.591 -0.6394 -1.0682 -0.6273
 7684SOL    HW234515   2.619   1.865   0.512  1.4082 -1.1194 -0.2396
 7685SOL     OW34516   2.303   2.347   7.168 -0.0420 -0.3490 -0.0240
 7685SOL    HW134517   2.242   2.414   7.199  1.3849  1.4377 -1.0457
 7685SOL    HW234518   2.379   2.401   7.145  0.6902 -1.1092  0.6062
 7686SOL     OW34519   1.033   2.898  10.587  0.3746 -0.1463 -0.0591
 7686SOL    HW134520   0.938   2.891  10.580  0.3574 -0.9977  0.9696
 7686SOL    HW234521   1.051   2.917  10.679 -0.7454  1.8488 -0.2439
 7687SOL     OW34522   3.902   0.517   8.155  0.6769 -0.3299 -0.1714
 7687SOL    HW134523   3.922   0.542   8.065 -0.1343  0.2688 -0.1883
 7687SOL    HW234524   3.808   0.533   8.148  0.8710  0.1980 -1.6980
 7688SOL     OW34525   0.648   0.828  13.078  0.1916 -0.0391  0.2893
 7688SOL    HW134526   0.668   0.748  13.031  1.5909  0.7430 -0.4625
 7688SOL    HW234527   0.560   0.805  13.106 -0.5584  2.3875 -0.0796
 7689SOL     OW34528   3.231   0.867   4.173  0.0469  0.0673  0.0618
 7689SOL    HW134529   3.203   0.933   4.236  0.2121  0.1654  0.0302
 7689SOL    HW234530   3.247   0.789   4.226 -0.1836  0.9573  1.4150
 7690SOL     OW34531   3.043   1.934   6.238  0.0373  0.0639 -0.3503
 7690SOL    HW134532   2.984   1.946   6.313 -0.2330 -3.8643  0.0735
 7690SOL    HW234533   3.006   1.998   6.178 -1.5610  1.2080  1.8321
 7691SOL     OW34534   3.800   1.859   8.509  0.7953 -0.2630  0.6126
 7691SOL    HW134535   3.850   1.779   8.524  2.3861  0.2107 -2.1973
 7691SOL    HW234536   3.853   1.921   8.559 -0.5604  0.6069  0.9705
 7692SOL     OW34537   1.132   2.686   1.723  0.1981 -0.2393 -0.0022
 7692SOL    HW134538   1.174   2.705   1.639 -1.0121 -2.5122 -1.1452
 7692SOL    HW234539   1.146   2.769   1.768 -2.9917  0.7900 -0.9017
 7693SOL     OW34540   3.122   3.393  11.660 -0.3009 -0.0405 -0.6849
 7693SOL    HW134541   3.138   3.475  11.613  1.1742 -0.0293 -0.1445
 7693SOL    HW234542   3.188   3.393  11.729 -1.3800  1.2248  0.3511
 7694SOL     OW34543   0.572   3.714  14.962  0.2185  0.3630 -0.1099
 7694SOL    HW134544   0.555   3.656  14.888 -1.7190  0.8562 -0.0354
 7694SOL    HW234545   0.519   3.661  15.022  0.6910  0.8882  0.7847
 7695SOL     OW34546   4.606   3.869   1.922  0.1928 -0.2934 -0.1714
 7695SOL    HW134547   4.537   3.924   1.959  1.7908  3.1622 -2.3944
 7695SOL    HW234548   4.590   3.790   1.974  1.7849 -0.5711 -0.1181
 7696SOL     OW34549   0.562   2.642   4.196  0.1202  0.4198 -0.2355
 7696SOL    HW134550   0.651   2.611   4.185  0.0256 -0.3687  1.2905
 7696SOL    HW234551   0.515   2.583   4.255  0.7995  0.3494  0.2259
 7697SOL     OW34552   3.326   3.741   3.516 -0.3946 -0.3722 -0.1797
 7697SOL    HW134553   3.259   3.736   3.449 -0.3275  1.7483 -0.4194
 7697SOL    HW234554   3.391   3.802   3.481 -0.5879  1.7183  3.0817
 7698SOL     OW34555   1.276   3.273   2.666 -0.7280 -0.0237 -0.4981
 7698SOL    HW134556   1.278   3.345   2.729  0.6681 -0.0392 -0.5244
 7698SOL    HW234557   1.247   3.208   2.730 -0.4207  0.4835  0.1527
 7699SOL     OW34558   0.510   3.037   2.314  0.1947 -0.2827 -0.2153
 7699SOL    HW134559   0.425   3.062   2.351  0.3075 -0.8903  0.4467
 7699SOL    HW234560   0.471   2.997   2.237 -0.4156 -0.6396  0.2781
 7700SOL     OW34561   3.761   2.552   6.852 -0.3278  0.2703 -0.3286
 7700SOL    HW134562   3.745   2.645   6.866 -0.7772  0.0973  0.3475
 7700SOL    HW234563   3.854   2.533   6.864 -0.5730  0.8432  2.4134
 7701SOL     OW34564   4.668   2.473   2.810  0.4204  0.2287 -0.0882
 7701SOL    HW134565   4.677   2.406   2.743  0.5832 -1.2478  1.4079
 7701SOL    HW234566   0.030   2.472   2.850  1.5491  0.0090 -2.5156
 7702SOL     OW34567   4.181   2.831   1.434 -0.0118 -0.0634  0.2425
 7702SOL    HW134568   4.157   2.846   1.343  0.4570 -1.9707 -0.1854
 7702SOL    HW234569   4.100   2.786   1.459 -1.1514  0.5838 -2.2926
 7703SOL     OW34570   0.590   3.385   8.538 -0.2027  0.0502 -0.0993
 7703SOL    HW134571   0.676   3.388   8.580 -1.3501  0.5649  2.2168
 7703SOL    HW234572   0.543   3.428   8.609 -0.2001 -0.9676  0.5091
 7704SOL     OW34573   3.686   2.844   9.062 -0.5194 -0.1479  0.0678
 7704SOL    HW134574   3.620   2.914   9.062  0.3475  0.6732  0.3510
 7704SOL    HW234575   3.634   2.780   9.109 -1.0470  0.7738  0.7378
 7705SOL     OW34576   0.955   1.067   2.795  0.3984 -0.2921 -0.1254
 7705SOL    HW134577   0.947   1.104   2.883 -1.1275 -1.8887  0.4070
 7705SOL    HW234578   0.884   1.003   2.787  0.8059 -0.7146 -0.3426
 7706SOL     OW34579   0.249   2.440   7.066 -0.5104 -0.2546  0.2223
 7706SOL    HW134580   0.341   2.418   7.079 -0.1840  0.0917 -1.4524
 7706SOL    HW234581   0.228   2.355   7.104 -1.6575  0.5081  1.3027
 7707SOL     OW34582   3.978   1.652   1.673 -0.2162 -0.3213  0.8251
 7707SOL    HW134583   3.922   1.688   1.605 -0.1377  0.1969  1.0342
 7707SOL    HW234584   4.056   1.707   1.666 -0.3528 -0.6717 -3.3858
 7708SOL     OW34585   3.012   1.551   3.737 -0.4517  0.2946 -0.2199
 7708SOL    HW134586   3.010   1.487   3.808 -0.6830 -0.3065 -0.7710
 7708SOL    HW234587   2.960   1.492   3.682 -0.1898 -1.1757  1.1064
 7709SOL     OW34588   1.124   4.394   7.483 -0.2955 -0.3397 -0.4721
 7709SOL    HW134589   1.168   4.382   7.567  0.1798 -0.4103 -0.7298
 7709SOL    HW234590   1.071   4.470   7.507  0.1040 -0.0041 -0.6535
 7710SOL     OW34591   1.073   0.553   1.840 -0.1283 -0.0043  0.1224
 7710SOL    HW134592   1.089   0.482   1.778  1.0580  0.5728 -0.2217
 7710SOL    HW234593   1.157   0.562   1.885  1.2124 -0.0951 -2.3804
 7711SOL     OW34594   0.074   2.586   0.121 -0.6917 -0.3650  0.1768
 7711SOL    HW134595   0.102   2.496   0.140  0.1652 -0.1323 -0.0005
 7711SOL    HW234596   0.150   2.637   0.149 -0.5767 -0.5781  0.2526
 7712SOL     OW34597   3.030   1.129   2.412 -0.5950 -0.1592  0.1444
 7712SOL    HW134598   2.943   1.160   2.386 -0.0699  1.3885  0.2439
 7712SOL    HW234599   3.012   1.112   2.505  1.5887 -3.7835 -0.1057
 7713SOL     OW34600   2.324   0.311  14.415  0.0260 -0.4332 -0.5874
 7713SOL    HW134601   2.376   0.307  14.496 -1.4021  0.3421  0.3739
 7713SOL    HW234602   2.374   0.356  14.348 -1.4665  2.1282  0.0306
 7714SOL     OW34603   0.981   1.610   2.867 -0.1159  0.1541  0.3562
 7714SOL    HW134604   1.010   1.544   2.930 -0.3921  0.0650  0.3870
 7714SOL    HW234605   1.049   1.597   2.800  0.0275 -0.6466  0.6543
 7715SOL     OW34606   1.474   4.144  17.645 -0.3502 -0.0877  0.5342
 7715SOL    HW134607   1.459   4.192  17.563  0.9615 -1.4519 -0.4877
 7715SOL    HW234608   1.558   4.102  17.628  0.0040  0.6576  0.4528
 7716SOL     OW34609   1.614   3.232   4.643  0.2213 -0.4219  0.4614
 7716SOL    HW134610   1.527   3.272   4.647  1.6367  2.9320 -1.8404
 7716SOL    HW234611   1.611   3.181   4.562 -1.2636 -1.2250  1.0187
 7717SOL     OW34612   3.050   0.724  11.340 -0.1567  0.0897 -0.1114
 7717SOL    HW134613   3.021   0.715  11.430  1.5815  2.8965  0.7100
 7717SOL    HW234614   3.115   0.792  11.353  0.0415 -0.0737 -0.2467
 7718SOL     OW34615   2.453   3.445   1.525 -0.5166 -0.1275 -0.0882
 7718SOL    HW134616   2.383   3.508   1.543  1.1394  1.4535  0.8326
 7718SOL    HW234617   2.507   3.475   1.598 -0.4155  1.0369 -0.6452
 7719SOL     OW34618   1.993   1.412  15.790 -0.0011  0.1389 -0.1395
 7719SOL    HW134619   2.043   1.453  15.860 -0.1742  1.7700 -0.9833
 7719SOL    HW234620   2.059   1.403  15.722  0.4477  0.7535  0.2147
 7720SOL     OW34621   1.642   1.396   5.241 -0.0799 -0.2549 -0.1613
 7720SOL    HW134622   1.730   1.433   5.236  0.3611 -1.2056  0.6641
 7720SOL    HW234623   1.643   1.350   5.325 -2.8585 -0.2167 -0.1185
 7721SOL     OW34624   2.399   0.585   8.510  0.5760  0.0219  0.2910
 7721SOL    HW134625   2.356   0.520   8.566 -0.9414 -0.7401 -1.7559
 7721SOL    HW234626   2.355   0.663   8.545  0.4501  0.1586 -0.1791
 7722SOL     OW34627   3.454   2.189   3.793  0.3085  0.1052  0.9058
 7722SOL    HW134628   3.483   2.101   3.769 -1.9295 -0.2358 -0.5926
 7722SOL    HW234629   3.513   2.194   3.868 -0.5459 -0.0783  1.5938
 7723SOL     OW34630   2.617   3.431  17.160  0.2418 -0.0525 -0.4325
 7723SOL    HW134631   2.657   3.450  17.245 -0.7064  2.0899 -0.4706
 7723SOL    HW234632   2.696   3.421  17.108 -0.1395  1.6838 -1.3425
 7724SOL     OW34633   1.384   1.142   1.256 -0.8094 -0.0597  0.2683
 7724SOL    HW134634   1.320   1.071   1.252  0.5091 -1.0340 -3.4026
 7724SOL    HW234635   1.369   1.178   1.169  1.1149 -1.0762 -0.4807
 7725SOL     OW34636   1.431   3.514   8.624  0.1958  0.1430 -0.3413
 7725SOL    HW134637   1.379   3.461   8.684 -0.7245  1.1618 -0.2313
 7725SOL    HW234638   1.362   3.551   8.570 -1.1133  0.5758  1.6219
 7726SOL     OW34639   0.254   1.173   8.398 -0.0160  0.2548 -0.0369
 7726SOL    HW134640   0.348   1.179   8.417  0.0556  0.8320 -0.5889
 7726SOL    HW234641   0.225   1.164   8.488 -0.9734  0.3030 -0.3428
 7727SOL     OW34642   2.797   2.557   5.892 -0.0302  0.0036 -0.2196
 7727SOL    HW134643   2.725   2.596   5.941 -0.2238 -1.0614  0.3420
 7727SOL    HW234644   2.870   2.608   5.929 -1.2441 -0.1377  2.3785
 7728SOL     OW34645   4.289   0.774   1.459  0.8237 -0.0978 -0.1052
 7728SOL    HW134646   4.369   0.727   1.436  0.8684  0.4549 -1.0611
 7728SOL    HW234647   4.324   0.828   1.529  0.0087 -1.5526  1.4254
 7729SOL     OW34648   2.912   0.406   7.079 -0.1804 -0.4586  0.9109
 7729SOL    HW134649   2.882   0.494   7.103 -0.1576 -0.2166  0.0564
 7729SOL    HW234650   2.965   0.374   7.152 -0.3497  0.7004  1.5480
 7730SOL     OW34651   1.245   1.046   6.473 -0.3766 -0.2587 -0.2836
 7730SOL    HW134652   1.169   1.042   6.416 -0.9928 -1.4538  0.6299
 7730SOL    HW234653   1.229   0.965   6.522  1.6811 -1.2905 -1.3185
 7731SOL     OW34654   2.536   0.263   7.648 -0.2250  0.5142 -0.3456
 7731SOL    HW134655   2.621   0.295   7.616 -0.1205  1.1670  0.5992
 7731SOL    HW234656   2.489   0.275   7.565 -1.6348  2.5006  0.7603
 7732SOL     OW34657   3.496   2.476   3.197 -0.7805  0.8114 -0.0992
 7732SOL    HW134658   3.468   2.411   3.132  0.8414  0.2829 -0.2603
 7732SOL    HW234659   3.424   2.538   3.193 -1.1506  0.5383  2.3552
 7733SOL     OW34660   0.789   3.566  17.228 -0.0868 -0.5389  0.0494
 7733SOL    HW134661   0.847   3.522  17.290 -0.5845 -2.6278 -0.9645
 7733SOL    HW234662   0.805   3.658  17.246  0.5607 -0.9672  1.6330
 7734SOL     OW34663   2.376   1.202   2.801 -0.2695 -0.3765 -0.0321
 7734SOL    HW134664   2.333   1.272   2.752 -0.0396 -0.6903 -0.6858
 7734SOL    HW234665   2.312   1.135   2.774 -0.5297  0.0067 -0.3692
 7735SOL     OW34666   3.456   1.284   2.982  0.0339  0.2443 -0.3041
 7735SOL    HW134667   3.467   1.379   2.992  0.1406  0.0730  1.1585
 7735SOL    HW234668   3.533   1.274   2.927  0.2816 -1.1561  0.2904
 7736SOL     OW34669   0.491   4.172   6.890  0.3619 -0.0529 -0.0169
 7736SOL    HW134670   0.475   4.226   6.812  2.0220  1.4667  0.6998
 7736SOL    HW234671   0.413   4.165   6.945  0.1519  2.3267  0.0002
 7737SOL     OW34672   0.032   2.261   2.632  0.2556 -0.0981  0.3391
 7737SOL    HW134673   0.013   2.273   2.539  0.5730 -1.6929  0.0644
 7737SOL    HW234674   0.106   2.201   2.628 -0.4722 -1.0149  0.5994
 7738SOL     OW34675   2.286   0.060   0.777 -0.3478 -0.0951 -0.0963
 7738SOL    HW134676   2.222   0.030   0.712 -0.9980 -4.0836  2.3616
 7738SOL    HW234677   2.276   0.155   0.768 -0.9704 -0.2792 -1.3754
 7739SOL     OW34678   0.446   0.398  12.880 -0.2076  0.4012  0.1407
 7739SOL    HW134679   0.454   0.453  12.803 -1.7109 -2.9752 -2.4197
 7739SOL    HW234680   0.358   0.368  12.856  0.0596 -0.7864  0.6362
 7740SOL     OW34681   0.123   4.246   6.209 -0.2014  0.6237  1.0278
 7740SOL    HW134682   0.038   4.289   6.199 -0.3061  0.3809  0.8855
 7740SOL    HW234683   0.140   4.274   6.299  1.0855 -0.2934  1.0568
 7741SOL     OW34684   1.756   1.198   4.773  0.0775  0.2270 -0.1049
 7741SOL    HW134685   1.819   1.246   4.827  0.5106 -1.3671  0.7820
 7741SOL    HW234686   1.669   1.231   4.798 -0.4110 -0.4770 -0.8764
 7742SOL     OW34687   2.927   3.137   6.464  0.6025  0.0059  0.4549
 7742SOL    HW134688   2.960   3.197   6.531  2.0461  0.3675 -0.5821
 7742SOL    HW234689   2.871   3.078   6.513  1.3921 -0.5140  0.7390
 7743SOL     OW34690   1.694   1.176   2.372  0.0165  0.1015 -0.0175
 7743SOL    HW134691   1.661   1.211   2.455 -2.0453 -1.3374 -0.2121
 7743SOL    HW234692   1.725   1.253   2.326  1.3952 -1.5325 -1.8188
 7744SOL     OW34693   4.554   0.485   3.335  0.2710 -0.4614  0.0061
 7744SOL    HW134694   4.569   0.390   3.335 -2.6775 -0.9330 -0.6219
 7744SOL    HW234695   4.567   0.506   3.243 -1.3974 -3.3015 -0.9096
 7745SOL     OW34696   2.591   4.320   7.720  0.2587  0.4977  0.5643
 7745SOL    HW134697   2.569   4.235   7.759 -3.7742  0.5330 -1.5482
 7745SOL    HW234698   2.661   4.356   7.774  0.2241  2.0850 -0.4732
 7746SOL     OW34699   4.470   3.969   3.170  0.0939  0.1592 -0.5086
 7746SOL    HW134700   4.400   4.034   3.177 -0.1909 -0.3562  1.4638
 7746SOL    HW234701   4.442   3.914   3.096  1.0334  2.7176 -2.7706
 7747SOL     OW34702   3.603   2.826   0.291 -0.0385 -0.5712 -0.6120
 7747SOL    HW134703   3.553   2.908   0.298  1.3042 -0.0628  2.7948
 7747SOL    HW234704   3.669   2.845   0.357 -2.7645  1.6165  1.4326
 7748SOL     OW34705   1.123   0.201   2.023 -0.4406  0.2569  0.9289
 7748SOL    HW134706   1.127   0.233   2.113 -0.3037  2.0117  0.3067
 7748SOL    HW234707   1.175   0.267   1.977  0.8784  0.7009  3.0708
 7749SOL     OW34708   2.594   1.853  17.434 -0.7585  0.2238 -0.1902
 7749SOL    HW134709   2.550   1.891  17.358  0.2293 -1.1086 -1.4210
 7749SOL    HW234710   2.521   1.828  17.491 -0.7330  1.2619  0.2959
 7750SOL     OW34711   2.861   0.477  14.806  0.0774 -0.2029  0.0746
 7750SOL    HW134712   2.942   0.517  14.775 -1.1544  0.7891 -1.8259
 7750SOL    HW234713   2.808   0.492  14.728  1.6402  0.0001 -0.9384
 7751SOL     OW34714   2.852   1.865   4.845 -0.0412 -0.4762  0.1163
 7751SOL    HW134715   2.763   1.882   4.814 -0.2088 -0.9249  0.3426
 7751SOL    HW234716   2.887   1.827   4.765  1.5113  2.4625 -0.5957
 7752SOL     OW34717   1.101   0.365   1.645 -0.5602  0.0032  0.1671
 7752SOL    HW134718   1.163   0.395   1.578 -1.7393  0.7654 -0.5801
 7752SOL    HW234719   1.090   0.274   1.617 -3.3146  0.3845  0.0367
 7753SOL     OW34720   3.504   4.597   2.861 -0.1249  0.1650  0.2190
 7753SOL    HW134721   3.408   4.599   2.865 -0.0812 -0.2399  1.3856
 7753SOL    HW234722   3.518   4.504   2.882 -0.7096  0.1085  0.3672
 7754SOL     OW34723   0.755   4.653   6.761 -0.2694 -0.1151 -0.5781
 7754SOL    HW134724   0.728   4.721   6.700  1.1875  0.4440 -0.5989
 7754SOL    HW234725   0.834   4.626   6.715  1.7290 -0.5768  3.1093
 7755SOL     OW34726   1.607   2.234   5.001 -0.1367 -0.8399 -0.8578
 7755SOL    HW134727   1.521   2.236   4.961 -0.9650  0.0516  0.9677
 7755SOL    HW234728   1.644   2.318   4.973  2.3250 -0.6934  2.7819
 7756SOL     OW34729   2.710   1.697  11.092 -0.3613  0.0928 -0.2041
 7756SOL    HW134730   2.692   1.788  11.071 -3.0777 -1.0118 -2.5334
 7756SOL    HW234731   2.799   1.692  11.057 -0.6224 -0.1862 -0.8227
 7757SOL     OW34732   1.821   1.493   5.811  0.1219 -0.3412 -0.0287
 7757SOL    HW134733   1.794   1.411   5.769 -2.3502  0.5281 -0.1368
 7757SOL    HW234734   1.844   1.456   5.896 -1.5244  0.2088  0.6677
 7758SOL     OW34735   1.327   0.606  11.068 -0.1610  0.5485 -0.1859
 7758SOL    HW134736   1.375   0.640  11.143  0.0046 -1.1346  0.4646
 7758SOL    HW234737   1.293   0.522  11.097  0.0289  0.1626 -1.0483
 7759SOL     OW34738   3.557   3.709   1.190 -0.2391 -0.3029  0.0386
 7759SOL    HW134739   3.645   3.722   1.224  0.2951 -1.3580 -0.9597
 7759SOL    HW234740   3.570   3.614   1.185  0.7314 -0.0749 -1.5821
 7760SOL     OW34741   3.528   3.146   1.797 -0.5605 -0.4421 -0.2705
 7760SOL    HW134742   3.566   3.232   1.781  2.7396 -1.8248  0.2233
 7760SOL    HW234743   3.454   3.169   1.741 -0.6991 -0.2876 -0.0208
 7761SOL     OW34744   1.988   0.447  11.668 -0.4687 -0.1252 -0.0552
 7761SOL    HW134745   2.011   0.356  11.648 -0.3179 -0.3565  1.1209
 7761SOL    HW234746   1.895   0.433  11.686  0.2013 -2.6730  1.5341
 7762SOL     OW34747   3.447   4.451  10.774  0.0375 -0.4838 -0.3249
 7762SOL    HW134748   3.456   4.545  10.788 -2.6222 -0.1288 -1.1707
 7762SOL    HW234749   3.464   4.417  10.862 -1.1291 -0.1346  0.0289
 7763SOL     OW34750   4.448   0.363  17.651  0.2611 -0.0314 -0.3646
 7763SOL    HW134751   4.482   0.279  17.681  0.7255 -0.4410 -2.0482
 7763SOL    HW234752   4.355   0.349  17.636  0.0935  0.9536 -0.2756
 7764SOL     OW34753   2.990   3.021   2.675 -0.1879  0.0668  0.3493
 7764SOL    HW134754   2.959   3.064   2.596  0.9533 -2.1352 -1.2918
 7764SOL    HW234755   2.933   2.945   2.665 -1.1273  0.9091 -0.6269
 7765SOL     OW34756   1.710   3.319   6.195  0.1983 -0.2958  0.4363
 7765SOL    HW134757   1.669   3.404   6.208 -0.9213 -0.9869  1.5163
 7765SOL    HW234758   1.743   3.335   6.107 -1.2478  1.2298  0.1682
 7766SOL     OW34759   0.412   2.556   1.866 -0.4482 -0.1951 -0.2032
 7766SOL    HW134760   0.318   2.556   1.847 -0.8578 -2.0438  1.7706
 7766SOL    HW234761   0.431   2.649   1.873  0.5997 -0.4679  0.5757
 7767SOL     OW34762   0.887   2.454   3.703  0.0906 -0.4252 -0.6002
 7767SOL    HW134763   0.947   2.441   3.630  1.8981 -0.3367  0.8682
 7767SOL    HW234764   0.830   2.524   3.670 -2.0911 -1.5619  0.7309
 7768SOL     OW34765   2.938   4.176   6.991 -0.0385 -0.6763  0.0435
 7768SOL    HW134766   2.929   4.096   7.043  0.8410 -0.1749  0.9765
 7768SOL    HW234767   2.949   4.143   6.902 -0.7479 -0.5076 -0.1041
 7769SOL     OW34768   3.751   2.889   7.759  0.2666 -0.0472  0.1457
 7769SOL    HW134769   3.837   2.848   7.750 -1.2480 -3.1765 -0.2916
 7769SOL    HW234770   3.699   2.812   7.783 -3.4183  2.0630 -1.2038
 7770SOL     OW34771   2.184   1.079   1.147 -0.2400 -0.3095 -0.0522
 7770SOL    HW134772   2.176   1.144   1.217 -1.9231  0.8851 -1.3674
 7770SOL    HW234773   2.137   0.999   1.172 -0.9152 -0.3266 -1.3841
 7771SOL     OW34774   1.940   0.046   5.389  0.6585 -0.4029 -0.7554
 7771SOL    HW134775   1.981   0.103   5.453 -0.0477  1.4378 -1.9435
 7771SOL    HW234776   1.976   4.684   5.409 -1.7603 -0.9431  1.1225
 7772SOL     OW34777   0.987   2.150  13.425 -0.2651 -0.2555  0.0317
 7772SOL    HW134778   0.975   2.067  13.379  1.2850 -0.9389  0.8572
 7772SOL    HW234779   1.059   2.136  13.487 -0.2527 -0.1538  0.0410
 7773SOL     OW34780   2.993   3.468   2.579  0.2938 -0.2099  0.8268
 7773SOL    HW134781   3.005   3.405   2.650 -0.4585 -0.5465  0.6603
 7773SOL    HW234782   2.899   3.468   2.563  0.6695 -1.8471 -1.3619
 7774SOL     OW34783   2.495   2.832   3.193 -0.1090  0.1648  0.5029
 7774SOL    HW134784   2.447   2.866   3.118  1.4297  1.7726  0.2242
 7774SOL    HW234785   2.584   2.864   3.176 -0.5632  0.8105 -0.6037
 7775SOL     OW34786   2.933   0.044   4.379 -0.5312 -0.0189 -0.4776
 7775SOL    HW134787   2.941   0.095   4.299  0.7891  0.6483  0.0937
 7775SOL    HW234788   2.849   4.723   4.370 -0.9303  0.7332 -0.6235
 7776SOL     OW34789   1.165   1.757   2.545  0.3029 -0.6243  0.4298
 7776SOL    HW134790   1.211   1.677   2.522  2.7790  1.1015 -0.6140
 7776SOL    HW234791   1.234   1.806   2.590 -0.2313 -1.5214  2.2333
 7777SOL     OW34792   4.419   2.354  11.234  0.5683 -0.3078 -0.3314
 7777SOL    HW134793   4.331   2.340  11.270  0.4216  1.4825  0.0442
 7777SOL    HW234794   4.399   2.383  11.144  0.1058  0.0493 -0.1177
 7778SOL     OW34795   3.933   1.665   0.375  0.0710  0.1134 -0.0776
 7778SOL    HW134796   3.959   1.743   0.326 -0.2912 -0.9811 -1.9727
 7778SOL    HW234797   3.888   1.703   0.451 -1.8169 -2.5085  0.1100
 7779SOL     OW34798   1.739   4.241   8.290 -0.0136  0.3810  0.0129
 7779SOL    HW134799   1.825   4.236   8.333 -0.1443 -1.1546  0.1026
 7779SOL    HW234800   1.704   4.160   8.327 -1.2717  0.3095 -1.3586
 7780SOL     OW34801   1.602   2.669  15.352 -0.6154  0.4406  0.9166
 7780SOL    HW134802   1.518   2.691  15.393 -0.1437 -0.2253  2.2329
 7780SOL    HW234803   1.584   2.675  15.259 -0.5820 -1.2412  0.8109
 7781SOL     OW34804   4.297   3.555  17.511 -0.1487  0.3978 -0.0273
 7781SOL    HW134805   4.209   3.577  17.544 -0.8706 -2.2329 -0.2321
 7781SOL    HW234806   4.348   3.620  17.560 -0.0194 -0.7243  1.3115
 7782SOL     OW34807   3.079   4.305   8.233  0.2763 -0.4928 -0.5841
 7782SOL    HW134808   3.096   4.229   8.288  1.2795  0.2694  0.1468
 7782SOL    HW234809   2.998   4.337   8.271 -0.4145 -0.6916 -1.9072
 7783SOL     OW34810   3.846   1.799  11.997 -0.2457 -0.4464 -0.4127
 7783SOL    HW134811   3.903   1.726  11.973 -0.1429 -0.0897 -1.2501
 7783SOL    HW234812   3.870   1.856  11.924  0.9064 -0.8090 -0.3157
 7784SOL     OW34813   2.443   2.313   4.003 -0.4294  0.2844 -0.5110
 7784SOL    HW134814   2.401   2.271   4.078 -0.2728  2.6198  0.8712
 7784SOL    HW234815   2.534   2.286   4.015 -0.0450  2.0523  0.4944
 7785SOL     OW34816   2.183   0.664   7.875  0.6293 -0.4260  0.5327
 7785SOL    HW134817   2.186   0.754   7.842  2.2587 -0.4045  0.7359
 7785SOL    HW234818   2.206   0.665   7.968  0.8544 -0.0605  0.4762
 7786SOL     OW34819   0.679   2.088   7.916  0.3291  0.2118  0.2500
 7786SOL    HW134820   0.747   2.148   7.944  0.9088  0.1467 -0.9987
 7786SOL    HW234821   0.729   2.009   7.896 -0.3833  0.6634 -3.3650
 7787SOL     OW34822   1.060   3.622   4.420  0.0635 -0.4613  0.9652
 7787SOL    HW134823   1.154   3.619   4.403 -0.4770 -0.2356 -1.9853
 7787SOL    HW234824   1.035   3.539   4.379  2.9484 -1.6826  1.6631
 7788SOL     OW34825   3.890   0.936  10.321  0.0681  0.0747 -0.0474
 7788SOL    HW134826   3.882   0.877  10.397  0.7846 -1.1235 -0.9026
 7788SOL    HW234827   3.925   0.870  10.261  0.0011  1.5866 -1.7278
 7789SOL     OW34828   3.569   4.346   7.064  0.0225  1.4298 -0.8585
 7789SOL    HW134829   3.548   4.256   7.087 -1.5773  1.3757 -2.4810
 7789SOL    HW234830   3.657   4.341   7.025  0.7085  0.6074  0.8027
 7790SOL     OW34831   0.202   4.373   4.743  0.3114  0.3082  0.1158
 7790SOL    HW134832   0.199   4.366   4.647  2.7715  0.0170  0.0441
 7790SOL    HW234833   0.287   4.332   4.764  0.8613  2.3284  1.7697
 7791SOL     OW34834   2.923   3.761  13.000 -0.2739  0.0584  0.0010
 7791SOL    HW134835   2.958   3.674  13.021 -3.2299 -1.5353 -1.6139
 7791SOL    HW234836   2.951   3.764  12.909  3.8697  0.9144  1.3080
 7792SOL     OW34837   4.145   3.801   6.946  0.5353 -0.0367  0.9259
 7792SOL    HW134838   4.127   3.724   6.892 -1.3521  1.0168  0.0371
 7792SOL    HW234839   4.239   3.790   6.955  0.6727  0.0948 -0.4183
 7793SOL     OW34840   2.013   0.336   5.182 -0.0700  0.6768  0.1751
 7793SOL    HW134841   1.992   0.243   5.191 -3.1357  1.1643 -1.9625
 7793SOL    HW234842   2.052   0.337   5.095  0.6136 -1.0124  0.4658
 7794SOL     OW34843   4.200   4.333   5.510 -0.2008  0.0306  0.7588
 7794SOL    HW134844   4.204   4.276   5.587 -0.4699  1.1599  1.6098
 7794SOL    HW234845   4.106   4.319   5.499  0.5133 -2.2321 -2.2369
 7795SOL     OW34846   0.871   0.343   2.351 -0.4871  0.2457 -0.0852
 7795SOL    HW134847   0.856   0.252   2.323 -0.3916  0.0455  0.5169
 7795SOL    HW234848   0.923   0.377   2.278 -0.6849  0.8321  0.0539
 7796SOL     OW34849   1.274   1.473   5.890  0.0375 -0.1426 -0.3590
 7796SOL    HW134850   1.291   1.424   5.810  1.7771 -1.2527  0.7109
 7796SOL    HW234851   1.208   1.535   5.857  1.2772  1.2743 -0.2066
 7797SOL     OW34852   4.177   4.035   8.996  0.4320 -0.5471 -0.3930
 7797SOL    HW134853   4.157   4.120   9.034  1.7817  0.2512 -1.4640
 7797SOL    HW234854   4.129   3.980   9.058 -0.3878  1.3300  0.6471
 7798SOL     OW34855   1.748   2.451   6.359 -0.4310  0.1177  0.1402
 7798SOL    HW134856   1.699   2.402   6.425 -0.1292 -1.8134 -1.0624
 7798SOL    HW234857   1.690   2.526   6.353 -0.1889  0.3325  0.4953
 7799SOL     OW34858   3.771   2.028   5.584  0.2419 -0.2979 -0.0327
 7799SOL    HW134859   3.778   2.065   5.672  1.1021  0.9307 -0.6201
 7799SOL    HW234860   3.693   1.973   5.589 -1.7523  2.6347  1.4462
 7800SOL     OW34861   4.373   4.453   2.609  0.0797  0.0284  0.6814
 7800SOL    HW134862   4.368   4.526   2.548 -0.8937 -1.4404 -1.0021
 7800SOL    HW234863   4.359   4.375   2.555 -0.5625  0.8005 -0.2562
 7801SOL     OW34864   4.694   4.080  13.717  0.0818 -0.3268  0.4041
 7801SOL    HW134865   4.650   4.071  13.632 -0.0538  2.0254  0.2090
 7801SOL    HW234866   4.668   4.169  13.742  1.7387  0.3866 -0.4394
 7802SOL     OW34867   3.170   2.040   7.758 -0.3664  0.0587  0.4019
 7802SOL    HW134868   3.154   2.037   7.852  3.2285 -2.8015  0.9334
 7802SOL    HW234869   3.240   1.974   7.758  0.3978  0.8337 -2.1342
 7803SOL     OW34870   1.269   1.204  14.385 -0.7462  0.1007  0.4796
 7803SOL    HW134871   1.221   1.132  14.342 -1.4452 -0.8315  2.8421
 7803SOL    HW234872   1.287   1.159  14.467  1.1365 -0.6321 -0.3318
 7804SOL     OW34873   3.487   2.806  13.815 -0.0845  0.0624  0.9117
 7804SOL    HW134874   3.527   2.855  13.886 -2.8120  1.7502  1.2740
 7804SOL    HW234875   3.557   2.742  13.804  0.3413  0.8702 -1.1572
 7805SOL     OW34876   3.717   3.613   1.504 -0.4101 -0.2062 -0.0645
 7805SOL    HW134877   3.691   3.528   1.467  2.6894 -0.8817 -0.6342
 7805SOL    HW234878   3.755   3.657   1.428  1.8343  0.5370  1.4965
 7806SOL     OW34879   3.677   2.691  13.005  1.1743 -0.6029  0.3396
 7806SOL    HW134880   3.732   2.650  12.938 -1.5943 -1.6711 -1.2688
 7806SOL    HW234881   3.598   2.718  12.959  1.7777 -0.7693 -0.7854
 7807SOL     OW34882   2.852   2.085   7.262  0.2326 -0.5031  0.1449
 7807SOL    HW134883   2.875   1.995   7.240  0.3431 -0.0479 -1.6072
 7807SOL    HW234884   2.938   2.125   7.254  1.1603 -2.7240 -1.0598
 7808SOL     OW34885   2.315   0.309   1.816 -0.3385 -0.0436 -0.2008
 7808SOL    HW134886   2.242   0.263   1.773  0.6212 -0.9288 -0.8792
 7808SOL    HW234887   2.388   0.274   1.764 -2.1194 -1.4593 -1.7823
 7809SOL     OW34888   0.494   1.935   6.252  0.1285 -0.2098 -0.6072
 7809SOL    HW134889   0.401   1.938   6.231 -0.0251  1.3214  0.3138
 7809SOL    HW234890   0.533   2.022   6.245 -0.4654 -0.0974 -2.4695
 7810SOL     OW34891   4.722   2.915   2.154  0.0648  0.2767  0.1509
 7810SOL    HW134892   4.669   2.843   2.187  1.5890 -1.7449 -1.7704
 7810SOL    HW234893   0.052   2.869   2.090  2.2279  2.9339  0.0706
 7811SOL     OW34894   4.658   4.218   0.316 -0.3842  0.3284 -0.7495
 7811SOL    HW134895   4.620   4.300   0.348 -0.9099 -0.4857  0.7407
 7811SOL    HW234896   0.017   4.211   0.362 -1.4107 -0.0967  1.0594
 7812SOL     OW34897   1.931   1.262   9.549  0.4151  0.1876  0.2314
 7812SOL    HW134898   1.890   1.344   9.577  0.2992  0.2016  0.0228
 7812SOL    HW234899   2.019   1.293   9.527 -0.1453  2.8995  1.8283
 7813SOL     OW34900   4.147   0.881   1.233 -0.3804 -0.2878 -0.0568
 7813SOL    HW134901   4.220   0.935   1.204 -1.1805  0.2648 -1.0089
 7813SOL    HW234902   4.188   0.817   1.292 -1.4571 -0.7909  0.1476
 7814SOL     OW34903   1.694   1.271   5.472  0.4167  0.6180  0.0006
 7814SOL    HW134904   1.674   1.240   5.561 -0.2565 -2.6912 -1.3227
 7814SOL    HW234905   1.788   1.266   5.458  0.1146 -1.7765 -1.1100
 7815SOL     OW34906   3.855   3.539  16.724  0.0563 -0.1247 -0.2963
 7815SOL    HW134907   3.928   3.601  16.726 -1.3773  1.5355  2.5328
 7815SOL    HW234908   3.897   3.483  16.659  0.4099 -0.6021  0.3459
 7816SOL     OW34909   2.961   0.614   4.080  0.1653  0.4156  0.4311
 7816SOL    HW134910   2.983   0.528   4.043  1.7152  0.2121  1.8343
 7816SOL    HW234911   3.015   0.619   4.160  0.4265  0.2326  0.2650
 7817SOL     OW34912   4.050   1.578  11.268 -0.2902 -0.2072 -0.5052
 7817SOL    HW134913   3.963   1.604  11.238 -0.7746 -1.3530 -0.0658
 7817SOL    HW234914   4.105   1.626  11.206  0.1142 -0.7941 -0.6009
 7818SOL     OW34915   3.230   3.939   5.480  0.4584  0.5231  0.3225
 7818SOL    HW134916   3.232   3.899   5.393  0.8267 -0.7093  0.9008
 7818SOL    HW234917   3.205   3.861   5.528 -1.6673  0.0736 -1.4885
 7819SOL     OW34918   1.219   4.032  10.242 -0.2986  0.0324  0.2852
 7819SOL    HW134919   1.273   3.955  10.222  0.8809  0.0884  3.2249
 7819SOL    HW234920   1.179   4.029  10.155 -0.4479  0.2362  0.3488
 7820SOL     OW34921   1.232   4.069   3.598  0.2626 -0.4129  0.0239
 7820SOL    HW134922   1.237   4.163   3.617  1.0094 -0.9444  2.4403
 7820SOL    HW234923   1.138   4.060   3.579  0.0078  1.7471  0.2552
 7821SOL     OW34924   1.935   4.505  16.348  0.1028  0.5124  0.6557
 7821SOL    HW134925   1.897   4.559  16.418  0.3355 -0.0545  1.2207
 7821SOL    HW234926   2.020   4.483  16.387  1.0493  0.6492 -1.3311
 7822SOL     OW34927   4.388   1.113   9.916 -0.1370 -0.0447  0.5385
 7822SOL    HW134928   4.398   1.148  10.004 -2.1903  1.0787  0.3321
 7822SOL    HW234929   4.428   1.027   9.929 -0.3570 -0.2289 -0.0177
 7823SOL     OW34930   2.195   1.279   5.410 -0.8927 -0.2075 -0.5994
 7823SOL    HW134931   2.209   1.366   5.375  0.5060  0.1214  0.7561
 7823SOL    HW234932   2.286   1.248   5.411 -0.9053 -0.2173  0.3939
 7824SOL     OW34933   3.799   1.279   8.555 -0.4098 -0.1802  0.5239
 7824SOL    HW134934   3.857   1.244   8.488 -1.0057 -1.8958  0.8945
 7824SOL    HW234935   3.849   1.247   8.630  1.5439 -0.3475 -0.8581
 7825SOL     OW34936   3.517   0.702   8.926  0.4771  0.7033 -0.1569
 7825SOL    HW134937   3.467   0.764   8.978  1.8774  1.7155  0.0112
 7825SOL    HW234938   3.484   0.705   8.836  3.0608  1.6021 -1.0968
 7826SOL     OW34939   0.331   3.303   8.011  0.2453 -0.3465 -0.6563
 7826SOL    HW134940   0.260   3.243   8.033  0.1550 -0.4556 -1.2608
 7826SOL    HW234941   0.347   3.343   8.097  1.1809  0.5070 -1.2219
 7827SOL     OW34942   4.592   4.346   6.144 -0.3529  0.5063 -0.2035
 7827SOL    HW134943   4.561   4.436   6.150 -0.1938  0.5420  0.1312
 7827SOL    HW234944   4.588   4.330   6.050  0.7442  1.1204 -0.3535
 7828SOL     OW34945   4.348   0.350   8.405 -0.0386 -0.2861 -0.0467
 7828SOL    HW134946   4.304   0.404   8.339 -1.3620 -1.1720  0.1119
 7828SOL    HW234947   4.348   0.268   8.355  2.0141 -1.3559  1.7396
 7829SOL     OW34948   4.218   1.020   2.757 -0.0621  0.0798 -0.5871
 7829SOL    HW134949   4.280   1.093   2.765 -2.5133  2.3487 -2.3502
 7829SOL    HW234950   4.162   1.053   2.687  1.5077 -0.9923 -2.3393
 7830SOL     OW34951   0.777   4.025   8.663 -0.6863  0.0571  0.0205
 7830SOL    HW134952   0.791   4.117   8.689  1.5728 -0.6550  1.3285
 7830SOL    HW234953   0.790   3.985   8.749 -2.0835  0.1124  0.2481
 7831SOL     OW34954   4.380   1.121  15.878  0.3063 -0.3721 -0.4533
 7831SOL    HW134955   4.349   1.066  15.950 -1.6109  1.5242  0.1690
 7831SOL    HW234956   4.395   1.042  15.826  0.2265 -0.1163 -0.8694
 7832SOL     OW34957   2.225   4.210   8.392  0.3430  0.1645  0.2205
 7832SOL    HW134958   2.157   4.151   8.427  1.2859  0.0830  1.9379
 7832SOL    HW234959   2.196   4.228   8.303  2.3749 -1.1679 -0.6996
 7833SOL     OW34960   2.249   3.316   2.773 -0.0110 -0.0585 -0.0937
 7833SOL    HW134961   2.341   3.293   2.781  0.0122 -0.7137 -2.2770
 7833SOL    HW234962   2.249   3.398   2.823  1.2406  0.9482 -1.7630
 7834SOL     OW34963   3.844   0.660   3.934 -0.0156 -0.1225  0.6777
 7834SOL    HW134964   3.806   0.738   3.975 -0.2298 -1.0440  2.2077
 7834SOL    HW234965   3.907   0.694   3.870 -0.5658  1.5625  1.0316
 7835SOL     OW34966   2.545   2.530  16.887 -0.0390 -0.3175 -0.4034
 7835SOL    HW134967   2.518   2.620  16.870 -1.5193 -0.7592 -0.4500
 7835SOL    HW234968   2.457   2.492  16.887 -0.5361  0.8629  1.3586
 7836SOL     OW34969   3.465   3.802   8.845 -0.4268 -0.1225 -0.1966
 7836SOL    HW134970   3.412   3.878   8.868  1.7943  1.6366 -0.8885
 7836SOL    HW234971   3.397   3.736   8.862  1.6089 -1.9706  0.8281
 7837SOL     OW34972   1.848   2.608   6.933 -0.4061  0.1037  0.0712
 7837SOL    HW134973   1.855   2.678   6.869 -0.9555  0.7299  0.6931
 7837SOL    HW234974   1.851   2.536   6.871  0.1396 -1.7791  2.2720
 7838SOL     OW34975   0.258   2.580  16.883 -0.1197  0.5483 -0.5126
 7838SOL    HW134976   0.241   2.498  16.836 -0.4825  1.3832 -1.8464
 7838SOL    HW234977   0.316   2.549  16.952 -0.8184 -2.5672 -1.2908
 7839SOL     OW34978   2.082   1.463  17.100 -0.3156  0.1960  0.6146
 7839SOL    HW134979   2.134   1.398  17.053  1.4751  1.1767  1.2099
 7839SOL    HW234980   2.074   1.533  17.034 -0.9672  0.4557  0.9685
 7840SOL     OW34981   4.104   0.924  11.289  0.1013 -0.0731  0.4338
 7840SOL    HW134982   4.073   0.957  11.373  0.7956 -1.1630  1.1201
 7840SOL    HW234983   4.053   0.844  11.292 -1.8219  1.0387 -2.5168
 7841SOL     OW34984   3.245   4.038   3.955  0.3082 -0.3841  0.5371
 7841SOL    HW134985   3.310   4.028   3.886  0.1731 -1.0982  0.5151
 7841SOL    HW234986   3.200   3.954   3.955 -3.2477  1.5181 -0.6175
 7842SOL     OW34987   2.436   4.488  13.295  0.2646 -0.3075  0.1982
 7842SOL    HW134988   2.506   4.499  13.231  1.9598  0.6337  2.2228
 7842SOL    HW234989   2.441   4.571  13.342  1.4085  0.4575 -1.2537
 7843SOL     OW34990   3.262   1.636   7.367  0.0453  0.1319  0.5829
 7843SOL    HW134991   3.241   1.730   7.366 -0.1178  0.0920  0.4018
 7843SOL    HW234992   3.339   1.638   7.311 -1.7114  0.8429 -1.7933
 7844SOL     OW34993   2.147   3.868   5.205 -0.0192  0.5164 -0.4440
 7844SOL    HW134994   2.132   3.775   5.225 -0.7460  1.0687  1.5169
 7844SOL    HW234995   2.240   3.883   5.222  0.6093 -1.6234 -1.9354
 7845SOL     OW34996   3.897   3.101   6.298  0.3722 -0.6999 -0.2557
 7845SOL    HW134997   3.891   3.104   6.203 -0.5740  0.3388 -0.1674
 7845SOL    HW234998   3.929   3.012   6.311 -1.1917 -1.3653 -1.0260
 7846SOL     OW34999   1.227   2.611   8.656 -0.2660  0.0459 -0.1523
 7846SOL    HW135000   1.309   2.632   8.611 -0.9388  1.0911 -0.8777
 7846SOL    HW235001   1.166   2.664   8.605 -1.7955 -0.4416  1.1739
 7847SOL     OW35002   3.845   1.109   3.261  0.4838 -0.2202 -0.1570
 7847SOL    HW135003   3.823   1.156   3.180  1.6401 -0.1146 -0.4035
 7847SOL    HW235004   3.833   1.177   3.328 -0.0760 -1.0428  0.5704
 7848SOL     OW35005   0.730   4.317   0.077  0.0793 -0.1578 -0.3090
 7848SOL    HW135006   0.723   4.228   0.044  1.0648 -1.2763  2.5278
 7848SOL    HW235007   0.663   4.363   0.025  1.2304  0.9250 -0.8383
 7849SOL     OW35008   3.320   2.139  11.830 -0.8305  0.0490 -0.3899
 7849SOL    HW135009   3.375   2.061  11.818 -0.6148  0.2028 -0.3989
 7849SOL    HW235010   3.360   2.203  11.771  0.6844 -0.1273  0.4276
 7850SOL     OW35011   1.533   4.211   5.756  0.8261  0.0141 -0.1675
 7850SOL    HW135012   1.445   4.208   5.718  1.0277 -0.4638 -0.5941
 7850SOL    HW235013   1.564   4.296   5.723 -1.4105  0.9448  0.1040
 7851SOL     OW35014   2.783   4.659  15.335 -0.0403  0.2081  0.2706
 7851SOL    HW135015   2.835   4.707  15.270  0.9498 -1.8010 -0.4106
 7851SOL    HW235016   2.857   4.616  15.377  1.7225  3.7472  0.8010
 7852SOL     OW35017   1.852   1.976   6.943  0.2738 -0.8614  0.0938
 7852SOL    HW135018   1.775   2.024   6.973  0.0398 -1.4278  0.4033
 7852SOL    HW235019   1.813   1.925   6.872  0.8824  0.7260 -1.3513
 7853SOL     OW35020   1.200   3.100   2.872 -0.0152 -0.0392  0.0847
 7853SOL    HW135021   1.117   3.053   2.884 -0.1531  0.1468 -0.1222
 7853SOL    HW235022   1.245   3.069   2.950 -0.2209  0.8421  0.5560
 7854SOL     OW35023   4.217   3.778   5.546 -0.2008  0.3411  0.0443
 7854SOL    HW135024   4.160   3.700   5.543  2.6957 -1.7101 -1.2142
 7854SOL    HW235025   4.201   3.820   5.461 -1.2837  0.8165  0.4764
 7855SOL     OW35026   2.279   0.786   1.685  0.5958  0.1612 -0.2215
 7855SOL    HW135027   2.288   0.694   1.663  1.4596  0.2072 -0.0878
 7855SOL    HW235028   2.231   0.786   1.767  0.3504 -0.9158 -0.3740
 7856SOL     OW35029   0.603   3.620   2.210 -0.3147  0.2844 -0.3492
 7856SOL    HW135030   0.558   3.657   2.286  1.0048 -0.0353  0.5897
 7856SOL    HW235031   0.559   3.539   2.185 -3.7666  1.0014  3.3834
 7857SOL     OW35032   3.378   1.478   6.936  0.0683 -0.2897  0.6669
 7857SOL    HW135033   3.464   1.461   6.974  1.3129  0.9792 -1.5633
 7857SOL    HW235034   3.361   1.390   6.904 -0.4742 -0.0066  0.1631
 7858SOL     OW35035   3.451   0.729   8.370  0.3548 -0.3504 -0.3616
 7858SOL    HW135036   3.431   0.813   8.412  3.2875  0.0896  0.1397
 7858SOL    HW235037   3.502   0.683   8.436 -0.0819 -1.6781 -0.9498
 7859SOL     OW35038   4.427   1.906   7.346  0.3112  0.2286 -0.1984
 7859SOL    HW135039   4.507   1.957   7.332  1.0920 -1.0322 -0.3409
 7859SOL    HW235040   4.363   1.955   7.294  0.8388  0.1722 -0.8978
 7860SOL     OW35041   4.315   0.545   1.157 -0.0713  0.1476  0.9962
 7860SOL    HW135042   4.395   0.511   1.118 -0.8267  0.6064 -0.9769
 7860SOL    HW235043   4.343   0.634   1.176 -0.9775  0.7856 -0.6249
 7861SOL     OW35044   2.274   3.151   9.098 -0.3709  0.3833 -0.0777
 7861SOL    HW135045   2.290   3.159   9.004  1.7172  2.1151  0.4168
 7861SOL    HW235046   2.196   3.206   9.106  0.4361  1.6881 -1.0187
 7862SOL     OW35047   2.041   3.867   1.686  0.4515 -0.4963 -0.1646
 7862SOL    HW135048   2.049   3.777   1.718  0.2547 -1.8478 -3.8820
 7862SOL    HW235049   2.032   3.853   1.591 -1.0517 -0.2639 -0.0477
 7863SOL     OW35050   3.403   3.150   5.442  0.7636 -0.5023 -0.7815
 7863SOL    HW135051   3.366   3.102   5.516  2.4163  2.0870  1.6749
 7863SOL    HW235052   3.337   3.127   5.376  0.2882 -1.1344 -0.0887
 7864SOL     OW35053   0.014   1.639   1.194 -0.2219 -0.6013 -0.1162
 7864SOL    HW135054   0.006   1.705   1.125 -1.5238 -1.2994 -0.6302
 7864SOL    HW235055   0.098   1.600   1.169  0.4060 -1.2667  3.0087
 7865SOL     OW35056   1.652   0.723   8.113 -0.1029  0.4208 -0.3158
 7865SOL    HW135057   1.625   0.633   8.131  0.2348  0.0643 -1.5849
 7865SOL    HW235058   1.565   0.760   8.096 -0.4594  0.4077  1.5110
 7866SOL     OW35059   0.914   4.014  16.663  0.0999  0.1311  0.9793
 7866SOL    HW135060   0.898   3.951  16.734 -1.8850 -1.8598 -1.2573
 7866SOL    HW235061   0.996   4.053  16.694  1.3334 -1.3358 -0.4552
 7867SOL     OW35062   2.677   4.358   5.366  0.2003  0.8526 -0.1539
 7867SOL    HW135063   2.749   4.391   5.419  0.4589  1.6087 -0.9703
 7867SOL    HW235064   2.645   4.439   5.328  1.4998  0.9300 -1.0945
 7868SOL     OW35065   1.120   2.893  16.225 -0.3286  0.0363 -0.1815
 7868SOL    HW135066   1.096   2.984  16.242  0.7097  0.1556  0.6718
 7868SOL    HW235067   1.169   2.867  16.303 -0.0102  1.1480 -0.0043
 7869SOL     OW35068   2.377   3.685   9.100 -0.3938 -0.2377 -0.0360
 7869SOL    HW135069   2.345   3.690   9.190 -0.8176 -0.5211 -0.1731
 7869SOL    HW235070   2.305   3.649   9.049 -1.1728 -0.4562  1.2367
 7870SOL     OW35071   3.257   4.314  16.408  0.0124 -0.2663 -0.2566
 7870SOL    HW135072   3.197   4.324  16.482  0.3356  1.1962 -0.1969
 7870SOL    HW235073   3.208   4.364  16.343  0.0457 -0.3808 -0.3705
 7871SOL     OW35074   3.869   2.146   3.431  0.0665  0.1686 -0.5167
 7871SOL    HW135075   3.793   2.176   3.380 -0.5441  1.4944  1.1571
 7871SOL    HW235076   3.867   2.213   3.500 -2.2836  0.3475 -0.7388
 7872SOL     OW35077   0.334   4.050   0.760 -0.4737  0.1325 -0.2092
 7872SOL    HW135078   0.356   4.106   0.685  1.8365 -2.1265 -1.2572
 7872SOL    HW235079   0.280   3.977   0.729 -1.5388 -0.4915  3.2235
 7873SOL     OW35080   2.683   4.160   0.603 -0.2398  0.1949  0.4401
 7873SOL    HW135081   2.753   4.198   0.656  1.1674 -0.3764 -1.0083
 7873SOL    HW235082   2.719   4.179   0.517 -0.7523  1.3906  0.5005
 7874SOL     OW35083   3.231   3.569   6.203  0.6103 -0.4469  0.1727
 7874SOL    HW135084   3.241   3.479   6.175 -0.1393  0.3163 -2.5159
 7874SOL    HW235085   3.300   3.577   6.269  1.0320  0.6416 -0.3975
 7875SOL     OW35086   1.709   4.503   0.968 -0.0920 -0.2526 -0.0216
 7875SOL    HW135087   1.640   4.552   1.014 -0.5602  0.2235 -1.2355
 7875SOL    HW235088   1.657   4.442   0.915 -0.7891  0.7886 -0.5325
 7876SOL     OW35089   1.630   3.533   4.802  0.3274 -0.0673  0.0904
 7876SOL    HW135090   1.599   3.523   4.892  0.0264  0.3479  0.0278
 7876SOL    HW235091   1.571   3.469   4.762  0.2597  0.3251 -0.4248
 7877SOL     OW35092   0.663   3.532  14.419  0.4881  0.0351 -0.0466
 7877SOL    HW135093   0.738   3.476  14.400 -1.0002 -1.8956 -0.1498
 7877SOL    HW235094   0.615   3.502  14.343  1.3543  0.6663 -0.8503
 7878SOL     OW35095   1.883   4.446   3.716 -0.6185 -0.2546 -0.0109
 7878SOL    HW135096   1.947   4.481   3.655 -2.6245 -1.5738 -2.8707
 7878SOL    HW235097   1.806   4.458   3.660  0.0532 -0.7178 -1.0377
 7879SOL     OW35098   1.095   3.963  15.203  0.2495  0.1148 -0.4014
 7879SOL    HW135099   1.050   3.880  15.218 -0.1628 -0.0113 -2.3063
 7879SOL    HW235100   1.040   3.987  15.128 -2.5233  0.8264  1.8295
 7880SOL     OW35101   4.201   0.854   7.059  0.1478 -0.1440  0.6778
 7880SOL    HW135102   4.128   0.915   7.072 -1.2064 -1.6180  0.0485
 7880SOL    HW235103   4.215   0.807   7.142 -0.5053 -0.0762  0.8252
 7881SOL     OW35104   0.006   4.268  15.523  0.1859  0.1676  0.3127
 7881SOL    HW135105   0.067   4.281  15.596 -0.2902  2.2660  0.3421
 7881SOL    HW235106   0.016   4.173  15.521  0.0248  0.0974  2.2620
 7882SOL     OW35107   0.743   3.421  10.933  0.6440  0.2755  0.5555
 7882SOL    HW135108   0.698   3.403  11.016 -0.0761  1.9955  0.5469
 7882SOL    HW235109   0.803   3.347  10.931 -0.2264 -0.4773  1.9194
 7883SOL     OW35110   2.167   2.336  11.471  0.7643  0.0754 -0.4793
 7883SOL    HW135111   2.208   2.369  11.391  2.7085  0.2555  0.5903
 7883SOL    HW235112   2.078   2.325  11.439  0.4379  0.1381  0.4201
 7884SOL     OW35113   1.170   0.644  15.223 -0.5601  0.1755 -0.1542
 7884SOL    HW135114   1.091   0.691  15.198  0.0719  0.5178 -1.5287
 7884SOL    HW235115   1.212   0.648  15.137  0.6363 -0.2027  0.4104
 7885SOL     OW35116   2.497   1.128  13.355 -0.1422 -0.0378  0.0819
 7885SOL    HW135117   2.414   1.081  13.365 -0.3383 -0.3036 -2.8426
 7885SOL    HW235118   2.500   1.203  13.414 -0.0673  1.0289 -1.2790
 7886SOL     OW35119   3.040   1.542   6.365 -0.0459 -0.5505  0.4262
 7886SOL    HW135120   3.121   1.557   6.414 -1.6750  0.7195  2.6993
 7886SOL    HW235121   3.073   1.493   6.290  1.9235 -0.3149  1.1226
 7887SOL     OW35122   2.887   1.449   1.338 -0.0809  0.0083  0.8219
 7887SOL    HW135123   2.888   1.355   1.317  2.3702  0.1050  0.5106
 7887SOL    HW235124   2.849   1.448   1.426  1.4390  2.5213  1.4921
 7888SOL     OW35125   2.393   0.774   2.856 -0.2362 -0.4249  0.2862
 7888SOL    HW135126   2.298   0.765   2.857 -0.3273  0.3968 -0.5603
 7888SOL    HW235127   2.416   0.733   2.773 -0.0332  0.4558 -0.0926
 7889SOL     OW35128   2.830   4.344  10.891  0.2061  0.0907 -0.5093
 7889SOL    HW135129   2.779   4.349  10.972 -1.0020 -2.3258 -1.1285
 7889SOL    HW235130   2.796   4.260  10.860  4.1739 -1.8174  0.3031
 7890SOL     OW35131   1.416   1.046   1.743  0.2609 -0.2270 -0.2611
 7890SOL    HW135132   1.495   1.053   1.690  0.1787  1.5399 -0.1575
 7890SOL    HW235133   1.414   0.953   1.763  1.1351  0.0019  0.9028
 7891SOL     OW35134   3.888   1.665   7.046 -0.6807 -0.1227 -0.2604
 7891SOL    HW135135   3.945   1.727   7.092  0.3104 -0.8780 -0.4583
 7891SOL    HW235136   3.809   1.717   7.032  0.7459  1.9150 -0.7347
 7892SOL     OW35137   4.172   3.325  11.194 -0.3199  0.2198  0.1216
 7892SOL    HW135138   4.262   3.330  11.164  0.1053  1.5308  1.6185
 7892SOL    HW235139   4.126   3.403  11.160  0.8635 -0.2219 -2.5180
 7893SOL     OW35140   4.074   1.922  11.568 -0.2710  0.2186  0.2779
 7893SOL    HW135141   4.085   1.828  11.587  2.0761  1.0230  2.9642
 7893SOL    HW235142   3.999   1.935  11.625 -0.8882  1.0046 -0.7240
 7894SOL     OW35143   4.629   0.341   9.007  0.1180  0.4209 -0.2617
 7894SOL    HW135144   4.676   0.336   9.090 -0.4273  0.6484  0.0519
 7894SOL    HW235145   4.554   0.284   9.024 -1.2180  1.5024 -2.4893
 7895SOL     OW35146   1.704   1.168   9.163 -0.0806 -0.0978 -0.2803
 7895SOL    HW135147   1.785   1.145   9.210 -0.9761  2.7649  2.6669
 7895SOL    HW235148   1.738   1.193   9.077  0.7439  0.0198  0.0821
 7896SOL     OW35149   1.108   2.034   4.233 -0.8749  0.4994 -0.3215
 7896SOL    HW135150   1.066   2.047   4.318  0.2102  2.5894 -0.0898
 7896SOL    HW235151   1.127   2.118   4.190  2.5145 -0.4452 -0.7300
 7897SOL     OW35152   0.814   2.768  13.964 -0.1270 -0.2525 -0.1671
 7897SOL    HW135153   0.751   2.783  13.893  0.9113 -1.5490 -1.3558
 7897SOL    HW235154   0.884   2.732  13.910  0.4049 -0.3757  0.5986
 7898SOL     OW35155   0.119   2.261  10.263 -0.0955  0.3025  0.2536
 7898SOL    HW135156   0.209   2.227  10.265 -0.4427 -0.5492  1.2380
 7898SOL    HW235157   0.095   2.263  10.355  2.6242 -0.6738  0.9942
 7899SOL     OW35158   3.289   2.520   0.986 -0.7688  0.0462 -0.5212
 7899SOL    HW135159   3.315   2.582   1.054 -0.6736  0.0076 -0.5213
 7899SOL    HW235160   3.343   2.444   1.010 -0.4285  0.5740  0.3964
 7900SOL     OW35161   1.511   3.774   5.529 -0.2150  0.4069 -0.1350
 7900SOL    HW135162   1.564   3.845   5.564 -2.0774  1.0348  1.4593
 7900SOL    HW235163   1.562   3.699   5.559 -1.3819 -1.1848 -2.1357
 7901SOL     OW35164   2.203   1.338  15.402  0.1210 -0.3420  0.0224
 7901SOL    HW135165   2.123   1.291  15.425  0.9425 -1.2834  0.9635
 7901SOL    HW235166   2.211   1.385  15.486 -0.9626  1.0696 -0.6614
 7902SOL     OW35167   1.117   4.015  16.458 -0.4177 -0.3094  0.0357
 7902SOL    HW135168   1.143   4.089  16.512  0.0615 -0.4813  0.0436
 7902SOL    HW235169   1.029   3.998  16.492  0.5348  0.3443  2.8482
 7903SOL     OW35170   1.991   4.086   2.884  0.0134  0.0173 -0.0080
 7903SOL    HW135171   2.014   4.049   2.969  1.2675  0.9993  0.0826
 7903SOL    HW235172   2.073   4.130   2.862  0.4622 -0.3698  0.9082
 7904SOL     OW35173   4.564   3.584   5.402  0.4657  0.0351  0.1335
 7904SOL    HW135174   4.517   3.518   5.453  1.4194  0.6575  1.8156
 7904SOL    HW235175   4.532   3.563   5.314  2.9018 -1.2062 -0.4730
 7905SOL     OW35176   4.046   4.302  14.112 -0.1337  0.5342  0.5036
 7905SOL    HW135177   4.080   4.386  14.079  1.4121 -0.2619  0.0470
 7905SOL    HW235178   3.970   4.302  14.053  1.5939  0.6865 -1.7499
 7906SOL     OW35179   2.784   0.257   6.906 -0.4129  0.0493  0.4673
 7906SOL    HW135180   2.747   0.325   6.850  0.1793  1.0007  1.2304
 7906SOL    HW235181   2.820   0.309   6.978  1.6225 -0.7393  0.0359
 7907SOL     OW35182   0.052   3.075   6.633  0.1385 -0.1030 -0.4098
 7907SOL    HW135183   0.079   3.165   6.648  0.0275  0.1134 -1.5191
 7907SOL    HW235184   4.704   3.082   6.695  0.2273 -1.8695 -0.0893
 7908SOL     OW35185   3.421   1.963   7.015 -0.0974 -0.5699  0.3728
 7908SOL    HW135186   3.398   2.055   7.026 -0.8281 -0.7823  0.6496
 7908SOL    HW235187   3.359   1.930   6.949  1.4644 -3.4814  0.3280
 7909SOL     OW35188   2.418   1.748  15.822  0.1250  0.4858 -0.7436
 7909SOL    HW135189   2.435   1.830  15.775  0.7629  2.2686  2.6188
 7909SOL    HW235190   2.323   1.745  15.810  0.0312 -1.6498  0.6260
 7910SOL     OW35191   4.113   2.338   3.330  0.1047 -0.1066 -0.0863
 7910SOL    HW135192   4.083   2.423   3.362 -1.2079 -0.2821 -0.8719
 7910SOL    HW235193   4.038   2.278   3.332  0.9586 -1.2102 -0.7373
 7911SOL     OW35194   0.482   4.638  15.343 -0.7689  0.5737 -0.7250
 7911SOL    HW135195   0.459   4.614  15.433 -1.7742 -0.8755 -1.3651
 7911SOL    HW235196   0.421   4.708  15.322 -0.1784  0.8714 -1.4635
 7912SOL     OW35197   0.920   3.417   8.953  0.2994  0.4048  0.1827
 7912SOL    HW135198   0.990   3.443   9.013  1.5137 -0.5241 -0.8309
 7912SOL    HW235199   0.966   3.345   8.908  0.4745  0.9700 -0.5406
 7913SOL     OW35200   3.033   0.435   4.976  0.1493  0.0699 -0.3695
 7913SOL    HW135201   3.008   0.349   4.943  0.4690 -0.2945  0.3369
 7913SOL    HW235202   2.996   0.486   4.904  1.3813 -0.1636 -1.1603
 7914SOL     OW35203   4.197   2.368  17.274 -0.1812 -0.0884 -0.0541
 7914SOL    HW135204   4.130   2.429  17.305  1.0878  0.8104  0.9304
 7914SOL    HW235205   4.230   2.335  17.358 -1.1448  0.7774  0.6723
 7915SOL     OW35206   0.285   2.125   2.585  0.6094 -0.2900  0.1832
 7915SOL    HW135207   0.298   2.095   2.494  0.8728 -1.4457  0.5957
 7915SOL    HW235208   0.260   2.041   2.624 -1.6131  0.1313 -0.3269
 7916SOL     OW35209   2.102   4.357   7.065 -0.1663 -0.1625 -0.5356
 7916SOL    HW135210   2.179   4.395   7.022  0.7930 -0.5464  0.8613
 7916SOL    HW235211   2.053   4.350   6.983  1.0007  0.8538 -1.3199
 7917SOL     OW35212   3.451   4.508   9.243  0.1124  0.2400 -0.4570
 7917SOL    HW135213   3.432   4.557   9.163 -1.8996 -0.7529 -0.5834
 7917SOL    HW235214   3.389   4.551   9.302 -1.6999 -1.5313 -1.1172
 7918SOL     OW35215   1.297   2.363   8.403 -0.4212  0.2115  0.1640
 7918SOL    HW135216   1.259   2.360   8.491  1.0230 -1.7517  0.7236
 7918SOL    HW235217   1.253   2.437   8.363 -0.2266  0.6039  0.6681
 7919SOL     OW35218   2.672   1.418   8.569  0.3276 -0.5811 -0.0812
 7919SOL    HW135219   2.619   1.364   8.510 -0.6419  0.8921 -0.5780
 7919SOL    HW235220   2.613   1.423   8.644  1.4417  1.8968  0.6130
 7920SOL     OW35221   2.004   2.576   3.967  0.4165 -0.4133 -0.4798
 7920SOL    HW135222   2.030   2.539   4.052 -0.8512 -3.5440 -1.4571
 7920SOL    HW235223   2.004   2.504   3.904 -1.7358  0.4853 -1.5140
 7921SOL     OW35224   0.805   1.758  15.840 -0.1695  0.0207  0.9424
 7921SOL    HW135225   0.847   1.764  15.926 -1.1111 -0.0564  1.4025
 7921SOL    HW235226   0.718   1.787  15.867  0.3000  0.1404  2.3724
 7922SOL     OW35227   0.558   1.703   7.408 -0.1259  0.1495 -0.0683
 7922SOL    HW135228   0.597   1.787   7.386 -2.8078  1.1335 -1.1269
 7922SOL    HW235229   0.569   1.696   7.503  0.0628  1.1959 -0.0161
 7923SOL     OW35230   4.458   4.565  13.690 -0.1847 -0.4887 -0.0177
 7923SOL    HW135231   4.390   4.631  13.703  0.1248 -0.2863  0.5629
 7923SOL    HW235232   4.444   4.536  13.780  3.2933  0.0176  0.6875
 7924SOL     OW35233   2.398   1.344   8.685 -0.1504  0.5515  0.3671
 7924SOL    HW135234   2.345   1.416   8.651 -1.1478 -1.2568 -1.9435
 7924SOL    HW235235   2.445   1.318   8.605  0.3397 -0.6838  1.0558
 7925SOL     OW35236   0.471   4.172  16.739 -0.1643 -0.2212  0.1955
 7925SOL    HW135237   0.472   4.268  16.730 -2.8838 -0.1374  1.0474
 7925SOL    HW235238   0.405   4.161  16.671  1.4866  1.2101 -1.6626
 7926SOL     OW35239   3.078   1.983   4.234  0.1270 -0.5409  0.0620
 7926SOL    HW135240   3.095   1.889   4.230 -2.7241 -1.0381 -0.3256
 7926SOL    HW235241   3.125   2.009   4.155 -0.5170  1.6947  0.4237
 7927SOL     OW35242   2.142   3.226   1.699  0.3924 -0.4798  0.0549
 7927SOL    HW135243   2.050   3.251   1.706  0.7643  1.1181 -0.8802
 7927SOL    HW235244   2.141   3.192   1.610 -1.3315  2.1034 -0.9019
 7928SOL     OW35245   2.260   3.808   8.274  0.9376  0.1467 -0.5916
 7928SOL    HW135246   2.344   3.762   8.268  0.7193 -0.0041 -2.3605
 7928SOL    HW235247   2.271   3.853   8.190  0.3397  1.8390  0.2324
 7929SOL     OW35248   0.440   1.678   9.599  0.2593 -0.2909 -0.3310
 7929SOL    HW135249   0.485   1.606   9.643 -3.3765 -1.9436  0.6963
 7929SOL    HW235250   0.409   1.631   9.522 -2.2599 -0.4242  0.7817
 7930SOL     OW35251   1.715   1.030   4.168  0.1921 -0.2664  0.1097
 7930SOL    HW135252   1.801   1.009   4.206  1.3625  3.7257 -0.4212
 7930SOL    HW235253   1.659   0.959   4.202  0.0031  0.1470  0.6601
 7931SOL     OW35254   0.155   3.221   5.755  0.4005  0.4852 -0.3199
 7931SOL    HW135255   0.099   3.224   5.678 -1.3970 -0.7383  0.9583
 7931SOL    HW235256   0.105   3.261   5.826 -0.4753 -0.4237 -0.4216
 7932SOL     OW35257   2.619   2.228   4.200 -0.1603 -0.5514 -0.2164
 7932SOL    HW135258   2.715   2.230   4.206 -0.2912 -1.7648  2.6309
 7932SOL    HW235259   2.605   2.143   4.242 -1.1262 -1.1042 -1.6678
 7933SOL     OW35260   4.249   1.712   6.949 -0.3080  0.3839 -0.1814
 7933SOL    HW135261   4.208   1.769   7.014 -1.6525 -0.7030 -0.0823
 7933SOL    HW235262   4.327   1.696   7.003 -0.0358 -0.8136 -0.9262
 7934SOL     OW35263   0.037   1.085   3.615 -0.5384 -0.1024 -0.2279
 7934SOL    HW135264   0.004   1.133   3.691 -0.2322 -0.8267  0.3592
 7934SOL    HW235265   0.037   1.156   3.550 -2.6682 -1.2912 -1.5057
 7935SOL     OW35266   0.930   1.560  15.685 -0.2190  0.0808  0.1813
 7935SOL    HW135267   0.885   1.622  15.742 -0.3916 -0.0168  0.1493
 7935SOL    HW235268   1.011   1.543  15.734 -1.0489  1.0507  1.8968
 7936SOL     OW35269   2.759   0.588   8.156  0.5871 -0.3826  0.6117
 7936SOL    HW135270   2.710   0.514   8.120 -0.7494  0.7414  0.1210
 7936SOL    HW235271   2.774   0.563   8.247  1.1822 -1.0514  0.3271
 7937SOL     OW35272   1.593   2.566  17.078 -0.3846  0.0638  0.3186
 7937SOL    HW135273   1.560   2.539  16.992 -0.9952  0.7001  0.3489
 7937SOL    HW235274   1.517   2.548  17.133 -0.6454  1.3531  0.3866
 7938SOL     OW35275   4.424   4.646  16.185 -0.0822  1.2409 -0.4823
 7938SOL    HW135276   4.348   4.676  16.235  0.1083  1.2740 -0.2149
 7938SOL    HW235277   4.431   4.720  16.124  0.4381 -0.6323 -2.6772
 7939SOL     OW35278   3.955   4.557  11.211 -0.1533  0.7736  0.1778
 7939SOL    HW135279   4.040   4.544  11.253  1.7074  0.3421 -3.7856
 7939SOL    HW235280   3.988   4.538  11.124 -1.2514 -0.8411  0.0999
 7940SOL     OW35281   3.480   4.358  11.061  0.3340 -0.7031 -0.1926
 7940SOL    HW135282   3.457   4.414  11.134  1.3992  2.8242 -2.5931
 7940SOL    HW235283   3.568   4.395  11.053 -0.7790  1.5231 -1.9217
 7941SOL     OW35284   2.091   2.336   3.132 -0.0221 -0.5676 -0.0127
 7941SOL    HW135285   2.083   2.430   3.116  0.6559 -0.5866 -0.4581
 7941SOL    HW235286   2.047   2.313   3.051  2.4195 -0.8191 -1.2695
 7942SOL     OW35287   1.795   1.925   3.410 -0.4560 -0.6549 -0.9824
 7942SOL    HW135288   1.851   1.857   3.448  0.6346  0.8864  0.2150
 7942SOL    HW235289   1.855   1.985   3.366  0.6575 -1.1815 -0.1884
 7943SOL     OW35290   0.376   0.372  16.279 -0.1760 -0.2310 -0.0636
 7943SOL    HW135291   0.430   0.372  16.200  1.2843 -1.4017  0.9362
 7943SOL    HW235292   0.313   0.309  16.246 -0.5544 -1.0536  2.2541
 7944SOL     OW35293   1.091   4.217   4.204 -0.1348 -0.9778 -0.4877
 7944SOL    HW135294   1.073   4.305   4.238  0.0676 -1.3545  0.5966
 7944SOL    HW235295   1.170   4.235   4.154  0.4175 -1.5625  0.1723
 7945SOL     OW35296   2.464   2.172   8.200 -0.4022  0.4986 -0.2333
 7945SOL    HW135297   2.382   2.167   8.249  0.0612  0.3274  0.5336
 7945SOL    HW235298   2.445   2.127   8.118  2.5325  0.8820 -1.1257
 7946SOL     OW35299   3.890   4.705  14.120 -0.8417  0.0404  0.2226
 7946SOL    HW135300   3.951   4.678  14.051  0.6093  2.0612  0.7064
 7946SOL    HW235301   3.890   0.075  14.107  0.7067 -0.0487 -0.4533
 7947SOL     OW35302   2.309   4.590  14.144 -0.2637  0.3757 -0.0133
 7947SOL    HW135303   2.290   4.641  14.223 -1.5116  1.7854 -1.2209
 7947SOL    HW235304   2.289   4.503  14.179 -1.3615 -0.0029 -1.5459
 7948SOL     OW35305   4.114   1.071  11.055  0.0326  0.1893 -0.2637
 7948SOL    HW135306   4.126   1.163  11.078 -1.7569  1.3203 -3.8176
 7948SOL    HW235307   4.110   1.023  11.137  0.3223  0.9763  0.2149
 7949SOL     OW35308   1.749   0.943   6.383 -0.5362  0.4719  0.4053
 7949SOL    HW135309   1.658   0.966   6.398 -1.0520 -0.7964 -0.7483
 7949SOL    HW235310   1.737   0.855   6.418  0.9771 -0.8231 -2.3437
 7950SOL     OW35311   1.510   1.254   7.352  0.0920  0.0455  0.5992
 7950SOL    HW135312   1.442   1.292   7.297  0.9462  0.6816 -0.0137
 7950SOL    HW235313   1.582   1.307   7.317 -1.6828  1.5755 -0.7633
 7951SOL     OW35314   2.048   0.247   4.627  0.6024 -0.4576  0.4598
 7951SOL    HW135315   1.981   0.287   4.571  1.3609  0.7495  0.4179
 7951SOL    HW235316   2.032   0.154   4.608 -0.0622  0.2216 -2.4041
 7952SOL     OW35317   3.681   0.124   8.841 -0.2346 -0.5327 -0.9924
 7952SOL    HW135318   3.688   0.204   8.789 -0.5276  0.0548 -0.1273
 7952SOL    HW235319   3.747   0.134   8.909 -0.4369 -1.4033 -0.6719
 7953SOL     OW35320   0.232   0.272  13.542  0.2956 -0.3405  0.2016
 7953SOL    HW135321   0.327   0.257  13.541  0.5660  1.3409  1.5160
 7953SOL    HW235322   0.225   0.308  13.630 -0.9857 -0.5260  0.1644
 7954SOL     OW35323   2.943   3.237  11.478  0.6840  0.3449 -0.3674
 7954SOL    HW135324   2.857   3.198  11.497 -0.0869  2.4744  0.4978
 7954SOL    HW235325   2.952   3.310  11.538 -0.2591 -0.1554  0.3971
 7955SOL     OW35326   1.281   4.493   7.304 -0.8919  0.0093  0.1897
 7955SOL    HW135327   1.343   4.523   7.370 -0.3004  0.5439 -0.6192
 7955SOL    HW235328   1.221   4.447   7.364  0.2211  0.2339  1.4699
 7956SOL     OW35329   1.366   0.134   0.068  0.3423  0.1726 -0.0586
 7956SOL    HW135330   1.375   0.063   0.131 -0.6069  0.0237 -0.0814
 7956SOL    HW235331   1.445   0.127   0.014  0.3702  2.4536 -0.2923
 7957SOL     OW35332   3.810   2.000  16.609 -0.5132  0.1065 -0.1266
 7957SOL    HW135333   3.872   2.010  16.681  0.4926 -1.4053 -0.7837
 7957SOL    HW235334   3.762   2.083  16.610  0.2235  0.5322 -0.1878
 7958SOL     OW35335   2.698   1.645   6.040  0.4905 -0.1061 -0.0323
 7958SOL    HW135336   2.792   1.661   6.049  0.5333 -0.2322 -0.2312
 7958SOL    HW235337   2.664   1.726   6.076 -1.1238 -1.4161  1.3694
 7959SOL     OW35338   2.589   1.004   8.177 -0.3707  0.6156  0.4796
 7959SOL    HW135339   2.553   0.936   8.119 -0.8119  1.8894 -0.7618
 7959SOL    HW235340   2.519   1.066   8.156  0.8903  1.7851 -0.2897
 7960SOL     OW35341   2.958   2.346  10.249 -0.2724 -0.4051 -0.5806
 7960SOL    HW135342   2.991   2.259  10.228  0.0429 -0.2896 -0.5595
 7960SOL    HW235343   2.977   2.360  10.341  0.0087  0.2028 -0.7307
 7961SOL     OW35344   2.989   3.055   6.002 -0.1470  0.1163  0.1061
 7961SOL    HW135345   3.071   3.098   6.026  0.9003 -1.0027 -1.4051
 7961SOL    HW235346   2.979   3.081   5.910 -1.5171 -1.3907 -0.1529
 7962SOL     OW35347   3.445   3.077   3.694 -0.1602 -0.2897 -0.0836
 7962SOL    HW135348   3.350   3.064   3.696 -0.1701  0.0782  1.3150
 7962SOL    HW235349   3.477   2.989   3.675  0.7959  0.2551 -1.0036
 7963SOL     OW35350   3.176   0.375   5.938  0.1954 -0.5238  0.1858
 7963SOL    HW135351   3.122   0.407   6.010 -0.3414 -2.3820  0.5991
 7963SOL    HW235352   3.179   0.280   5.951  0.0607 -0.7676 -1.5654
 7964SOL     OW35353   1.047   4.142  15.792 -0.0168 -0.5120  0.3201
 7964SOL    HW135354   1.130   4.159  15.750 -0.6854  3.1275  0.4492
 7964SOL    HW235355   0.994   4.112  15.718  0.9071  2.1364 -1.4181
 7965SOL     OW35356   0.484   3.700  15.314  0.0758  0.4592 -0.2697
 7965SOL    HW135357   0.420   3.683  15.384  0.7603 -0.0147  0.2401
 7965SOL    HW235358   0.504   3.792  15.327  0.3811  0.5071 -1.1249
 7966SOL     OW35359   0.286   2.600   6.447 -0.3343  0.4392  0.2883
 7966SOL    HW135360   0.324   2.534   6.504  2.1043 -0.1824 -2.0635
 7966SOL    HW235361   0.354   2.609   6.381  0.8373  1.0495  1.5811
 7967SOL     OW35362   1.255   3.013   7.333  0.2277 -0.3235 -0.5835
 7967SOL    HW135363   1.187   2.978   7.275  0.9963 -0.4353 -1.4204
 7967SOL    HW235364   1.287   2.937   7.381 -0.5083 -1.7719 -2.3696
 7968SOL     OW35365   0.305   2.118   8.876 -0.4416 -0.9675 -0.3652
 7968SOL    HW135366   0.272   2.185   8.936  1.2955  1.0478 -1.6762
 7968SOL    HW235367   0.326   2.054   8.943 -0.1019 -1.1362 -0.6312
 7969SOL     OW35368   0.666   0.014   7.852 -0.4958  0.2788  0.9339
 7969SOL    HW135369   0.686   4.648   7.875 -0.5966 -0.7495 -3.0617
 7969SOL    HW235370   0.612   4.722   7.775 -0.1493 -1.5610  1.0871
 7970SOL     OW35371   0.006   2.889  14.250 -0.2611 -0.2761 -0.3025
 7970SOL    HW135372   4.641   2.857  14.261 -1.0854  1.5806 -1.6097
 7970SOL    HW235373   0.013   2.909  14.156 -2.8038 -1.1067 -0.6427
 7971SOL     OW35374   3.829   3.754   2.811 -0.3820 -0.4192 -0.5007
 7971SOL    HW135375   3.899   3.696   2.842  1.3742  0.9412 -1.8961
 7971SOL    HW235376   3.760   3.719   2.867 -0.4745 -0.7449 -0.8220
 7972SOL     OW35377   0.285   3.077  10.777  0.4861  0.3355 -0.1993
 7972SOL    HW135378   0.247   2.999  10.817  0.3790  0.4377 -0.1049
 7972SOL    HW235379   0.215   3.122  10.729  0.3361  1.3974  1.0298
 7973SOL     OW35380   4.259   2.891   7.332 -0.0933 -0.0933 -0.1127
 7973SOL    HW135381   4.244   2.927   7.420  2.4824 -0.5556  0.5157
 7973SOL    HW235382   4.233   2.800   7.348  2.0986 -0.4427  1.4821
 7974SOL     OW35383   2.211   3.786  16.739 -0.7069  0.4463 -0.1452
 7974SOL    HW135384   2.187   3.764  16.649 -0.8438 -3.7765  0.9357
 7974SOL    HW235385   2.304   3.801  16.721 -0.6029  0.2839  0.2464
 7975SOL     OW35386   1.517   1.628  12.010  0.3236 -0.7538  0.2290
 7975SOL    HW135387   1.471   1.575  12.075  1.4633 -0.7648  1.0083
 7975SOL    HW235388   1.455   1.702  12.014 -1.7362 -2.3410 -2.2988
 7976SOL     OW35389   2.010   0.607   8.570  0.4212  0.6407 -0.2189
 7976SOL    HW135390   2.030   0.530   8.518  0.9113  0.8037 -0.2690
 7976SOL    HW235391   1.932   0.573   8.614  0.2404  1.5312  0.1497
 7977SOL     OW35392   2.138   3.723   0.686  1.0649 -0.2338  0.2340
 7977SOL    HW135393   2.179   3.808   0.697  1.0937 -0.1024 -0.8721
 7977SOL    HW235394   2.169   3.671   0.760  1.2075  0.3595  0.5838
 7978SOL     OW35395   0.973   1.971  10.885  0.2101 -0.0305 -0.3625
 7978SOL    HW135396   0.945   1.882  10.862  1.1527 -0.1866 -0.8942
 7978SOL    HW235397   0.954   2.020  10.805  1.1583 -0.0248 -0.5812
 7979SOL     OW35398   2.861   0.902   5.911  0.2198  0.1882 -0.0324
 7979SOL    HW135399   2.917   0.969   5.871  1.7286 -0.3542  1.1885
 7979SOL    HW235400   2.851   0.835   5.844 -0.8501 -0.6539  0.9858
 7980SOL     OW35401   0.568   3.290   5.027  0.5536 -0.2858 -0.0546
 7980SOL    HW135402   0.504   3.235   5.072  0.9177 -0.3789  0.3439
 7980SOL    HW235403   0.603   3.346   5.096 -0.4462  0.6373 -0.2954
 7981SOL     OW35404   4.682   3.864  16.753  0.4500  0.3931 -0.2594
 7981SOL    HW135405   0.047   3.870  16.786  0.2913 -1.1057  0.4593
 7981SOL    HW235406   4.660   3.782  16.797  2.4339  0.2389  0.4250
 7982SOL     OW35407   0.882   1.525   6.621 -0.5226 -0.8967  0.0105
 7982SOL    HW135408   0.915   1.443   6.657 -1.6801 -1.4934 -0.2635
 7982SOL    HW235409   0.961   1.577   6.610  0.0759 -1.9088 -0.5617
 7983SOL     OW35410   4.149   0.074  17.606 -0.0031 -0.8363 -0.2201
 7983SOL    HW135411   4.140   0.165  17.635 -1.5645 -1.5957  1.7283
 7983SOL    HW235412   4.070   0.030  17.638 -0.9309  0.8085 -0.2126
 7984SOL     OW35413   3.287   2.594   4.385  0.0242  0.0254  0.3386
 7984SOL    HW135414   3.223   2.532   4.352 -2.1993  1.1915  2.4276
 7984SOL    HW235415   3.354   2.601   4.317 -0.3704  0.6781  0.0151
 7985SOL     OW35416   2.945   3.696   0.025 -0.1124 -0.1400 -0.3851
 7985SOL    HW135417   2.995   3.675  17.646  0.5668 -1.4951  0.4324
 7985SOL    HW235418   2.961   3.626   0.087  0.9445  1.6531  1.3747
 7986SOL     OW35419   1.934   0.339   5.787 -0.1984  0.7303 -0.2644
 7986SOL    HW135420   1.847   0.367   5.761  0.2611  0.5706 -1.9523
 7986SOL    HW235421   1.926   0.299   5.874  1.5920  0.5564 -0.1657
 7987SOL     OW35422   0.545   4.254   3.065 -0.3750  0.1354  0.6535
 7987SOL    HW135423   0.567   4.235   2.974  0.3019  1.4805  0.5459
 7987SOL    HW235424   0.601   4.327   3.088 -1.1870  0.3509  1.9239
 7988SOL     OW35425   3.052   2.183   9.809 -0.0188 -0.3968 -0.5766
 7988SOL    HW135426   3.124   2.182   9.745  0.8681 -0.1710  0.4052
 7988SOL    HW235427   3.011   2.266   9.783  1.8485  0.0744 -2.0335
 7989SOL     OW35428   4.325   3.851   1.488  0.0099  0.2688 -0.2084
 7989SOL    HW135429   4.300   3.761   1.509 -0.9769  1.0113  1.8485
 7989SOL    HW235430   4.251   3.894   1.529  0.1150 -0.6452  0.9385
 7990SOL     OW35431   0.846   2.801   6.432 -0.1115 -0.0921  0.3290
 7990SOL    HW135432   0.777   2.868   6.435 -0.8611 -0.9358  1.5957
 7990SOL    HW235433   0.918   2.858   6.456 -0.1440 -0.4198  1.2090
 7991SOL     OW35434   3.158   0.857  11.635  0.1529 -0.4325 -0.1348
 7991SOL    HW135435   3.208   0.914  11.695  0.5828  2.1129 -2.9392
 7991SOL    HW235436   3.203   0.868  11.551  0.2331  0.2003 -0.0100
 7992SOL     OW35437   2.225   3.020   4.437 -0.7526  0.1080  0.1485
 7992SOL    HW135438   2.276   3.093   4.472  0.1549 -0.9170  0.9759
 7992SOL    HW235439   2.240   3.026   4.342 -0.2164 -1.0270  0.1642
 7993SOL     OW35440   3.549   1.800   3.888 -0.0858  0.4063  0.5857
 7993SOL    HW135441   3.632   1.752   3.897  1.3756  2.8032 -0.1109
 7993SOL    HW235442   3.537   1.745   3.810  0.0004 -0.0314  0.8793
 7994SOL     OW35443   1.502   1.669   6.654  0.1063 -0.0403 -0.2138
 7994SOL    HW135444   1.417   1.649   6.695  0.3338 -0.3232  0.1241
 7994SOL    HW235445   1.535   1.580   6.669  2.1959  0.7660 -0.0764
 7995SOL     OW35446   0.721   2.240  14.120 -0.0818  0.4940  0.2534
 7995SOL    HW135447   0.775   2.309  14.082 -0.8988  0.8631 -0.2322
 7995SOL    HW235448   0.776   2.164  14.136 -0.9719 -0.5641 -1.7206
 7996SOL     OW35449   1.921   4.528   6.300 -0.1166 -0.0395  0.4222
 7996SOL    HW135450   1.920   4.605   6.357  2.9561 -0.0375  0.4450
 7996SOL    HW235451   1.860   4.549   6.229 -0.9681 -1.0272  0.8524
 7997SOL     OW35452   0.499   3.156  10.917 -0.2478 -0.0092  0.1851
 7997SOL    HW135453   0.422   3.102  10.898 -0.9144  1.2717 -0.7712
 7997SOL    HW235454   0.539   3.136  10.833  0.5756 -0.3482  0.6581
 7998SOL     OW35455   3.040   2.031  10.292  0.3252  0.2016 -0.5318
 7998SOL    HW135456   3.042   1.936  10.285 -2.5630  0.1205 -0.0940
 7998SOL    HW235457   3.023   2.058  10.202  0.9637  2.6201  0.0536
 7999SOL     OW35458   2.848   3.331  12.780  0.0410  0.6913  0.0814
 7999SOL    HW135459   2.756   3.309  12.770  0.4182 -0.3011 -1.2020
 7999SOL    HW235460   2.861   3.291  12.866  0.1484 -0.5409 -0.5033
 8000SOL     OW35461   2.769   0.370   7.556 -0.2602 -0.1165  0.3410
 8000SOL    HW135462   2.847   0.340   7.510 -1.3197 -1.5203 -0.5328
 8000SOL    HW235463   2.711   0.408   7.490  0.5625 -2.2463 -1.5972
 8001SOL     OW35464   4.414   1.164   2.089  0.2750 -0.7065 -0.1872
 8001SOL    HW135465   4.359   1.217   2.030  1.2763 -1.6252 -1.9662
 8001SOL    HW235466   4.352   1.107   2.134  1.6084 -1.2641  0.9219
 8002SOL     OW35467   2.693   1.002  15.573 -0.6785  0.7012 -0.6724
 8002SOL    HW135468   2.598   0.995  15.575 -0.6591  0.0313 -2.0237
 8002SOL    HW235469   2.717   0.946  15.646  1.6055 -0.4197 -2.2773
 8003SOL     OW35470   1.879   4.613   9.134  1.1444  0.2082 -1.1508
 8003SOL    HW135471   1.957   4.625   9.080  0.9103  0.1973 -1.4897
 8003SOL    HW235472   1.909   4.663   9.210  0.0289  0.4315 -0.8574
 8004SOL     OW35473   1.810   3.090   0.123  0.6820  0.6391 -0.0004
 8004SOL    HW135474   1.780   3.181   0.116 -1.3942 -0.0505 -0.0045
 8004SOL    HW235475   1.801   3.078   0.218 -1.6084 -1.6167 -0.5198
 8005SOL     OW35476   2.358   4.318   3.487  0.0623 -0.1774  0.1007
 8005SOL    HW135477   2.344   4.412   3.475  1.3553 -0.0007 -0.1281
 8005SOL    HW235478   2.268   4.293   3.467 -0.4237  2.0642 -0.4997
 8006SOL     OW35479   0.991   0.031   3.742 -0.0923 -0.5003  0.2354
 8006SOL    HW135480   0.992   4.718   3.654  1.9030 -0.5602  0.2814
 8006SOL    HW235481   0.939   0.109   3.723 -1.1932 -0.6062  2.8637
 8007SOL     OW35482   1.473   3.777  10.028  0.0808 -0.2960 -0.2245
 8007SOL    HW135483   1.429   3.774  10.113 -0.6848 -1.8482 -0.6731
 8007SOL    HW235484   1.454   3.868  10.004  1.7159 -0.2606 -1.3823
 8008SOL     OW35485   0.543   0.921   4.056 -0.0904 -0.1725 -1.0196
 8008SOL    HW135486   0.469   0.863   4.033 -0.6573  0.4150 -0.6830
 8008SOL    HW235487   0.499   0.969   4.126  0.2733 -0.2890 -0.7134
 8009SOL     OW35488   2.494   1.472   0.702  0.9193 -0.0219 -0.0899
 8009SOL    HW135489   2.525   1.562   0.712 -2.4833  1.2478 -0.9783
 8009SOL    HW235490   2.407   1.483   0.663  1.2734 -1.2740 -1.2276
 8010SOL     OW35491   3.652   0.030   6.282  0.1326 -0.1480  0.1948
 8010SOL    HW135492   3.703   0.049   6.204 -2.4684 -1.9842 -1.9682
 8010SOL    HW235493   3.640   4.660   6.294 -1.3641  0.1115  0.7875
 8011SOL     OW35494   0.455   2.686   2.216  0.2715  0.4299 -0.1360
 8011SOL    HW135495   0.535   2.724   2.178  1.7161 -1.1749  1.2976
 8011SOL    HW235496   0.397   2.762   2.224  0.8029  0.1732  5.7690
 8012SOL     OW35497   2.974   0.229  16.710  0.8013  0.7733  0.3084
 8012SOL    HW135498   3.048   0.289  16.723  1.4971 -0.1438  0.5731
 8012SOL    HW235499   2.942   0.258  16.624 -0.5771  0.0568  0.5774
 8013SOL     OW35500   0.301   2.179   0.128 -0.6691 -0.2150  0.3155
 8013SOL    HW135501   0.318   2.272   0.120  1.3485 -0.5171  1.0799
 8013SOL    HW235502   0.211   2.176   0.095  0.4505 -1.0190 -2.6153
 8014SOL     OW35503   3.285   3.799   7.838  0.2683  0.0518  0.2361
 8014SOL    HW135504   3.189   3.797   7.836  0.2475  1.1159  0.5378
 8014SOL    HW235505   3.295   3.742   7.914  1.8833 -1.4132 -1.0749
 8015SOL     OW35506   3.176   3.153   5.625 -0.1032  0.2703 -0.0472
 8015SOL    HW135507   3.177   3.057   5.622 -2.0685  0.1971  1.2334
 8015SOL    HW235508   3.102   3.160   5.686  0.2567 -1.8202  0.6226
 8016SOL     OW35509   2.811   2.134   5.592  0.0923 -0.2887 -0.4527
 8016SOL    HW135510   2.719   2.144   5.615 -0.4234  0.4240 -2.8324
 8016SOL    HW235511   2.834   2.053   5.637  0.5395 -1.0908 -2.1013
 8017SOL     OW35512   1.516   4.051   2.095 -0.0862 -0.5479  0.4040
 8017SOL    HW135513   1.515   3.979   2.032 -2.5886  0.1629 -0.3446
 8017SOL    HW235514   1.443   4.025   2.151 -0.7523 -2.9611 -1.6073
 8018SOL     OW35515   3.614   0.926   2.621  0.7156  0.5643  0.0450
 8018SOL    HW135516   3.604   0.973   2.538 -0.0140  1.9446  0.9159
 8018SOL    HW235517   3.523   0.910   2.647  0.5618 -2.1605 -2.1884
 8019SOL     OW35518   0.302   0.538   7.788  0.1849  0.3062 -0.3333
 8019SOL    HW135519   0.356   0.459   7.793 -0.8098 -0.3691 -0.4459
 8019SOL    HW235520   0.270   0.546   7.877 -2.2968 -2.3061 -1.0229
 8020SOL     OW35521   3.479   4.654   7.679 -0.0252 -0.3683  0.2941
 8020SOL    HW135522   3.528   4.609   7.748  0.7957 -0.8020 -0.5707
 8020SOL    HW235523   3.544   4.719   7.653 -1.5820  1.9520  2.0670
 8021SOL     OW35524   4.477   1.031   5.115 -0.4474  1.2196  0.0892
 8021SOL    HW135525   4.424   0.965   5.070  2.6557 -0.4815 -1.0641
 8021SOL    HW235526   4.463   1.008   5.207  1.4452  0.8742  0.2879
 8022SOL     OW35527   3.765   3.394   6.086 -0.2736 -0.2262 -0.1141
 8022SOL    HW135528   3.673   3.369   6.094 -0.8823  1.4675 -1.8829
 8022SOL    HW235529   3.754   3.472   6.031  0.1829  0.4789  0.7938
 8023SOL     OW35530   3.764   3.662   7.639  0.1309 -0.1616  0.0509
 8023SOL    HW135531   3.785   3.706   7.557  2.8018 -0.4869  0.5614
 8023SOL    HW235532   3.710   3.730   7.679  0.4809  0.5574 -0.6981
 8024SOL     OW35533   2.640   2.443   3.522  0.1119 -0.1130  0.0194
 8024SOL    HW135534   2.565   2.423   3.466 -1.3088  1.1495  1.4781
 8024SOL    HW235535   2.631   2.370   3.583  0.8569  1.7704  2.3806
 8025SOL     OW35536   4.116   1.414   2.601  0.2557  0.2283 -0.1089
 8025SOL    HW135537   4.127   1.386   2.510 -0.2993 -1.8539  0.4712
 8025SOL    HW235538   4.198   1.373   2.631 -1.9376 -1.8244  3.1179
 8026SOL     OW35539   4.546   0.164  10.990 -0.1993  0.7647  0.0583
 8026SOL    HW135540   4.604   0.110  11.043 -0.0221  1.7484  0.8535
 8026SOL    HW235541   4.469   0.150  11.044  0.0086 -0.5769  0.0265
 8027SOL     OW35542   4.065   4.266   2.227 -0.1129  0.0106  0.5736
 8027SOL    HW135543   4.109   4.189   2.191 -2.0323 -2.0960  2.7008
 8027SOL    HW235544   3.975   4.245   2.201 -0.0328  0.7994 -0.3483
 8028SOL     OW35545   4.655   3.670   2.542 -0.5717 -0.4031  0.2194
 8028SOL    HW135546   0.003   3.690   2.601  1.5371 -2.5214 -1.6818
 8028SOL    HW235547   4.631   3.760   2.521 -0.1211  0.0899  1.7739
 8029SOL     OW35548   4.014   3.251  12.735 -0.1949 -0.0949 -0.5171
 8029SOL    HW135549   4.110   3.251  12.725 -0.2506  1.8315 -1.0460
 8029SOL    HW235550   3.992   3.183  12.672  1.8940 -0.0553 -1.3072
 8030SOL     OW35551   0.869   3.244   8.159 -0.5293  0.4164  0.1119
 8030SOL    HW135552   0.874   3.334   8.191 -2.5190  1.5156 -2.6709
 8030SOL    HW235553   0.778   3.214   8.164  0.0230 -0.9948  1.6475
 8031SOL     OW35554   0.420   0.183  11.766 -0.7524  0.1098  0.1568
 8031SOL    HW135555   0.484   0.174  11.837 -1.0162 -1.5452  0.1807
 8031SOL    HW235556   0.393   0.092  11.750 -1.7029 -0.0426  2.7548
 8032SOL     OW35557   2.552   2.308  10.516  0.0602 -0.0562  0.1372
 8032SOL    HW135558   2.470   2.266  10.542 -0.8644  0.8178 -1.3389
 8032SOL    HW235559   2.600   2.226  10.508  1.0804  1.0172 -4.5581
 8033SOL     OW35560   4.633   0.902   9.197  0.1035 -0.2927  0.4054
 8033SOL    HW135561   0.001   0.922   9.183 -0.0911 -0.0940 -0.6081
 8033SOL    HW235562   4.650   0.810   9.219  0.9866 -0.2347 -0.0189
 8034SOL     OW35563   3.089   2.497   5.499 -0.7408  0.6431  0.1896
 8034SOL    HW135564   3.090   2.548   5.418  2.5888 -1.2044 -0.9137
 8034SOL    HW235565   2.994   2.488   5.501 -0.5606 -1.2143  0.2219
 8035SOL     OW35566   1.053   1.810  17.424  0.1417 -0.4033  0.5602
 8035SOL    HW135567   1.058   1.739  17.360 -2.0782  1.2991 -1.4937
 8035SOL    HW235568   1.045   1.764  17.507 -0.5166 -0.3445  0.5350
 8036SOL     OW35569   0.044   0.117  11.878 -0.3933 -0.0597 -0.0483
 8036SOL    HW135570   4.692   0.100  11.822  0.6237  1.8169 -2.0258
 8036SOL    HW235571   0.063   0.028  11.906 -0.2531  0.3421  1.0958
 8037SOL     OW35572   3.137   1.450   6.094 -0.3350  0.5634 -0.0891
 8037SOL    HW135573   3.202   1.393   6.134  1.7196  2.3942 -0.8274
 8037SOL    HW235574   3.140   1.411   6.007 -0.6104  1.6705 -0.5910
 8038SOL     OW35575   1.448   4.367   0.973 -0.5441 -0.0386 -0.4030
 8038SOL    HW135576   1.450   4.310   0.896 -2.2855 -0.3525 -0.2234
 8038SOL    HW235577   1.353   4.378   0.975 -0.6574 -1.4005  1.7977
 8039SOL     OW35578   1.980   2.343   3.382  0.2609  0.3704  0.0439
 8039SOL    HW135579   2.065   2.365   3.419 -0.8152  0.0243  2.7365
 8039SOL    HW235580   2.015   2.351   3.294  0.3775  0.9799  0.1487
 8040SOL     OW35581   2.803   2.504   6.498  0.4409  0.4989  0.6918
 8040SOL    HW135582   2.797   2.521   6.404 -0.0886  1.7167  0.9442
 8040SOL    HW235583   2.894   2.474   6.506  0.8558  1.7569  0.6030
 8041SOL     OW35584   2.394   1.999   5.997 -0.1653 -0.1537 -0.3072
 8041SOL    HW135585   2.346   2.075   6.029  0.8530  0.7284 -0.8913
 8041SOL    HW235586   2.324   1.956   5.947 -1.6479  0.1953  1.4469
 8042SOL     OW35587   2.412   1.020   2.485 -0.2144  0.3201  0.1774
 8042SOL    HW135588   2.328   0.988   2.452 -1.0605  0.3172  2.3748
 8042SOL    HW235589   2.380   1.101   2.525  0.7070  1.4166 -1.2861
 8043SOL     OW35590   3.058   3.716  11.212  0.2454  0.3141 -0.7249
 8043SOL    HW135591   3.029   3.756  11.294  0.2647 -1.9071  0.3757
 8043SOL    HW235592   3.131   3.775  11.198 -0.2850  1.2803  0.5563
 8044SOL     OW35593   1.911   4.306  13.696  0.1968 -0.2890 -0.0072
 8044SOL    HW135594   1.891   4.314  13.603 -1.9538  1.6643  0.6409
 8044SOL    HW235595   1.825   4.289  13.734 -0.2151  0.8094 -0.4418
 8045SOL     OW35596   3.081   2.685   4.903  0.3859  0.4736 -0.6400
 8045SOL    HW135597   3.027   2.746   4.852 -1.0661 -1.5309 -1.4895
 8045SOL    HW235598   3.018   2.624   4.940 -0.1858  1.9335  0.7989
 8046SOL     OW35599   3.917   0.293  10.347  0.4009 -0.2509  0.0474
 8046SOL    HW135600   3.966   0.216  10.374 -1.4916 -1.3318  0.4426
 8046SOL    HW235601   3.884   0.323  10.432 -0.8840  0.5119 -0.7149
 8047SOL     OW35602   1.443   2.429   0.468  0.2218 -0.0618 -0.5219
 8047SOL    HW135603   1.474   2.383   0.390 -1.8957 -1.2700 -0.6373
 8047SOL    HW235604   1.464   2.520   0.446 -0.0167  0.3868  1.0855
 8048SOL     OW35605   1.099   0.121   5.829 -0.6489  0.1770 -0.4454
 8048SOL    HW135606   1.042   0.065   5.883  0.0583  0.4229  0.5562
 8048SOL    HW235607   1.053   0.132   5.746 -1.5735  1.1010  0.1911
 8049SOL     OW35608   2.791   2.684  13.011  0.0293 -0.2218  0.7916
 8049SOL    HW135609   2.761   2.595  12.993 -1.6784  0.7639 -1.3600
 8049SOL    HW235610   2.864   2.681  13.073  1.1613  1.0975 -0.4505
 8050SOL     OW35611   2.249   3.374   4.230  0.0773  0.1628 -0.0255
 8050SOL    HW135612   2.158   3.394   4.211  0.4760  3.5274  1.6282
 8050SOL    HW235613   2.279   3.420   4.309 -1.9751  0.5411  0.5229
 8051SOL     OW35614   0.624   0.202  13.139 -0.1127  0.0206  0.2034
 8051SOL    HW135615   0.703   0.247  13.167 -0.0082 -0.7842  1.2032
 8051SOL    HW235616   0.635   0.185  13.045  1.3913  3.2895 -0.1848
 8052SOL     OW35617   4.225   2.244   8.918  0.4757 -0.6099  0.2553
 8052SOL    HW135618   4.131   2.263   8.914  1.2000  2.9945  0.6970
 8052SOL    HW235619   4.230   2.154   8.884  1.4268  0.3342 -2.0997
 8053SOL     OW35620   3.500   3.473   9.270  0.4357  0.3006 -0.7216
 8053SOL    HW135621   3.434   3.473   9.200 -1.7840  3.1816  1.3636
 8053SOL    HW235622   3.574   3.491   9.212 -0.4663 -2.2205 -2.6377
 8054SOL     OW35623   3.564   1.283   5.857 -0.6310 -0.4435 -0.0784
 8054SOL    HW135624   3.627   1.269   5.928 -0.8480 -0.3541  0.1301
 8054SOL    HW235625   3.504   1.341   5.904 -1.5011 -0.2562 -1.4290
 8055SOL     OW35626   1.086   3.535   6.004 -0.3931  0.4862 -0.7309
 8055SOL    HW135627   1.106   3.528   5.911  0.3998  0.5401 -0.5645
 8055SOL    HW235628   1.016   3.470   6.012  0.4902 -0.1012  1.9691
 8056SOL     OW35629   1.516   2.055   9.148  0.4897  0.1666  0.1777
 8056SOL    HW135630   1.433   2.102   9.147  0.1773 -0.3419  2.0566
 8056SOL    HW235631   1.484   1.965   9.148 -1.8971  1.0377 -0.4372
 8057SOL     OW35632   4.289   3.713   8.705 -0.0801 -0.4951 -0.0541
 8057SOL    HW135633   4.325   3.787   8.754 -1.5062  0.8055 -1.0014
 8057SOL    HW235634   4.360   3.694   8.643 -0.4110  0.7838 -0.8175
 8058SOL     OW35635   3.012   1.429   9.003  0.1598  0.4425 -0.0601
 8058SOL    HW135636   2.992   1.509   8.955  0.7102  1.3039  1.1513
 8058SOL    HW235637   3.077   1.459   9.067 -0.5751 -2.3441  2.0098
 8059SOL     OW35638   3.477   1.028   6.069  0.4291  0.0959 -0.4816
 8059SOL    HW135639   3.389   0.990   6.061  0.2333 -0.1216  2.8789
 8059SOL    HW235640   3.448   1.108   6.112 -1.3481 -1.4139  1.1760
 8060SOL     OW35641   3.494   2.292   2.113  0.4178  0.1693 -0.6668
 8060SOL    HW135642   3.443   2.367   2.082  1.9366  1.8485  0.8576
 8060SOL    HW235643   3.452   2.221   2.065  1.5977 -1.8286  1.2589
 8061SOL     OW35644   2.960   0.773   3.849 -0.2338  0.3165  0.3783
 8061SOL    HW135645   3.037   0.775   3.906  1.0876 -0.8262 -1.3802
 8061SOL    HW235646   2.911   0.724   3.915  0.1866 -1.5083 -0.6857
 8062SOL     OW35647   0.613   2.501  10.404  0.6686 -0.5201  0.1354
 8062SOL    HW135648   0.633   2.522  10.495  1.0658 -3.6434  0.7734
 8062SOL    HW235649   0.540   2.441  10.421  0.5205 -0.7396 -1.3339
 8063SOL     OW35650   2.408   3.017   3.437 -0.3075 -0.4897 -0.1048
 8063SOL    HW135651   2.480   2.980   3.385 -0.8117 -1.4685 -0.1070
 8063SOL    HW235652   2.397   3.103   3.398  0.0320 -0.9994 -1.3278
 8064SOL     OW35653   1.136   3.224  17.166 -0.2853  0.0523 -0.2095
 8064SOL    HW135654   1.100   3.137  17.153 -0.0893 -0.0742  0.0957
 8064SOL    HW235655   1.064   3.258  17.220  0.3734 -0.5922  1.0816
 8065SOL     OW35656   1.908   3.735   5.016  0.0591 -0.1503 -0.0084
 8065SOL    HW135657   1.866   3.736   5.102  2.8272  0.9322  1.3161
 8065SOL    HW235658   1.990   3.689   5.031 -0.9922 -1.5734  1.2820
 8066SOL     OW35659   4.454   1.991  11.324 -0.3415 -0.3692  0.0014
 8066SOL    HW135660   4.396   1.924  11.359 -0.2840  0.7834  2.3641
 8066SOL    HW235661   4.383   2.053  11.305 -0.6628 -0.4922  0.8070
 8067SOL     OW35662   4.099   0.506   4.245 -0.2538  0.2204 -0.1122
 8067SOL    HW135663   4.122   0.420   4.278 -0.9001  0.6809  1.5447
 8067SOL    HW235664   4.088   0.487   4.152 -0.8898 -0.5967  0.1311
 8068SOL     OW35665   3.687   3.732   3.690 -0.1351 -0.0035 -0.1219
 8068SOL    HW135666   3.777   3.743   3.659  0.7760  1.7663  3.1566
 8068SOL    HW235667   3.682   3.820   3.727 -0.2492  0.5114 -1.3401
 8069SOL     OW35668   0.589   0.591   1.799 -0.1276 -0.0761  0.1311
 8069SOL    HW135669   0.535   0.573   1.722  1.4822 -1.5641 -0.6722
 8069SOL    HW235670   0.548   0.538   1.867  3.1864 -0.5072  1.7909
 8070SOL     OW35671   2.244   2.239   6.027 -0.1074  0.4353  0.1321
 8070SOL    HW135672   2.153   2.263   6.009 -0.8727 -0.2227  3.0330
 8070SOL    HW235673   2.281   2.316   5.985  1.0455  0.0572  0.4369
 8071SOL     OW35674   1.949   0.841   1.680 -0.1883 -0.0060  0.5433
 8071SOL    HW135675   1.997   0.865   1.759  2.3468 -1.3195 -0.5840
 8071SOL    HW235676   1.994   0.892   1.613 -1.4662  0.7329  0.2401
 8072SOL     OW35677   0.357   2.954   6.176 -0.1335  0.1964 -0.0796
 8072SOL    HW135678   0.421   2.936   6.107 -0.2657 -1.6804  0.2620
 8072SOL    HW235679   0.395   2.912   6.254  1.5943  1.2215 -0.3699
 8073SOL     OW35680   0.346   2.437   1.218 -0.1057 -0.2906 -0.8711
 8073SOL    HW135681   0.311   2.352   1.246 -0.5660  0.6329  1.3755
 8073SOL    HW235682   0.292   2.456   1.141  0.3135  1.3843 -0.7362
 8074SOL     OW35683   4.355   1.871   1.932  0.2986  0.3497 -0.2887
 8074SOL    HW135684   4.354   1.799   1.995 -3.2974  1.2914  0.7305
 8074SOL    HW235685   4.262   1.893   1.933  0.7380  2.0908  1.6777
 8075SOL     OW35686   1.759   1.234   1.215  0.5890 -0.8940 -0.2462
 8075SOL    HW135687   1.723   1.309   1.261  2.7316  0.4939 -0.7947
 8075SOL    HW235688   1.746   1.259   1.123 -0.1216  0.4843  0.2272
 8076SOL     OW35689   2.526   3.413   3.324  0.0145 -0.4625  0.2655
 8076SOL    HW135690   2.605   3.370   3.291  1.4942  1.4171  1.3686
 8076SOL    HW235691   2.565   3.475   3.385  2.8944  0.4573 -2.5091
 8077SOL     OW35692   3.951   1.587   2.721 -0.3355 -0.3015  0.7428
 8077SOL    HW135693   4.000   1.651   2.774  0.9012 -0.3010 -0.4076
 8077SOL    HW235694   4.019   1.561   2.659 -0.8820 -0.1038  0.0679
 8078SOL     OW35695   3.553   3.317   4.148  0.1653  0.1670  0.0425
 8078SOL    HW135696   3.508   3.396   4.179  0.9823  1.1006 -1.1442
 8078SOL    HW235697   3.599   3.348   4.070 -1.1881  1.8177 -0.1196
 8079SOL     OW35698   4.435   2.667   9.901  0.3075 -0.2946 -0.1338
 8079SOL    HW135699   4.421   2.605   9.974  0.3796  0.6749  0.7064
 8079SOL    HW235700   4.350   2.709   9.889  0.5396  0.1239 -0.2942
 8080SOL     OW35701   3.037   4.617   8.791  0.0733  0.0121 -0.5207
 8080SOL    HW135702   2.990   4.567   8.725 -2.4550  0.8778  0.6172
 8080SOL    HW235703   3.075   4.682   8.732  0.1405  0.5930  0.1530
 8081SOL     OW35704   2.940   2.805   5.866 -0.4307 -0.1688 -0.2359
 8081SOL    HW135705   2.983   2.866   5.925  1.4655  0.1752 -1.9875
 8081SOL    HW235706   3.011   2.742   5.854  2.3406  2.4056  2.8452
 8082SOL     OW35707   3.121   3.123   0.345  0.2218 -0.0853  0.1135
 8082SOL    HW135708   3.082   3.159   0.265  1.6865 -0.9235 -0.9825
 8082SOL    HW235709   3.082   3.185   0.406 -1.9689 -0.4401 -0.8825
 8083SOL     OW35710   0.551   1.087  12.613 -0.5088 -0.2966  0.3375
 8083SOL    HW135711   0.632   1.037  12.614  0.0138  0.5094 -2.8460
 8083SOL    HW235712   0.535   1.084  12.708 -1.8302  0.2064  0.1354
 8084SOL     OW35713   3.742   4.276   0.187 -0.2716 -0.1233  0.0164
 8084SOL    HW135714   3.705   4.290   0.100  0.7334  0.9323 -0.2499
 8084SOL    HW235715   3.796   4.355   0.184  2.3764 -1.9025  1.3313
 8085SOL     OW35716   1.686   3.852   2.566 -0.9603  0.2173  0.1079
 8085SOL    HW135717   1.781   3.852   2.573 -0.7773 -2.2679 -2.1264
 8085SOL    HW235718   1.677   3.759   2.542  0.0420  0.1924 -0.1530
 8086SOL     OW35719   0.618   1.962   4.685 -0.0693 -0.2771 -0.0035
 8086SOL    HW135720   0.596   1.966   4.592 -0.2321  4.8561  0.2802
 8086SOL    HW235721   0.536   1.920   4.712 -0.0305  1.0547  2.1332
 8087SOL     OW35722   2.138   0.642   3.933  0.2796 -0.6083  0.0351
 8087SOL    HW135723   2.199   0.711   3.906 -0.5729 -0.0447 -0.4404
 8087SOL    HW235724   2.180   0.612   4.014 -0.8228 -0.3631  0.6898
 8088SOL     OW35725   2.137   0.682   2.885  0.1652 -0.1142  0.1256
 8088SOL    HW135726   2.053   0.666   2.842  0.7132  0.2877 -1.1035
 8088SOL    HW235727   2.109   0.668   2.975 -1.6438  1.6444 -0.1731
 8089SOL     OW35728   3.404   2.713  15.231  0.5552 -0.8050 -0.3193
 8089SOL    HW135729   3.350   2.681  15.158 -2.9903  1.4900  1.2879
 8089SOL    HW235730   3.414   2.635  15.286 -1.2639 -0.7918  0.0196
 8090SOL     OW35731   4.238   1.008   2.179 -0.2341  0.0125 -0.5993
 8090SOL    HW135732   4.143   0.998   2.165 -0.4227 -0.6439  1.1402
 8090SOL    HW235733   4.272   0.919   2.171 -0.5497 -0.0050 -1.6943
 8091SOL     OW35734   2.936   1.530  17.550 -0.2157 -0.0218  0.5904
 8091SOL    HW135735   2.848   1.524  17.512 -0.5071 -0.4054  1.3375
 8091SOL    HW235736   2.944   1.456  17.609  1.9648  0.9817  1.5552
 8092SOL     OW35737   0.240   2.923  16.750  0.2912 -0.7829 -0.2327
 8092SOL    HW135738   0.211   3.004  16.794 -0.6937 -0.7773 -0.8844
 8092SOL    HW235739   0.217   2.948  16.661 -0.3804 -0.6954 -0.0375
 8093SOL     OW35740   1.397   2.286   8.078 -0.0627  0.1070  0.2324
 8093SOL    HW135741   1.424   2.271   8.168 -2.0498  0.5624  0.9243
 8093SOL    HW235742   1.453   2.360   8.056 -2.2191  1.4913 -0.6850
 8094SOL     OW35743   3.495   0.570   4.682  0.0123  0.2543  0.1120
 8094SOL    HW135744   3.556   0.557   4.755 -0.1426  1.0877  0.3876
 8094SOL    HW235745   3.479   0.664   4.681 -2.8710 -0.2335  0.5999
 8095SOL     OW35746   3.506   2.707   1.417 -0.1265  0.6452 -0.4605
 8095SOL    HW135747   3.558   2.641   1.371  1.0214  1.5250 -0.4291
 8095SOL    HW235748   3.571   2.772   1.442 -1.3153  1.1973  1.2108
 8096SOL     OW35749   3.739   1.615   3.970  0.1530  0.2868 -0.1519
 8096SOL    HW135750   3.831   1.641   3.976  0.5798 -0.8989 -1.3927
 8096SOL    HW235751   3.746   1.526   4.006  1.6443  1.5118  2.5123
 8097SOL     OW35752   2.449   2.990   6.184 -0.0673 -0.8720 -0.2426
 8097SOL    HW135753   2.506   2.925   6.143  3.4065  0.8969  1.7833
 8097SOL    HW235754   2.366   2.962   6.143  0.1414 -1.1434 -0.4819
 8098SOL     OW35755   4.182   4.461   3.496 -0.8407  0.0095  0.5373
 8098SOL    HW135756   4.269   4.494   3.474 -1.6964  1.4051 -0.7568
 8098SOL    HW235757   4.129   4.493   3.423  1.0621  2.0007  0.0182
 8099SOL     OW35758   3.863   3.465   2.627  0.4220 -0.2336  0.2454
 8099SOL    HW135759   3.771   3.484   2.645  0.4651  1.5908 -1.4088
 8099SOL    HW235760   3.881   3.400   2.694 -1.3890  0.5779  1.5300
 8100SOL     OW35761   1.166   2.564   6.873  0.1346  0.1329  0.0048
 8100SOL    HW135762   1.220   2.551   6.951 -0.9019 -1.6157  0.4299
 8100SOL    HW235763   1.227   2.523   6.812 -0.0350  0.1540 -0.1788
 8101SOL     OW35764   3.923   1.244   7.294  0.1077  0.1842 -0.1963
 8101SOL    HW135765   3.887   1.321   7.337 -2.2560  0.8925 -3.4216
 8101SOL    HW235766   3.849   1.183   7.297  0.8070 -0.8258 -2.9475
 8102SOL     OW35767   1.250   0.967  14.539 -0.3646  0.3380 -0.0774
 8102SOL    HW135768   1.282   0.881  14.566  0.3806 -0.4721 -3.4851
 8102SOL    HW235769   1.156   0.946  14.532 -0.1129 -1.0666  0.7189
 8103SOL     OW35770   1.621   1.934  10.679 -0.4927  0.0447 -0.5499
 8103SOL    HW135771   1.617   2.025  10.708 -1.7207  0.2988 -1.4931
 8103SOL    HW235772   1.563   1.943  10.603  1.0069 -1.9236 -1.9320
 8104SOL     OW35773   0.195   0.246   8.346  0.7939  0.3243  0.0040
 8104SOL    HW135774   0.270   0.305   8.355  0.8090  0.4994 -1.1923
 8104SOL    HW235775   0.238   0.163   8.329 -0.2812 -0.1077 -0.5857
 8105SOL     OW35776   2.576   1.053  16.219  0.6534  0.5928 -0.2593
 8105SOL    HW135777   2.583   1.096  16.134  0.8407 -2.2764 -1.6921
 8105SOL    HW235778   2.668   1.035  16.237  0.2184 -0.2290  1.1784
 8106SOL     OW35779   1.642   3.194  14.908 -0.3779  0.0692  0.4738
 8106SOL    HW135780   1.579   3.145  14.855  0.2431  1.1964 -1.2950
 8106SOL    HW235781   1.674   3.119  14.958  0.9682 -1.1754 -2.2615
 8107SOL     OW35782   2.819   3.830   3.797  0.4290 -0.5545  0.1605
 8107SOL    HW135783   2.857   3.876   3.722 -0.4523  0.5575  0.4018
 8107SOL    HW235784   2.865   3.746   3.804  0.4981 -0.3903  1.6943
 8108SOL     OW35785   4.579   2.022  16.817  0.1883 -0.3003 -0.0666
 8108SOL    HW135786   4.526   1.945  16.835 -0.4135 -0.0759 -0.8962
 8108SOL    HW235787   4.514   2.090  16.833 -0.8268 -1.5227  0.9106
 8109SOL     OW35788   1.004   4.618   6.646  0.1730 -0.4780 -0.1887
 8109SOL    HW135789   1.013   4.653   6.557  1.4156 -3.0554 -1.0750
 8109SOL    HW235790   1.020   4.526   6.628  1.7059 -0.3182  0.3578
 8110SOL     OW35791   0.672   1.679   4.554  0.2406 -0.5907  0.0061
 8110SOL    HW135792   0.709   1.693   4.641  3.8496 -0.4929 -1.5235
 8110SOL    HW235793   0.658   1.584   4.556  0.6978 -0.6973 -1.6292
 8111SOL     OW35794   1.857   1.979   5.000 -0.0936 -0.1305  0.3103
 8111SOL    HW135795   1.806   1.913   5.046 -0.2361  0.7869  1.4740
 8111SOL    HW235796   1.865   1.942   4.912 -0.5028 -1.1385  0.7050
 8112SOL     OW35797   0.457   0.057  15.720  0.0643 -0.2414 -0.0859
 8112SOL    HW135798   0.444   4.692  15.689  1.4373 -0.4785  0.0378
 8112SOL    HW235799   0.503   0.033  15.800  1.3900  1.7950 -0.2450
 8113SOL     OW35800   3.148   2.378   1.837 -0.0287  0.0262 -0.2966
 8113SOL    HW135801   3.072   2.393   1.894  0.0347  1.3753 -0.5641
 8113SOL    HW235802   3.209   2.337   1.898 -0.9836 -1.1215 -0.1088
 8114SOL     OW35803   0.383   4.639  10.014  0.1000  0.0902 -0.4650
 8114SOL    HW135804   0.341   4.724  10.027  1.8581  0.5842  2.0229
 8114SOL    HW235805   0.318   4.579  10.051 -0.2061 -0.1450 -1.4067
 8115SOL     OW35806   1.240   2.245  15.299  0.1504 -0.1204  0.3421
 8115SOL    HW135807   1.176   2.259  15.229  1.2456  0.6596 -0.4952
 8115SOL    HW235808   1.182   2.217  15.370 -2.2881  3.3142 -0.3340
 8116SOL     OW35809   1.468   2.294  15.765 -0.5031  0.2397  0.3479
 8116SOL    HW135810   1.477   2.200  15.747 -1.3042 -0.0976  1.6186
 8116SOL    HW235811   1.433   2.314  15.678  2.5917  0.5730 -0.8164
 8117SOL     OW35812   4.340   3.836  14.862  0.0615  0.0924 -0.4414
 8117SOL    HW135813   4.358   3.924  14.894 -1.0292 -0.4448  1.6978
 8117SOL    HW235814   4.276   3.810  14.929  1.4373 -0.4114  0.6970
 8118SOL     OW35815   3.567   3.294   7.940 -0.4038  0.3117  0.1848
 8118SOL    HW135816   3.499   3.279   8.005  1.2423 -4.0395  0.9090
 8118SOL    HW235817   3.532   3.372   7.896 -2.0747  1.0253  2.7847
 8119SOL     OW35818   2.606   3.879   6.780 -0.8499  0.3512 -0.0858
 8119SOL    HW135819   2.626   3.897   6.689 -0.5995  0.7112  0.0410
 8119SOL    HW235820   2.574   3.962   6.814 -0.4671  0.6334 -0.4137
 8120SOL     OW35821   1.809   1.731   7.281  0.6670 -0.2681  0.4826
 8120SOL    HW135822   1.749   1.697   7.214 -1.5261  2.6115  1.0050
 8120SOL    HW235823   1.884   1.756   7.226 -2.3194  2.7846 -2.2057
 8121SOL     OW35824   2.054   2.910   2.704  0.0892  0.3917  0.6207
 8121SOL    HW135825   2.070   2.860   2.624 -1.4404  2.5333 -1.0391
 8121SOL    HW235826   2.044   2.842   2.770 -0.0388  0.0402  0.2386
 8122SOL     OW35827   0.951   2.984   4.696 -0.3488  0.3870  0.3663
 8122SOL    HW135828   0.986   3.073   4.696 -3.7110  1.6788  0.4858
 8122SOL    HW235829   0.858   3.001   4.710 -0.1659  0.2851  1.7395
 8123SOL     OW35830   4.464   1.065  16.653 -0.6741  0.1039  0.4568
 8123SOL    HW135831   4.553   1.098  16.641 -1.0506 -0.0826 -2.8491
 8123SOL    HW235832   4.475   0.973  16.677 -1.0882 -0.3296 -1.0181
 8124SOL     OW35833   0.718   0.516   7.535  0.1551 -0.9440  0.5064
 8124SOL    HW135834   0.693   0.443   7.592  1.6663 -0.9298  1.1720
 8124SOL    HW235835   0.799   0.487   7.492 -0.3432 -1.7081  0.0647
 8125SOL     OW35836   3.666   1.862  15.179  0.0500  0.0085 -0.6140
 8125SOL    HW135837   3.755   1.845  15.209  0.9665  2.9556 -1.6306
 8125SOL    HW235838   3.611   1.854  15.257  1.2917  1.3485  0.4064
 8126SOL     OW35839   4.008   1.638   3.993 -0.4602  0.0830 -0.3602
 8126SOL    HW135840   4.059   1.659   4.071  0.9553 -0.5635 -1.1053
 8126SOL    HW235841   4.071   1.660   3.925  0.2837  0.6175  0.5091
 8127SOL     OW35842   2.875   4.446   0.958  0.5016 -0.1080  0.0103
 8127SOL    HW135843   2.877   4.386   0.884 -2.0279  0.1839 -0.2773
 8127SOL    HW235844   2.838   4.522   0.914  0.7074  0.1453  0.2675
 8128SOL     OW35845   1.178   2.261   1.886  0.2674  0.9182  0.0947
 8128SOL    HW135846   1.145   2.209   1.960  0.4185  0.4908 -0.1387
 8128SOL    HW235847   1.270   2.238   1.879  0.0858  0.0844  0.3765
 8129SOL     OW35848   1.163   2.789   2.424 -0.7547 -0.4111  0.0208
 8129SOL    HW135849   1.225   2.766   2.493 -0.6376 -1.3544 -0.4003
 8129SOL    HW235850   1.205   2.869   2.391 -0.0476 -0.7877  0.0077
 8130SOL     OW35851   2.992   4.345  17.204 -0.1683 -0.1280  0.6927
 8130SOL    HW135852   2.924   4.369  17.267 -1.1356 -2.6221  0.6194
 8130SOL    HW235853   2.954   4.390  17.129 -2.6988 -1.5559  1.1069
 8131SOL     OW35854   4.695   0.188   3.624 -0.1171 -0.5175 -0.7606
 8131SOL    HW135855   4.699   0.130   3.548  0.3229  0.3600 -1.4045
 8131SOL    HW235856   0.044   0.246   3.605 -0.8270  0.1165 -1.5747
 8132SOL     OW35857   0.115   0.350   8.043  0.2158  0.1179  0.3908
 8132SOL    HW135858   0.114   0.266   8.090  2.2345 -0.8258 -1.2479
 8132SOL    HW235859   0.208   0.367   8.061 -0.4646  2.4163  1.6202
 8133SOL     OW35860   3.036   3.786  12.725 -0.1122  0.7692 -0.1411
 8133SOL    HW135861   2.999   3.715  12.673 -2.3273  1.6898  0.2202
 8133SOL    HW235862   3.053   3.857  12.664  2.6358 -0.0321 -0.3367
 8134SOL     OW35863   3.832   1.068   4.356 -0.3620  0.9910 -0.5879
 8134SOL    HW135864   3.856   1.154   4.391  0.7892  0.5120 -0.2009
 8134SOL    HW235865   3.909   1.053   4.302 -0.3407 -1.1951  0.0717
 8135SOL     OW35866   4.275   1.353  16.602  0.2476 -0.0541 -0.3124
 8135SOL    HW135867   4.283   1.301  16.682 -1.8285 -0.1886 -0.1882
 8135SOL    HW235868   4.210   1.414  16.636 -1.3129 -0.8669 -1.8651
 8136SOL     OW35869   4.457   3.960  17.415  0.9306 -0.2552  0.1491
 8136SOL    HW135870   4.497   4.029  17.362 -0.3419  0.4070  0.0502
 8136SOL    HW235871   4.393   4.012  17.464  0.2927 -1.0089  0.1158
 8137SOL     OW35872   3.467   0.157   4.607 -0.0504  0.4468  0.6209
 8137SOL    HW135873   3.509   0.136   4.690  1.7074  2.7269  0.3068
 8137SOL    HW235874   3.521   0.228   4.573  0.9971  0.4107  2.2168
 8138SOL     OW35875   1.820   2.166   9.294  0.1807 -0.1054 -0.7490
 8138SOL    HW135876   1.743   2.124   9.257 -0.1560 -1.4582  1.4399
 8138SOL    HW235877   1.850   2.211   9.215  2.9890 -1.1900 -0.3030
 8139SOL     OW35878   3.386   1.386  16.451  0.1173 -0.1690  0.3102
 8139SOL    HW135879   3.463   1.427  16.489 -0.5872 -1.1575  2.7768
 8139SOL    HW235880   3.404   1.383  16.357 -0.5884  0.3824  0.1507
 8140SOL     OW35881   2.304   4.053  13.261  0.0852  0.1198 -0.0445
 8140SOL    HW135882   2.384   4.069  13.310  0.0714  2.0075 -0.6246
 8140SOL    HW235883   2.269   3.990  13.323 -1.3765  0.5317 -0.4345
 8141SOL     OW35884   3.687   2.859   2.601 -0.1070  0.0500  0.4414
 8141SOL    HW135885   3.717   2.950   2.595  1.5015 -0.3048  2.8221
 8141SOL    HW235886   3.710   2.830   2.513 -3.0036 -1.5090  0.2197
 8142SOL     OW35887   0.192   4.102  14.116 -0.2549  0.4971  0.5503
 8142SOL    HW135888   0.103   4.067  14.123 -0.3708  0.7109  0.1277
 8142SOL    HW235889   0.185   4.170  14.049 -0.1446 -2.3403 -2.3299
 8143SOL     OW35890   0.875   2.432   7.548 -0.7245 -0.0152 -0.1139
 8143SOL    HW135891   0.813   2.463   7.482  0.6847 -0.1393 -1.4868
 8143SOL    HW235892   0.950   2.407   7.496 -0.8235  2.1079 -1.2760
 8144SOL     OW35893   2.680   3.919   4.059 -0.4374  0.4399 -0.2648
 8144SOL    HW135894   2.762   3.953   4.095 -0.2996 -0.4533  0.2533
 8144SOL    HW235895   2.715   3.900   3.972 -1.0037  1.8629 -0.8148
 8145SOL     OW35896   0.213   1.978   6.279 -0.6034  0.0790  0.6636
 8145SOL    HW135897   0.181   1.996   6.191 -0.7168  2.6224  1.2035
 8145SOL    HW235898   0.209   1.883   6.285 -1.7857  0.0824 -0.0686
 8146SOL     OW35899   4.650   4.670   9.210 -0.3126 -0.3455 -0.1141
 8146SOL    HW135900   4.593   4.607   9.255  0.1324 -0.3856  0.3920
 8146SOL    HW235901   4.654   4.633   9.122  0.4793  1.5213 -0.8596
 8147SOL     OW35902   1.414   2.739   7.866 -0.2705  0.4018 -0.4093
 8147SOL    HW135903   1.444   2.829   7.853 -1.1507  0.5070 -1.6727
 8147SOL    HW235904   1.342   2.766   7.923 -1.7431 -0.6932 -1.7502
 8148SOL     OW35905   3.744   0.782   7.779 -0.2694  0.2651  0.1793
 8148SOL    HW135906   3.656   0.810   7.753 -0.1588  0.0483 -0.4252
 8148SOL    HW235907   3.792   0.849   7.730  1.1893 -0.0282  1.1920
 8149SOL     OW35908   2.179   4.677  13.361  0.4340  0.1636  0.0404
 8149SOL    HW135909   2.257   4.719  13.397  0.4764 -0.5832  0.8101
 8149SOL    HW235910   2.136   0.022  13.311  0.2819 -0.8743 -1.2607
 8150SOL     OW35911   0.873   4.491   7.670  0.6219  0.3297  0.0927
 8150SOL    HW135912   0.828   4.477   7.754 -0.0980  1.6477 -0.0759
 8150SOL    HW235913   0.917   4.575   7.680  0.1501  0.7085 -1.1477
 8151SOL     OW35914   1.800   3.895  15.335 -0.4645  0.5270 -0.1392
 8151SOL    HW135915   1.831   3.947  15.261  0.1826  1.5116  0.8236
 8151SOL    HW235916   1.710   3.925  15.349 -0.8984 -1.0236  0.3266
 8152SOL     OW35917   3.503   2.021   9.150 -0.0226 -0.0196 -0.3110
 8152SOL    HW135918   3.521   2.063   9.233 -1.0328  0.2615 -0.2312
 8152SOL    HW235919   3.558   2.072   9.091  0.0058 -0.0110 -0.2763
 8153SOL     OW35920   2.794   2.750  12.367  0.1471  0.5891  0.5276
 8153SOL    HW135921   2.811   2.789  12.281  0.8587 -0.8101  0.0450
 8153SOL    HW235922   2.815   2.659  12.348  0.6146  1.0495 -1.1087
 8154SOL     OW35923   4.304   3.816  10.089 -0.3458  0.0553 -0.0747
 8154SOL    HW135924   4.236   3.756  10.120  0.1539 -0.0994  0.7279
 8154SOL    HW235925   4.275   3.897  10.132  0.0752  0.3112 -0.2739
 8155SOL     OW35926   4.202   1.301  16.145 -0.2280  0.0464  0.0441
 8155SOL    HW135927   4.112   1.323  16.120 -0.4941 -1.1432 -0.0212
 8155SOL    HW235928   4.253   1.336  16.071 -0.8812  1.0782  0.0742
 8156SOL     OW35929   3.136   2.414   4.250 -0.4476 -0.3717  0.0088
 8156SOL    HW135930   3.084   2.445   4.176 -1.7650  2.0743  1.9609
 8156SOL    HW235931   3.192   2.349   4.208 -1.0310 -0.8514 -0.0277
 8157SOL     OW35932   2.010   0.965   8.874  0.3184  0.1396 -0.4115
 8157SOL    HW135933   1.919   0.937   8.865 -0.7445  2.9099  1.7083
 8157SOL    HW235934   2.044   0.879   8.898  1.9098  0.9205  0.1335
 8158SOL     OW35935   4.215   0.393   3.707  0.3920 -0.1854 -0.0588
 8158SOL    HW135936   4.298   0.353   3.679 -0.2541 -0.3937 -1.6696
 8158SOL    HW235937   4.190   0.429   3.622 -0.3225  0.8415  0.6013
 8159SOL     OW35938   4.114   0.969  10.797 -0.2825 -0.6399  0.6447
 8159SOL    HW135939   4.206   0.978  10.820 -0.3025 -0.4941  0.6668
 8159SOL    HW235940   4.090   1.000  10.884 -0.7509  0.0493  0.2680
 8160SOL     OW35941   0.600   3.988   3.771 -0.4427 -0.1260 -1.5620
 8160SOL    HW135942   0.631   4.020   3.855  0.0216 -1.3877 -1.2635
 8160SOL    HW235943   0.513   3.953   3.792 -0.6242  0.3314 -1.5368
 8161SOL     OW35944   1.982   4.584   7.737 -0.5157 -0.4588 -0.9330
 8161SOL    HW135945   2.026   4.571   7.653 -1.7603 -0.7697 -1.5479
 8161SOL    HW235946   1.890   4.577   7.709 -0.6620 -1.0484 -0.3186
 8162SOL     OW35947   1.164   3.521   3.255 -0.3235 -0.5260  0.3578
 8162SOL    HW135948   1.184   3.432   3.285 -2.6712 -1.8226 -1.9679
 8162SOL    HW235949   1.251   3.560   3.247  0.0460 -1.2137  0.9700
 8163SOL     OW35950   4.457   2.955   6.523  0.0364  0.9057  0.4558
 8163SOL    HW135951   4.497   2.951   6.610 -0.8857 -0.1650  0.8323
 8163SOL    HW235952   4.426   3.045   6.525 -1.6360  0.3370  0.8953
 8164SOL     OW35953   4.401   2.448   8.980  0.1108  0.4184  0.5214
 8164SOL    HW135954   4.347   2.370   8.968  2.2471 -1.0334  0.3042
 8164SOL    HW235955   4.364   2.495   9.054  1.9503  1.8974  0.5086
 8165SOL     OW35956   2.859   0.584   8.876  0.3190 -0.0579 -0.1046
 8165SOL    HW135957   2.926   0.634   8.828 -0.7275  0.5380 -0.9369
 8165SOL    HW235958   2.875   0.625   8.961 -1.9157 -0.3266  0.4476
 8166SOL     OW35959   0.003   1.890   7.691 -0.4284  0.0316  0.3366
 8166SOL    HW135960   0.053   1.963   7.728 -2.5722  0.7624  1.8180
 8166SOL    HW235961   0.038   1.816   7.741 -0.9782  0.8050  1.8741
 8167SOL     OW35962   1.784   2.974   2.126  0.2588  0.2675 -0.1719
 8167SOL    HW135963   1.825   2.894   2.093 -0.5147 -0.0405 -0.3710
 8167SOL    HW235964   1.761   2.952   2.216 -2.1429 -1.2571 -1.1702
 8168SOL     OW35965   2.496   0.762   5.894 -0.6703  0.2708 -0.0325
 8168SOL    HW135966   2.530   0.839   5.939  0.2182 -0.8885  1.3150
 8168SOL    HW235967   2.575   0.709   5.883 -0.1522  0.8779  0.7353
 8169SOL     OW35968   4.573   1.836   3.549  0.4238  0.4813 -0.3396
 8169SOL    HW135969   4.600   1.767   3.488 -0.6284 -0.7666  0.6039
 8169SOL    HW235970   4.496   1.873   3.507  1.1566  0.9603 -1.2699
 8170SOL     OW35971   2.103   0.257  10.109  0.2711  0.3313 -0.2502
 8170SOL    HW135972   2.071   0.265  10.199  0.7641 -1.2698  0.0608
 8170SOL    HW235973   2.024   0.237  10.058 -0.3139 -0.3795  0.9372
 8171SOL     OW35974   3.738   0.383   2.479  0.0291 -0.1522 -0.2425
 8171SOL    HW135975   3.648   0.377   2.448  0.6229  2.1186 -2.3574
 8171SOL    HW235976   3.730   0.347   2.568  2.3072  1.0858  0.4712
 8172SOL     OW35977   4.189   4.316   8.211 -0.0822 -0.1831  0.1027
 8172SOL    HW135978   4.205   4.256   8.284  0.7825 -1.4790 -1.1387
 8172SOL    HW235979   4.099   4.339   8.233 -0.5810 -1.9586 -0.1079
 8173SOL     OW35980   4.111   2.262  11.050  0.1793 -0.0208  0.3374
 8173SOL    HW135981   4.136   2.191  11.109  1.4411  0.1037 -0.0474
 8173SOL    HW235982   4.021   2.275  11.081  0.4204  1.5852  0.3681
 8174SOL     OW35983   4.331   4.580   6.216  0.1260  0.0021  0.5549
 8174SOL    HW135984   4.322   4.485   6.228 -1.6632 -0.1577 -1.9854
 8174SOL    HW235985   4.241   4.607   6.235 -0.3647  0.8396 -2.9022
 8175SOL     OW35986   3.521   3.091  14.188  0.4228  0.2897  0.1029
 8175SOL    HW135987   3.545   3.104  14.280  0.5631  0.4468  0.0445
 8175SOL    HW235988   3.426   3.093  14.195  0.3103 -0.8475 -1.2311
 8176SOL     OW35989   1.394   3.480   4.987  0.9214 -0.4908  0.1158
 8176SOL    HW135990   1.374   3.436   5.070 -0.6170 -2.1115 -1.1109
 8176SOL    HW235991   1.377   3.573   5.000  0.0745 -0.4400 -1.3623
 8177SOL     OW35992   2.844   3.458   1.328  0.0364 -0.5057 -0.4042
 8177SOL    HW135993   2.859   3.399   1.255  1.8060 -1.0893  0.4518
 8177SOL    HW235994   2.794   3.399   1.385 -0.1565 -0.7576 -0.8377
 8178SOL     OW35995   4.440   2.735   0.909 -0.0789  0.3653  0.3866
 8178SOL    HW135996   4.493   2.658   0.885 -1.8652 -0.4880 -0.7641
 8178SOL    HW235997   4.508   2.801   0.924  0.4862 -0.0958 -0.1122
 8179SOL     OW35998   1.178   0.374  12.972 -0.3778  0.7913 -0.0427
 8179SOL    HW135999   1.152   0.285  12.996  0.7352  0.6723  0.6954
 8179SOL    HW236000   1.235   0.362  12.896  0.3899  1.2619  0.4612
 8180SOL     OW36001   2.891   2.747   5.548  0.1074  0.0185 -0.1420
 8180SOL    HW136002   2.861   2.701   5.469  0.9012 -1.4556  0.4077
 8180SOL    HW236003   2.854   2.691   5.617  0.1121 -1.7291 -1.5534
 8181SOL     OW36004   2.080   4.007  16.844 -0.4109  0.4533  0.1013
 8181SOL    HW136005   2.105   3.916  16.829 -0.3437  0.6408 -0.9452
 8181SOL    HW236006   2.151   4.063  16.814 -0.8093  0.4269 -0.8816
 8182SOL     OW36007   3.575   3.663   9.731 -0.2596  0.2891  0.4473
 8182SOL    HW136008   3.576   3.599   9.659 -0.6208 -1.0280  1.6160
 8182SOL    HW236009   3.498   3.621   9.769 -0.0392  2.0364  2.8371
 8183SOL     OW36010   0.730   3.514   3.851  0.0024 -0.4612 -0.0527
 8183SOL    HW136011   0.764   3.446   3.910  3.1637  0.2957 -1.0386
 8183SOL    HW236012   0.760   3.591   3.898 -0.4333 -0.8538  0.8761
 8184SOL     OW36013   3.486   0.372   6.150 -0.3762  0.5251 -0.0149
 8184SOL    HW136014   3.533   0.411   6.224 -2.4891  0.7570  1.2040
 8184SOL    HW236015   3.425   0.312   6.192  0.6146 -0.1167  0.5139
 8185SOL     OW36016   0.213   3.981   1.232 -0.1260 -0.1401  0.2971
 8185SOL    HW136017   0.193   4.030   1.153 -0.4327  0.4734  0.7588
 8185SOL    HW236018   0.130   3.936   1.251 -1.5389  0.5837 -4.2460
 8186SOL     OW36019   1.207   1.485   6.997  0.2845  0.2569  0.3664
 8186SOL    HW136020   1.122   1.448   6.976 -1.0713  4.0997 -0.9447
 8186SOL    HW236021   1.216   1.553   6.930  0.9675 -0.1422  0.0532
 8187SOL     OW36022   4.377   4.586  12.958  0.3631  0.2118  0.2085
 8187SOL    HW136023   4.390   4.510  13.013 -1.5617 -1.0430 -1.0785
 8187SOL    HW236024   4.374   4.656  13.023 -1.0045 -0.5933  0.9985
 8188SOL     OW36025   3.207   4.240   7.023 -0.3592  0.2118 -0.5107
 8188SOL    HW136026   3.112   4.228   7.027  0.0326 -2.7627 -0.0313
 8188SOL    HW236027   3.232   4.157   6.983  0.2060 -0.9277  2.1720
 8189SOL     OW36028   1.060   4.260   2.488 -0.4890 -0.5004 -0.4302
 8189SOL    HW136029   1.051   4.247   2.393 -0.1968  0.2136 -0.5531
 8189SOL    HW236030   1.016   4.180   2.519 -0.8098 -0.0460  0.2795
 8190SOL     OW36031   1.054   4.275   3.300  0.2318 -0.0422  0.2188
 8190SOL    HW136032   1.028   4.366   3.284  0.4642 -0.1288 -0.6719
 8190SOL    HW236033   1.080   4.284   3.391 -0.0841  0.3957  0.2678
 8191SOL     OW36034   4.614   2.211   6.950 -0.4203 -0.4200 -0.1798
 8191SOL    HW136035   4.699   2.249   6.928 -0.0910 -1.7820 -1.2483
 8191SOL    HW236036   4.578   2.282   7.004  0.5351  0.7838 -1.1299
 8192SOL     OW36037   2.170   0.182   6.514 -0.7719  0.2438 -0.0479
 8192SOL    HW136038   2.212   0.120   6.455 -2.3634  0.7789 -1.7377
 8192SOL    HW236039   2.202   0.256   6.464 -3.1930  0.0906 -1.8287
 8193SOL     OW36040   1.096   2.963  10.188  0.1298  0.5357 -0.1643
 8193SOL    HW136041   1.034   2.968  10.116  0.2581 -0.1109 -0.3163
 8193SOL    HW236042   1.115   2.869  10.187  0.2796  0.5713 -0.6778
 8194SOL     OW36043   4.655   1.016   4.398 -0.0137 -0.0849 -0.0656
 8194SOL    HW136044   4.586   1.023   4.331 -0.3345  1.9666  0.4830
 8194SOL    HW236045   4.679   1.107   4.418  2.2322 -0.6304 -0.3344
 8195SOL     OW36046   3.180   1.871   3.330  0.3297  0.5750  0.1821
 8195SOL    HW136047   3.119   1.939   3.298  0.3414 -0.3590 -1.7951
 8195SOL    HW236048   3.257   1.889   3.277  0.4212  2.9153  1.0849
 8196SOL     OW36049   0.722   1.219   4.087 -0.1111 -0.4311  0.1175
 8196SOL    HW136050   0.652   1.206   4.022  0.1360 -0.0140 -0.2291
 8196SOL    HW236051   0.803   1.231   4.038 -0.4279  0.1068 -0.2831
 8197SOL     OW36052   1.094   1.880   7.574  0.9356 -0.1919 -0.7898
 8197SOL    HW136053   1.099   1.973   7.555 -0.2041 -0.0528 -0.4040
 8197SOL    HW236054   1.106   1.838   7.489  1.2214 -3.3163  0.7986
 8198SOL     OW36055   1.650   2.064   7.562  0.1256  0.6949 -0.0544
 8198SOL    HW136056   1.590   1.990   7.574 -1.7773  1.6711 -3.3442
 8198SOL    HW236057   1.612   2.131   7.618 -0.2929 -0.7521  1.4186
 8199SOL     OW36058   4.410   1.636   7.208  0.2583  0.3217 -0.3064
 8199SOL    HW136059   4.489   1.601   7.168 -1.0674  0.0682 -2.7062
 8199SOL    HW236060   4.439   1.703   7.270 -0.6555  0.3143  0.1322
 8200SOL     OW36061   0.649   2.851   2.088  0.4151 -0.3247  0.2121
 8200SOL    HW136062   0.586   2.920   2.065  1.1898  0.4099  0.3168
 8200SOL    HW236063   0.723   2.903   2.117  0.0372 -0.1859  0.9430
 8201SOL     OW36064   0.487   4.645   3.818 -0.7478  0.2531 -0.0200
 8201SOL    HW136065   0.577   4.651   3.851 -0.1750 -1.0576 -1.3625
 8201SOL    HW236066   0.500   4.646   3.724 -0.6498  1.5553  0.0100
 8202SOL     OW36067   0.870   2.539   4.093 -0.1290  0.6773  0.5576
 8202SOL    HW136068   0.903   2.564   4.007 -1.6235 -1.3505 -0.5981
 8202SOL    HW236069   0.812   2.468   4.068  0.0883  2.0301 -3.7383
 8203SOL     OW36070   4.280   1.385  15.749 -0.3046  0.2003  0.2615
 8203SOL    HW136071   4.345   1.455  15.747  0.1915 -0.3092 -1.4642
 8203SOL    HW236072   4.334   1.307  15.765 -1.4208 -0.8487 -1.0993
 8204SOL     OW36073   1.353   0.904   1.442 -0.0046 -0.0145 -0.2821
 8204SOL    HW136074   1.423   0.907   1.376 -2.4003 -1.0499 -2.8629
 8204SOL    HW236075   1.283   0.952   1.398 -1.2190 -1.4124  0.0960
 8205SOL     OW36076   0.352   4.218   7.873  0.2056  0.3853  0.3659
 8205SOL    HW136077   0.363   4.298   7.924  2.5352  0.7801 -0.7263
 8205SOL    HW236078   0.442   4.186   7.884 -0.0028  0.0488  1.0980
 8206SOL     OW36079   3.198   2.151  16.370 -0.7330  0.0292  0.4788
 8206SOL    HW136080   3.245   2.225  16.332 -0.5907 -0.8752 -1.0911
 8206SOL    HW236081   3.130   2.128  16.307  0.3235 -1.5159 -0.1034
 8207SOL     OW36082   1.636   1.237   2.646 -0.0042 -0.2511 -0.4083
 8207SOL    HW136083   1.660   1.239   2.739  1.2231  0.7680 -0.7647
 8207SOL    HW236084   1.573   1.309   2.636  1.1858  0.2768 -3.8644
 8208SOL     OW36085   3.199   0.524  17.411  0.0198  0.1196 -0.5895
 8208SOL    HW136086   3.278   0.550  17.458 -0.0476  0.0802 -0.4569
 8208SOL    HW236087   3.182   0.600  17.355  1.2160 -0.9461 -2.4321
 8209SOL     OW36088   2.882   2.845   4.756  0.3040 -0.3683 -0.3283
 8209SOL    HW136089   2.809   2.887   4.802 -0.8167 -2.1416 -0.4899
 8209SOL    HW236090   2.906   2.911   4.690  1.6952  0.0999  0.6484
 8210SOL     OW36091   2.633   0.509   3.270  0.1924 -0.6092  0.5124
 8210SOL    HW136092   2.584   0.457   3.207  2.4760 -2.5660  0.3178
 8210SOL    HW236093   2.594   0.479   3.352  2.2296 -0.8847  1.3909
 8211SOL     OW36094   4.184   4.027  12.858 -0.1097  0.7951 -0.7271
 8211SOL    HW136095   4.104   3.997  12.900  0.9761 -2.2351 -0.8097
 8211SOL    HW236096   4.176   3.998  12.767  1.2660  1.1135 -0.9591
 8212SOL     OW36097   4.143   0.544  16.187  0.8901  0.0365 -0.1526
 8212SOL    HW136098   4.099   0.575  16.108 -0.0253 -0.1741  0.2802
 8212SOL    HW236099   4.115   0.453  16.196  2.0468 -0.3838 -0.8737
 8213SOL     OW36100   2.893   1.455   2.932 -0.3897  0.7123  0.1298
 8213SOL    HW136101   2.890   1.464   2.837  0.2426  1.4214  0.1744
 8213SOL    HW236102   2.882   1.545   2.963 -1.4827  0.8634 -0.7104
 8214SOL     OW36103   3.924   3.984   2.271 -0.1083  0.0147  0.6190
 8214SOL    HW136104   3.873   3.918   2.224  1.4061 -0.1716 -0.7836
 8214SOL    HW236105   3.994   3.927   2.302  0.0835  1.1300  2.2301
 8215SOL     OW36106   0.557   4.473   6.767  0.4674  0.3912 -0.7527
 8215SOL    HW136107   0.575   4.416   6.693  0.0181  1.8124 -1.9716
 8215SOL    HW236108   0.630   4.536   6.772 -0.3855  1.4249 -1.1879
 8216SOL     OW36109   3.921   0.448  12.335 -0.2663  0.0839  0.0884
 8216SOL    HW136110   3.997   0.390  12.328 -1.3833 -1.5248  1.3354
 8216SOL    HW236111   3.910   0.457  12.429  1.7999 -2.4178  0.5636
 8217SOL     OW36112   2.714   2.492   2.833 -0.3443 -0.3270  0.2310
 8217SOL    HW136113   2.796   2.452   2.861  0.9712  2.5087  0.4192
 8217SOL    HW236114   2.685   2.522   2.919  0.1453 -0.4779  0.4486
 8218SOL     OW36115   3.279   2.664   3.149 -0.4918  0.6624 -0.6416
 8218SOL    HW136116   3.318   2.730   3.092 -1.4862  0.0834 -1.9860
 8218SOL    HW236117   3.292   2.709   3.232  0.2770  2.0004 -1.4903
 8219SOL     OW36118   3.852   0.762   1.750 -0.0859  0.0112  0.6373
 8219SOL    HW136119   3.926   0.811   1.713  0.9965 -0.8259  1.7020
 8219SOL    HW236120   3.850   0.808   1.834  1.3339 -0.8304  1.1470
 8220SOL     OW36121   3.107   4.373   5.775  0.0094 -0.0221  0.1939
 8220SOL    HW136122   3.068   4.451   5.735  0.5990  0.6042  0.8313
 8220SOL    HW236123   3.110   4.318   5.697 -1.7115  0.3595 -0.1341
 8221SOL     OW36124   3.706   3.910  16.966  0.8664 -0.1274  0.0273
 8221SOL    HW136125   3.720   3.815  16.966  1.3976 -0.0547 -0.8594
 8221SOL    HW236126   3.637   3.922  16.900 -0.9250 -2.2552  1.5108
 8222SOL     OW36127   0.909   3.851  17.682 -0.0702  0.3403 -1.1595
 8222SOL    HW136128   0.872   3.772  17.643  0.1843  0.0981 -0.9120
 8222SOL    HW236129   0.965   3.885  17.612  0.2920 -0.2517 -1.1576
 8223SOL     OW36130   4.374   1.959   3.382 -0.1215  0.1215 -0.2316
 8223SOL    HW136131   4.284   1.990   3.377 -0.0089  0.7584  1.5574
 8223SOL    HW236132   4.421   2.018   3.322 -2.3840  1.4289 -0.7091
 8224SOL     OW36133   3.786   3.736   8.583  0.1704 -0.8843 -0.1562
 8224SOL    HW136134   3.875   3.741   8.615  0.5020 -2.2122 -0.8628
 8224SOL    HW236135   3.785   3.784   8.500  1.7494  0.7401  0.7682
 8225SOL     OW36136   3.531   1.988   9.770  0.0248  0.2126 -0.4990
 8225SOL    HW136137   3.513   2.030   9.854  1.0907 -0.3566  0.0261
 8225SOL    HW236138   3.527   2.067   9.716  0.7996  1.0265  0.6091
 8226SOL     OW36139   3.010   4.515   4.238 -0.4777  0.0433 -0.4402
 8226SOL    HW136140   3.012   4.446   4.172  0.7752 -1.9113  1.6295
 8226SOL    HW236141   2.947   4.579   4.206  0.3009  1.0314 -0.0141
 8227SOL     OW36142   2.100   3.628  13.475  0.2481 -0.1589 -0.7389
 8227SOL    HW136143   2.132   3.717  13.488 -1.9478  0.6855 -1.1899
 8227SOL    HW236144   2.042   3.643  13.401  0.3271 -0.4468 -0.8608
 8228SOL     OW36145   4.587   2.376   7.188  0.3001  0.1365 -0.3038
 8228SOL    HW136146   4.655   2.437   7.217 -0.1921  0.9189 -0.8101
 8228SOL    HW236147   4.509   2.431   7.180 -0.5598 -0.9262  0.8175
 8229SOL     OW36148   2.600   2.807   5.351 -0.2559  0.4953 -0.3849
 8229SOL    HW136149   2.535   2.877   5.339 -0.5141  0.4685  0.8442
 8229SOL    HW236150   2.649   2.824   5.271 -0.5356 -0.0679 -0.6795
 8230SOL     OW36151   0.821   1.854  14.375 -0.3886  0.5583 -0.0461
 8230SOL    HW136152   0.838   1.761  14.360 -1.9672  0.2294  0.2784
 8230SOL    HW236153   0.740   1.850  14.425 -1.3653 -0.2344 -1.7022
 8231SOL     OW36154   2.849   1.222   4.366  0.1763 -0.3282  0.4585
 8231SOL    HW136155   2.778   1.185   4.313  0.1521 -0.6290  0.6994
 8231SOL    HW236156   2.920   1.159   4.352  0.4389 -0.2071  1.2658
 8232SOL     OW36157   0.299   3.428   5.536 -0.2194  0.0315  0.8348
 8232SOL    HW136158   0.205   3.448   5.537 -0.4787 -1.0654 -2.8960
 8232SOL    HW236159   0.322   3.452   5.626 -2.2612  0.0102  1.3573
 8233SOL     OW36160   1.312   4.032   2.551 -0.1965 -0.6093  0.0448
 8233SOL    HW136161   1.237   4.002   2.603  0.5156 -2.4269  0.0219
 8233SOL    HW236162   1.384   3.984   2.592  0.4526  1.5710  1.4779
 8234SOL     OW36163   1.437   4.564   0.607 -0.2379 -0.0227 -0.7100
 8234SOL    HW136164   1.358   4.515   0.630  1.2600 -1.4435  1.3249
 8234SOL    HW236165   1.496   4.501   0.566  1.4750  2.2019 -1.6836
 8235SOL     OW36166   1.039   3.045   4.146 -0.2490  0.4728 -0.3159
 8235SOL    HW136167   1.043   2.957   4.184 -0.9418  0.6295  0.1077
 8235SOL    HW236168   1.066   3.018   4.059  0.8086  0.3210  0.0562
 8236SOL     OW36169   1.351   2.749   2.645 -0.2200  0.4744  0.1861
 8236SOL    HW136170   1.365   2.779   2.735  0.6262  0.7531 -0.0368
 8236SOL    HW236171   1.427   2.791   2.607 -0.4267 -0.6120 -1.4249
 8237SOL     OW36172   1.692   3.935  14.125 -0.2140  0.2684  0.3087
 8237SOL    HW136173   1.652   3.967  14.205 -1.3197 -1.2920  0.3733
 8237SOL    HW236174   1.722   4.017  14.087  0.7563 -1.3666 -2.4520
 8238SOL     OW36175   2.952   2.349   7.912 -0.5367 -0.4283 -0.2393
 8238SOL    HW136176   2.898   2.384   7.841  1.4967  1.8364 -0.6809
 8238SOL    HW236177   2.958   2.433   7.959 -1.1650 -2.0594  2.7548
 8239SOL     OW36178   2.023   1.251   1.292  0.1994  0.1159 -0.9371
 8239SOL    HW136179   1.930   1.233   1.276  0.5012 -0.7877 -1.6600
 8239SOL    HW236180   2.033   1.340   1.259 -1.6776  0.7847  0.2565
 8240SOL     OW36181   3.051   1.965  17.559  0.0462 -0.3704 -0.3910
 8240SOL    HW136182   3.073   1.874  17.579  0.5706 -0.5352 -1.6977
 8240SOL    HW236183   2.957   1.947  17.559  0.2207 -1.2841 -0.0018
 8241SOL     OW36184   3.774   3.902  12.007 -0.0027  0.2271 -0.3306
 8241SOL    HW136185   3.755   3.894  12.100  1.4845 -2.0974 -0.2311
 8241SOL    HW236186   3.698   3.954  11.981 -0.1907 -0.0618 -0.3475
 8242SOL     OW36187   4.462   2.882  14.296  0.9125  0.5583  0.7330
 8242SOL    HW136188   4.377   2.919  14.272  0.0275 -1.1200  1.3152
 8242SOL    HW236189   4.501   2.957  14.341 -1.4060  0.8875  2.1784
 8243SOL     OW36190   1.745   0.691   6.802 -0.0602  0.0774  0.2952
 8243SOL    HW136191   1.708   0.637   6.873  2.9486 -2.7461 -0.2598
 8243SOL    HW236192   1.661   0.734   6.788  0.5495  0.2994 -2.5521
 8244SOL     OW36193   1.011   1.411   8.326  0.7046  0.4101 -0.4584
 8244SOL    HW136194   1.028   1.503   8.348  1.7758  0.2096 -0.4152
 8244SOL    HW236195   1.082   1.396   8.263  0.6132  0.1534 -0.5011
 8245SOL     OW36196   3.010   3.929  11.413  0.3785 -0.0164 -0.1378
 8245SOL    HW136197   2.933   3.946  11.467 -0.4890 -1.1941 -1.0222
 8245SOL    HW236198   3.072   3.947  11.484 -0.0224 -0.6137  0.3618
 8246SOL     OW36199   1.890   0.999   3.502 -0.3417  0.1397  0.0858
 8246SOL    HW136200   1.877   1.093   3.509  3.4745  0.6364  0.7755
 8246SOL    HW236201   1.832   0.976   3.430 -0.2216 -0.0051  0.0345
 8247SOL     OW36202   1.233   0.549   7.638  0.3175 -0.1737 -0.4008
 8247SOL    HW136203   1.242   0.474   7.579 -2.6024  0.7423 -2.0127
 8247SOL    HW236204   1.143   0.539   7.669  0.2302  1.5631 -0.0873
 8248SOL     OW36205   1.967   4.181   4.282  0.5551  0.6499  0.1193
 8248SOL    HW136206   1.879   4.145   4.269  1.4941 -1.3950 -0.3669
 8248SOL    HW236207   1.954   4.268   4.244 -0.4229  1.0677  1.3747
 8249SOL     OW36208   2.880   3.983   7.246 -0.5471 -0.4963 -0.5899
 8249SOL    HW136209   2.883   3.890   7.223  1.2529 -1.4813  3.7323
 8249SOL    HW236210   2.791   3.964   7.276 -0.7743 -1.9525 -2.1324
 8250SOL     OW36211   1.875   0.239   3.662  0.0077  0.1749 -0.0468
 8250SOL    HW136212   1.810   0.305   3.640 -2.0712 -1.8824 -0.0180
 8250SOL    HW236213   1.948   0.286   3.703  1.6011 -0.0955 -2.5539
 8251SOL     OW36214   3.716   1.546  16.098 -0.3904 -1.1392 -0.2894
 8251SOL    HW136215   3.674   1.631  16.100  0.9935 -0.4957  1.3738
 8251SOL    HW236216   3.779   1.559  16.027  2.1293  1.2378  2.3696
 8252SOL     OW36217   1.122   3.971   8.457  0.0803  0.1485 -0.2332
 8252SOL    HW136218   1.145   3.926   8.538 -0.5129  0.9543  0.3790
 8252SOL    HW236219   1.209   3.967   8.417 -0.0802 -1.7051 -0.4037
 8253SOL     OW36220   1.112   1.801   4.468 -0.5750 -0.3499  0.2580
 8253SOL    HW136221   1.050   1.870   4.447 -0.0801 -0.1094 -0.4165
 8253SOL    HW236222   1.104   1.794   4.563 -1.8896  1.4319  0.2716
 8254SOL     OW36223   3.187   1.373   9.478 -0.0183 -0.3525 -0.2696
 8254SOL    HW136224   3.235   1.316   9.539  0.7122  2.0199  1.3332
 8254SOL    HW236225   3.207   1.461   9.508  1.3403 -0.0083 -2.2056
 8255SOL     OW36226   4.170   2.878   2.016  0.0322  0.0947  0.3150
 8255SOL    HW136227   4.242   2.830   1.974 -3.1133 -0.9069 -3.9751
 8255SOL    HW236228   4.094   2.822   1.996  2.2924 -2.3084 -1.6191
 8256SOL     OW36229   4.309   1.041  13.747  0.2514 -0.4656 -0.8394
 8256SOL    HW136230   4.270   0.997  13.822  2.7157 -0.9035  0.1753
 8256SOL    HW236231   4.242   1.107  13.731  0.3950  0.2206  1.3795
 8257SOL     OW36232   1.400   2.074  13.314  0.4985 -0.2585 -0.2149
 8257SOL    HW136233   1.462   2.008  13.345  2.2451  0.9193 -1.1782
 8257SOL    HW236234   1.459   2.125  13.257 -1.6093  0.0702 -2.1063
 8258SOL     OW36235   4.366   1.910   2.914  0.0798  0.7206  0.0193
 8258SOL    HW136236   4.435   1.915   2.848 -0.4679 -0.2804 -0.6250
 8258SOL    HW236237   4.339   2.002   2.911  3.2286  1.6628  2.0475
 8259SOL     OW36238   4.023   2.362   7.943 -0.4838 -0.1339 -0.1337
 8259SOL    HW136239   4.000   2.455   7.946  3.8692  0.9047  0.7129
 8259SOL    HW236240   4.049   2.359   8.035 -0.0729  1.8795 -0.1976
 8260SOL     OW36241   0.605   0.687   5.914 -0.3373  0.6768  0.5300
 8260SOL    HW136242   0.639   0.769   5.876  0.5566 -0.7670 -1.8043
 8260SOL    HW236243   0.527   0.723   5.955 -1.8765  1.6758 -3.2881
 8261SOL     OW36244   1.614   1.147  13.513 -0.3281  0.0873 -0.4506
 8261SOL    HW136245   1.529   1.190  13.511  0.7641  2.3063  0.9428
 8261SOL    HW236246   1.600   1.102  13.430 -0.8615 -2.2868  0.9545
 8262SOL     OW36247   2.500   0.018  10.033 -0.6065 -0.1785  0.8740
 8262SOL    HW136248   2.564   0.085  10.011 -2.5304  1.0798 -0.8075
 8262SOL    HW236249   2.425   0.071  10.007 -0.4259 -0.6490 -0.5687
 8263SOL     OW36250   3.704   2.055   4.233  0.1600 -0.5831  0.1652
 8263SOL    HW136251   3.774   1.999   4.267 -1.1279 -1.9858  0.5266
 8263SOL    HW236252   3.633   1.993   4.213  0.1678  0.0455 -1.8783
 8264SOL     OW36253   0.413   3.162  10.473  0.0246  0.7482 -0.2059
 8264SOL    HW136254   0.375   3.241  10.434 -0.1065  0.2227 -1.1452
 8264SOL    HW236255   0.334   3.109  10.481  1.0171 -0.5191  1.1282
 8265SOL     OW36256   3.450   0.862   1.296  0.3281 -0.1504  0.4566
 8265SOL    HW136257   3.364   0.893   1.322  0.2822 -0.4170  0.6222
 8265SOL    HW236258   3.502   0.938   1.268 -0.9035  0.2647 -0.6530
 8266SOL     OW36259   2.960   1.637   4.379 -0.0541  0.0783 -0.1716
 8266SOL    HW136260   2.907   1.588   4.315  1.8035 -1.7949 -0.2949
 8266SOL    HW236261   3.020   1.690   4.327  2.3629 -2.0211  0.4342
 8267SOL     OW36262   2.014   2.216  13.027 -0.0436  0.6770 -0.5344
 8267SOL    HW136263   2.035   2.123  13.034 -1.3408  0.5106  1.2059
 8267SOL    HW236264   2.072   2.237  12.953  1.2760  2.2191  0.9420
 8268SOL     OW36265   4.158   2.389  11.369 -0.2545  0.0115  0.1601
 8268SOL    HW136266   4.161   2.470  11.420  1.4952  1.5652 -2.4308
 8268SOL    HW236267   4.113   2.328  11.428  0.1524  0.0704  0.5335
 8269SOL     OW36268   3.619   4.637  10.246  0.8762 -0.1226  0.6035
 8269SOL    HW136269   3.657   4.576  10.310  1.1381  1.1849  1.6871
 8269SOL    HW236270   3.553   4.680  10.300 -0.4184 -1.1931 -0.1322
 8270SOL     OW36271   2.997   4.165   8.629  0.1410  0.1452 -0.5215
 8270SOL    HW136272   3.029   4.244   8.673 -0.2922  0.2858 -0.4654
 8270SOL    HW236273   3.044   4.095   8.674  1.1664 -0.2745 -2.2529
 8271SOL     OW36274   0.010   2.523   3.687 -0.3466  0.2165  0.3587
 8271SOL    HW136275   0.039   2.447   3.636  1.4198  0.8984  0.3584
 8271SOL    HW236276   0.041   2.591   3.627  0.3399  0.0510  0.5242
 8272SOL     OW36277   1.530   0.406   4.833  0.8456 -0.1659  0.2276
 8272SOL    HW136278   1.612   0.357   4.827  0.4866 -0.6641 -0.5666
 8272SOL    HW236279   1.525   0.450   4.919  0.4855 -2.8510  1.5804
 8273SOL     OW36280   0.474   2.808   7.814 -0.3271 -0.1357  0.4738
 8273SOL    HW136281   0.506   2.896   7.831 -0.4971  0.1447 -0.6651
 8273SOL    HW236282   0.471   2.817   7.719  0.5692 -1.0328  0.3585
 8274SOL     OW36283   1.715   1.602   8.150  0.2590  0.0657 -0.6245
 8274SOL    HW136284   1.775   1.662   8.106  1.9656 -0.6892  0.6403
 8274SOL    HW236285   1.768   1.523   8.165  0.9941  0.9301  1.3252
 8275SOL     OW36286   3.466   1.492   8.020  0.0637 -0.3230  0.3653
 8275SOL    HW136287   3.385   1.450   8.048 -0.4416  0.7322  0.4856
 8275SOL    HW236288   3.520   1.482   8.099 -1.3283 -0.4654  1.3025
 8276SOL     OW36289   3.243   3.489   3.149 -0.3609 -0.0875 -0.5346
 8276SOL    HW136290   3.306   3.460   3.215 -2.6996  0.3442  1.9270
 8276SOL    HW236291   3.172   3.428   3.170 -0.9134  0.6209 -0.3371
 8277SOL     OW36292   0.129   0.881   4.688  0.1406 -0.6934  0.7070
 8277SOL    HW136293   0.053   0.901   4.743 -0.6073 -0.0658 -0.5498
 8277SOL    HW236294   0.091   0.877   4.600  1.2201  0.9982  0.1628
 8278SOL     OW36295   4.018   0.743   5.261  0.0599 -0.0621  0.1720
 8278SOL    HW136296   4.079   0.807   5.225  0.8178 -1.1018 -0.3779
 8278SOL    HW236297   4.008   0.792   5.343  0.1052  0.3293 -0.0565
 8279SOL     OW36298   0.261   1.716   4.237  0.6097 -0.1596 -0.4225
 8279SOL    HW136299   0.258   1.646   4.171  1.7766 -0.6701  0.0504
 8279SOL    HW236300   0.310   1.679   4.310  0.8853 -1.2438 -1.1431
 8280SOL     OW36301   2.791   2.181   2.333  0.3181  0.2744 -0.2411
 8280SOL    HW136302   2.789   2.086   2.318 -0.1445  0.5717 -2.1375
 8280SOL    HW236303   2.739   2.180   2.413 -3.3868  0.0123 -2.6126
 8281SOL     OW36304   4.052   3.581   2.891 -0.8794 -0.0197 -0.0720
 8281SOL    HW136305   4.127   3.629   2.927 -2.1112  0.9612  1.1859
 8281SOL    HW236306   4.083   3.539   2.811 -1.9458  1.9068 -1.4750
 8282SOL     OW36307   2.739   0.687   6.510 -0.2281  0.0308  0.2094
 8282SOL    HW136308   2.701   0.698   6.597  1.7404 -1.5928  1.2606
 8282SOL    HW236309   2.773   0.598   6.515 -1.7775 -0.5653  0.0527
 8283SOL     OW36310   1.314   4.586  16.859  0.6783 -0.6657 -0.2428
 8283SOL    HW136311   1.329   4.670  16.902 -0.2881  0.3912 -2.0176
 8283SOL    HW236312   1.396   4.537  16.873  1.6333  0.8190 -0.6777
 8284SOL     OW36313   2.363   3.620   2.810  0.0505 -0.0581  0.0331
 8284SOL    HW136314   2.371   3.641   2.903 -1.1103 -0.7552  0.2872
 8284SOL    HW236315   2.435   3.558   2.807  0.7362  0.7077  0.9413
 8285SOL     OW36316   1.012   2.115   2.110  0.4490 -0.4390  0.0689
 8285SOL    HW136317   1.059   2.062   2.175  0.3162  1.3266  1.6023
 8285SOL    HW236318   0.943   2.141   2.172 -3.0138 -2.4830 -2.9354
 8286SOL     OW36319   0.813   4.519   1.618 -0.0880 -0.1863 -0.1688
 8286SOL    HW136320   0.884   4.507   1.680  0.4173 -0.8042 -0.8694
 8286SOL    HW236321   0.843   4.598   1.574 -0.9883 -0.1558 -0.7376
 8287SOL     OW36322   2.878   2.539  17.616 -0.3461 -0.2651  0.1611
 8287SOL    HW136323   2.787   2.514  17.597 -0.3580  0.7148 -1.1199
 8287SOL    HW236324   2.891   2.504   0.004  0.6766  1.5674  0.7600
 8288SOL     OW36325   1.793   4.411  12.358  0.3824 -0.0191  0.1175
 8288SOL    HW136326   1.812   4.501  12.385 -2.5410  0.0409  2.0537
 8288SOL    HW236327   1.884   4.386  12.374  0.2818 -1.1181 -1.0007
 8289SOL     OW36328   3.094   0.751  15.603  0.4688  0.1158  0.2531
 8289SOL    HW136329   3.047   0.684  15.652  0.3689 -0.3833 -0.5219
 8289SOL    HW236330   3.176   0.749  15.652  0.4094 -3.8175  0.1693
 8290SOL     OW36331   1.662   2.325   8.798  0.5540  0.0272 -0.1834
 8290SOL    HW136332   1.575   2.363   8.811  0.2007 -0.7358 -0.2942
 8290SOL    HW236333   1.713   2.405   8.813 -1.1136  1.6014 -2.8350
 8291SOL     OW36334   2.132   1.471   2.965 -0.2068 -0.3902  0.3392
 8291SOL    HW136335   2.181   1.540   3.010  0.6594  0.0852 -1.3196
 8291SOL    HW236336   2.045   1.510   2.956 -0.4311 -0.8246  0.6438
 8292SOL     OW36337   4.187   0.598   7.212 -0.1174  0.0510  0.4272
 8292SOL    HW136338   4.241   0.535   7.261 -0.6866  1.8452  3.4071
 8292SOL    HW236339   4.188   0.560   7.125  2.2109 -1.8339  1.2505
 8293SOL     OW36340   3.375   3.040   0.261 -0.0767  0.2344  0.1959
 8293SOL    HW136341   3.285   3.063   0.283  0.0532  1.4487 -0.5142
 8293SOL    HW236342   3.402   3.006   0.346  2.9694 -0.0392 -0.8946
 8294SOL     OW36343   2.839   3.323   8.292 -0.1289 -0.1119 -0.1760
 8294SOL    HW136344   2.808   3.270   8.219  0.1015  0.2906 -0.5623
 8294SOL    HW236345   2.903   3.382   8.253 -0.4325  1.1643  1.2398
 8295SOL     OW36346   1.780   0.560   7.546  0.0709 -0.1961 -0.6901
 8295SOL    HW136347   1.838   0.595   7.613 -1.0557 -1.2360  0.8292
 8295SOL    HW236348   1.740   0.640   7.512  0.2432 -0.0516 -0.5498
 8296SOL     OW36349   0.051   2.800   8.803 -0.2835 -0.1351 -0.7294
 8296SOL    HW136350   4.709   2.735   8.779  0.5004 -0.1628 -2.7683
 8296SOL    HW236351   0.011   2.883   8.777 -2.8823 -0.9903  0.5115
 8297SOL     OW36352   3.791   2.986   5.175  0.5561 -0.3527  0.5246
 8297SOL    HW136353   3.835   2.910   5.213 -1.1528 -0.3948  2.4211
 8297SOL    HW236354   3.703   2.975   5.209  0.6413  1.6823  1.4698
 8298SOL     OW36355   3.475   0.318  12.144  0.3852  0.2706 -0.4100
 8298SOL    HW136356   3.489   0.346  12.053 -0.5823  1.0672 -0.3227
 8298SOL    HW236357   3.452   0.226  12.136 -0.5922  0.3279  1.7684
 8299SOL     OW36358   2.209   1.158   8.105 -0.4543 -0.6320  0.5460
 8299SOL    HW136359   2.260   1.239   8.106 -0.2905 -0.7283  0.1143
 8299SOL    HW236360   2.273   1.098   8.066  1.9679  3.1442 -1.2433
 8300SOL     OW36361   0.813   1.206   7.398 -0.1481 -0.7149 -0.2959
 8300SOL    HW136362   0.810   1.254   7.316 -0.7540 -0.4995 -0.1433
 8300SOL    HW236363   0.747   1.251   7.450  0.8758  0.3323  0.0901
 8301SOL     OW36364   2.949   0.203   3.471 -0.3298 -0.1002  0.5429
 8301SOL    HW136365   3.013   0.136   3.447  0.5640  1.3928 -1.2090
 8301SOL    HW236366   2.891   0.148   3.523  1.5478 -2.2543  0.3530
 8302SOL     OW36367   2.509   0.571   1.211 -0.1574  0.1927 -0.0982
 8302SOL    HW136368   2.479   0.660   1.226 -0.9145 -0.3064  1.3434
 8302SOL    HW236369   2.529   0.580   1.118 -0.6734  2.8694  0.0626
 8303SOL     OW36370   3.326   0.323   2.632  0.3919  0.4265  0.3593
 8303SOL    HW136371   3.346   0.266   2.706  1.5368  0.0481 -0.2316
 8303SOL    HW236372   3.271   0.393   2.665 -1.1062 -0.9566  0.8179
 8304SOL     OW36373   3.588   3.625   7.936  0.3183  0.3617 -0.1105
 8304SOL    HW136374   3.592   3.702   7.879  1.0500  2.1186  2.3312
 8304SOL    HW236375   3.514   3.652   7.990  1.8041  1.2391  1.4772
 8305SOL     OW36376   3.216   0.887  12.695  0.0166  0.7052  1.0156
 8305SOL    HW136377   3.306   0.855  12.691 -0.4727 -0.5189  0.0200
 8305SOL    HW236378   3.195   0.927  12.779 -2.7463  1.5796 -0.0672
 8306SOL     OW36379   1.585   4.413   2.094 -0.1219 -0.5213 -0.0183
 8306SOL    HW136380   1.508   4.446   2.046 -1.9057 -0.4574  2.8898
 8306SOL    HW236381   1.640   4.491   2.092  1.2412 -1.3838  4.0712
 8307SOL     OW36382   3.449   1.667   8.326  0.5993 -0.1426  0.6039
 8307SOL    HW136383   3.359   1.646   8.302  0.2479  2.3517 -0.3427
 8307SOL    HW236384   3.493   1.586   8.303  0.8505 -0.0422  0.7326
 8308SOL     OW36385   4.375   3.265   6.862  0.0531  0.3309  0.2933
 8308SOL    HW136386   4.326   3.272   6.944  0.2051  0.3904  0.3789
 8308SOL    HW236387   4.311   3.276   6.792 -1.0015  0.2173  1.2382
 8309SOL     OW36388   2.223   3.988   0.710  0.5531 -0.4609 -0.0975
 8309SOL    HW136389   2.208   4.064   0.654 -0.7883 -0.5144  0.1804
 8309SOL    HW236390   2.315   3.977   0.685  0.4141  1.4161 -1.4003
 8310SOL     OW36391   1.727   1.764   6.814 -0.6981  0.1902  0.2817
 8310SOL    HW136392   1.769   1.678   6.808 -1.5412 -0.1969 -0.0057
 8310SOL    HW236393   1.654   1.755   6.754  1.3694  0.4089 -2.2574
 8311SOL     OW36394   1.219   4.480   1.537 -0.2929  0.0312 -0.0268
 8311SOL    HW136395   1.239   4.495   1.629  1.4030  0.1897 -0.4138
 8311SOL    HW236396   1.290   4.535   1.503  0.1426 -0.6949 -0.2790
 8312SOL     OW36397   3.304   0.051   4.437 -0.0713 -0.9018  0.1808
 8312SOL    HW136398   3.300   0.127   4.380 -0.5053 -0.8080  0.3407
 8312SOL    HW236399   3.373   0.072   4.501 -0.2315  0.4900 -0.1287
 8313SOL     OW36400   4.579   0.073   8.285 -0.1258  0.7954 -0.3266
 8313SOL    HW136401   4.527   0.003   8.325 -0.9734  0.0598 -2.6819
 8313SOL    HW236402   4.645   0.091   8.351 -0.6998  1.2819  0.1163
 8314SOL     OW36403   1.239   1.234  13.234  0.5071  0.0072  0.0376
 8314SOL    HW136404   1.297   1.219  13.309 -0.5446  2.4225  1.3570
 8314SOL    HW236405   1.151   1.233  13.273  0.3444 -0.1578 -0.3379
 8315SOL     OW36406   1.606   1.044   6.711 -0.2119 -0.6529  0.2324
 8315SOL    HW136407   1.578   1.079   6.626 -1.5039 -0.9887  0.5260
 8315SOL    HW236408   1.644   1.114   6.764 -1.7668 -1.0784  1.8893
 8316SOL     OW36409   1.280   2.469   3.031 -0.2836  1.0262 -0.2370
 8316SOL    HW136410   1.336   2.462   3.108 -0.0092  0.5011 -0.4838
 8316SOL    HW236411   1.201   2.511   3.066 -0.1445  1.3108 -0.2683
 8317SOL     OW36412   0.883   3.225  17.307  0.1422 -0.3660 -0.1246
 8317SOL    HW136413   0.812   3.229  17.243  2.0874  1.3058 -2.1586
 8317SOL    HW236414   0.857   3.303  17.356 -0.7150  0.1121 -1.3443
 8318SOL     OW36415   1.914   1.857   5.649 -0.7391 -0.5861 -0.3120
 8318SOL    HW136416   1.840   1.859   5.710  0.5832  3.4583  1.1507
 8318SOL    HW236417   1.985   1.896   5.700 -0.0667 -0.6715 -1.1853
 8319SOL     OW36418   1.378   2.520   3.851 -0.0527  0.4292  0.7608
 8319SOL    HW136419   1.373   2.431   3.816 -0.3521  0.6339  0.2735
 8319SOL    HW236420   1.450   2.551   3.796 -1.4858  0.7595 -0.9341
 8320SOL     OW36421   3.572   3.177   6.443 -0.2965 -0.3947  1.0123
 8320SOL    HW136422   3.538   3.087   6.435 -2.3536  0.6291 -1.6992
 8320SOL    HW236423   3.637   3.181   6.373 -0.5638 -0.7134  0.7444
 8321SOL     OW36424   4.404   1.040   7.015  0.2680 -0.1151 -0.1395
 8321SOL    HW136425   4.326   0.986   7.005 -0.6380  1.1438  0.1661
 8321SOL    HW236426   4.358   1.124   7.022  0.8945  0.1710  0.5520
 8322SOL     OW36427   2.857   2.679  17.385 -0.6516  0.0611  1.0891
 8322SOL    HW136428   2.763   2.676  17.402 -1.3445  0.2241 -2.6424
 8322SOL    HW236429   2.887   2.628  17.460 -0.4616  0.2264  1.1271
 8323SOL     OW36430   1.500   1.931   3.071  0.1168 -0.1373  0.1912
 8323SOL    HW136431   1.553   2.001   3.109 -1.3228  1.7209 -1.2271
 8323SOL    HW236432   1.500   1.949   2.977 -0.5851  0.5431  0.3146
 8324SOL     OW36433   4.446   0.670   5.321 -0.3873  0.5050  0.0749
 8324SOL    HW136434   4.455   0.603   5.389  1.4140  2.0466  1.3462
 8324SOL    HW236435   4.472   0.624   5.241 -1.5969  2.3656 -1.3813
 8325SOL     OW36436   2.161   0.066   8.176 -0.0887  0.3375  0.3586
 8325SOL    HW136437   2.252   0.066   8.204 -0.4954  1.8557  1.6487
 8325SOL    HW236438   2.109   0.064   8.256  1.5416  1.8352  1.4455
 8326SOL     OW36439   3.624   3.453  17.643  0.6467 -0.1681  0.4136
 8326SOL    HW136440   3.584   3.409  17.569  0.2439 -0.2833  0.7018
 8326SOL    HW236441   3.619   3.385   0.011  0.3317  1.0977  1.6607
 8327SOL     OW36442   2.264   1.079   5.087  0.0468  0.0861 -0.3202
 8327SOL    HW136443   2.293   1.040   5.170 -1.0850  2.1778  1.0709
 8327SOL    HW236444   2.182   1.032   5.073 -0.1113 -0.2853  1.7727
 8328SOL     OW36445   0.744   0.250   6.369 -0.2722 -0.3612 -0.4066
 8328SOL    HW136446   0.662   0.300   6.369  0.3118  0.5950 -0.2018
 8328SOL    HW236447   0.793   0.289   6.296  0.5560  1.6807  1.2351
 8329SOL     OW36448   2.080   4.474   3.538  0.9141  0.0351  0.0616
 8329SOL    HW136449   2.140   4.549   3.540  0.0803  0.6962  0.3626
 8329SOL    HW236450   2.055   4.462   3.446 -0.7226  0.6384  0.4284
 8330SOL     OW36451   3.585   2.919   1.587 -0.5878  0.3044 -0.8400
 8330SOL    HW136452   3.599   3.001   1.634 -0.3173 -0.1227 -0.1637
 8330SOL    HW236453   3.525   2.867   1.641 -1.1217  1.0808 -0.6843
 8331SOL     OW36454   0.880   1.592   5.068 -0.3163 -0.3075  0.2067
 8331SOL    HW136455   0.930   1.604   4.987 -2.7873 -0.0996 -1.2967
 8331SOL    HW236456   0.846   1.680   5.084  0.2083  0.1895 -1.3506
 8332SOL     OW36457   0.922   0.827   6.788 -0.1450 -0.1056 -0.1535
 8332SOL    HW136458   0.845   0.840   6.732 -0.6208  1.0500  0.7619
 8332SOL    HW236459   0.979   0.888   6.741  0.3304 -1.0575 -0.7968
 8333SOL     OW36460   2.655   2.162   9.232 -0.6657  0.2723 -0.3787
 8333SOL    HW136461   2.587   2.112   9.277 -0.8566  1.3293  0.4886
 8333SOL    HW236462   2.731   2.165   9.290 -1.6192  3.6247  0.6788
 8334SOL     OW36463   0.488   2.883   4.299  0.1479 -0.6315 -0.5146
 8334SOL    HW136464   0.489   2.801   4.250  0.6652 -0.1678 -1.2694
 8334SOL    HW236465   0.489   2.846   4.387 -0.5052 -1.7991 -1.0079
 8335SOL     OW36466   3.681   4.406   5.824 -0.3661  0.2727 -0.0794
 8335SOL    HW136467   3.626   4.416   5.746 -0.4777  1.3611  0.1359
 8335SOL    HW236468   3.627   4.446   5.892 -2.4486  2.4451 -2.9421
 8336SOL     OW36469   0.854   0.318   7.691 -0.1308  0.2869  0.0927
 8336SOL    HW136470   0.885   0.268   7.615 -0.6150 -0.8051  0.6156
 8336SOL    HW236471   0.856   0.257   7.765 -0.6664 -0.6078 -0.6321
 8337SOL     OW36472   2.113   0.718  17.411  0.3283  0.6692 -1.1306
 8337SOL    HW136473   2.025   0.697  17.379 -0.3088 -1.4204  1.9600
 8337SOL    HW236474   2.171   0.719  17.334  3.3725 -0.3031  1.1341
 8338SOL     OW36475   1.289   4.680   5.698 -0.0148 -0.0761 -0.2850
 8338SOL    HW136476   1.377   4.717   5.691 -1.3536  2.5432 -3.6877
 8338SOL    HW236477   1.261   0.022   5.760  0.2125 -1.1469  0.9530
 8339SOL     OW36478   3.230   2.842   8.241  0.6588 -0.4793 -0.8491
 8339SOL    HW136479   3.236   2.746   8.237  0.2044 -0.4456 -2.4292
 8339SOL    HW236480   3.208   2.855   8.334  0.9867  0.4051 -0.8950
 8340SOL     OW36481   4.655   1.469   8.214 -0.2070  0.4060  0.0337
 8340SOL    HW136482   0.015   1.455   8.258 -0.6328 -0.2729  0.6490
 8340SOL    HW236483   4.683   1.522   8.140  2.1721  1.2240  1.5316
 8341SOL     OW36484   0.644   3.636  16.988  0.4064  0.4970 -0.1871
 8341SOL    HW136485   0.570   3.595  17.035  1.0757 -0.4193  0.0827
 8341SOL    HW236486   0.704   3.644  17.062  0.0872 -1.4686  0.3043
 8342SOL     OW36487   4.445   2.918   1.494  0.0042  0.2666  0.8247
 8342SOL    HW136488   4.352   2.902   1.475  0.4897 -0.9468 -0.5050
 8342SOL    HW236489   4.486   2.832   1.485 -1.3266 -0.1762 -1.1432
 8343SOL     OW36490   3.173   3.211  12.145 -0.0437 -0.0461  0.1485
 8343SOL    HW136491   3.136   3.274  12.208 -0.2816 -0.2088  0.1702
 8343SOL    HW236492   3.128   3.131  12.169  0.4701 -1.4207 -3.4553
 8344SOL     OW36493   4.038   4.565   9.068 -0.5051 -0.0779 -0.1478
 8344SOL    HW136494   4.009   4.561   9.159  0.1500  0.7585  0.0963
 8344SOL    HW236495   4.018   4.655   9.045  0.7801 -0.3315 -2.2752
 8345SOL     OW36496   3.342   1.265   3.226  0.2894  0.0421  0.0235
 8345SOL    HW136497   3.281   1.331   3.192 -0.5407 -0.0138  1.4224
 8345SOL    HW236498   3.398   1.260   3.148  1.7883 -0.4446  1.1196
 8346SOL     OW36499   3.736   3.128   3.987 -0.2951  0.2854  0.0447
 8346SOL    HW136500   3.779   3.186   3.924  1.1533 -0.9997 -0.1475
 8346SOL    HW236501   3.666   3.087   3.937 -0.6041 -1.9006  2.2621
 8347SOL     OW36502   2.616   0.444   3.970 -0.4542 -0.1976 -0.2568
 8347SOL    HW136503   2.658   0.362   3.994  0.1513  0.8194  2.2173
 8347SOL    HW236504   2.538   0.424   4.022 -0.4473  2.3243  0.7282
 8348SOL     OW36505   0.444   0.842  15.661  0.0786 -0.0056  0.0737
 8348SOL    HW136506   0.358   0.802  15.648 -0.9968  2.7721 -1.4521
 8348SOL    HW236507   0.462   0.853  15.568 -0.7100 -1.6647 -0.2749
 8349SOL     OW36508   3.202   0.087   7.031 -0.1309  0.2516 -0.3020
 8349SOL    HW136509   3.230   4.720   7.028 -1.7955 -0.3447  2.2105
 8349SOL    HW236510   3.286   0.127   7.009  0.3810 -0.4166  0.4520
 8350SOL     OW36511   2.657   0.073   3.916  0.0000 -0.1353  0.4267
 8350SOL    HW136512   2.629   0.112   3.999  0.9094  0.2252  0.5694
 8350SOL    HW236513   2.750   0.068   3.936  0.0713 -0.3693  0.0143
 8351SOL     OW36514   2.715   2.950  17.505  0.5180 -0.5406 -0.0061
 8351SOL    HW136515   2.700   3.029  17.556  0.7216 -1.4053  1.4001
 8351SOL    HW236516   2.804   2.928  17.532  0.3146 -0.7223  0.5033
 8352SOL     OW36517   4.344   4.403   0.270 -0.0709 -0.3681 -0.6459
 8352SOL    HW136518   4.321   4.475   0.211  0.2771  0.1417 -0.1636
 8352SOL    HW236519   4.437   4.422   0.280 -0.4126 -0.3693  2.3347
 8353SOL     OW36520   2.331   0.188   7.820 -0.2848 -0.5003 -0.2771
 8353SOL    HW136521   2.360   0.103   7.852  1.6299 -0.6906 -2.5468
 8353SOL    HW236522   2.413   0.216   7.778 -0.7012  0.0208 -0.7498
 8354SOL     OW36523   2.820   2.512   6.207 -0.0847 -0.3654 -0.0017
 8354SOL    HW136524   2.763   2.458   6.153  0.0463 -0.1342 -0.3759
 8354SOL    HW236525   2.892   2.546   6.154 -0.5437  0.1415 -0.2977
 8355SOL     OW36526   1.248   4.562   5.314 -0.3206 -0.3115 -0.3065
 8355SOL    HW136527   1.231   4.540   5.222  1.9528 -0.1887 -0.7623
 8355SOL    HW236528   1.207   4.492   5.365  0.9481  0.6174  1.9948
 8356SOL     OW36529   1.802   0.945   8.428 -0.1419 -0.6991  0.0569
 8356SOL    HW136530   1.833   1.019   8.478 -1.8694 -0.4346  0.7369
 8356SOL    HW236531   1.876   0.926   8.370 -1.0217 -0.7642 -1.0513
 8357SOL     OW36532   3.618   3.024   9.653  0.3255  0.3678  0.1285
 8357SOL    HW136533   3.710   3.044   9.670  0.4074 -0.6546  0.8946
 8357SOL    HW236534   3.587   3.113   9.669 -0.2061  0.3772 -0.9219
 8358SOL     OW36535   4.311   1.142   5.476  0.1733  0.5066  0.1389
 8358SOL    HW136536   4.366   1.067   5.453 -0.5071 -0.4776  1.6845
 8358SOL    HW236537   4.226   1.127   5.433  0.2424 -1.3549  0.6441
 8359SOL     OW36538   3.259   3.540   6.790  0.0208  0.0964 -0.4216
 8359SOL    HW136539   3.322   3.612   6.785 -0.1691  0.2273 -0.9509
 8359SOL    HW236540   3.210   3.554   6.709  1.0865  2.1637 -0.7160
 8360SOL     OW36541   4.172   1.898   6.748  0.2160  0.1061 -0.3118
 8360SOL    HW136542   4.190   1.836   6.820 -0.7224 -1.6784 -1.6156
 8360SOL    HW236543   4.255   1.889   6.701 -0.0610 -1.4805 -0.4833
 8361SOL     OW36544   3.429   0.078   2.425  0.0990 -0.1385 -0.5525
 8361SOL    HW136545   3.366   0.046   2.361 -0.4646  0.7053 -0.4152
 8361SOL    HW236546   3.371   0.136   2.474  2.1758  1.3329  0.1665
 8362SOL     OW36547   1.337   2.043  16.236 -0.0453  0.2377  0.1755
 8362SOL    HW136548   1.411   2.103  16.241 -0.8817  1.1914  1.1342
 8362SOL    HW236549   1.279   2.101  16.186  2.3066  1.2266 -1.3838
 8363SOL     OW36550   4.002   3.893   1.192  0.2549  0.0738  0.0615
 8363SOL    HW136551   4.018   3.882   1.099  0.8675 -0.9932  0.2987
 8363SOL    HW236552   4.054   3.972   1.207  2.7496 -1.2299 -1.6755
 8364SOL     OW36553   1.151   0.880   2.668  1.0856  0.1158  0.4949
 8364SOL    HW136554   1.061   0.907   2.684  0.9161 -1.4282  2.0467
 8364SOL    HW236555   1.189   0.937   2.601  0.4539 -2.2907 -1.9488
 8365SOL     OW36556   3.206   1.307   1.033 -0.6173 -0.0530 -0.0232
 8365SOL    HW136557   3.190   1.330   1.124 -2.4427  0.1757 -0.3988
 8365SOL    HW236558   3.155   1.372   0.985 -0.5615  0.1702  0.2252
 8366SOL     OW36559   3.446   2.516   8.128 -0.3834 -0.3608 -0.1345
 8366SOL    HW136560   3.378   2.549   8.186 -0.4447 -1.1686  0.2502
 8366SOL    HW236561   3.417   2.567   8.052  0.8565  1.0283  0.3313
 8367SOL     OW36562   0.167   3.341   4.952 -0.1666 -0.7546 -0.0345
 8367SOL    HW136563   0.233   3.306   5.012 -0.6742 -0.1756  0.8676
 8367SOL    HW236564   0.214   3.380   4.879 -2.0143 -0.5974 -1.1460
 8368SOL     OW36565   1.495   1.002   5.660 -0.0432  0.2619 -0.0882
 8368SOL    HW136566   1.449   0.931   5.704 -0.3796 -1.1909 -2.7742
 8368SOL    HW236567   1.476   0.979   5.569 -1.4431 -0.2413  0.3278
 8369SOL     OW36568   1.517   2.822   6.918  0.6169 -0.6093  0.0723
 8369SOL    HW136569   1.464   2.754   6.875  1.4676 -1.2394  0.0121
 8369SOL    HW236570   1.546   2.773   6.995  0.8535 -1.1694 -0.3736
 8370SOL     OW36571   2.694   4.516   1.538  0.7648  0.1058 -0.7202
 8370SOL    HW136572   2.727   4.602   1.512 -1.2799  1.4172  0.9496
 8370SOL    HW236573   2.684   4.520   1.633  0.3765  1.6813 -0.8206
 8371SOL     OW36574   4.077   0.838  14.774 -0.3686  0.6868 -0.3059
 8371SOL    HW136575   4.012   0.869  14.836 -2.4406 -0.8120 -1.7369
 8371SOL    HW236576   4.041   0.766  14.723  3.1939 -1.3857  0.0600
 8372SOL     OW36577   0.985   0.687   4.371 -0.4958  0.2568  0.2299
 8372SOL    HW136578   0.988   0.744   4.295  2.1671 -1.2856 -0.8261
 8372SOL    HW236579   1.052   0.717   4.433  0.7952 -0.5685 -0.7796
 8373SOL     OW36580   3.487   3.464   1.885 -0.2505 -0.4509 -0.4222
 8373SOL    HW136581   3.549   3.437   1.953 -0.3490  1.6067  0.4715
 8373SOL    HW236582   3.533   3.453   1.802  2.4783  0.9513  0.8946
 8374SOL     OW36583   4.118   0.122   5.126 -0.1610 -0.2251  0.0665
 8374SOL    HW136584   4.145   0.138   5.216 -0.2052 -0.3779  0.1070
 8374SOL    HW236585   4.178   0.057   5.089 -0.7682 -0.3924 -0.6276
 8375SOL     OW36586   2.236   2.324   7.862 -0.0694 -0.5182 -0.5672
 8375SOL    HW136587   2.146   2.310   7.834 -0.2094 -0.2904 -0.2265
 8375SOL    HW236588   2.239   2.413   7.896 -1.7871 -1.3996  1.8468
 8376SOL     OW36589   0.478   3.153   4.596 -0.4141 -0.3970  0.0193
 8376SOL    HW136590   0.435   3.200   4.668 -1.5358  0.2214 -1.0694
 8376SOL    HW236591   0.407   3.139   4.534 -0.0339 -0.8485 -0.3117
 8377SOL     OW36592   1.328   0.859   5.857  0.0095  0.6022  0.2303
 8377SOL    HW136593   1.368   0.871   5.944 -0.7308 -0.9815  0.7951
 8377SOL    HW236594   1.288   0.945   5.845  1.1300  1.1612  0.5553
 8378SOL     OW36595   2.022   0.441   5.447  0.2052 -0.2370  0.1183
 8378SOL    HW136596   1.929   0.465   5.452  0.1108 -0.4901 -0.3810
 8378SOL    HW236597   2.020   0.394   5.363  0.0112 -3.1159  1.7360
 8379SOL     OW36598   3.817   1.691   8.905 -0.2634 -0.9486 -0.3356
 8379SOL    HW136599   3.894   1.662   8.954 -0.2239  0.5464  0.4798
 8379SOL    HW236600   3.825   1.785   8.886  0.2223 -1.0015 -0.3801
 8380SOL     OW36601   4.450   3.320   4.706 -0.5455  0.1974 -0.2843
 8380SOL    HW136602   4.495   3.344   4.787 -1.4706 -2.5821  1.0086
 8380SOL    HW236603   4.357   3.314   4.727 -1.1837  0.6471 -2.9122
 8381SOL     OW36604   4.327   2.835  11.564  0.3540 -0.2799 -0.1851
 8381SOL    HW136605   4.363   2.770  11.625  3.3903 -1.1495 -2.8958
 8381SOL    HW236606   4.315   2.914  11.617 -1.7104  0.2809 -1.4966
 8382SOL     OW36607   4.194   1.585   1.888 -0.2039 -0.3097 -0.7233
 8382SOL    HW136608   4.284   1.556   1.875 -0.3500 -1.5281  1.0892
 8382SOL    HW236609   4.155   1.587   1.800  0.4088  1.0680 -0.9625
 8383SOL     OW36610   4.441   0.329   4.215  0.4567 -0.2552 -0.3537
 8383SOL    HW136611   4.355   0.335   4.256 -1.1303 -3.2008 -3.2660
 8383SOL    HW236612   4.420   0.303   4.125 -1.7112 -0.4653  0.2176
 8384SOL     OW36613   2.026   0.230  12.779 -0.1047 -0.0533 -0.4003
 8384SOL    HW136614   2.031   0.316  12.820 -1.8462 -1.1420  2.0750
 8384SOL    HW236615   1.939   0.194  12.797 -0.7059  0.4464 -2.3071
 8385SOL     OW36616   2.817   3.884   2.647 -0.2833  0.2290 -0.0447
 8385SOL    HW136617   2.730   3.864   2.680 -0.6877  0.7863 -0.7745
 8385SOL    HW236618   2.859   3.806   2.612 -2.3288 -0.0086 -1.9522
 8386SOL     OW36619   4.508   2.363  15.712 -0.0300 -0.0371  0.0025
 8386SOL    HW136620   4.453   2.343  15.636  0.2462  3.3918 -1.0559
 8386SOL    HW236621   4.444   2.356  15.783 -1.1848 -0.0827 -1.0387
 8387SOL     OW36622   2.609   0.837   0.783 -0.2304 -0.7504 -0.2696
 8387SOL    HW136623   2.515   0.830   0.767 -0.6786 -0.8685  2.3920
 8387SOL    HW236624   2.630   0.914   0.729  1.1892 -0.4575  0.6913
 8388SOL     OW36625   2.493   1.056   7.540 -0.0865 -0.0952 -0.0493
 8388SOL    HW136626   2.403   1.081   7.558 -0.8072 -1.6731 -1.4032
 8388SOL    HW236627   2.502   0.961   7.550 -1.3164 -0.0693  1.2023
 8389SOL     OW36628   0.309   0.063   8.879 -0.1944 -0.1787  0.4974
 8389SOL    HW136629   0.294   0.158   8.878 -1.0565 -0.3189 -0.1333
 8389SOL    HW236630   0.381   0.060   8.941  0.0167 -1.1728  0.2054
 8390SOL     OW36631   2.105   4.381   1.153  0.2425  0.6463 -0.0080
 8390SOL    HW136632   2.130   4.450   1.092 -1.0444  1.3093  0.2019
 8390SOL    HW236633   2.010   4.383   1.160  0.2573 -1.5969  0.9033
 8391SOL     OW36634   3.975   3.434   8.571  0.2944  0.2660 -0.5670
 8391SOL    HW136635   4.003   3.509   8.624  0.5293  0.5210 -1.0597
 8391SOL    HW236636   4.052   3.379   8.580  1.1613  1.5194 -0.3570
 8392SOL     OW36637   4.314   1.747  16.178 -0.0406  0.7032 -0.0430
 8392SOL    HW136638   4.360   1.830  16.169 -2.3060  1.9820  0.1011
 8392SOL    HW236639   4.343   1.719  16.265  0.4061 -2.1298 -1.0958
 8393SOL     OW36640   1.384   1.142   2.083  0.5744  0.4428  0.8084
 8393SOL    HW136641   1.303   1.112   2.041  1.1532  1.3423 -0.9723
 8393SOL    HW236642   1.416   1.200   2.013  0.3063 -0.8922 -0.4145
 8394SOL     OW36643   3.852   1.899  11.729  0.4014  0.5089  0.6109
 8394SOL    HW136644   3.833   1.812  11.695 -0.5602  2.1597 -3.0313
 8394SOL    HW236645   3.791   1.960  11.687 -0.1054 -0.4070  0.0165
 8395SOL     OW36646   3.943   3.932  12.956  0.4460 -0.1892  0.6716
 8395SOL    HW136647   3.882   3.988  12.908 -0.1495 -0.3192  1.2692
 8395SOL    HW236648   3.892   3.921  13.036  0.1937  1.5121  0.7459
 8396SOL     OW36649   3.876   3.715   5.939  0.7631  0.8251 -0.0940
 8396SOL    HW136650   3.851   3.647   5.876  3.2105 -0.0992 -0.0768
 8396SOL    HW236651   3.903   3.785   5.880  4.5770 -0.0234  0.6330
 8397SOL     OW36652   0.690   3.035   4.764  0.3502  0.3612 -0.0610
 8397SOL    HW136653   0.601   3.034   4.730  0.7488  0.7578 -1.1316
 8397SOL    HW236654   0.703   3.124   4.797 -1.7245  0.9020 -0.7038
 8398SOL     OW36655   0.829   3.158   1.201 -0.5730  0.1274  0.6164
 8398SOL    HW136656   0.781   3.081   1.172  0.4046  0.4643 -1.8904
 8398SOL    HW236657   0.768   3.226   1.173  0.5035  0.8948  0.1361
 8399SOL     OW36658   3.345   2.631   4.867  0.0500 -0.2680 -0.3775
 8399SOL    HW136659   3.249   2.630   4.870  0.0423  1.9158 -0.5328
 8399SOL    HW236660   3.355   2.580   4.786  0.7969 -1.2521  0.3254
 8400SOL     OW36661   4.264   2.076   9.360  0.4044 -0.2923 -0.0588
 8400SOL    HW136662   4.238   2.160   9.322  2.9828  0.0758 -0.9676
 8400SOL    HW236663   4.188   2.052   9.413 -0.4825  0.3132 -1.0466
 8401SOL     OW36664   2.322   3.331   5.746 -0.4054  0.7309 -0.3658
 8401SOL    HW136665   2.258   3.343   5.817 -1.8559 -1.0861 -1.3652
 8401SOL    HW236666   2.400   3.360   5.793 -1.1729  1.2622  0.5803
 8402SOL     OW36667   0.326   4.543   7.455  0.6436 -0.2558  0.5475
 8402SOL    HW136668   0.314   4.519   7.547 -0.0074  2.2588  1.1112
 8402SOL    HW236669   0.259   4.611   7.458 -0.1818 -1.0784  0.7730
 8403SOL     OW36670   4.050   4.660   7.798 -1.2394  0.3653  0.2596
 8403SOL    HW136671   4.134   4.616   7.811 -0.3928  2.1509  0.8275
 8403SOL    HW236672   4.012   4.608   7.727  0.1200 -0.0280 -0.1686
 8404SOL     OW36673   1.881   0.808  16.126  0.3833  0.0043  0.3306
 8404SOL    HW136674   1.883   0.712  16.129 -0.2518  0.0049  0.8037
 8404SOL    HW236675   1.810   0.816  16.190 -0.2421  0.6838 -0.4428
 8405SOL     OW36676   2.175   1.904   8.877 -0.4796 -0.3509  0.3928
 8405SOL    HW136677   2.211   1.987   8.847  1.6245 -1.0625  0.9291
 8405SOL    HW236678   2.084   1.932   8.867 -0.1660 -0.4677 -2.6354
 8406SOL     OW36679   3.807   1.541   5.907 -0.3940  0.1395  0.5919
 8406SOL    HW136680   3.798   1.546   6.002  1.8523  1.4760  0.7380
 8406SOL    HW236681   3.889   1.494   5.897 -0.8578 -0.7901  1.1566
 8407SOL     OW36682   2.981   2.324   3.544 -0.0416  0.0271 -0.3751
 8407SOL    HW136683   2.981   2.259   3.615  1.4507 -0.3874 -0.7634
 8407SOL    HW236684   3.056   2.306   3.487  0.5528 -1.0402  0.7304
 8408SOL     OW36685   2.248   3.258   3.629  0.6210 -0.4497 -0.6112
 8408SOL    HW136686   2.341   3.238   3.641  0.4412 -0.6645  0.3898
 8408SOL    HW236687   2.241   3.264   3.534  0.3689  0.0739 -0.5583
 8409SOL     OW36688   0.576   1.835   8.712 -0.0430 -0.3609  0.8907
 8409SOL    HW136689   0.509   1.789   8.763 -2.0578  3.0522  1.3352
 8409SOL    HW236690   0.654   1.791   8.745  0.3005  1.1981  2.1388
 8410SOL     OW36691   2.094   0.004   1.900  0.2574 -0.0963 -0.0283
 8410SOL    HW136692   2.027   0.054   1.854 -0.7381 -0.1953  1.3144
 8410SOL    HW236693   2.144   0.067   1.952  0.3610 -1.7067  1.8087
 8411SOL     OW36694   0.845   0.454   4.621 -0.0666 -0.1498 -0.5797
 8411SOL    HW136695   0.935   0.422   4.624 -0.1837 -0.6315 -2.1131
 8411SOL    HW236696   0.819   0.429   4.532 -1.4808 -2.2977  0.4479
 8412SOL     OW36697   1.300   3.644   8.229 -0.3024 -0.2327  0.7529
 8412SOL    HW136698   1.340   3.634   8.143 -1.2415 -1.1303  0.4297
 8412SOL    HW236699   1.208   3.666   8.215 -0.3985 -0.8130  0.4659
 8413SOL     OW36700   4.519   2.272   0.131 -0.0454 -0.6766  0.6433
 8413SOL    HW136701   4.491   2.182   0.120  1.2975 -1.1224  0.9155
 8413SOL    HW236702   4.535   2.305   0.043  1.4320 -2.0590  0.3966
 8414SOL     OW36703   0.461   2.126   8.074  0.7347  0.0002 -0.0985
 8414SOL    HW136704   0.520   2.065   8.118 -1.0134 -0.5565  1.4642
 8414SOL    HW236705   0.518   2.155   8.003  0.9474  1.8897  0.8207
 8415SOL     OW36706   0.972   4.215   5.873 -0.4873 -0.5272 -0.2878
 8415SOL    HW136707   0.884   4.177   5.877 -0.7907  0.3939  1.8615
 8415SOL    HW236708   0.949   4.308   5.874 -0.2153 -0.4554 -1.1300
 8416SOL     OW36709   4.488   1.459   7.454  0.7378  0.2023 -0.5663
 8416SOL    HW136710   4.563   1.490   7.402  0.1140  0.4849 -1.2944
 8416SOL    HW236711   4.439   1.414   7.385 -2.9966 -0.3699  2.4960
 8417SOL     OW36712   3.494   4.170   4.278  0.4745  0.0391  0.3078
 8417SOL    HW136713   3.416   4.172   4.222  0.8192 -1.1323 -0.2236
 8417SOL    HW236714   3.551   4.235   4.239 -0.8062  1.5173  0.9238
 8418SOL     OW36715   0.532   1.284   2.361  0.1558 -0.5428 -0.1654
 8418SOL    HW136716   0.592   1.290   2.435 -0.8169  0.1538  0.5675
 8418SOL    HW236717   0.480   1.364   2.368  0.2349 -0.4342 -0.8016
 8419SOL     OW36718   0.708   0.410  16.089 -0.6883  0.0207  0.1486
 8419SOL    HW136719   0.703   0.422  15.994 -4.4147  0.0652  0.3332
 8419SOL    HW236720   0.647   0.338  16.105  0.0037 -0.8348 -1.0975
 8420SOL     OW36721   3.835   3.292  13.980  0.5162 -0.2850 -0.0213
 8420SOL    HW136722   3.852   3.365  14.039 -0.5783  0.0155 -0.0860
 8420SOL    HW236723   3.919   3.247  13.972 -0.2244 -1.9369  1.2969
 8421SOL     OW36724   0.693   1.814   9.303 -0.1021  0.5048 -0.1900
 8421SOL    HW136725   0.606   1.852   9.319 -1.3775 -1.9230 -1.4653
 8421SOL    HW236726   0.683   1.720   9.318  2.8197  0.6551  2.7911
 8422SOL     OW36727   0.369   4.157  16.986  0.6165  0.3271 -0.5480
 8422SOL    HW136728   0.425   4.080  16.972 -3.0613 -2.3599 -0.5236
 8422SOL    HW236729   0.394   4.217  16.916  0.4235  1.1644  0.1029
 8423SOL     OW36730   1.125   0.296   4.900 -0.8103  0.2767  0.0656
 8423SOL    HW136731   1.203   0.241   4.907  0.5095  2.1360 -0.2654
 8423SOL    HW236732   1.124   0.319   4.808  0.1712 -0.0071 -0.0112
 8424SOL     OW36733   4.400   3.094   8.631  0.3565 -0.7280  0.0345
 8424SOL    HW136734   4.381   3.049   8.714 -0.9997  1.0267  0.6633
 8424SOL    HW236735   4.364   3.035   8.564 -0.0878  0.8181 -1.0796
 8425SOL     OW36736   1.489   1.631   5.089 -0.0726  0.2786 -0.1833
 8425SOL    HW136737   1.518   1.549   5.129  0.1325  1.6409  2.4949
 8425SOL    HW236738   1.473   1.604   4.999  1.9709  1.5030 -0.9172
 8426SOL     OW36739   2.183   1.343   6.523 -0.1452 -0.4552 -0.5418
 8426SOL    HW136740   2.274   1.326   6.547 -1.2019  0.7221  4.2116
 8426SOL    HW236741   2.173   1.438   6.517 -0.2051 -0.4188  0.1159
 8427SOL     OW36742   1.976   2.880   7.690  0.0756 -0.4596  0.8260
 8427SOL    HW136743   2.007   2.856   7.602 -0.4050  0.4923  0.3922
 8427SOL    HW236744   1.890   2.918   7.672 -0.2082 -0.8292  1.4009
 8428SOL     OW36745   3.689   1.193   7.762 -0.1515  0.8922  0.3154
 8428SOL    HW136746   3.728   1.107   7.746 -2.4812 -0.1212  0.1051
 8428SOL    HW236747   3.684   1.196   7.858 -0.6985  2.0562  0.2518
 8429SOL     OW36748   1.814   1.805   8.353  0.3227 -0.3870 -0.1300
 8429SOL    HW136749   1.736   1.760   8.383  0.4848 -0.4998  0.1229
 8429SOL    HW236750   1.808   1.813   8.258  0.7064 -0.3848 -0.1547
 8430SOL     OW36751   0.091   1.076   6.260  0.5616 -0.0930 -0.1148
 8430SOL    HW136752   0.137   0.993   6.268 -0.1165 -0.2608  1.9194
 8430SOL    HW236753   0.147   1.121   6.196  0.1579  0.2675 -0.2209
 8431SOL     OW36754   2.649   0.851   2.170 -0.1599  0.2451 -0.1888
 8431SOL    HW136755   2.676   0.760   2.181 -1.3487 -0.0992 -0.1066
 8431SOL    HW236756   2.731   0.890   2.141  2.3877 -3.5476  1.9406
 8432SOL     OW36757   2.231   1.932   7.177 -0.1791  0.0123 -0.4166
 8432SOL    HW136758   2.275   1.914   7.094 -1.3113  0.7758 -1.1922
 8432SOL    HW236759   2.195   2.016   7.149 -2.0999 -1.1852 -1.5390
 8433SOL     OW36760   0.695   4.675   0.902 -0.2243 -0.1200 -0.1346
 8433SOL    HW136761   0.780   4.663   0.860  0.3868 -1.5700  1.4984
 8433SOL    HW236762   0.636   4.661   0.827  1.6717 -2.8191 -1.1235
 8434SOL     OW36763   1.931   2.432  13.212 -0.2153 -0.1777  0.0201
 8434SOL    HW136764   1.945   2.351  13.162  0.5013 -1.1191  1.7380
 8434SOL    HW236765   1.846   2.424  13.255  0.2038  2.2697  1.2847
 8435SOL     OW36766   1.470   2.901  11.562 -0.1228  0.3960  0.4340
 8435SOL    HW136767   1.525   2.894  11.640 -0.4728  1.1742  0.7587
 8435SOL    HW236768   1.534   2.861  11.504 -1.5130 -2.5812  0.9643
 8436SOL     OW36769   1.841   1.367   8.549 -0.4008  0.0479 -0.1219
 8436SOL    HW136770   1.905   1.429   8.584  0.3283 -0.9469  0.3134
 8436SOL    HW236771   1.894   1.288   8.562 -0.0578  0.5146  1.2931
 8437SOL     OW36772   2.287   1.006   6.959 -0.6471  0.1098 -0.7704
 8437SOL    HW136773   2.299   0.978   6.869  0.1574  0.5915 -0.8135
 8437SOL    HW236774   2.332   1.090   6.959 -0.6532  0.1207  0.7249
 8438SOL     OW36775   0.013   1.406  12.421 -0.0289  0.1653  0.0295
 8438SOL    HW136776   4.666   1.350  12.450  0.1526  0.3367  0.8105
 8438SOL    HW236777   0.062   1.433  12.499 -1.0321  2.0543  0.0120
 8439SOL     OW36778   0.937   1.214   4.589  0.5524 -0.1605 -0.5780
 8439SOL    HW136779   0.915   1.158   4.514 -0.2181 -2.1543  1.1556
 8439SOL    HW236780   0.894   1.296   4.563 -0.3364 -0.1615  0.9158
 8440SOL     OW36781   3.225   2.361  13.167 -0.2277  0.3342  0.2608
 8440SOL    HW136782   3.274   2.286  13.200  1.1415  0.6588 -1.0124
 8440SOL    HW236783   3.245   2.429  13.231  0.1883  0.0062  0.4815
 8441SOL     OW36784   3.395   1.056  12.141  0.2522  0.0690  0.1252
 8441SOL    HW136785   3.441   1.040  12.059 -2.4085 -0.3594 -1.2751
 8441SOL    HW236786   3.458   1.109  12.190  0.1871  0.2427  0.0200
 8442SOL     OW36787   3.317   1.419   3.472 -0.1128  0.2071 -0.0667
 8442SOL    HW136788   3.366   1.347   3.433  0.6326  2.1956 -2.7458
 8442SOL    HW236789   3.245   1.439   3.413 -0.6924 -0.0415  0.5507
 8443SOL     OW36790   0.579   2.790  15.369  0.3876 -0.6005  0.2346
 8443SOL    HW136791   0.569   2.724  15.300 -2.0690 -1.0572  1.0232
 8443SOL    HW236792   0.605   2.864  15.313 -2.3401  0.7756  0.8157
 8444SOL     OW36793   4.498   4.518   2.879 -0.0796  0.3274  0.0695
 8444SOL    HW136794   4.550   4.585   2.835  0.4296  0.3754  0.7474
 8444SOL    HW236795   4.441   4.488   2.808  0.7364 -0.1292 -0.3980
 8445SOL     OW36796   0.736   2.629   5.389 -0.3493  0.0123  0.2964
 8445SOL    HW136797   0.817   2.679   5.380 -1.2018  1.5165  0.9637
 8445SOL    HW236798   0.720   2.595   5.301 -0.8353  1.9634 -0.3749
 8446SOL     OW36799   0.653   1.322   2.104  0.1640 -0.0256  0.6518
 8446SOL    HW136800   0.689   1.234   2.094  3.3375  1.5484 -1.6930
 8446SOL    HW236801   0.588   1.306   2.172 -2.5882 -0.3482 -2.0509
 8447SOL     OW36802   0.250   0.709   7.160 -0.3118 -0.3222 -0.0761
 8447SOL    HW136803   0.238   0.802   7.183  1.6720 -0.0098 -0.3374
 8447SOL    HW236804   0.259   0.676   7.250 -1.3705 -3.0776 -1.0036
 8448SOL     OW36805   2.677   3.119   9.759 -0.6442 -0.5818  0.0366
 8448SOL    HW136806   2.652   3.059   9.829 -0.8737 -0.3915  0.1184
 8448SOL    HW236807   2.724   3.187   9.807 -2.2965  0.1467  0.6570
 8449SOL     OW36808   3.867   0.970  13.468  0.1009 -0.3548  0.0992
 8449SOL    HW136809   3.882   0.922  13.550 -0.8091 -0.2740  0.3158
 8449SOL    HW236810   3.834   0.904  13.406 -1.4184 -1.3294  1.9297
 8450SOL     OW36811   3.311   3.744   0.103 -0.0830  0.6687 -0.8790
 8450SOL    HW136812   3.361   3.738   0.184 -0.5323 -3.5601 -0.9001
 8450SOL    HW236813   3.310   3.839   0.090 -0.6637  0.8682  0.6340
 8451SOL     OW36814   0.148   4.575  11.948  0.1820 -0.6877  0.0007
 8451SOL    HW136815   0.233   4.535  11.928 -1.2393 -1.4466 -4.7101
 8451SOL    HW236816   0.138   4.577  12.043 -1.2042 -1.3360 -0.1283
 8452SOL     OW36817   3.821   1.279  15.634 -0.1836  0.1107 -0.2249
 8452SOL    HW136818   3.756   1.297  15.702 -0.7682 -0.3849 -0.6605
 8452SOL    HW236819   3.899   1.303  15.684  1.4539 -0.7119 -2.4125
 8453SOL     OW36820   3.386   2.193   6.117 -0.1544 -0.4224  0.2595
 8453SOL    HW136821   3.329   2.146   6.056  2.4894 -1.7439 -1.2305
 8453SOL    HW236822   3.411   2.131   6.186  0.8107  1.1834  1.3578
 8454SOL     OW36823   0.259   0.311   2.612  0.4107 -0.0407  0.0796
 8454SOL    HW136824   0.202   0.383   2.586  0.5653 -0.4706 -1.4648
 8454SOL    HW236825   0.212   0.282   2.690  1.7168  3.1976  2.0803
 8455SOL     OW36826   2.944   3.971   2.879  0.2333  0.2297 -0.3090
 8455SOL    HW136827   2.903   3.920   2.809 -0.5715  1.7882 -0.9861
 8455SOL    HW236828   2.923   4.058   2.844  2.0390  0.1206 -1.6473
 8456SOL     OW36829   0.713   0.508   2.484 -0.0359 -0.3745 -0.1894
 8456SOL    HW136830   0.677   0.433   2.531  0.6649 -1.2914 -1.1110
 8456SOL    HW236831   0.784   0.467   2.434  1.0443 -1.2933  2.0685
 8457SOL     OW36832   1.916   2.616  11.665  0.4895  0.1305  0.3318
 8457SOL    HW136833   1.974   2.691  11.679  2.1560 -0.8356 -1.2390
 8457SOL    HW236834   1.953   2.561  11.734  0.9788  0.1337  0.0752
 8458SOL     OW36835   3.198   4.506  17.249  0.6562  0.2826  0.4097
 8458SOL    HW136836   3.147   4.433  17.216 -1.2342  3.2044 -3.0750
 8458SOL    HW236837   3.135   4.556  17.301 -0.4666  0.0960 -0.7854
 8459SOL     OW36838   2.807   4.717   2.099  0.2698 -0.5139 -0.4972
 8459SOL    HW136839   2.734   4.658   2.115  0.4692 -0.6965 -0.2697
 8459SOL    HW236840   2.850   4.669   2.029 -0.2374 -0.6661 -0.7036
 8460SOL     OW36841   1.059   1.721  14.243 -0.8711  0.8616 -0.1678
 8460SOL    HW136842   1.150   1.714  14.273 -0.5087  1.5478 -1.1151
 8460SOL    HW236843   1.063   1.810  14.208  0.8802  1.3102  1.1516
 8461SOL     OW36844   1.495   0.322   5.854 -0.6090  0.1900  0.1409
 8461SOL    HW136845   1.524   0.370   5.931  0.9926 -1.7038  0.7256
 8461SOL    HW236846   1.411   0.366   5.843 -0.4714  0.2495 -0.6394
 8462SOL     OW36847   3.955   3.703  10.652  0.1204  0.4552  1.0499
 8462SOL    HW136848   3.971   3.791  10.688 -0.7817  0.5033  1.3428
 8462SOL    HW236849   4.037   3.667  10.617 -0.3656  0.3446  0.0144
 8463SOL     OW36850   1.230   3.243   4.549 -0.1633 -0.0943 -0.2844
 8463SOL    HW136851   1.184   3.229   4.632 -0.2648 -1.3211 -0.5393
 8463SOL    HW236852   1.168   3.215   4.482  0.4168  0.5299 -1.0891
 8464SOL     OW36853   1.296   3.307   7.350 -0.2400 -0.2632 -0.1893
 8464SOL    HW136854   1.237   3.234   7.330 -0.2060 -0.7861  1.6842
 8464SOL    HW236855   1.304   3.298   7.445  1.1694  1.4419 -0.1414
 8465SOL     OW36856   2.477   3.506   3.707  0.5402  0.2124  0.6777
 8465SOL    HW136857   2.389   3.530   3.680  0.4100 -0.5358  0.4557
 8465SOL    HW236858   2.501   3.590   3.747  3.4186 -0.1637 -0.2690
 8466SOL     OW36859   2.758   2.861   5.128  0.0764 -0.1764 -0.0283
 8466SOL    HW136860   2.818   2.935   5.128  1.5472 -1.3822 -1.4871
 8466SOL    HW236861   2.754   2.839   5.035  1.3964 -0.2524 -0.0568
 8467SOL     OW36862   3.991   2.546   8.718 -0.5215  0.1948  0.7280
 8467SOL    HW136863   4.052   2.542   8.644 -2.1587 -0.0777 -0.5962
 8467SOL    HW236864   3.940   2.616   8.676 -0.9948 -2.0311 -2.4285
 8468SOL     OW36865   2.493   1.626   1.469  0.2786  0.2890  0.5542
 8468SOL    HW136866   2.567   1.686   1.461  0.7880 -0.3336  0.5645
 8468SOL    HW236867   2.534   1.548   1.431 -0.1468 -0.6669  2.0497
 8469SOL     OW36868   4.718   1.206   4.636  0.5837 -0.1645  0.1119
 8469SOL    HW136869   4.716   1.271   4.705 -3.4614 -0.1969  0.0169
 8469SOL    HW236870   4.660   1.137   4.669  1.0198 -2.0196 -2.9939
 8470SOL     OW36871   3.604   1.139   2.807 -0.0137  0.2633  0.8568
 8470SOL    HW136872   3.644   1.053   2.798 -2.1441 -0.5581 -0.7865
 8470SOL    HW236873   3.556   1.142   2.724  0.4119 -1.6313  0.5390
 8471SOL     OW36874   3.649   4.353   4.108  0.4879  0.1113 -0.0101
 8471SOL    HW136875   3.680   4.325   4.022 -1.0839  1.5922 -1.0749
 8471SOL    HW236876   3.588   4.422   4.081  3.0577  2.4604  0.1954
 8472SOL     OW36877   3.560   2.116   6.806 -0.2783 -0.4418 -0.1056
 8472SOL    HW136878   3.550   2.045   6.870  1.4702 -0.3057  0.3032
 8472SOL    HW236879   3.617   2.175   6.854 -0.6828  0.2006 -0.4099
 8473SOL     OW36880   0.768   1.818   5.383  0.4631 -0.2218 -0.1732
 8473SOL    HW136881   0.798   1.884   5.446 -0.0448  0.3065 -0.4825
 8473SOL    HW236882   0.851   1.797   5.341  0.4805 -0.3081 -0.0979
 8474SOL     OW36883   2.754   1.387   7.193 -0.3613  0.0081  0.0062
 8474SOL    HW136884   2.661   1.409   7.187 -0.2598  0.4581  0.0559
 8474SOL    HW236885   2.744   1.292   7.186  1.3448 -0.0110 -1.9830
 8475SOL     OW36886   4.228   2.312  13.800 -0.2519  0.2116 -0.3755
 8475SOL    HW136887   4.159   2.303  13.735 -0.3352 -0.1232 -0.2429
 8475SOL    HW236888   4.222   2.406  13.818  1.8426  0.3373 -0.3402
 8476SOL     OW36889   2.932   3.745   6.690 -0.3716 -0.2988 -0.5133
 8476SOL    HW136890   2.908   3.682   6.759  1.6350 -1.3859 -0.7968
 8476SOL    HW236891   2.995   3.693   6.641 -0.8953 -1.2795 -0.1445
 8477SOL     OW36892   3.075   1.483   0.874  0.1175 -0.1694  0.0174
 8477SOL    HW136893   2.998   1.441   0.837  1.4230 -0.7697 -2.0540
 8477SOL    HW236894   3.110   1.529   0.797  1.4900 -1.7935 -0.3311
 8478SOL     OW36895   2.577   1.886   6.149 -0.4539  0.0580 -0.6082
 8478SOL    HW136896   2.535   1.933   6.077  0.8102 -0.1840 -1.4942
 8478SOL    HW236897   2.519   1.913   6.221  0.8429 -0.1032  0.4805
 8479SOL     OW36898   1.708   4.613   7.632  0.5254 -0.7083  0.1467
 8479SOL    HW136899   1.638   4.619   7.698 -0.9748 -3.8467 -1.1581
 8479SOL    HW236900   1.720   4.694   7.583 -2.4783 -0.3379 -0.0290
 8480SOL     OW36901   3.324   4.617   5.585  0.0763  0.7122 -0.1970
 8480SOL    HW136902   3.369   4.679   5.644 -2.9387  2.4922  0.2183
 8480SOL    HW236903   3.378   4.648   5.512  1.8179  2.2596  1.7283
 8481SOL     OW36904   4.669   2.152   6.483  0.2847  0.4470  0.3997
 8481SOL    HW136905   4.671   2.069   6.531 -0.3042  1.1165  1.5729
 8481SOL    HW236906   0.031   2.189   6.501  0.3035  0.5682  0.0651
 8482SOL     OW36907   3.669   1.456   8.818 -0.2847  0.6204  0.0994
 8482SOL    HW136908   3.623   1.454   8.902 -1.2908 -1.2350 -0.4880
 8482SOL    HW236909   3.716   1.539   8.820 -1.5284  1.3867 -2.2663
 8483SOL     OW36910   1.282   3.964   3.928  0.2619  0.3477 -0.1716
 8483SOL    HW136911   1.279   4.045   3.978 -2.9538 -1.1130  1.9972
 8483SOL    HW236912   1.247   3.898   3.988  0.3355  0.0317 -0.4793
 8484SOL     OW36913   1.918   4.318  11.556  0.5802 -0.1171 -0.2044
 8484SOL    HW136914   1.943   4.260  11.628 -1.6733 -2.9557 -1.7037
 8484SOL    HW236915   2.000   4.309  11.508  0.5375 -2.8346  0.2256
 8485SOL     OW36916   1.020   1.670  17.651 -0.0101  0.1383 -0.0663
 8485SOL    HW136917   0.951   1.616  17.613  1.4018 -1.9891  0.3842
 8485SOL    HW236918   1.025   1.643   0.043  1.9001  0.9404  0.0664
 8486SOL     OW36919   0.438   4.592   3.165 -0.0491 -0.1868 -0.4182
 8486SOL    HW136920   0.400   4.619   3.081 -0.2315 -1.2440 -0.6720
 8486SOL    HW236921   0.396   4.663   3.214  1.3376  1.4223 -1.5895
 8487SOL     OW36922   4.307   1.256  12.417  0.3935  0.0977  0.1165
 8487SOL    HW136923   4.269   1.292  12.497 -1.0838 -0.9711 -0.1164
 8487SOL    HW236924   4.377   1.316  12.392  1.4618 -0.0219  2.8322
 8488SOL     OW36925   2.428   1.870   1.983 -0.9031  0.4794  0.7098
 8488SOL    HW136926   2.352   1.845   2.036  0.9079 -1.8142  2.1923
 8488SOL    HW236927   2.459   1.936   2.045 -1.3575  1.2469  0.1193
 8489SOL     OW36928   4.203   3.292   6.112 -0.6979  0.3860 -0.4782
 8489SOL    HW136929   4.207   3.376   6.065  1.0577  0.2505 -0.5695
 8489SOL    HW236930   4.141   3.235   6.067 -2.3188  0.9585  1.0454
 8490SOL     OW36931   2.324   1.603  11.553  0.9073 -0.2561 -0.5187
 8490SOL    HW136932   2.345   1.544  11.625  1.9325 -1.7842 -2.0992
 8490SOL    HW236933   2.322   1.686  11.602  4.0952 -0.5835  0.1390
 8491SOL     OW36934   0.463   0.174   8.478 -0.0080  0.2810 -0.0647
 8491SOL    HW136935   0.471   0.265   8.504  0.3411  0.7927 -1.9328
 8491SOL    HW236936   0.375   0.146   8.503  1.0878 -2.3557  0.8605
 8492SOL     OW36937   3.927   3.762   1.972  0.1753 -0.4730 -0.6247
 8492SOL    HW136938   3.875   3.775   2.051  1.2584  1.0550 -0.1460
 8492SOL    HW236939   3.862   3.773   1.903 -1.5577  2.2116  1.4143
 8493SOL     OW36940   3.964   2.942   9.657 -0.6761  0.0598  0.2149
 8493SOL    HW136941   3.924   3.005   9.717  0.1734  0.3513  0.4784
 8493SOL    HW236942   3.915   2.969   9.579  0.1202 -2.0048 -0.9972
 8494SOL     OW36943   1.153   1.029   8.240 -0.4759 -0.1546 -0.2841
 8494SOL    HW136944   1.105   0.971   8.181  1.7355 -0.5443 -1.6916
 8494SOL    HW236945   1.084   1.091   8.264 -0.5912 -1.1583  2.0012
 8495SOL     OW36946   2.953   2.840   7.675 -0.2852 -0.1884  0.3487
 8495SOL    HW136947   2.971   2.747   7.665  0.4601 -0.0626  0.4911
 8495SOL    HW236948   2.860   2.837   7.699 -0.2467 -2.3786  0.2233
 8496SOL     OW36949   0.611   3.106   3.120 -0.7872 -0.2582  0.1742
 8496SOL    HW136950   0.589   3.141   3.207 -0.5517 -1.4558  0.7127
 8496SOL    HW236951   0.631   3.013   3.130  0.1912  0.1197  1.7466
 8497SOL     OW36952   0.963   0.015   8.695 -0.1802 -0.1983 -0.4915
 8497SOL    HW136953   0.912   0.075   8.641 -0.5033 -0.6547 -0.6908
 8497SOL    HW236954   0.967   4.659   8.644 -2.7650  0.3322 -1.5189
 8498SOL     OW36955   1.995   2.113  15.604  0.4730 -0.0501  0.1709
 8498SOL    HW136956   2.005   2.083  15.694 -0.4950  0.5684  0.4790
 8498SOL    HW236957   1.900   2.112  15.602  0.4563  1.4536  0.7545
 8499SOL     OW36958   3.428   0.586   9.699 -0.1209  0.1975 -0.3397
 8499SOL    HW136959   3.496   0.621   9.757 -0.1520 -0.8451  0.3238
 8499SOL    HW236960   3.354   0.634   9.736 -0.1487  0.6598 -0.9994
 8500SOL     OW36961   2.224   1.202   4.147 -0.3445 -0.5744  0.0071
 8500SOL    HW136962   2.285   1.160   4.208 -0.0763 -0.2539 -0.0420
 8500SOL    HW236963   2.234   1.148   4.069 -0.8485  0.9056 -1.0785
 8501SOL     OW36964   0.728   4.228   1.745  0.1740  0.1861  0.0842
 8501SOL    HW136965   0.794   4.211   1.811 -0.0900  0.1309  0.3325
 8501SOL    HW236966   0.656   4.258   1.800  0.6042 -0.8556  1.2079
 8502SOL     OW36967   2.254   3.340  17.262  0.4453 -0.1218 -0.1302
 8502SOL    HW136968   2.291   3.428  17.260 -0.8931  0.4886  1.4450
 8502SOL    HW236969   2.330   3.287  17.236  0.6149 -0.5122  1.1285
 8503SOL     OW36970   3.927   4.371   3.354 -0.1277 -0.6208 -0.5556
 8503SOL    HW136971   3.961   4.459   3.342  1.5279 -0.8888  2.0804
 8503SOL    HW236972   3.920   4.349   3.261 -0.2859 -1.0616 -0.4422
 8504SOL     OW36973   1.981   4.182   7.856  0.6811  0.5039  0.2288
 8504SOL    HW136974   1.943   4.135   7.781  0.6735  0.9861 -0.0715
 8504SOL    HW236975   1.974   4.108   7.916 -2.1935 -1.6671 -2.8160
 8505SOL     OW36976   1.101   4.684   7.533  0.1302  0.4964  0.0265
 8505SOL    HW136977   1.026   4.713   7.482  0.8750  0.6304 -1.0000
 8505SOL    HW236978   1.108   0.018   7.609  1.5372 -1.1372  1.1689
 8506SOL     OW36979   3.073   3.527   9.151  0.0520 -0.1121 -0.5572
 8506SOL    HW136980   3.035   3.559   9.233 -1.2880 -1.7227 -0.5645
 8506SOL    HW236981   3.005   3.505   9.088 -2.0023 -0.4973  1.8025
 8507SOL     OW36982   1.981   1.614   1.911  0.2148  0.0166 -0.0360
 8507SOL    HW136983   1.921   1.661   1.968 -0.0656  0.9528 -1.1130
 8507SOL    HW236984   1.983   1.671   1.834 -0.7583  0.3087  0.1569
 8508SOL     OW36985   1.980   4.191   7.266  0.3234  0.2817  0.7259
 8508SOL    HW136986   1.932   4.263   7.308 -0.9238  1.7805 -3.2823
 8508SOL    HW236987   2.036   4.244   7.209  0.7996  0.4569  1.3605
 8509SOL     OW36988   3.851   0.710   9.542  0.2230  0.3130  0.2468
 8509SOL    HW136989   3.876   0.748   9.458 -0.2029  0.0622  0.0059
 8509SOL    HW236990   3.878   0.781   9.599  0.8105  0.6989 -0.5136
 8510SOL     OW36991   4.002   1.140  15.875 -0.5406 -0.0065 -0.0938
 8510SOL    HW136992   4.048   1.224  15.887 -1.7870  0.5536  0.7949
 8510SOL    HW236993   3.986   1.128  15.969  1.3124  0.2146  0.2381
 8511SOL     OW36994   0.835   2.412  12.723  0.2777  0.6295 -0.0293
 8511SOL    HW136995   0.908   2.384  12.667 -0.6573 -1.0277 -0.4233
 8511SOL    HW236996   0.802   2.483  12.669  1.3277  2.3123  1.5783
 8512SOL     OW36997   2.482   3.954   0.637 -0.1508 -0.4357  0.2876
 8512SOL    HW136998   2.550   3.898   0.675 -1.7191 -0.8454  2.4754
 8512SOL    HW236999   2.539   4.030   0.627  1.2513 -1.3703  1.1669
 8513SOL     OW37000   2.539   3.869   2.709  0.1974  0.6991  0.0848
 8513SOL    HW137001   2.546   3.787   2.759 -2.5225 -0.4273 -1.3600
 8513SOL    HW237002   2.452   3.857   2.670  1.3813  0.4048 -2.4872
 8514SOL     OW37003   2.728   0.178   6.622  0.7494  0.0047 -0.0140
 8514SOL    HW137004   2.815   0.147   6.595  1.4782  3.2541 -1.3994
 8514SOL    HW237005   2.740   0.186   6.717  1.2664  1.8461 -0.2379
 8515SOL     OW37006   0.560   4.057  16.461 -0.5507 -0.0184 -0.0986
 8515SOL    HW137007   0.618   4.128  16.486  0.1954 -0.0797 -1.6502
 8515SOL    HW237008   0.515   4.089  16.382  0.3769 -1.1640 -1.0845
 8516SOL     OW37009   0.341   3.378  12.659  0.1357 -0.0688  0.1408
 8516SOL    HW137010   0.303   3.360  12.745 -1.9894  1.8448 -0.4040
 8516SOL    HW237011   0.349   3.473  12.659  2.4791 -0.2654  0.6096
 8517SOL     OW37012   3.709   3.968   9.982 -0.3708 -0.4119 -0.4465
 8517SOL    HW137013   3.755   3.995   9.903  0.7036  0.0962  0.3597
 8517SOL    HW237014   3.780   3.914  10.017 -0.5304  0.6140  1.4829
 8518SOL     OW37015   4.321   2.628   2.391 -0.1202  0.7370 -0.1001
 8518SOL    HW137016   4.316   2.568   2.465 -2.1616  0.5367 -0.3955
 8518SOL    HW237017   4.335   2.577   2.312  0.5629 -1.9910  1.7725
 8519SOL     OW37018   1.998   1.775   7.068 -0.5505  0.1729  0.1825
 8519SOL    HW137019   1.943   1.813   6.998  0.1645 -0.2688 -0.6153
 8519SOL    HW237020   2.066   1.840   7.084 -1.0381  0.5406  0.7492
 8520SOL     OW37021   2.130   4.344   5.688 -0.2445  0.1923 -0.2543
 8520SOL    HW137022   2.153   4.252   5.701  3.5669  1.2832  0.9842
 8520SOL    HW237023   2.209   4.388   5.721 -0.3068 -0.5627  0.9034
 8521SOL     OW37024   3.841   2.911   4.604 -0.2070  0.3505 -0.1222
 8521SOL    HW137025   3.935   2.928   4.607  0.0188 -1.0711  0.4227
 8521SOL    HW237026   3.838   2.830   4.554 -0.6070  0.4341 -0.2302
 8522SOL     OW37027   3.247   4.656  16.325 -0.4903  0.6640  0.5118
 8522SOL    HW137028   3.167   4.607  16.348 -0.2367 -0.5219 -1.1113
 8522SOL    HW237029   3.257   4.613  16.240  2.0506  2.5586 -0.1264
 8523SOL     OW37030   4.191   2.324   5.768  0.1326  0.2385 -0.1404
 8523SOL    HW137031   4.181   2.328   5.863  1.4484 -3.1372  0.1552
 8523SOL    HW237032   4.154   2.236   5.758 -2.3692  1.5214 -2.2287
 8524SOL     OW37033   0.786   0.303   4.953  0.1100  0.2861 -0.4261
 8524SOL    HW137034   0.796   0.242   4.880 -0.0214 -0.3841  0.1132
 8524SOL    HW237035   0.839   0.247   5.010 -0.8648  0.3009  0.4753
 8525SOL     OW37036   4.198   3.651   8.274  0.2935 -0.4751 -0.1154
 8525SOL    HW137037   4.252   3.573   8.289 -0.4416 -0.9249  0.1703
 8525SOL    HW237038   4.257   3.724   8.291 -1.7905  1.1517  0.0994
 8526SOL     OW37039   4.283   4.348  14.681 -0.3145 -0.3013  0.3853
 8526SOL    HW137040   4.228   4.298  14.620  0.7825 -0.4234 -0.5155
 8526SOL    HW237041   4.247   4.436  14.673 -1.1977 -0.5965  1.0796
 8527SOL     OW37042   3.341   1.342   8.198  0.2124 -0.4586 -0.0402
 8527SOL    HW137043   3.380   1.359   8.283  1.3777 -0.1841 -0.6230
 8527SOL    HW237044   3.379   1.255   8.185 -0.0792 -0.9582  2.6011
 8528SOL     OW37045   0.879   4.511   2.995 -0.2040 -0.1456 -0.0799
 8528SOL    HW137046   0.788   4.493   3.018  0.0852 -0.7937  0.5593
 8528SOL    HW237047   0.886   4.507   2.900  1.3605 -0.5577  0.0485
 8529SOL     OW37048   1.928   2.587   3.628 -0.1016 -0.0496 -0.0039
 8529SOL    HW137049   1.908   2.612   3.718 -2.3768  2.3478 -1.1526
 8529SOL    HW237050   1.975   2.506   3.646  0.5019  0.2201 -0.3594
 8530SOL     OW37051   1.430   2.703   8.482 -0.5214 -0.7596  0.5182
 8530SOL    HW137052   1.410   2.796   8.478 -1.0427 -0.8201  1.7009
 8530SOL    HW237053   1.466   2.692   8.394  1.3928 -0.6896  1.3033
 8531SOL     OW37054   1.076   2.089   5.173 -0.4719  0.0382 -0.6065
 8531SOL    HW137055   1.043   2.034   5.102  0.3713 -1.0094 -0.1766
 8531SOL    HW237056   1.075   2.180   5.142 -2.5475  0.8233  1.7535
 8532SOL     OW37057   4.287   2.805   3.835 -0.2721  0.5875  0.0354
 8532SOL    HW137058   4.204   2.770   3.803  0.0046 -1.0436  1.1107
 8532SOL    HW237059   4.260   2.853   3.914  1.1642  0.0120  0.8790
 8533SOL     OW37060   3.421   1.129   3.424  0.1077  0.1368  0.0447
 8533SOL    HW137061   3.397   1.170   3.341  0.8331  2.7837  1.1572
 8533SOL    HW237062   3.351   1.066   3.441  0.7676 -0.4763  0.4778
 8534SOL     OW37063   4.051   3.971   3.031 -0.1069 -0.1239  0.0588
 8534SOL    HW137064   4.086   3.949   3.117 -0.7715 -1.0368  0.0967
 8534SOL    HW237065   3.981   3.905   3.027 -1.3942  1.4171 -2.5742
 8535SOL     OW37066   0.537   0.369   5.344 -0.0113 -0.4500 -0.0980
 8535SOL    HW137067   0.543   0.336   5.434 -2.4221  2.5564  1.1480
 8535SOL    HW237068   0.527   0.287   5.296 -2.0471 -0.3847  0.2350
 8536SOL     OW37069   1.485   4.005   7.646 -0.3137  0.2116  0.2533
 8536SOL    HW137070   1.491   4.099   7.664  1.4220  0.1999 -0.3069
 8536SOL    HW237071   1.473   3.997   7.551  2.1677 -1.7267  0.1052
 8537SOL     OW37072   1.163   1.792   5.002 -0.2049  0.7815 -0.8892
 8537SOL    HW137073   1.244   1.742   5.012  0.7763  2.5742  0.2421
 8537SOL    HW237074   1.140   1.779   5.094  1.0027  0.6227 -0.6023
 8538SOL     OW37075   1.500   4.643   8.103 -0.2483 -0.0537 -0.5005
 8538SOL    HW137076   1.548   4.567   8.135 -1.9883 -0.0324  2.2025
 8538SOL    HW237077   1.506   4.707   8.174 -4.0317  0.5766 -0.7162
 8539SOL     OW37078   2.863   2.769   3.373  0.2843  0.0135 -0.4294
 8539SOL    HW137079   2.878   2.675   3.361 -1.9677 -0.2791 -0.7904
 8539SOL    HW237080   2.858   2.804   3.285 -2.3351  0.9596  0.1044
 8540SOL     OW37081   0.883   3.614   2.148  0.6100 -0.2108 -0.2484
 8540SOL    HW137082   0.788   3.601   2.157  0.4990  1.2362  0.8661
 8540SOL    HW237083   0.888   3.663   2.066 -4.2423 -1.8865 -1.5683
 8541SOL     OW37084   2.220   1.678   3.704  0.2830 -0.2509  0.4790
 8541SOL    HW137085   2.212   1.724   3.788 -4.3058 -1.4109  0.6797
 8541SOL    HW237086   2.220   1.585   3.723  2.5003 -0.6048 -1.2875
 8542SOL     OW37087   2.206   1.466   7.871  0.2943 -0.1968 -0.4550
 8542SOL    HW137088   2.238   1.435   7.956 -0.2608  0.7028  0.0803
 8542SOL    HW237089   2.137   1.401   7.858  0.5155 -0.2593 -1.3070
 8543SOL     OW37090   1.584   1.247   5.736 -0.3037  0.1372 -0.1802
 8543SOL    HW137091   1.663   1.235   5.790 -0.0027  1.8002 -0.2475
 8543SOL    HW237092   1.548   1.159   5.736  0.6511 -0.2570  1.5326
 8544SOL     OW37093   2.979   2.962  15.822  0.3210 -0.4351  0.0281
 8544SOL    HW137094   3.056   2.974  15.766 -0.8481 -0.5680 -1.6070
 8544SOL    HW237095   2.997   2.874  15.854 -0.6633 -0.5201  0.3667
 8545SOL     OW37096   0.384   2.435  15.845  0.4450 -0.0454 -0.4186
 8545SOL    HW137097   0.386   2.386  15.927 -1.1682  1.9502  0.8199
 8545SOL    HW237098   0.436   2.512  15.868  1.3480  0.2193 -3.2741
 8546SOL     OW37099   4.073   2.178  11.528 -0.1771  0.6994 -0.0327
 8546SOL    HW137100   4.085   2.083  11.524 -1.4842  0.4393  1.8546
 8546SOL    HW237101   4.103   2.199  11.617 -0.3107  0.3903  0.0863
 8547SOL     OW37102   0.705   3.421  10.625 -0.5354 -0.7471 -0.5738
 8547SOL    HW137103   0.677   3.404  10.715  0.9700 -0.9691 -0.1576
 8547SOL    HW237104   0.734   3.335  10.595  1.5228  0.3544 -1.7603
 8548SOL     OW37105   4.194   4.188   6.751 -0.4544 -0.5138  0.6629
 8548SOL    HW137106   4.174   4.119   6.687  1.4879  0.1615 -0.6903
 8548SOL    HW237107   4.281   4.163   6.782  0.7108  2.0812 -0.5126
 8549SOL     OW37108   2.011   0.547   1.775  0.2067  0.1730  0.5369
 8549SOL    HW137109   2.080   0.519   1.715 -1.9363 -0.5174 -1.6270
 8549SOL    HW237110   1.979   0.622   1.724 -0.8578 -0.8215 -0.2467
 8550SOL     OW37111   3.269   1.906   9.669 -0.6932 -0.1012  0.1335
 8550SOL    HW137112   3.356   1.944   9.679  0.2703 -2.5210  0.9078
 8550SOL    HW237113   3.274   1.878   9.760 -0.5945 -1.2915 -0.2394
 8551SOL     OW37114   2.902   4.663   5.064 -0.1911  0.3376 -0.0878
 8551SOL    HW137115   2.948   4.580   5.074  0.3525  0.6261 -0.2356
 8551SOL    HW237116   2.814   4.625   5.074  0.0719 -0.2480  0.0195
 8552SOL     OW37117   3.664   3.328   5.254 -0.2753 -0.3835 -0.0284
 8552SOL    HW137118   3.640   3.404   5.202 -0.0588  1.0556  1.9485
 8552SOL    HW237119   3.741   3.295   5.208  0.1147  0.6292 -0.1108
 8553SOL     OW37120   0.193   3.924  13.128 -0.0627 -1.1671  0.5535
 8553SOL    HW137121   0.288   3.930  13.138 -0.1848  2.9252 -0.9199
 8553SOL    HW237122   0.168   4.009  13.163 -2.7710 -2.5314  1.9513
 8554SOL     OW37123   2.652   4.589   6.185 -0.3122  0.2621  0.6088
 8554SOL    HW137124   2.738   4.580   6.227  0.7626  2.3923 -1.1269
 8554SOL    HW237125   2.660   4.541   6.102  0.8295 -0.3896  1.0878
 8555SOL     OW37126   1.297   3.637   1.825 -0.1044 -0.1186 -0.1158
 8555SOL    HW137127   1.346   3.663   1.747 -2.0453  1.8689 -0.6837
 8555SOL    HW237128   1.337   3.552   1.843  2.5219  0.9645 -0.7801
 8556SOL     OW37129   4.010   0.129   4.527  0.0615 -0.2246 -0.2268
 8556SOL    HW137130   4.070   0.157   4.596  0.4283  1.7045 -1.3233
 8556SOL    HW237131   3.936   0.124   4.588 -1.5763 -0.9299 -2.2714
 8557SOL     OW37132   3.049   4.507   1.335  0.0288 -0.1628  0.5231
 8557SOL    HW137133   3.104   4.457   1.396  0.0666 -2.4597 -1.3811
 8557SOL    HW237134   2.964   4.465   1.321 -0.3422  0.3510  1.2241
 8558SOL     OW37135   2.177   3.266   8.480 -0.0800 -0.4260  0.6188
 8558SOL    HW137136   2.170   3.170   8.478 -1.3790 -0.3288  0.8919
 8558SOL    HW237137   2.267   3.283   8.508 -0.2038  0.9644  0.1472
 8559SOL     OW37138   3.124   1.032  15.684 -0.1951 -0.6035  0.1551
 8559SOL    HW137139   3.056   1.089  15.649 -1.6430 -2.8943 -0.7834
 8559SOL    HW237140   3.118   0.950  15.635  1.3070 -0.2054 -0.7087
 8560SOL     OW37141   0.520   1.228   7.441  0.3839 -0.0242 -0.3033
 8560SOL    HW137142   0.471   1.148   7.458 -2.3498  2.3398  3.0577
 8560SOL    HW237143   0.443   1.286   7.438 -0.1999 -0.7510  0.8748
 8561SOL     OW37144   4.222   2.098  11.277  0.0821  0.5608 -0.2053
 8561SOL    HW137145   4.153   2.032  11.267  2.0748 -1.6363  0.5972
 8561SOL    HW237146   4.187   2.152  11.348 -1.0952 -1.5689  0.8432
 8562SOL     OW37147   3.440   1.016   4.433 -0.0876 -0.0915  0.0483
 8562SOL    HW137148   3.467   0.926   4.416 -0.4205 -0.1285 -0.2814
 8562SOL    HW237149   3.351   1.005   4.466  0.9180 -2.6051  1.9213
 8563SOL     OW37150   2.417   1.842   5.555 -0.9620 -0.4151  0.0519
 8563SOL    HW137151   2.324   1.849   5.533 -1.3882  1.1202  2.2926
 8563SOL    HW237152   2.452   1.891   5.481  0.1070 -2.0550 -0.5032
 8564SOL     OW37153   4.271   0.049   2.693 -0.0436 -0.7289  0.3425
 8564SOL    HW137154   4.187   0.073   2.653  1.0555  1.7636 -0.4818
 8564SOL    HW237155   4.326   0.008   2.627  1.8383  1.5316  0.5116
 8565SOL     OW37156   1.537   3.954  12.557 -0.3536  0.1367  0.6474
 8565SOL    HW137157   1.465   3.990  12.505  0.2135 -1.3272 -1.1714
 8565SOL    HW237158   1.488   3.878  12.591 -0.8867 -0.6576 -1.8871
 8566SOL     OW37159   2.389   2.380  13.027 -0.5433  0.1259  0.0314
 8566SOL    HW137160   2.347   2.372  13.113 -1.8126  0.7442 -0.5361
 8566SOL    HW237161   2.326   2.438  12.985 -0.7466  0.7089  1.1251
 8567SOL     OW37162   2.212   2.823   7.817 -0.3612 -0.4269  0.2573
 8567SOL    HW137163   2.126   2.837   7.778 -0.6015 -2.1947  0.1645
 8567SOL    HW237164   2.269   2.832   7.741 -2.8767  2.6872 -1.2865
 8568SOL     OW37165   3.243   1.920   8.350  0.1320 -0.4294  0.8661
 8568SOL    HW137166   3.184   1.931   8.276 -0.0378  0.9787  1.2093
 8568SOL    HW237167   3.181   1.953   8.415  1.0741  1.8416  0.6252
 8569SOL     OW37168   1.329   4.203   2.804 -0.3199 -0.8093 -0.4607
 8569SOL    HW137169   1.281   4.230   2.725  0.0081  0.7569 -0.1226
 8569SOL    HW237170   1.414   4.181   2.766 -0.0407 -0.3975 -0.0768
 8570SOL     OW37171   4.303   2.461   6.880  0.1506  0.0949 -0.2893
 8570SOL    HW137172   4.315   2.375   6.840  1.3881 -0.1312  0.5867
 8570SOL    HW237173   4.358   2.515   6.824 -0.6780  1.5829  0.3268
 8571SOL     OW37174   0.764   3.379   3.021 -0.3191  0.1626  0.0338
 8571SOL    HW137175   0.798   3.463   2.991 -3.2414  1.1770 -0.4232
 8571SOL    HW237176   0.680   3.370   2.977 -0.8214  0.5876  0.9054
 8572SOL     OW37177   1.207   4.124  13.169 -0.0726  0.1475  0.1161
 8572SOL    HW137178   1.287   4.092  13.128  0.6025  0.7201  1.0179
 8572SOL    HW237179   1.138   4.065  13.136  0.7626  0.1170 -1.6036
 8573SOL     OW37180   2.058   1.687   7.698  0.0555  0.4601  0.0057
 8573SOL    HW137181   2.109   1.658   7.622  1.3815  0.6210  0.8420
 8573SOL    HW237182   2.106   1.645   7.770 -1.0827  0.3688  0.7026
 8574SOL     OW37183   1.307   0.163  13.288  0.1841  0.2909  0.0988
 8574SOL    HW137184   1.399   0.180  13.268  0.0481 -0.1827 -0.9346
 8574SOL    HW237185   1.308   0.067  13.284 -0.6358  0.3435 -1.1105
 8575SOL     OW37186   0.115   1.193   5.974  0.0923 -0.3356  0.0167
 8575SOL    HW137187   0.137   1.108   5.936 -1.0318 -0.1840 -1.0114
 8575SOL    HW237188   0.201   1.230   5.993  0.7047 -1.6822 -0.1388
 8576SOL     OW37189   2.347   1.883   2.488 -0.2746  0.2814 -0.0189
 8576SOL    HW137190   2.319   1.967   2.452  0.0831  0.3733 -0.0869
 8576SOL    HW237191   2.406   1.860   2.416  0.2102  0.5039  0.3098
 8577SOL     OW37192   0.910   2.308  13.726 -0.3678  0.4487 -0.7528
 8577SOL    HW137193   0.873   2.319  13.814 -1.2931 -1.7278 -0.8718
 8577SOL    HW237194   0.982   2.251  13.752 -0.0108  0.6955 -1.1961
 8578SOL     OW37195   3.624   2.911   2.938  0.1323 -0.1943 -0.1907
 8578SOL    HW137196   3.561   2.858   2.890 -0.0454 -2.9234  3.0789
 8578SOL    HW237197   3.616   2.998   2.897  1.4109  0.3498  0.7186
 8579SOL     OW37198   1.311   3.428   0.586 -0.3232 -0.1192 -0.0842
 8579SOL    HW137199   1.265   3.414   0.503  1.3534 -2.5249 -0.5957
 8579SOL    HW237200   1.237   3.416   0.645  0.4784 -1.4317  0.6429
 8580SOL     OW37201   2.228   4.045   4.334  0.0626  0.8450  0.3560
 8580SOL    HW137202   2.250   4.037   4.427 -2.4096 -1.9754  0.6888
 8580SOL    HW237203   2.158   4.110   4.334 -0.2364  0.5127 -1.8259
 8581SOL     OW37204   0.841   1.778   4.800  0.5502  0.3630  0.3947
 8581SOL    HW137205   0.867   1.870   4.788 -0.7742  1.2088  3.9582
 8581SOL    HW237206   0.807   1.797   4.887  0.7808  0.4034  0.4752
 8582SOL     OW37207   2.708   3.900   8.576  0.3285 -0.5944  0.0252
 8582SOL    HW137208   2.659   3.957   8.635 -0.4499 -0.9395 -0.2844
 8582SOL    HW237209   2.775   3.865   8.634  0.3830  0.1480  0.4064
 8583SOL     OW37210   0.430   0.316   2.267  0.4735  0.3512  0.7566
 8583SOL    HW137211   0.497   0.343   2.330  1.5320 -2.8004  0.9753
 8583SOL    HW237212   0.464   0.234   2.232 -1.4631 -1.2956  2.6857
 8584SOL     OW37213   4.006   4.278   9.711  0.3160  0.0181 -0.7558
 8584SOL    HW137214   4.079   4.339   9.725 -1.2538  1.3815  1.3942
 8584SOL    HW237215   4.004   4.267   9.616 -0.9136 -0.1957 -0.7060
 8585SOL     OW37216   2.980   3.145   6.898  0.0704 -0.3493  0.7016
 8585SOL    HW137217   3.013   3.120   6.984  0.4374 -0.3679  0.5534
 8585SOL    HW237218   2.939   3.061   6.875 -0.8721  0.0014  1.0977
 8586SOL     OW37219   3.556   3.475  11.902  0.1059 -0.6220 -0.2543
 8586SOL    HW137220   3.614   3.402  11.925 -1.4901 -1.9338 -0.3829
 8586SOL    HW237221   3.623   3.541  11.885 -2.1940  0.9147 -3.3686
 8587SOL     OW37222   4.192   0.042   8.827 -0.5347 -0.4691 -0.0363
 8587SOL    HW137223   4.215   0.132   8.805 -1.3905 -0.0904  0.6150
 8587SOL    HW237224   4.152   0.056   8.912  1.9381 -1.4150  1.2798
 8588SOL     OW37225   2.579   0.597   7.770 -0.0949 -0.0799  0.0591
 8588SOL    HW137226   2.662   0.550   7.756 -0.8940 -0.9475 -1.9187
 8588SOL    HW237227   2.554   0.543   7.845  0.1609  0.7286  0.7122
 8589SOL     OW37228   3.264   0.869  11.391  0.5867 -0.2980  0.2301
 8589SOL    HW137229   3.312   0.951  11.405 -0.1584  0.5660 -2.3784
 8589SOL    HW237230   3.311   0.828  11.319 -0.3938 -0.9336 -0.0426
 8590SOL     OW37231   0.302   0.259  15.793 -0.3807  0.1895 -0.6952
 8590SOL    HW137232   0.371   0.203  15.760  0.0494  0.9944 -1.1487
 8590SOL    HW237233   0.284   0.313  15.716 -0.7152  0.8433 -0.1721
 8591SOL     OW37234   3.908   1.742  16.835  0.2175 -0.7612  0.1060
 8591SOL    HW137235   3.875   1.736  16.925 -0.6783  0.5589 -0.1275
 8591SOL    HW237236   3.923   1.837  16.836 -0.6843 -0.6203  0.3911
 8592SOL     OW37237   2.344   2.508   5.009 -0.0237 -0.3144 -0.8820
 8592SOL    HW137238   2.319   2.423   5.045 -3.2852 -0.0091 -2.4004
 8592SOL    HW237239   2.433   2.517   5.042 -0.7902  0.8916  0.8601
 8593SOL     OW37240   4.483   3.605   3.726 -0.4828  0.2176 -0.5215
 8593SOL    HW137241   4.510   3.626   3.815  0.4063  2.5769 -1.3362
 8593SOL    HW237242   4.422   3.533   3.739 -0.4402  0.2162 -0.3274
 8594SOL     OW37243   1.740   0.859   8.723  0.1570 -0.2740  0.0697
 8594SOL    HW137244   1.683   0.935   8.724 -0.8809 -1.0599  0.2456
 8594SOL    HW237245   1.747   0.834   8.631 -0.2643  2.0674 -0.6040
 8595SOL     OW37246   1.909   3.056  17.555 -0.0769  0.0972 -0.2374
 8595SOL    HW137247   1.883   3.043  17.646  1.6441 -0.6936  0.1420
 8595SOL    HW237248   1.878   2.975  17.515  0.7683 -0.0022 -0.6784
 8596SOL     OW37249   4.000   2.491   6.942 -0.2198 -0.7264  0.3395
 8596SOL    HW137250   3.994   2.537   7.026  0.3989 -1.0821  0.5756
 8596SOL    HW237251   4.088   2.456   6.934  0.4212  1.0164 -0.2607
 8597SOL     OW37252   0.146   1.810   9.272  0.0591 -0.4222 -0.4926
 8597SOL    HW137253   0.077   1.775   9.329 -0.2849  1.0167 -0.0274
 8597SOL    HW237254   0.114   1.892   9.237 -1.4925 -0.7865  0.0991
 8598SOL     OW37255   0.693   2.751  13.141 -0.0534  0.1768 -0.5081
 8598SOL    HW137256   0.617   2.696  13.128 -0.3234 -0.2064  2.7252
 8598SOL    HW237257   0.754   2.690  13.182  1.0563  1.0196 -0.8916
 8599SOL     OW37258   1.952   4.539   7.216  0.0120  0.1848 -0.4132
 8599SOL    HW137259   1.959   4.483   7.139 -2.0468  0.4743 -0.8218
 8599SOL    HW237260   1.893   4.488   7.271 -0.7047  0.8955 -0.5099
 8600SOL     OW37261   4.399   0.859  16.990  0.2443  0.7555  0.5458
 8600SOL    HW137262   4.493   0.842  16.984 -0.4389 -3.0011  0.8279
 8600SOL    HW237263   4.387   0.783  17.047 -0.9000  0.2415 -0.3872
 8601SOL     OW37264   1.823   4.064  14.891 -0.3606 -0.6194 -0.0266
 8601SOL    HW137265   1.775   4.140  14.860  0.5082 -1.3174 -3.0569
 8601SOL    HW237266   1.858   4.029  14.809  1.4733 -2.0802  1.3804
 8602SOL     OW37267   1.956   1.384   2.552 -0.2017 -0.4304  0.2743
 8602SOL    HW137268   1.888   1.437   2.511 -0.2852  0.5688  1.6997
 8602SOL    HW237269   2.007   1.359   2.476 -1.3707  2.4865 -1.4456
 8603SOL     OW37270   2.247   2.029   3.006  0.8513  0.2070 -0.9566
 8603SOL    HW137271   2.207   1.945   3.029 -1.8984  1.3113 -1.8351
 8603SOL    HW237272   2.227   2.030   2.913  3.0821 -1.4057 -1.4581
 8604SOL     OW37273   0.330   1.379   6.067 -0.0052  0.1484 -0.0900
 8604SOL    HW137274   0.346   1.387   5.973 -2.6315 -0.0854 -0.5553
 8604SOL    HW237275   0.258   1.441   6.076  0.5730  0.4974  2.1609
 8605SOL     OW37276   4.296   0.694   6.300  0.0777  0.4214  0.2137
 8605SOL    HW137277   4.217   0.683   6.246  0.8480 -0.0226 -0.8440
 8605SOL    HW237278   4.312   0.602   6.321 -0.2539  0.7292  1.7989
 8606SOL     OW37279   0.945   4.365   6.759 -0.1514  0.2135  0.5001
 8606SOL    HW137280   0.921   4.425   6.830  1.4767  2.3282 -0.7368
 8606SOL    HW237281   0.945   4.286   6.813 -1.4379 -0.3652 -0.3475
 8607SOL     OW37282   4.189   1.482  17.292 -0.2786  0.6553 -0.4684
 8607SOL    HW137283   4.105   1.524  17.309 -0.7860  0.0192 -1.3720
 8607SOL    HW237284   4.166   1.451  17.204  0.8323  0.3514 -0.6513
 8608SOL     OW37285   0.539   1.453   7.076  0.4879  0.2768  0.2452
 8608SOL    HW137286   0.605   1.425   7.139 -0.3832 -1.0164  0.5698
 8608SOL    HW237287   0.551   1.376   7.021 -1.3000  1.6055 -2.0025
 8609SOL     OW37288   1.203   0.185   2.933  0.3269  0.2055 -0.2958
 8609SOL    HW137289   1.231   0.165   2.844 -2.0545 -1.4829 -0.6558
 8609SOL    HW237290   1.169   0.274   2.923  1.6440  0.7290 -0.0782
 8610SOL     OW37291   2.621   2.241   2.922  0.0963  0.6352  0.0212
 8610SOL    HW137292   2.623   2.330   2.888  1.0527 -0.0564 -1.7074
 8610SOL    HW237293   2.554   2.248   2.990 -0.6763  3.0896 -1.0141
 8611SOL     OW37294   0.512   2.371  11.335  0.4966 -0.3441  0.5294
 8611SOL    HW137295   0.522   2.320  11.255  0.5931 -1.1750  1.0722
 8611SOL    HW237296   0.601   2.403  11.350 -0.0960 -0.2181  3.9012
 8612SOL     OW37297   4.081   3.660   0.770  0.4708  0.1759 -0.4859
 8612SOL    HW137298   4.172   3.651   0.743  0.2396 -2.1878 -0.5063
 8612SOL    HW237299   4.077   3.753   0.790  2.4959  0.2051 -0.2640
 8613SOL     OW37300   0.594   4.437  13.425  0.4524 -0.7870 -0.0921
 8613SOL    HW137301   0.550   4.358  13.455  0.5177  1.0648  4.8619
 8613SOL    HW237302   0.531   4.474  13.364  0.4908  1.6817  1.3455
 8614SOL     OW37303   2.610   1.056   3.162  0.2200  0.4019 -0.3813
 8614SOL    HW137304   2.666   0.979   3.165  3.4502  2.7733  0.6078
 8614SOL    HW237305   2.593   1.071   3.255  0.9454 -0.7923 -0.0681
 8615SOL     OW37306   3.026   1.968   9.558 -0.2185  0.0234  0.2206
 8615SOL    HW137307   3.104   1.995   9.606 -0.7964  0.2664  1.0242
 8615SOL    HW237308   3.035   1.873   9.554 -1.6657 -0.1335  0.5666
 8616SOL     OW37309   1.431   1.961   4.750 -0.0336 -0.1586  0.3727
 8616SOL    HW137310   1.512   2.013   4.752 -0.0720 -0.0237 -1.4147
 8616SOL    HW237311   1.379   2.011   4.687 -0.8654 -1.1545  0.2806
 8617SOL     OW37312   3.176   4.629  10.700 -0.0041 -0.2881 -0.0266
 8617SOL    HW137313   3.234   4.671  10.764  0.0849 -0.5494  0.0632
 8617SOL    HW237314   3.179   4.536  10.722  1.5210 -0.3709 -0.5308
 8618SOL     OW37315   0.708   4.352   7.497  0.3250  0.1272  0.6034
 8618SOL    HW137316   0.764   4.403   7.555  1.4461  1.0769 -1.3032
 8618SOL    HW237317   0.668   4.412   7.434 -0.6031 -1.7015 -0.5550
 8619SOL     OW37318   2.565   2.312  10.864  0.8729  0.0560 -1.1386
 8619SOL    HW137319   2.492   2.337  10.808 -1.6700 -3.5376  0.5603
 8619SOL    HW237320   2.601   2.390  10.906  0.0976 -0.4913  0.5758
 8620SOL     OW37321   2.249   1.609  13.831 -0.3164  0.3780  0.0646
 8620SOL    HW137322   2.266   1.556  13.753  0.1219  0.7075 -0.0636
 8620SOL    HW237323   2.188   1.674  13.797  2.4994  1.4329 -2.9947
 8621SOL     OW37324   3.382   3.723  16.895  0.0853 -0.4925 -0.3651
 8621SOL    HW137325   3.335   3.657  16.946  0.3718 -1.3943 -1.2908
 8621SOL    HW237326   3.387   3.806  16.942  0.9443 -0.6696 -0.1493
 8622SOL     OW37327   1.531   4.337   6.616 -0.0351 -0.0385 -0.2200
 8622SOL    HW137328   1.599   4.287   6.572  1.2129  0.0496  1.5871
 8622SOL    HW237329   1.488   4.272   6.671 -1.5947  0.6319 -0.6257
 8623SOL     OW37330   1.365   4.724   4.336  0.0060  0.2863 -0.3097
 8623SOL    HW137331   1.460   0.012   4.326  0.0867  1.3065  1.7034
 8623SOL    HW237332   1.344   0.081   4.382  1.1560  0.2446  0.2875
 8624SOL     OW37333   0.296   0.797   5.232 -0.3018 -0.0469 -0.4536
 8624SOL    HW137334   0.289   0.735   5.160 -2.0703 -0.2067 -0.1506
 8624SOL    HW237335   0.342   0.748   5.299  0.0315  1.0147  0.0932
 8625SOL     OW37336   1.791   2.949   5.214 -0.5377  0.5037 -0.0473
 8625SOL    HW137337   1.832   3.020   5.264  0.9846 -2.1809  2.4799
 8625SOL    HW237338   1.840   2.876   5.251 -0.9951 -0.1663 -0.7551
 8626SOL     OW37339   3.144   3.698   7.548  0.1183 -0.5320  0.4440
 8626SOL    HW137340   3.121   3.696   7.455  2.4028  1.6573 -0.1423
 8626SOL    HW237341   3.159   3.791   7.564 -0.9216 -0.3983  0.6402
 8627SOL     OW37342   0.728   0.954   2.743 -0.3291 -0.0613 -1.1042
 8627SOL    HW137343   0.722   0.970   2.649 -0.2222  2.5252 -0.6618
 8627SOL    HW237344   0.699   0.863   2.740 -0.1982 -0.2171  2.0012
 8628SOL     OW37345   0.969   0.587   3.401 -0.6282  0.4526  0.4058
 8628SOL    HW137346   1.059   0.574   3.433 -0.8377  1.9903  1.6215
 8628SOL    HW237347   0.990   0.592   3.308  2.8736 -2.4474  1.0550
 8629SOL     OW37348   4.122   0.989   7.547 -0.4984 -0.2075  0.3768
 8629SOL    HW137349   4.128   0.905   7.502 -0.2938 -0.3355  0.6428
 8629SOL    HW237350   4.199   0.990   7.604 -0.3145  2.0543  0.1020
 8630SOL     OW37351   4.330   1.522  11.926 -0.3130  0.8640 -0.4041
 8630SOL    HW137352   4.288   1.526  12.012 -0.3824 -2.5132 -0.2746
 8630SOL    HW237353   4.412   1.565  11.949 -0.4429  0.5053  0.7316
 8631SOL     OW37354   3.739   3.311  16.523  0.0686 -0.2819  0.4712
 8631SOL    HW137355   3.718   3.402  16.502  1.3217  0.1538  1.0836
 8631SOL    HW237356   3.831   3.328  16.544 -0.0124  0.4717  0.2427
 8632SOL     OW37357   1.794   1.247   2.924 -0.3068  0.3132 -0.0823
 8632SOL    HW137358   1.817   1.336   2.897  0.2346  0.3459  0.4967
 8632SOL    HW237359   1.732   1.255   2.997  0.5286  0.9808  0.5579
 8633SOL     OW37360   3.785   0.021   3.454 -0.1857  0.2472  0.5842
 8633SOL    HW137361   3.878   0.044   3.451 -0.6633  2.1268  0.5488
 8633SOL    HW237362   3.772   0.019   3.359  1.2987 -2.8910  0.4374
 8634SOL     OW37363   3.445   3.246   9.670  0.6272 -0.3565 -0.6030
 8634SOL    HW137364   3.401   3.197   9.739  1.2865  1.0025  0.7915
 8634SOL    HW237365   3.421   3.336   9.692  0.0306 -1.5878  3.7948
 8635SOL     OW37366   2.596   1.213   5.802 -0.0096  0.1201 -0.2926
 8635SOL    HW137367   2.617   1.300   5.833 -0.9363 -0.4952  2.0420
 8635SOL    HW237368   2.561   1.232   5.715  0.3393  1.1016 -0.2082
 8636SOL     OW37369   1.992   3.568   1.702 -0.3795 -0.5765 -0.3122
 8636SOL    HW137370   1.966   3.492   1.650 -1.4691  0.2826 -1.0209
 8636SOL    HW237371   1.985   3.537   1.792  0.3106  1.2697  0.3768
 8637SOL     OW37372   0.838   3.783   7.730  0.2149  0.2695 -0.5346
 8637SOL    HW137373   0.824   3.693   7.699 -1.1895  1.0006 -2.0222
 8637SOL    HW237374   0.922   3.810   7.694  0.7252 -2.8837 -1.7092
 8638SOL     OW37375   1.817   4.345   2.358  0.0793  0.2860  0.0729
 8638SOL    HW137376   1.876   4.278   2.393 -1.0704 -0.6644  0.1568
 8638SOL    HW237377   1.832   4.412   2.424 -2.1597  0.5902  0.2647
 8639SOL     OW37378   1.499   2.379  13.207 -0.0121 -0.3259 -0.3691
 8639SOL    HW137379   1.536   2.404  13.123 -0.2522  0.5379 -0.2112
 8639SOL    HW237380   1.581   2.359  13.253  0.4386 -0.2396 -1.1443
 8640SOL     OW37381   0.319   2.216  10.872 -0.1246  0.0677 -0.0205
 8640SOL    HW137382   0.271   2.198  10.952 -0.4836 -1.7533 -0.6408
 8640SOL    HW237383   0.251   2.180  10.815  2.0307 -2.5781 -0.9302
 8641SOL     OW37384   2.148   0.449   7.430  0.3947 -0.3504 -0.0208
 8641SOL    HW137385   2.162   0.417   7.519  2.1320 -0.4611 -0.3417
 8641SOL    HW237386   2.190   0.535   7.430  0.6555 -0.4780  0.9647
 8642SOL     OW37387   2.321   4.436   8.017 -0.1023  0.5959 -0.3223
 8642SOL    HW137388   2.260   4.404   8.083 -0.2816 -0.4151 -0.9681
 8642SOL    HW237389   2.331   4.361   7.958 -0.8246  0.4500 -0.2596
 8643SOL     OW37390   4.319   3.645   3.017  0.6763  0.1065 -0.0267
 8643SOL    HW137391   4.324   3.738   2.994  0.4059  0.3022  0.7094
 8643SOL    HW237392   4.412   3.633   3.035  0.8969 -1.8953 -2.4864
 8644SOL     OW37393   0.737   2.709   3.583  0.3115 -0.0811 -0.1370
 8644SOL    HW137394   0.661   2.657   3.558  0.1953 -0.8506  1.8584
 8644SOL    HW237395   0.704   2.799   3.583  0.6479  0.0404  1.8294
 8645SOL     OW37396   2.451   4.048   5.805 -0.3325 -0.3348  0.5213
 8645SOL    HW137397   2.453   4.131   5.758  2.9188 -1.4841 -1.3723
 8645SOL    HW237398   2.446   4.075   5.896  1.2221  0.3135  0.4075
 8646SOL     OW37399   3.494   4.393   5.617  0.8203  0.1153  0.7178
 8646SOL    HW137400   3.538   4.436   5.544  0.1342 -0.2710  0.0844
 8646SOL    HW237401   3.413   4.441   5.633  1.1968  0.7399  0.7619
 8647SOL     OW37402   1.140   1.010   1.306 -0.4107  0.0402 -0.3429
 8647SOL    HW137403   1.105   0.956   1.235 -2.4327  1.5772 -0.5184
 8647SOL    HW237404   1.088   0.975   1.378  1.3718 -0.0841  0.8944
 8648SOL     OW37405   2.686   4.205   9.349  0.4137  0.1481 -0.2611
 8648SOL    HW137406   2.709   4.115   9.326 -0.7413 -0.1875 -0.1054
 8648SOL    HW237407   2.739   4.222   9.426  0.3204 -1.1490  0.0928
 8649SOL     OW37408   0.864   0.722   7.268  0.7793 -0.3301  0.2467
 8649SOL    HW137409   0.856   0.632   7.300 -0.1502 -1.0314 -2.0170
 8649SOL    HW237410   0.912   0.758   7.343  1.4891  0.9261 -0.8138
 8650SOL     OW37411   2.859   3.471  14.851 -0.4218 -0.2124 -0.2551
 8650SOL    HW137412   2.894   3.528  14.782 -0.1579 -0.8299 -0.6357
 8650SOL    HW237413   2.922   3.399  14.852  0.9679  1.0009 -0.1300
 8651SOL     OW37414   4.606   4.086   8.152  0.3024  0.2605 -0.2676
 8651SOL    HW137415   4.656   4.005   8.162 -0.4405  0.1375  2.5681
 8651SOL    HW237416   4.529   4.049   8.109  1.4902  0.4708 -2.5674
 8652SOL     OW37417   3.923   4.275   3.096 -0.1977  0.1016  0.3622
 8652SOL    HW137418   3.922   4.182   3.072 -1.1053 -0.2339  1.6821
 8652SOL    HW237419   4.010   4.300   3.064  0.0902 -1.2536  0.0659
 8653SOL     OW37420   2.388   0.403  13.372  0.4550 -0.0116 -0.5444
 8653SOL    HW137421   2.372   0.338  13.304 -0.9546  0.9549 -1.1290
 8653SOL    HW237422   2.319   0.468  13.356  0.5618  0.0557 -0.7383
 8654SOL     OW37423   3.645   3.245  12.723 -0.4016 -0.3302 -0.6687
 8654SOL    HW137424   3.641   3.337  12.749  1.6854 -0.2142 -0.7668
 8654SOL    HW237425   3.665   3.203  12.807  1.6750  0.2007 -0.8801
 8655SOL     OW37426   1.970   0.636  15.718  0.0709  0.9377  0.1502
 8655SOL    HW137427   1.957   0.715  15.771  0.3109  0.2467  1.2463
 8655SOL    HW237428   2.051   0.602  15.755 -0.1704  2.6946  2.3033
 8656SOL     OW37429   3.592   4.599   2.139 -0.2547 -0.2164  0.1066
 8656SOL    HW137430   3.624   4.553   2.061 -3.3397 -0.2863 -1.1330
 8656SOL    HW237431   3.498   4.603   2.120 -0.1507  1.2623 -0.0978
 8657SOL     OW37432   1.074   3.355   8.395 -1.0747 -0.4298 -1.0563
 8657SOL    HW137433   1.003   3.295   8.419 -1.6756  0.9238  0.4966
 8657SOL    HW237434   1.130   3.309   8.332 -2.5895 -0.7878 -2.1432
 8658SOL     OW37435   3.943   2.710   1.438 -0.0790  0.4082 -0.1100
 8658SOL    HW137436   3.902   2.625   1.422 -1.8768  1.2450  0.1018
 8658SOL    HW237437   3.880   2.769   1.398 -1.1956 -2.4653 -2.5464
 8659SOL     OW37438   2.462   4.414   1.972  0.4251 -0.1319  0.5020
 8659SOL    HW137439   2.427   4.347   2.030  0.6522 -1.4172 -0.8484
 8659SOL    HW237440   2.407   4.406   1.895 -0.0160 -0.3164  0.8386
 8660SOL     OW37441   0.777   2.003   1.986 -0.1834 -0.2912 -0.2697
 8660SOL    HW137442   0.799   2.000   1.893 -1.6801 -1.6394 -0.6029
 8660SOL    HW237443   0.849   2.057   2.018 -0.1568  0.2503 -1.2523
 8661SOL     OW37444   4.022   4.141   7.906 -0.3259  0.0413  0.7253
 8661SOL    HW137445   3.970   4.108   7.979 -1.6243  1.0936  0.2781
 8661SOL    HW237446   3.958   4.198   7.863 -1.8759 -1.0247  1.6129
 8662SOL     OW37447   0.422   3.609   4.044 -0.3584 -0.2126  0.1646
 8662SOL    HW137448   0.484   3.581   4.112  0.2867  0.3784 -0.1815
 8662SOL    HW237449   0.431   3.530   3.990 -0.7716 -0.1149 -0.0445
 8663SOL     OW37450   0.792   0.892   5.685  0.1018 -0.4487 -0.0370
 8663SOL    HW137451   0.880   0.922   5.661 -0.4763  1.4960  0.2059
 8663SOL    HW237452   0.747   0.881   5.601  3.5118 -1.2069 -1.7905
 8664SOL     OW37453   1.450   1.357   4.217 -0.2962 -0.8377 -0.1960
 8664SOL    HW137454   1.368   1.389   4.180  1.4710  1.8827 -1.7715
 8664SOL    HW237455   1.495   1.440   4.234  0.4426 -1.5603  1.3945
 8665SOL     OW37456   1.364   3.893  10.652 -0.5501  0.1653 -0.3034
 8665SOL    HW137457   1.279   3.864  10.618 -1.0822 -0.8108  1.9012
 8665SOL    HW237458   1.364   3.845  10.734 -1.0669  3.6373  1.7430
 8666SOL     OW37459   1.544   1.739   4.464 -0.3118  0.4402 -0.0188
 8666SOL    HW137460   1.560   1.668   4.401 -3.4148 -0.3448  0.1081
 8666SOL    HW237461   1.449   1.736   4.470 -0.3004 -2.9488 -1.2744
 8667SOL     OW37462   4.565   3.736   1.428  0.2537 -0.0587  0.1051
 8667SOL    HW137463   4.487   3.793   1.430  0.8625  0.7907 -0.3717
 8667SOL    HW237464   4.566   3.716   1.521  1.6214 -0.5492 -0.0226
 8668SOL     OW37465   2.370   0.397   1.383 -0.3393 -0.5322 -0.4912
 8668SOL    HW137466   2.327   0.342   1.317  0.2322  0.2386 -1.5170
 8668SOL    HW237467   2.431   0.453   1.334  0.2468  0.3286  1.2426
 8669SOL     OW37468   3.375   1.561   6.205 -0.4007  0.4305 -0.2305
 8669SOL    HW137469   3.381   1.656   6.212 -2.0783  0.3377  2.2739
 8669SOL    HW237470   3.336   1.533   6.287 -1.8036  1.5787 -0.5060
 8670SOL     OW37471   2.537   3.826   5.916  0.4346 -0.2553  0.0917
 8670SOL    HW137472   2.495   3.882   5.850  0.0027  0.7178  1.1843
 8670SOL    HW237473   2.545   3.886   5.991  2.1483 -0.6367  0.1981
 8671SOL     OW37474   0.318   1.751  16.732 -0.1261  0.1981 -0.1195
 8671SOL    HW137475   0.346   1.816  16.667  0.8095 -0.2348 -0.1560
 8671SOL    HW237476   0.225   1.747  16.709 -0.2308 -0.6368  0.4389
 8672SOL     OW37477   3.789   3.167   1.328  0.0311 -0.3754 -0.1967
 8672SOL    HW137478   3.853   3.199   1.264 -0.0259  0.7027  0.2875
 8672SOL    HW237479   3.739   3.241   1.363  0.6184 -0.0521 -0.0502
 8673SOL     OW37480   0.751   3.020   4.401 -0.1818 -0.6025  0.6285
 8673SOL    HW137481   0.724   2.991   4.313 -0.4762  2.3383 -0.2475
 8673SOL    HW237482   0.688   2.981   4.461  0.7907 -0.7967  1.5214
 8674SOL     OW37483   2.091   0.211   0.206 -0.0970  0.0721  0.1993
 8674SOL    HW137484   2.088   0.306   0.215 -1.8998 -0.2566  3.0447
 8674SOL    HW237485   2.138   0.174   0.282 -0.0866  0.0469  0.1808
 8675SOL     OW37486   4.249   0.284   8.742 -0.1224  0.3505  0.8633
 8675SOL    HW137487   4.181   0.327   8.691 -1.3459 -2.2194  0.3152
 8675SOL    HW237488   4.330   0.325   8.714 -0.8777  2.1716  1.3110
 8676SOL     OW37489   2.951   0.178   4.943 -0.5653 -0.3123 -0.1043
 8676SOL    HW137490   2.920   0.105   4.997 -0.4169 -0.6715 -0.5062
 8676SOL    HW237491   2.988   0.116   4.881  0.7928  0.8050 -0.4067
 8677SOL     OW37492   1.971   4.171   2.474 -0.1536 -0.3448 -0.5658
 8677SOL    HW137493   2.067   4.167   2.479 -0.2055 -2.1651 -0.8034
 8677SOL    HW237494   1.948   4.095   2.527  0.4707  1.0944  1.7551
 8678SOL     OW37495   0.878   1.883  12.837 -0.2533  0.3798 -0.0327
 8678SOL    HW137496   0.854   1.835  12.915 -1.8070  2.1097  0.5611
 8678SOL    HW237497   0.841   1.819  12.776 -3.3378  1.1493  1.0032
 8679SOL     OW37498   1.020   1.539   8.938 -0.0159  0.0328 -0.5446
 8679SOL    HW137499   1.077   1.502   8.870  3.7809 -0.6958  2.9894
 8679SOL    HW237500   1.048   1.630   8.926  2.2933 -0.7640 -1.2393
 8680SOL     OW37501   3.577   2.933   5.370  0.2802 -0.1337  0.1910
 8680SOL    HW137502   3.601   2.928   5.462 -0.5141 -2.1864  0.3081
 8680SOL    HW237503   3.528   3.014   5.362  2.0290  0.9367  0.4224
 8681SOL     OW37504   3.132   0.989  16.005 -0.1059  0.1636 -0.0041
 8681SOL    HW137505   3.190   0.962  15.934 -0.0479  0.7490 -0.1827
 8681SOL    HW237506   3.189   1.040  16.062  1.4680 -3.5000  1.6887
 8682SOL     OW37507   3.803   4.571   4.298 -0.4539 -0.0518 -0.8274
 8682SOL    HW137508   3.757   4.618   4.228 -2.6467  0.6130  1.0459
 8682SOL    HW237509   3.761   4.616   4.372  2.7288  0.3278  0.7172
 8683SOL     OW37510   2.158   4.212   0.556 -0.2810 -0.4729 -1.0955
 8683SOL    HW137511   2.115   4.270   0.493  1.4480  2.8158  0.7459
 8683SOL    HW237512   2.249   4.235   0.535 -0.1778 -1.2511 -1.5188
 8684SOL     OW37513   3.714   2.223   0.989  0.4962 -0.0397 -0.0015
 8684SOL    HW137514   3.770   2.147   0.970  2.6169  1.7275 -0.9061
 8684SOL    HW237515   3.744   2.284   0.921  0.9911  1.5526  1.6427
 8685SOL     OW37516   2.830   1.842   8.461 -0.1456  0.4945 -0.1317
 8685SOL    HW137517   2.766   1.852   8.390 -0.3705 -2.4744 -0.3252
 8685SOL    HW237518   2.828   1.747   8.470  0.1142  0.7358  2.4345
 8686SOL     OW37519   4.617   2.020  12.252 -0.1968  0.5615 -0.0241
 8686SOL    HW137520   4.561   1.971  12.312  0.6352  0.5330  0.7329
 8686SOL    HW237521   4.549   2.038  12.187  0.0755 -3.5529 -1.4488
 8687SOL     OW37522   4.485   4.548  14.833  0.5875  0.0609  0.4925
 8687SOL    HW137523   4.460   4.565  14.924 -0.6947 -1.1699  0.3761
 8687SOL    HW237524   4.544   4.473  14.843 -1.8006 -1.8598  0.4877
 8688SOL     OW37525   2.225   1.582   5.591  0.1480 -0.2139  0.2491
 8688SOL    HW137526   2.133   1.607   5.605 -0.4892 -2.6677  0.4628
 8688SOL    HW237527   2.238   1.656   5.532  2.1476 -2.9666 -2.7080
 8689SOL     OW37528   1.387   0.396  17.024 -0.0763  0.0818 -0.1859
 8689SOL    HW137529   1.404   0.369  17.114  0.2818  0.1392 -0.2353
 8689SOL    HW237530   1.304   0.350  17.012  1.2262 -1.8863 -1.7264
 8690SOL     OW37531   3.586   2.396   4.893 -0.1384 -0.6117 -0.2021
 8690SOL    HW137532   3.679   2.414   4.878  0.0670  0.2757  1.9914
 8690SOL    HW237533   3.590   2.404   4.989 -1.1159  0.3534 -0.2417
 8691SOL     OW37534   2.156   0.811   4.638  0.1566  0.0432  0.3914
 8691SOL    HW137535   2.130   0.719   4.636  1.3943 -0.2985  0.3420
 8691SOL    HW237536   2.078   0.846   4.595  0.9648 -0.2894 -1.3353
 8692SOL     OW37537   1.070   3.733   6.892  0.1082  0.3960 -0.2227
 8692SOL    HW137538   1.131   3.660   6.903 -0.6126  0.0562  1.4586
 8692SOL    HW237539   0.991   3.686   6.867  0.2190  0.9786 -1.6955
 8693SOL     OW37540   3.885   4.085   6.470  0.0479 -0.4465 -0.1975
 8693SOL    HW137541   3.834   4.006   6.488 -2.7393  1.1909 -0.9622
 8693SOL    HW237542   3.973   4.062   6.502  0.0096  0.5020  0.5967
 8694SOL     OW37543   4.561   0.811   2.665 -0.5501 -0.2359 -0.0859
 8694SOL    HW137544   4.638   0.861   2.639 -0.1107  0.4280  2.4323
 8694SOL    HW237545   4.603   0.731   2.698  2.2989  0.9431 -0.8111
 8695SOL     OW37546   1.196   4.581   3.838  0.1178 -0.3709 -0.1287
 8695SOL    HW137547   1.144   4.657   3.812 -0.6179 -0.1132  2.0563
 8695SOL    HW237548   1.131   4.521   3.875  0.3968 -0.5481  0.0757
 8696SOL     OW37549   2.209   2.835   6.413 -0.2704 -0.1363  0.2762
 8696SOL    HW137550   2.128   2.795   6.382 -1.0721  0.0006  2.1973
 8696SOL    HW237551   2.269   2.760   6.422 -0.7020 -0.4878  0.2025
 8697SOL     OW37552   4.476   3.390   5.580  0.2920  0.4894 -0.1012
 8697SOL    HW137553   4.472   3.336   5.659 -1.4452  3.8620  2.1203
 8697SOL    HW237554   4.383   3.386   5.558  0.7661  2.6081 -2.4518
 8698SOL     OW37555   4.262   0.071  17.064 -0.6156 -0.0444  0.2780
 8698SOL    HW137556   4.167   0.073  17.052 -0.6761 -0.9651  0.5598
 8698SOL    HW237557   4.265   0.123  17.144 -0.1323  0.2893  0.0465
 8699SOL     OW37558   1.897   1.070   7.628 -0.4061 -0.5348  0.6118
 8699SOL    HW137559   1.814   1.026   7.646 -1.0600  0.6667  0.5396
 8699SOL    HW237560   1.856   1.156   7.642  1.0372 -0.0878  2.1345
 8700SOL     OW37561   4.009   3.384  16.558  0.2879 -0.7543 -0.2125
 8700SOL    HW137562   4.037   3.354  16.645  2.4696  0.2172 -0.5889
 8700SOL    HW237563   4.078   3.348  16.502  1.4538 -0.8628  1.2877
 8701SOL     OW37564   4.626   2.783   3.142 -0.5166 -0.2288  0.2171
 8701SOL    HW137565   4.546   2.779   3.194  1.3909 -1.6983  3.0303
 8701SOL    HW237566   4.586   2.813   3.060  0.2125 -2.1046 -0.8349
 8702SOL     OW37567   0.838   3.256   4.946  0.0378  0.7343 -0.1570
 8702SOL    HW137568   0.751   3.284   4.973 -0.0972 -1.7925  2.0724
 8702SOL    HW237569   0.884   3.336   4.970 -0.5630  0.6138  1.3583
 8703SOL     OW37570   4.601   1.014  13.720  0.5829  0.0877  0.8260
 8703SOL    HW137571   4.632   1.105  13.727  2.9481 -0.6629  0.2480
 8703SOL    HW237572   4.510   1.026  13.746  0.4689 -1.7704  1.2389
 8704SOL     OW37573   3.596   2.257   9.665 -0.0800  0.1247 -0.2541
 8704SOL    HW137574   3.611   2.330   9.605 -2.6060  1.1759  0.4166
 8704SOL    HW237575   3.593   2.305   9.748  1.0585  0.6211 -0.4943
 8705SOL     OW37576   1.270   2.956   2.262  0.2327 -0.1960 -0.0832
 8705SOL    HW137577   1.283   2.940   2.168 -1.8627 -0.0609 -0.3999
 8705SOL    HW237578   1.340   3.020   2.276 -0.5806  0.0953  2.6533
 8706SOL     OW37579   4.583   0.412   7.253  0.1926  0.2391  0.1462
 8706SOL    HW137580   4.631   0.337   7.288  0.0807  0.9579  1.8377
 8706SOL    HW237581   4.626   0.421   7.168  1.1227 -0.9792  0.4926
 8707SOL     OW37582   1.495   3.722   9.745  0.4123 -0.7168 -0.2128
 8707SOL    HW137583   1.480   3.740   9.838 -0.8064 -3.8699  0.2154
 8707SOL    HW237584   1.478   3.628   9.746 -1.9533 -0.3105 -1.5785
 8708SOL     OW37585   3.508   1.602  14.218  0.1956  0.4450  0.5645
 8708SOL    HW137586   3.563   1.535  14.176  0.3357  1.1621 -0.4015
 8708SOL    HW237587   3.541   1.608  14.307 -1.3225  1.5092  1.0493
 8709SOL     OW37588   0.597   2.108   5.471 -0.1016  0.5872 -0.9810
 8709SOL    HW137589   0.675   2.146   5.432 -1.6628  2.6934 -2.0200
 8709SOL    HW237590   0.636   2.052   5.538 -0.6806 -1.7716 -2.6162
 8710SOL     OW37591   0.547   4.487   1.710  0.6186 -0.1061 -0.1329
 8710SOL    HW137592   0.638   4.468   1.688  0.1287 -1.0960 -1.2795
 8710SOL    HW237593   0.524   4.545   1.637  0.3549 -0.1986 -0.1234
 8711SOL     OW37594   1.362   1.410  14.195 -0.4801 -0.1712  0.5029
 8711SOL    HW137595   1.338   1.358  14.271  0.0030  0.9431  1.4262
 8711SOL    HW237596   1.271   1.415  14.169 -0.1844  0.9894 -0.3143
 8712SOL     OW37597   2.721   1.991   7.687  0.7503  0.3217  0.1753
 8712SOL    HW137598   2.690   2.005   7.597 -1.2478 -2.3715  0.4139
 8712SOL    HW237599   2.811   1.968   7.664  0.2972 -0.2853 -0.9868
 8713SOL     OW37600   1.868   3.908   4.090  0.0693  0.1319  0.1025
 8713SOL    HW137601   1.887   3.973   4.022 -0.8850  2.7258  2.2850
 8713SOL    HW237602   1.820   3.966   4.149  0.0799 -0.7547  0.9933
 8714SOL     OW37603   2.879   0.485  12.336 -0.5288 -0.5329 -0.2816
 8714SOL    HW137604   2.964   0.464  12.374 -0.5816 -1.8897 -0.9169
 8714SOL    HW237605   2.889   0.559  12.276 -0.3056  1.1878  1.8748
 8715SOL     OW37606   0.495   3.237   2.930 -0.1940  0.4302 -0.5118
 8715SOL    HW137607   0.538   3.181   2.995 -0.3065  1.9990  0.8776
 8715SOL    HW237608   0.414   3.261   2.974 -0.2284  0.3853 -0.5491
 8716SOL     OW37609   3.351   2.127   2.940  0.6061  0.3125 -0.7269
 8716SOL    HW137610   3.430   2.181   2.944  0.1074  0.7730  2.8380
 8716SOL    HW237611   3.287   2.169   2.882  0.8714 -1.7903 -2.5049
 8717SOL     OW37612   2.411   3.907   0.373 -0.5854 -0.0629  0.1059
 8717SOL    HW137613   2.439   3.920   0.464 -0.4055  0.1462  0.0188
 8717SOL    HW237614   2.484   3.942   0.322 -0.4812  0.1444  0.3978
 8718SOL     OW37615   2.938   3.687   3.482  0.4019 -0.1145 -0.2631
 8718SOL    HW137616   2.964   3.768   3.525  1.3813  1.3873 -3.6797
 8718SOL    HW237617   3.017   3.664   3.434  0.4292  2.8600 -1.6791
 8719SOL     OW37618   2.109   2.787   4.322  0.0209  0.4900  0.0943
 8719SOL    HW137619   2.048   2.821   4.257  1.5337 -0.6718 -1.9375
 8719SOL    HW237620   2.144   2.864   4.368 -0.0252 -0.8675  2.3847
 8720SOL     OW37621   4.553   1.621  12.045  0.4776 -0.7217  0.2737
 8720SOL    HW137622   4.629   1.640  12.100 -0.3963  2.6239  0.3721
 8720SOL    HW237623   4.600   1.613  11.962 -1.4277 -3.3721 -0.5138
 8721SOL     OW37624   4.050   4.378   0.350 -0.5243  0.1567 -0.6025
 8721SOL    HW137625   4.143   4.393   0.338 -0.3197 -1.6850 -1.2267
 8721SOL    HW237626   4.017   4.408   0.265 -1.7532  0.8255  0.1005
 8722SOL     OW37627   2.443   4.064  16.108  0.1421 -0.2283 -0.5824
 8722SOL    HW137628   2.355   4.080  16.144  0.2690 -2.0949  0.5820
 8722SOL    HW237629   2.435   3.970  16.092 -0.6600 -0.0429 -1.3127
 8723SOL     OW37630   0.056   0.017   6.328  0.5336 -0.5936  0.3487
 8723SOL    HW137631   0.036   0.110   6.339  1.8714 -0.0738 -1.6369
 8723SOL    HW237632   4.716   4.703   6.269  2.0286 -1.0553 -0.9760
 8724SOL     OW37633   1.812   0.728   3.621  0.1062  0.4363  0.1233
 8724SOL    HW137634   1.758   0.709   3.698  1.6505  0.8474  1.3250
 8724SOL    HW237635   1.865   0.798   3.660 -1.2913  1.6953 -0.2332
 8725SOL     OW37636   4.024   0.264  11.330 -0.5844  0.1695 -0.2601
 8725SOL    HW137637   4.052   0.291  11.418 -1.0063 -0.7385  0.1536
 8725SOL    HW237638   4.100   0.275  11.273 -0.4969 -0.0859 -0.1961
 8726SOL     OW37639   1.199   4.524   6.365  0.3485 -0.2721 -0.9438
 8726SOL    HW137640   1.232   4.434   6.376  0.4533 -0.4455 -2.6649
 8726SOL    HW237641   1.266   4.565   6.310  0.3959  0.8954  0.0058
 8727SOL     OW37642   1.192   0.367   6.471 -0.2118 -0.3463 -0.8309
 8727SOL    HW137643   1.125   0.306   6.441  0.1132 -0.9683 -0.3165
 8727SOL    HW237644   1.263   0.364   6.406  1.3293 -1.3444  0.8765
 8728SOL     OW37645   1.029   2.921  15.478 -0.0744 -0.0611 -0.3667
 8728SOL    HW137646   1.012   2.827  15.464  0.7931 -0.2635 -0.0407
 8728SOL    HW237647   0.967   2.946  15.547  2.5891  0.1719  1.9197
 8729SOL     OW37648   4.589   4.137  16.556 -0.0303 -0.2322  0.4089
 8729SOL    HW137649   4.610   4.180  16.472 -0.8589 -0.1003  0.2760
 8729SOL    HW237650   4.588   4.045  16.531 -1.4347  0.3749 -1.7578
 8730SOL     OW37651   4.130   1.084   8.214  0.2740 -0.0166 -0.1960
 8730SOL    HW137652   4.173   1.004   8.185 -0.2216 -0.1362 -0.6148
 8730SOL    HW237653   4.141   1.152   8.147  1.0551  1.3147  1.2973
 8731SOL     OW37654   3.687   3.068  13.980 -0.1738 -0.6324 -0.7996
 8731SOL    HW137655   3.636   3.062  14.061  0.8630 -0.0915 -0.1054
 8731SOL    HW237656   3.737   3.149  13.994  1.1963 -1.6556  0.1229
 8732SOL     OW37657   3.774   1.597   1.153 -0.2380  0.5599  0.2317
 8732SOL    HW137658   3.815   1.562   1.073  0.3343  0.5138  0.5459
 8732SOL    HW237659   3.767   1.692   1.145  1.9428  0.7006 -0.1224
 8733SOL     OW37660   1.567   2.979   0.692 -0.3540 -0.4661  0.1397
 8733SOL    HW137661   1.500   2.922   0.654  0.4049 -0.6834 -0.8829
 8733SOL    HW237662   1.509   3.042   0.734 -0.5071  0.6026 -1.6841
 8734SOL     OW37663   1.501   3.409   1.460 -0.1289 -0.4291  1.2193
 8734SOL    HW137664   1.542   3.339   1.510 -1.1673 -2.0362 -0.1881
 8734SOL    HW237665   1.413   3.412   1.498 -1.5983  0.5855 -2.2908
 8735SOL     OW37666   3.783   3.676   0.053  0.6679  0.4487 -0.5783
 8735SOL    HW137667   3.737   3.595   0.033 -0.7539  0.8179  1.1665
 8735SOL    HW237668   3.706   3.734   0.055  1.6694  1.7674 -0.3585
 8736SOL     OW37669   3.831   1.875   2.672  0.0011 -0.7055  0.2163
 8736SOL    HW137670   3.871   1.797   2.635  2.3978  1.1972 -1.2249
 8736SOL    HW237671   3.836   1.939   2.601  0.3292  0.8493  1.6527
 8737SOL     OW37672   0.631   4.433  17.027  0.0323  0.5217  0.1135
 8737SOL    HW137673   0.669   4.346  17.034  0.0275  0.3095 -2.7664
 8737SOL    HW237674   0.556   4.426  16.968  1.1293 -0.7893 -1.1172
 8738SOL     OW37675   2.375   0.454   9.208 -0.0035  0.4459 -0.3119
 8738SOL    HW137676   2.449   0.510   9.229 -0.1078  0.2958  0.4712
 8738SOL    HW237677   2.312   0.493   9.269 -0.2367 -1.8984  0.9764
 8739SOL     OW37678   0.817   1.856   3.301 -0.4854  0.1542  0.0970
 8739SOL    HW137679   0.735   1.903   3.285 -0.5502  0.3694  1.0049
 8739SOL    HW237680   0.841   1.827   3.214  1.3963 -1.2245  1.0756
 8740SOL     OW37681   0.543   1.135  11.380  0.3447 -0.8666  0.0721
 8740SOL    HW137682   0.582   1.195  11.443  0.4505 -0.9139  0.0509
 8740SOL    HW237683   0.621   1.080  11.373  2.0594  1.2523  2.5778
 8741SOL     OW37684   2.990   2.967  12.880 -0.0356 -0.4016 -0.3324
 8741SOL    HW137685   2.954   3.037  12.933  0.7805 -0.3224  0.1201
 8741SOL    HW237686   2.945   2.975  12.796  0.5647  1.3084 -0.4836
 8742SOL     OW37687   1.686   2.490   4.895  0.6748  0.1607  0.8040
 8742SOL    HW137688   1.632   2.569   4.888 -0.7235 -1.0661 -2.0886
 8742SOL    HW237689   1.774   2.524   4.914  0.9415  0.0094 -0.1443
 8743SOL     OW37690   3.992   2.574  12.563  0.1406 -0.2502 -0.3627
 8743SOL    HW137691   4.081   2.603  12.581 -0.4656  0.7630  0.9997
 8743SOL    HW237692   3.945   2.654  12.587  1.3658  0.1011  0.9144
 8744SOL     OW37693   2.601   1.815   5.779  0.3779  0.2647 -0.3936
 8744SOL    HW137694   2.556   1.768   5.850 -1.4495  0.2736 -1.5492
 8744SOL    HW237695   2.535   1.825   5.711 -0.0198 -1.7829 -0.3251
 8745SOL     OW37696   3.297   1.571   0.078 -0.4240  0.8573 -0.0018
 8745SOL    HW137697   3.218   1.546   0.125 -1.0392  0.6359 -1.1555
 8745SOL    HW237698   3.330   1.482   0.062 -1.7963  0.3641 -0.0482
 8746SOL     OW37699   0.547   0.096   2.750  0.3998 -0.3848  0.4526
 8746SOL    HW137700   0.474   0.040   2.773  0.0555  1.1987  3.1714
 8746SOL    HW237701   0.611   0.054   2.807 -0.0189 -1.8493 -0.1652
 8747SOL     OW37702   1.250   1.298   2.503 -0.1971 -0.3134  0.1606
 8747SOL    HW137703   1.168   1.266   2.541 -0.1602 -0.9994 -0.3525
 8747SOL    HW237704   1.311   1.226   2.514  1.5206  0.9629 -1.1758
 8748SOL     OW37705   0.602   3.659  10.586  0.2854 -0.3333 -0.5572
 8748SOL    HW137706   0.667   3.693  10.648  0.5890 -0.6345 -0.7095
 8748SOL    HW237707   0.635   3.570  10.574  0.5354 -0.3485  0.2213
 8749SOL     OW37708   1.070   1.524   4.874  0.3685  0.0340  0.4376
 8749SOL    HW137709   1.069   1.502   4.781 -1.3103  1.7556  0.0324
 8749SOL    HW237710   1.074   1.440   4.919  1.3285 -1.0881 -1.7510
 8750SOL     OW37711   4.227   3.205  13.669 -0.1487  0.2757 -0.9256
 8750SOL    HW137712   4.268   3.279  13.625 -0.5397  0.7199 -0.5337
 8750SOL    HW237713   4.296   3.190  13.734  1.0246  0.8807 -2.0359
 8751SOL     OW37714   1.113   0.430   5.491 -0.1142  0.5813 -0.1282
 8751SOL    HW137715   1.037   0.398   5.442  0.2303 -2.8881  1.5683
 8751SOL    HW237716   1.094   0.523   5.502  1.1826  0.8421 -0.1538
 8752SOL     OW37717   4.514   0.839   4.580  0.1289  0.2662  0.6545
 8752SOL    HW137718   4.572   0.895   4.527  0.4658 -1.8967 -1.2528
 8752SOL    HW237719   4.549   0.754   4.555 -1.2126  0.0397 -0.4601
 8753SOL     OW37720   2.014   4.630  11.495 -0.4247 -0.0045 -0.8355
 8753SOL    HW137721   1.980   4.620  11.406  0.2785  1.5248 -1.2814
 8753SOL    HW237722   2.108   4.623  11.479 -0.4196 -1.4474 -0.1912
 8754SOL     OW37723   3.092   2.655   1.316 -0.4272 -0.7334 -0.2207
 8754SOL    HW137724   3.073   2.699   1.398 -3.7505 -0.2053 -1.2922
 8754SOL    HW237725   3.171   2.608   1.344 -0.6817 -1.2957 -0.4473
 8755SOL     OW37726   3.116   3.100   4.244  0.4666  0.1196  0.0638
 8755SOL    HW137727   3.201   3.118   4.202  0.2233  0.7712 -0.1519
 8755SOL    HW237728   3.126   3.006   4.260  0.6824  0.2689  0.7888
 8756SOL     OW37729   1.282   0.696   0.610  0.1752  0.4659 -0.0802
 8756SOL    HW137730   1.205   0.709   0.666 -2.3576  0.1311 -3.4575
 8756SOL    HW237731   1.337   0.662   0.680 -0.1028  2.1073  0.9186
 8757SOL     OW37732   3.907   0.775   9.271 -0.1254  0.0141 -0.3782
 8757SOL    HW137733   3.849   0.849   9.254 -0.5217 -0.3813 -0.7628
 8757SOL    HW237734   3.976   0.806   9.213  0.0709 -0.6590 -0.5076
 8758SOL     OW37735   1.547   4.322   3.519  0.0003 -0.6664  0.4035
 8758SOL    HW137736   1.534   4.348   3.610  0.0422 -1.4171  0.6248
 8758SOL    HW237737   1.615   4.380   3.485 -1.0790 -1.2082 -2.6868
 8759SOL     OW37738   2.342   1.901   2.755  0.5221 -0.0567  0.1846
 8759SOL    HW137739   2.379   1.821   2.793  0.4038 -0.7376 -1.1400
 8759SOL    HW237740   2.338   1.869   2.665  0.6505  0.2339  0.0737
 8760SOL     OW37741   2.977   2.704  15.084 -0.0365 -0.4902  0.2340
 8760SOL    HW137742   2.949   2.744  15.002  0.1477  0.0277  0.4223
 8760SOL    HW237743   2.917   2.630  15.090  2.1196 -2.2041  0.4468
 8761SOL     OW37744   2.526   4.233   3.297  0.5670 -0.0725 -0.0915
 8761SOL    HW137745   2.463   4.253   3.366  1.1808  0.1215  0.4189
 8761SOL    HW237746   2.561   4.321   3.283 -2.1869  1.1689  0.9262
 8762SOL     OW37747   4.496   1.163   8.176 -0.0236  0.5248  0.1051
 8762SOL    HW137748   4.523   1.226   8.108  2.3879  2.0408  2.4427
 8762SOL    HW237749   4.581   1.131   8.207 -0.2370 -0.8774 -0.7901
 8763SOL     OW37750   4.408   0.975   8.379  0.6987  0.4183  0.4573
 8763SOL    HW137751   4.420   1.041   8.310  2.5709  0.3222  0.6870
 8763SOL    HW237752   4.486   0.920   8.382  0.0509 -0.5337 -0.2248
 8764SOL     OW37753   1.950   4.023   0.518  0.0618  0.0710  0.7924
 8764SOL    HW137754   1.988   3.950   0.470  0.2059  0.2506  0.6359
 8764SOL    HW237755   2.025   4.077   0.543  1.3877 -1.1572 -0.5783
 8765SOL     OW37756   3.127   4.548   1.057 -0.8607  0.0265 -0.0905
 8765SOL    HW137757   3.043   4.531   1.015 -0.7663 -0.3739 -0.1181
 8765SOL    HW237758   3.102   4.554   1.149  0.2257  0.9392  0.1501
 8766SOL     OW37759   0.065   3.869   5.945 -0.0502  0.1643 -0.5357
 8766SOL    HW137760   0.086   3.955   5.908  0.8055 -0.1746 -0.8204
 8766SOL    HW237761   0.150   3.840   5.978  0.7637  0.1466 -2.6325
 8767SOL     OW37762   4.169   0.487   0.451 -0.4988  0.1977  0.0747
 8767SOL    HW137763   4.248   0.470   0.502 -0.3527 -1.3935 -0.6798
 8767SOL    HW237764   4.148   0.409   0.399 -1.2863  2.8354 -3.5581
 8768SOL     OW37765   2.017   1.294   7.818 -0.5085 -0.0697  0.0068
 8768SOL    HW137766   1.970   1.282   7.901 -0.9851  0.9273 -0.1282
 8768SOL    HW237767   1.940   1.289   7.761 -0.4213 -0.6887 -0.0579
 8769SOL     OW37768   2.266   1.457   2.725  0.2254 -0.2770 -0.4934
 8769SOL    HW137769   2.209   1.464   2.802 -0.7046 -0.7539 -1.1454
 8769SOL    HW237770   2.223   1.522   2.668  0.8370  1.0125  0.5151
 8770SOL     OW37771   1.900   0.778   3.936 -0.6327 -0.0727 -0.0138
 8770SOL    HW137772   1.919   0.816   3.850 -0.1485  1.2589  0.6878
 8770SOL    HW237773   1.965   0.708   3.927 -2.3552 -1.7025  0.2218
 8771SOL     OW37774   2.881   1.311   6.837 -0.0580  0.3727  0.9357
 8771SOL    HW137775   2.857   1.221   6.860 -2.6907  0.9231  0.3465
 8771SOL    HW237776   2.955   1.329   6.895  1.2694  1.9697 -1.3039
 8772SOL     OW37777   2.174   1.754   7.969  0.4740  0.0497  0.1914
 8772SOL    HW137778   2.171   1.662   7.947 -1.0240 -0.2684  1.7285
 8772SOL    HW237779   2.151   1.753   8.062 -0.6037 -1.3008 -0.1008
 8773SOL     OW37780   2.100   3.452   0.218 -0.3186  0.3350  0.4914
 8773SOL    HW137781   2.093   3.386   0.148  0.3489  0.2267  0.5243
 8773SOL    HW237782   2.183   3.428   0.258  0.3365  1.3192 -0.2901
 8774SOL     OW37783   1.110   0.116   3.209  0.2483  0.5281  0.3105
 8774SOL    HW137784   1.189   0.115   3.262  1.2159 -2.1543 -1.2180
 8774SOL    HW237785   1.155   0.141   3.128 -0.8487  1.6643  0.0486
 8775SOL     OW37786   4.297   3.251   7.560  0.2086  0.2277  0.2193
 8775SOL    HW137787   4.388   3.253   7.590 -0.1269  1.5261  1.1404
 8775SOL    HW237788   4.313   3.299   7.478 -0.8548 -1.3257 -0.8971
 8776SOL     OW37789   3.347   3.168   3.172 -0.2439 -0.4262  0.0112
 8776SOL    HW137790   3.307   3.191   3.256 -0.7361  0.6708 -0.5200
 8776SOL    HW237791   3.442   3.177   3.185 -0.0903 -0.5089 -1.0192
 8777SOL     OW37792   2.111   2.904   1.293  0.0691  0.1880 -0.0446
 8777SOL    HW137793   2.047   2.975   1.286 -0.0572  0.0298 -0.4959
 8777SOL    HW237794   2.113   2.875   1.384 -1.1506  0.8564  0.2005
 8778SOL     OW37795   2.305   3.105   0.154 -0.2112 -0.3740 -0.5425
 8778SOL    HW137796   2.307   3.127   0.061  0.5224 -0.7528 -0.6138
 8778SOL    HW237797   2.383   3.050   0.164 -0.7703 -0.8880  0.9944
 8779SOL     OW37798   4.272   1.694  10.632  0.5221 -0.1899 -0.4474
 8779SOL    HW137799   4.287   1.732  10.545  1.0308 -0.6234 -0.5499
 8779SOL    HW237800   4.327   1.744  10.692 -0.6270  1.1007 -0.4620
 8780SOL     OW37801   2.320   3.805  17.512 -0.1782  0.2002  0.0494
 8780SOL    HW137802   2.284   3.872  17.454  1.3882 -0.3393 -1.5688
 8780SOL    HW237803   2.368   3.859  17.575 -0.2604 -0.2926  0.5319
 8781SOL     OW37804   0.942   4.414   4.328  0.1441  0.6836  0.2688
 8781SOL    HW137805   0.871   4.351   4.337  1.0182 -0.5123 -1.0113
 8781SOL    HW237806   0.981   4.418   4.415 -0.7830  2.2446  0.6004
 8782SOL     OW37807   0.026   4.164  14.662 -0.3294 -0.0636  0.0439
 8782SOL    HW137808   0.119   4.151  14.682  0.0887  1.3961 -0.9723
 8782SOL    HW237809   4.709   4.220  14.728  0.3734 -0.5009  0.8619
 8783SOL     OW37810   4.597   2.890   2.866 -0.1297 -0.3494  0.1234
 8783SOL    HW137811   4.673   2.947   2.874 -1.0019  0.9028 -0.4727
 8783SOL    HW237812   4.619   2.851   2.781  0.6735 -0.5267  0.4241
 8784SOL     OW37813   1.347   1.243  13.506  0.4062 -0.1382  0.2325
 8784SOL    HW137814   1.278   1.181  13.530  1.6284 -1.7187 -0.3485
 8784SOL    HW237815   1.316   1.322  13.549 -0.7921 -0.7075  0.4088
 8785SOL     OW37816   4.064   0.413   5.091  0.1051 -0.1415  0.3446
 8785SOL    HW137817   4.071   0.318   5.082  0.6027 -0.3031  2.3305
 8785SOL    HW237818   4.125   0.431   5.019 -0.8669 -1.7787 -0.8792
 8786SOL     OW37819   0.280   0.247   4.347 -0.8515 -0.6998 -0.3651
 8786SOL    HW137820   0.279   0.166   4.399 -0.9303 -0.2743  0.2943
 8786SOL    HW237821   0.238   0.215   4.267 -1.6484  0.2097 -0.3086
 8787SOL     OW37822   2.611   2.532   5.387  0.1642  0.1766 -0.3594
 8787SOL    HW137823   2.612   2.627   5.381  1.8539  0.3134  2.2562
 8787SOL    HW237824   2.588   2.524   5.479  0.5313  0.6045 -0.2296
 8788SOL     OW37825   1.793   2.464  14.368 -0.0459 -0.8138 -0.5460
 8788SOL    HW137826   1.848   2.542  14.378  0.7262 -1.4203 -0.0307
 8788SOL    HW237827   1.841   2.408  14.429  0.8487 -0.6368 -1.0729
 8789SOL     OW37828   0.821   2.076   8.364 -0.0433  0.4325  0.4094
 8789SOL    HW137829   0.864   2.039   8.441 -0.9084 -1.1654  0.1214
 8789SOL    HW237830   0.879   2.052   8.293  0.2364 -0.8876  1.0904
 8790SOL     OW37831   3.348   0.416   4.043  0.3343  0.2005 -0.6627
 8790SOL    HW137832   3.296   0.424   3.963 -1.5825  0.2187  0.5662
 8790SOL    HW237833   3.384   0.503   4.057  0.1119 -0.1916  2.3734
 8791SOL     OW37834   3.369   0.334   8.814 -0.2756 -0.2120 -0.1519
 8791SOL    HW137835   3.419   0.395   8.759 -1.8139  2.3530  1.3422
 8791SOL    HW237836   3.279   0.358   8.794 -0.3960  0.5698  1.3693
 8792SOL     OW37837   2.167   3.154   1.097 -0.2899  0.1918  0.0509
 8792SOL    HW137838   2.119   3.226   1.137 -0.4139  0.2702 -0.2387
 8792SOL    HW237839   2.241   3.205   1.066  1.7090 -1.7157  1.6787
 8793SOL     OW37840   2.314   1.039   8.765  0.2128  0.4293  0.6593
 8793SOL    HW137841   2.327   0.952   8.802 -0.1775 -0.5345 -1.4785
 8793SOL    HW237842   2.397   1.065   8.725 -0.2647  3.5106  1.6248
 8794SOL     OW37843   0.243   3.995   6.585  0.1327 -0.4286 -0.5971
 8794SOL    HW137844   0.336   4.003   6.609 -0.0710  1.6156 -0.4888
 8794SOL    HW237845   0.217   4.087   6.596  0.6170 -0.4109  0.3976
 8795SOL     OW37846   4.675   1.136   7.412 -0.3437 -0.7336  0.5216
 8795SOL    HW137847   4.640   1.106   7.496  1.7066  1.0267  2.0127
 8795SOL    HW237848   4.602   1.139   7.350  0.0557 -1.2739  0.0205
 8796SOL     OW37849   1.252   2.024   8.159 -0.3365  0.1577 -0.0248
 8796SOL    HW137850   1.304   2.086   8.108 -0.0537 -2.2049 -2.6215
 8796SOL    HW237851   1.189   2.087   8.193  0.9925  1.4390  0.0944
 8797SOL     OW37852   1.083   3.438   7.541 -0.8909  0.0177 -0.0765
 8797SOL    HW137853   0.995   3.427   7.577 -0.8774  0.2722  0.0397
 8797SOL    HW237854   1.125   3.353   7.551 -1.2281 -0.4902 -3.0860
 8798SOL     OW37855   1.508   0.060   7.272 -0.1213 -0.3804 -0.0369
 8798SOL    HW137856   1.493   0.155   7.272  0.3599 -0.3020  0.4644
 8798SOL    HW237857   1.488   0.029   7.360 -2.2111  0.1316 -0.3248
 8799SOL     OW37858   2.280   4.186   4.001  0.0112  0.0500 -0.3767
 8799SOL    HW137859   2.320   4.180   3.914  0.1667  1.1491 -0.3800
 8799SOL    HW237860   2.194   4.213   3.969  0.3646  0.6359 -0.8076
 8800SOL     OW37861   3.301   1.056   1.126 -0.1571  0.3751  0.4786
 8800SOL    HW137862   3.307   1.151   1.125  0.6769  0.3083 -0.1720
 8800SOL    HW237863   3.283   1.038   1.219 -0.5792  1.8525  0.6830
 8801SOL     OW37864   2.656   0.717   3.591  0.1044  0.1814 -1.0104
 8801SOL    HW137865   2.635   0.780   3.522  0.2528  1.3430  0.0066
 8801SOL    HW237866   2.603   0.642   3.563 -1.1613 -0.3371  2.7273
 8802SOL     OW37867   0.994   1.002   6.332  0.6228  0.4688 -0.0828
 8802SOL    HW137868   0.926   1.060   6.298  0.6453 -0.0037 -0.9328
 8802SOL    HW237869   1.039   0.965   6.256 -0.7466  1.1637 -1.2326
 8803SOL     OW37870   0.793   4.208  16.526  0.0662 -0.4633 -0.5896
 8803SOL    HW137871   0.812   4.123  16.567 -0.0090 -1.3320 -2.3105
 8803SOL    HW237872   0.786   4.259  16.606 -3.4520  1.4120 -2.1321
 8804SOL     OW37873   4.635   4.230  16.912 -0.0854  0.0022  0.0811
 8804SOL    HW137874   4.693   4.191  16.978 -0.3393 -0.8594 -0.1960
 8804SOL    HW237875   4.626   4.314  16.957  0.7468 -0.5858  1.3430
 8805SOL     OW37876   2.633   3.916   7.345 -0.2149 -0.3298  0.2293
 8805SOL    HW137877   2.561   3.901   7.284  0.1651  0.1968 -0.3541
 8805SOL    HW237878   2.583   3.948   7.420 -0.7101  1.1722 -0.7361
 8806SOL     OW37879   4.059   3.563   1.303 -0.5576  0.4657  0.6818
 8806SOL    HW137880   4.090   3.476   1.276  2.2952  1.7709 -0.2042
 8806SOL    HW237881   4.089   3.573   1.394 -1.6759  1.5058  0.9324
 8807SOL     OW37882   4.126   1.054  11.758 -0.4881  0.0788 -0.4533
 8807SOL    HW137883   4.158   1.144  11.766  0.5531 -0.3609  0.4588
 8807SOL    HW237884   4.185   1.008  11.819  0.5655  1.0014 -0.7683
 8808SOL     OW37885   3.780   0.401   3.937  0.3567 -0.3662  0.2470
 8808SOL    HW137886   3.802   0.492   3.922 -1.4989 -0.0288 -0.4346
 8808SOL    HW237887   3.838   0.350   3.880 -0.8157 -0.2158 -1.0807
 8809SOL     OW37888   1.322   0.967   9.005  0.3634 -0.6192 -0.6581
 8809SOL    HW137889   1.370   0.904   8.952  1.0655  0.1395 -0.9430
 8809SOL    HW237890   1.388   0.979   9.074  0.1851 -0.6730 -0.4801
 8810SOL     OW37891   3.887   1.869  15.595  0.2108 -0.1037  0.1510
 8810SOL    HW137892   3.945   1.804  15.558 -1.0205 -0.1946 -1.6112
 8810SOL    HW237893   3.942   1.921  15.654  2.4659  0.7109 -2.7239
 8811SOL     OW37894   2.910   3.546   4.901 -0.2649  0.5277  0.0959
 8811SOL    HW137895   3.002   3.553   4.924 -0.1690 -3.6788  0.9608
 8811SOL    HW237896   2.907   3.457   4.866  1.7635  0.4519  0.1340
 8812SOL     OW37897   1.106   1.570   1.436 -0.4473 -0.1492 -0.0936
 8812SOL    HW137898   1.027   1.517   1.445 -2.4961  2.8696 -0.6151
 8812SOL    HW237899   1.079   1.658   1.459 -1.5546  0.3165 -3.1487
 8813SOL     OW37900   2.444   1.386   6.260 -0.6846  0.3484 -0.1492
 8813SOL    HW137901   2.357   1.413   6.232 -0.8903 -0.7704 -0.5957
 8813SOL    HW237902   2.444   1.381   6.356  0.5531  0.1981 -0.1561
 8814SOL     OW37903   2.980   2.190   4.669  0.3936  0.0117 -0.9904
 8814SOL    HW137904   2.964   2.253   4.599 -3.9206 -0.5415 -0.5151
 8814SOL    HW237905   2.895   2.189   4.713  0.8265  0.9620 -0.1200
 8815SOL     OW37906   3.817   2.866  14.877 -0.9053  0.4351 -0.2802
 8815SOL    HW137907   3.837   2.791  14.933  2.8873  0.5122 -1.5885
 8815SOL    HW237908   3.724   2.858  14.856 -0.8049 -0.5961 -0.3091
 8816SOL     OW37909   4.160   4.066   2.523  0.1008  0.1382  0.3840
 8816SOL    HW137910   4.074   4.030   2.544 -0.8334  2.6965  0.9790
 8816SOL    HW237911   4.139   4.159   2.510  0.0591  0.1499  0.5277
 8817SOL     OW37912   2.704   2.743   6.655 -0.0999 -0.0399  0.0621
 8817SOL    HW137913   2.718   2.686   6.580 -0.3484 -2.3371  1.7418
 8817SOL    HW237914   2.717   2.683   6.729 -0.8606 -0.0565  0.1744
 8818SOL     OW37915   0.145   4.423  16.621  0.2449 -0.5373 -0.0896
 8818SOL    HW137916   0.121   4.336  16.655  1.0932 -0.4029  0.8369
 8818SOL    HW237917   0.063   4.472  16.631  0.3668 -0.6072  1.3132
 8819SOL     OW37918   4.365   3.016   2.238 -0.1080  0.0916 -0.0834
 8819SOL    HW137919   4.269   3.013   2.238 -0.0694 -1.4401 -0.5343
 8819SOL    HW237920   4.384   2.980   2.325  0.2738 -2.4163 -1.2020
 8820SOL     OW37921   2.909   2.860   6.854 -0.1046 -0.4646 -0.0925
 8820SOL    HW137922   2.870   2.794   6.796 -0.3511  0.3103 -0.8095
 8820SOL    HW237923   2.971   2.800   6.894  1.5492  0.9950 -0.4908
 8821SOL     OW37924   0.114   0.276  16.243  0.2222 -0.4303 -0.5301
 8821SOL    HW137925   0.095   0.343  16.177  0.9277  0.9011  0.6117
 8821SOL    HW237926   0.033   0.267  16.293  0.6990  1.5313  0.5833
 8822SOL     OW37927   1.070   2.213  11.695 -0.3279  0.4534 -0.0771
 8822SOL    HW137928   1.022   2.230  11.613 -2.6890 -2.0889  0.7708
 8822SOL    HW237929   1.001   2.229  11.759  0.7389 -2.6225  1.8175
 8823SOL     OW37930   3.283   4.643   9.399  0.0735 -0.5439 -0.4213
 8823SOL    HW137931   3.279   4.670   9.491  1.8721  0.2800 -0.5857
 8823SOL    HW237932   3.209   4.582   9.394 -1.0597  0.8619 -0.6566
 8824SOL     OW37933   3.675   3.558  16.453 -0.3164 -0.5855  0.3397
 8824SOL    HW137934   3.743   3.623  16.472 -2.3793  1.3164  1.2006
 8824SOL    HW237935   3.619   3.570  16.530  0.5013  0.2656  0.8019
 8825SOL     OW37936   2.823   1.528   2.656  0.4111 -0.0267 -0.1609
 8825SOL    HW137937   2.890   1.554   2.593 -1.0590 -1.1905 -2.1891
 8825SOL    HW237938   2.767   1.470   2.604  1.5842 -0.5673 -0.8060
 8826SOL     OW37939   1.241   1.089  14.773 -0.7758  0.6673  0.0658
 8826SOL    HW137940   1.249   1.041  14.690  1.3628 -0.7349  1.0734
 8826SOL    HW237941   1.304   1.046  14.831 -1.2818  2.3552  1.8528
 8827SOL     OW37942   0.979   0.108   9.627  0.4535 -0.0768  0.4325
 8827SOL    HW137943   0.965   0.061   9.545  2.0621 -0.3825  0.3323
 8827SOL    HW237944   0.914   0.079   9.691  0.5356  2.3832  1.6279
 8828SOL     OW37945   2.149   4.207   3.107  0.2985 -0.2220 -0.3657
 8828SOL    HW137946   2.243   4.192   3.092 -0.4267 -5.0989 -0.1290
 8828SOL    HW237947   2.135   4.292   3.064 -3.1931 -0.7438 -0.2260
 8829SOL     OW37948   3.007   2.865   0.993  0.2546  0.5684  0.0529
 8829SOL    HW137949   2.937   2.923   0.963 -0.6378 -0.4263  0.1882
 8829SOL    HW237950   2.961   2.782   1.005 -1.1766  1.3574  0.0246
 8830SOL     OW37951   3.187   3.177   7.388  0.3550  0.3095 -0.1478
 8830SOL    HW137952   3.169   3.144   7.476 -0.1601  0.2005 -0.2990
 8830SOL    HW237953   3.218   3.265   7.409 -0.9478  0.3814  1.3941
 8831SOL     OW37954   1.681   3.551   1.868 -0.1566  0.6569  0.1984
 8831SOL    HW137955   1.697   3.504   1.950  0.8668  0.9941  0.1873
 8831SOL    HW237956   1.605   3.501   1.838 -0.5368  2.0771 -1.2340
 8832SOL     OW37957   0.569   3.273   1.731 -1.2903  0.1186  0.3106
 8832SOL    HW137958   0.579   3.290   1.824 -1.2694 -0.3380  0.3935
 8832SOL    HW237959   0.502   3.339   1.714 -0.3953  0.6069 -1.3568
 8833SOL     OW37960   0.057   2.536   2.290 -0.1656 -0.1312  0.2130
 8833SOL    HW137961   0.102   2.554   2.372 -0.8408 -0.9814  0.7641
 8833SOL    HW237962   0.110   2.465   2.253 -1.5232  0.3669 -2.7215
 8834SOL     OW37963   4.402   2.571   8.504 -0.1879  0.3405  0.1020
 8834SOL    HW137964   4.399   2.595   8.597  1.8819  3.7331 -0.6908
 8834SOL    HW237965   4.453   2.641   8.462 -2.0411  1.3577 -0.4386
 8835SOL     OW37966   3.852   4.190   5.787  0.2063 -0.6867  0.1040
 8835SOL    HW137967   3.802   4.149   5.717 -0.6389 -0.7150  0.7119
 8835SOL    HW237968   3.799   4.269   5.798  0.5660 -0.4691  0.2716
 8836SOL     OW37969   0.696   0.770   1.261  0.1510  0.1847  0.2985
 8836SOL    HW137970   0.737   0.803   1.181  0.2137 -2.4572 -0.7614
 8836SOL    HW237971   0.761   0.717   1.306  1.4868  0.0431 -1.8026
 8837SOL     OW37972   1.935   1.096   2.103 -0.8369  0.6864 -0.4781
 8837SOL    HW137973   1.908   1.073   2.013 -2.9892 -0.9531  0.5886
 8837SOL    HW237974   1.883   1.035   2.156 -0.4353  1.4192  0.7394
 8838SOL     OW37975   4.667   1.968   5.476  0.3820 -0.4432 -0.2824
 8838SOL    HW137976   4.610   1.933   5.408 -2.4679  2.3392  0.6774
 8838SOL    HW237977   4.616   1.957   5.557  1.8035  1.3957  0.8676
 8839SOL     OW37978   3.999   0.116   2.752  0.3403 -0.2022 -0.2011
 8839SOL    HW137979   3.923   0.058   2.744 -1.4355  2.1136 -0.3304
 8839SOL    HW237980   3.997   0.158   2.666  0.2540 -1.7077 -0.9366
 8840SOL     OW37981   2.296   4.310   1.773  0.2041 -0.3509  0.8427
 8840SOL    HW137982   2.330   4.364   1.702 -0.1494 -0.8136  0.3214
 8840SOL    HW237983   2.282   4.226   1.729 -0.6064  0.6521 -0.8018
 8841SOL     OW37984   3.643   0.867  14.433  0.1777  0.0358 -0.2748
 8841SOL    HW137985   3.618   0.876  14.341 -0.9184  1.5928  0.1663
 8841SOL    HW237986   3.557   0.866  14.477 -0.0690 -0.3022 -0.7687
 8842SOL     OW37987   3.370   0.404   7.180  0.3293 -0.4210  0.2070
 8842SOL    HW137988   3.361   0.313   7.150 -0.3349  0.1811 -1.4483
 8842SOL    HW237989   3.320   0.455   7.115  0.5046 -0.0305  0.3812
 8843SOL     OW37990   0.248   3.195   1.668  0.2831 -0.1588  0.3184
 8843SOL    HW137991   0.157   3.172   1.686  0.3833 -1.6967 -1.1817
 8843SOL    HW237992   0.278   3.264   1.728  1.6462  0.4940 -1.1255
 8844SOL     OW37993   3.709   0.189   6.957 -0.3600  0.1850  0.2898
 8844SOL    HW137994   3.736   0.176   6.866 -0.2429  0.5687  0.2691
 8844SOL    HW237995   3.701   0.285   6.958 -1.3549  0.1080 -0.1996
 8845SOL     OW37996   2.651   1.806  10.821  0.3360 -0.4299 -0.7826
 8845SOL    HW137997   2.721   1.803  10.756  1.5834  1.9132  0.4864
 8845SOL    HW237998   2.614   1.718  10.808  0.0134 -0.8050  2.6839
 8846SOL     OW37999   4.332   2.074   7.072 -0.5950 -0.5100 -0.4747
 8846SOL    HW138000   4.290   1.990   7.087 -0.3611 -0.3178  1.3059
 8846SOL    HW238001   4.386   2.053   6.996  1.3238  0.9698  0.4845
 8847SOL     OW38002   3.632   3.610   8.758  0.1493 -0.4722  0.3186
 8847SOL    HW138003   3.701   3.649   8.705 -1.6324  0.1508 -1.5396
 8847SOL    HW238004   3.568   3.681   8.758  0.7483  0.0729 -1.8832
 8848SOL     OW38005   4.428   4.339  12.683  0.4016  0.4307  0.0954
 8848SOL    HW138006   4.428   4.315  12.775 -1.1691  1.4002  0.3617
 8848SOL    HW238007   4.398   4.430  12.680  0.3918  0.4209 -0.1566
 8849SOL     OW38008   4.461   1.944   9.131  0.2410  0.3281 -0.0210
 8849SOL    HW138009   4.505   2.004   9.071  2.7629  0.6170  2.1194
 8849SOL    HW238010   4.427   2.010   9.191 -1.7649  0.8604 -1.7309
 8850SOL     OW38011   1.459   3.872   5.284 -0.3895  0.1575 -0.7367
 8850SOL    HW138012   1.463   3.864   5.379  2.2509 -0.3219 -0.8934
 8850SOL    HW238013   1.530   3.811   5.268 -0.1926 -0.1375  1.2582
 8851SOL     OW38014   2.257   3.477   4.969 -0.1171  0.1549 -0.1716
 8851SOL    HW138015   2.344   3.460   5.005 -0.2683 -0.8156 -0.2566
 8851SOL    HW238016   2.219   3.390   4.986  1.3999 -1.2427 -4.0587
 8852SOL     OW38017   4.587   4.006   7.390  0.1808  0.1266 -0.1112
 8852SOL    HW138018   4.501   4.012   7.430  0.1403 -2.4014  0.1303
 8852SOL    HW238019   4.635   4.068   7.445 -2.6166  1.3522  0.9484
 8853SOL     OW38020   2.725   2.045   1.936 -0.7403 -0.0251 -0.4713
 8853SOL    HW138021   2.688   2.117   1.988  0.8672 -1.3224  2.4790
 8853SOL    HW238022   2.818   2.065   1.937 -0.5615 -0.8866 -0.7819
 8854SOL     OW38023   4.359   4.288   1.224  0.0142 -0.3216  0.1617
 8854SOL    HW138024   4.433   4.344   1.200  0.1652 -0.5204  0.1596
 8854SOL    HW238025   4.397   4.201   1.210  0.0766 -0.2785  0.0633
 8855SOL     OW38026   3.970   0.233  14.114 -0.1637  0.6673 -0.1717
 8855SOL    HW138027   3.907   0.301  14.133  1.6018  2.7674 -1.7763
 8855SOL    HW238028   4.027   0.232  14.191  0.7102  1.0069 -0.8117
 8856SOL     OW38029   3.041   1.232  16.230 -0.0066 -0.7774 -0.4376
 8856SOL    HW138030   3.068   1.286  16.304  1.3433 -3.4034  1.0033
 8856SOL    HW238031   3.129   1.204  16.206  0.8296  1.9226 -0.4600
 8857SOL     OW38032   4.314   3.268   2.056 -0.3781  0.1017 -0.0087
 8857SOL    HW138033   4.359   3.186   2.074 -1.1035 -0.1925  0.4533
 8857SOL    HW238034   4.305   3.311   2.141 -0.3106  0.2112 -0.0567
 8858SOL     OW38035   0.810   1.989   4.198 -0.1480 -0.2720  0.2124
 8858SOL    HW138036   0.842   2.068   4.241  0.2117  0.4245 -1.3419
 8858SOL    HW238037   0.788   2.026   4.112 -0.8742 -1.9820 -0.3289
 8859SOL     OW38038   4.198   0.681   4.847  0.5277  0.1713 -0.8141
 8859SOL    HW138039   4.243   0.725   4.774 -0.6398  0.7293 -1.2068
 8859SOL    HW238040   4.111   0.699   4.813  0.0246 -0.1548  0.3278
 8860SOL     OW38041   4.622   0.187   7.423  0.5681 -0.3261 -0.1120
 8860SOL    HW138042   4.592   0.156   7.337 -0.2691 -0.4568  0.2264
 8860SOL    HW238043   4.544   0.201   7.477  2.8032  1.3869  2.6528
 8861SOL     OW38044   4.668   2.047   3.749  0.3240 -0.0015  0.4726
 8861SOL    HW138045   0.030   2.009   3.737  0.5822  0.9851 -0.7769
 8861SOL    HW238046   4.696   2.112   3.814  1.4976 -2.0278  2.0169
 8862SOL     OW38047   1.110   1.060  11.337  0.2407 -0.2277  0.1235
 8862SOL    HW138048   1.103   1.147  11.377 -0.2259 -0.0740 -0.2964
 8862SOL    HW238049   1.205   1.065  11.340  0.2288 -1.3270  2.3539
 8863SOL     OW38050   0.583   4.658  15.931 -0.7627 -0.0097 -0.1227
 8863SOL    HW138051   0.519   4.700  15.988  0.7130  0.5207  1.1491
 8863SOL    HW238052   0.660   4.677  15.985 -1.6221  0.0863  1.0604
 8864SOL     OW38053   2.614   2.489   5.659  0.1474  0.1893  0.9199
 8864SOL    HW138054   2.565   2.439   5.724 -1.1095  2.3785  1.6806
 8864SOL    HW238055   2.687   2.522   5.711 -0.2030  1.9652  0.2984
 8865SOL     OW38056   4.670   1.347   9.142  0.6400 -0.0141 -0.0777
 8865SOL    HW138057   0.032   1.361   9.182  0.2785 -0.3464  0.8432
 8865SOL    HW238058   4.694   1.345   9.050 -2.1083  0.1324 -0.7927
 8866SOL     OW38059   2.382   1.333   3.085 -0.4039  0.4786  0.4442
 8866SOL    HW138060   2.310   1.395   3.080 -1.3703 -0.5861  1.2208
 8866SOL    HW238061   2.366   1.270   3.014 -0.1364  0.6489  0.2311
 8867SOL     OW38062   0.961   0.197   5.123 -0.1648 -0.0388 -0.2490
 8867SOL    HW138063   1.008   0.159   5.197  0.8856  2.9291  0.6328
 8867SOL    HW238064   1.029   0.213   5.058 -1.3252  1.6566 -1.0701
 8868SOL     OW38065   1.509   2.522   4.287 -0.0752  0.2752 -0.5399
 8868SOL    HW138066   1.578   2.457   4.294  0.3336  0.8165  0.4637
 8868SOL    HW238067   1.559   2.603   4.291 -0.2407  0.4263 -1.5413
 8869SOL     OW38068   3.715   3.279   4.811  0.2639 -0.0358 -0.3182
 8869SOL    HW138069   3.727   3.233   4.727 -0.6056 -2.4154  0.8543
 8869SOL    HW238070   3.672   3.212   4.864 -1.3448  1.2133 -0.0514
 8870SOL     OW38071   3.309   1.072   8.249 -0.0748 -0.1461 -0.0692
 8870SOL    HW138072   3.223   1.032   8.241  1.2705 -3.0147 -0.0561
 8870SOL    HW238073   3.309   1.115   8.335 -0.7885 -0.0290 -0.1247
 8871SOL     OW38074   0.382   0.852   8.055 -0.8025 -0.7130 -0.1038
 8871SOL    HW138075   0.372   0.757   8.062 -0.6990 -0.6135  1.3808
 8871SOL    HW238076   0.354   0.872   8.144  0.3870  1.2712 -0.1729
 8872SOL     OW38077   2.618   0.135   1.377  0.4539  0.1475 -0.7913
 8872SOL    HW138078   2.698   0.090   1.406  0.4411 -0.3657 -1.5212
 8872SOL    HW238079   2.573   0.064   1.331  0.6098  0.2646 -1.1301
 8873SOL     OW38080   0.268   1.026  16.079 -0.2778 -0.0546  0.3757
 8873SOL    HW138081   0.350   0.987  16.110  0.4298  0.2641 -1.0789
 8873SOL    HW238082   0.211   0.997  16.150 -1.8834  1.0361 -0.4672
 8874SOL     OW38083   1.760   1.550   4.939  0.0351 -0.2344  0.0738
 8874SOL    HW138084   1.715   1.614   4.883  0.1646 -1.5023 -1.4406
 8874SOL    HW238085   1.731   1.466   4.904 -0.0961  0.5194 -1.6117
 8875SOL     OW38086   2.045   1.768   6.583 -0.0805 -0.0423  0.1678
 8875SOL    HW138087   2.116   1.758   6.520  0.1728  0.9133  0.2963
 8875SOL    HW238088   2.005   1.851   6.557 -0.0345  0.3608  1.3734
 8876SOL     OW38089   2.866   1.222   2.729  0.2292  0.3450  0.0209
 8876SOL    HW138090   2.817   1.189   2.804 -0.3091 -2.2497 -1.4549
 8876SOL    HW238091   2.798   1.263   2.675 -1.0739 -2.0442 -0.1697
 8877SOL     OW38092   1.378   1.593   9.863 -0.5719  0.5724  0.3037
 8877SOL    HW138093   1.336   1.678   9.877  1.3080  1.5198  0.1723
 8877SOL    HW238094   1.404   1.556   9.947  2.6003  0.3350 -0.7636
 8878SOL     OW38095   3.813   1.325  16.245 -0.1827  0.2973 -0.5801
 8878SOL    HW138096   3.829   1.372  16.328 -0.6493  0.2389 -0.4574
 8878SOL    HW238097   3.783   1.402  16.197  0.5480 -0.0793 -1.6159
 8879SOL     OW38098   3.217   0.507   3.831 -0.3338 -0.3901  0.0387
 8879SOL    HW138099   3.246   0.588   3.789 -1.3391 -1.0574 -1.9586
 8879SOL    HW238100   3.217   0.455   3.750  0.5393 -1.4304  0.7098
 8880SOL     OW38101   4.194   2.324   6.545  0.3022  0.1294  0.1169
 8880SOL    HW138102   4.172   2.414   6.520  0.4390 -0.2707 -1.4662
 8880SOL    HW238103   4.265   2.327   6.609  1.4741  0.5677 -1.2084
 8881SOL     OW38104   1.418   0.533   3.878 -0.2155  0.5549 -0.3037
 8881SOL    HW138105   1.420   0.584   3.797  0.1748  0.4510 -0.3590
 8881SOL    HW238106   1.327   0.538   3.908  0.3059 -2.0170  1.7650
 8882SOL     OW38107   3.134   0.533   3.298  0.5128  0.5158 -0.4366
 8882SOL    HW138108   3.125   0.623   3.266 -2.5422  0.1306 -0.6849
 8882SOL    HW238109   3.186   0.494   3.228  0.1818 -0.6066 -0.0640
 8883SOL     OW38110   2.796   0.504   6.011 -0.1394  0.2211  0.0354
 8883SOL    HW138111   2.783   0.588   6.055  0.4607  1.5543 -2.3232
 8883SOL    HW238112   2.838   0.533   5.930  1.1516 -0.0386  0.6190
 8884SOL     OW38113   3.174   0.116   4.747 -0.2387  0.5790  0.4586
 8884SOL    HW138114   3.172   0.201   4.705  1.6316  0.5239  0.2461
 8884SOL    HW238115   3.217   0.061   4.681 -0.1362  0.4581  0.6245
 8885SOL     OW38116   3.841   4.722   7.930 -0.3904 -0.7189  0.0189
 8885SOL    HW138117   3.935   4.706   7.919 -0.5208 -0.0115 -2.2075
 8885SOL    HW238118   3.801   4.688   7.850 -1.1787 -0.9634  0.5141
 8886SOL     OW38119   4.660   4.723   3.428  0.6611  0.2253  0.1753
 8886SOL    HW138120   4.643   4.649   3.486  0.5466  1.1218  1.2931
 8886SOL    HW238121   4.697   4.679   3.352  0.6315  0.1452  0.2078
 8887SOL     OW38122   3.357   3.328   7.624  0.2677 -0.3988 -0.2545
 8887SOL    HW138123   3.412   3.406   7.617  0.0881  0.0925  3.8368
 8887SOL    HW238124   3.270   3.359   7.601  0.1632  0.1095  0.8224
 8888SOL     OW38125   3.854   3.644  17.376 -0.1445  0.0117 -0.0800
 8888SOL    HW138126   3.766   3.650  17.338 -0.3148  0.0204  0.3193
 8888SOL    HW238127   3.852   3.556  17.411  1.5596  0.1129  0.2689
 8889SOL     OW38128   4.609   1.016  13.064 -0.0547  0.2291  0.6843
 8889SOL    HW138129   4.612   0.936  13.116 -4.2889 -0.5002 -0.1473
 8889SOL    HW238130   4.556   0.980  12.993  2.0400 -0.7264 -0.3920
 8890SOL     OW38131   4.203   1.777  17.692  0.7074  0.1964  0.8411
 8890SOL    HW138132   4.297   1.761   0.000  0.5294 -0.1414  2.2738
 8890SOL    HW238133   4.169   1.698  17.650  0.1411 -0.3221  2.2755
 8891SOL     OW38134   0.145   4.428   8.898  0.0809  0.0478  0.1747
 8891SOL    HW138135   0.200   4.477   8.958 -0.4317  0.2839  0.4507
 8891SOL    HW238136   0.122   4.352   8.951  0.4126 -0.4986 -0.4500
 8892SOL     OW38137   2.316   1.726   1.663  0.2597 -0.2311 -0.4565
 8892SOL    HW138138   2.378   1.788   1.700 -0.7895 -0.2710  1.3713
 8892SOL    HW238139   2.376   1.688   1.598 -1.0700 -0.3771 -1.6019
 8893SOL     OW38140   0.190   4.615   8.706  0.0389  0.5639  0.0945
 8893SOL    HW138141   0.235   4.669   8.771 -1.6320 -0.5571  2.2026
 8893SOL    HW238142   0.144   4.554   8.764 -2.1049  0.9355 -1.2154
 8894SOL     OW38143   1.597   0.847   2.492  0.3703  0.1551  0.2663
 8894SOL    HW138144   1.592   0.810   2.404 -2.7993 -0.0679  0.5493
 8894SOL    HW238145   1.601   0.769   2.548  1.4412 -0.2503 -0.3607
 8895SOL     OW38146   1.105   2.490   3.535  0.0107  0.3223  0.2874
 8895SOL    HW138147   1.180   2.531   3.494  0.2916  1.4282  1.8861
 8895SOL    HW238148   1.103   2.403   3.497  2.6849  0.8322 -1.0353
 8896SOL     OW38149   4.576   0.016   0.323 -0.5541  0.1849 -0.2120
 8896SOL    HW138150   4.536   0.036   0.407  0.3101  1.3348 -0.0755
 8896SOL    HW238151   4.660   0.061   0.333 -1.0449  1.0613 -0.0317
 8897SOL     OW38152   1.832   4.493   4.509  0.2073 -0.3848 -0.3735
 8897SOL    HW138153   1.915   4.455   4.479  1.8892  0.0605  3.6953
 8897SOL    HW238154   1.807   4.560   4.447 -0.5166  0.4297  0.8012
 8898SOL     OW38155   0.584   1.311   3.087  0.3594 -0.2176 -0.1301
 8898SOL    HW138156   0.523   1.292   3.158  1.4319 -1.0730  0.5545
 8898SOL    HW238157   0.555   1.242   3.028 -1.1419  1.9788 -1.9483
 8899SOL     OW38158   4.257   1.155   2.404 -0.0697  0.0904 -0.2359
 8899SOL    HW138159   4.187   1.219   2.389  0.0628  0.0400 -1.0316
 8899SOL    HW238160   4.257   1.103   2.324 -0.4821 -0.0514 -0.1429
 8900SOL     OW38161   1.785   2.363   8.091  0.0248 -0.2936 -0.6399
 8900SOL    HW138162   1.701   2.408   8.081  0.4967  0.5029 -1.0182
 8900SOL    HW238163   1.841   2.439   8.077  2.5148 -2.2237 -1.0936
 8901SOL     OW38164   1.617   4.457   5.333  0.4417 -0.3118 -0.0283
 8901SOL    HW138165   1.697   4.496   5.367  0.5596 -0.9709  0.4641
 8901SOL    HW238166   1.631   4.370   5.371 -1.6426  0.1879  1.8906
 8902SOL     OW38167   3.152   0.366   6.582  0.1057  1.1648  0.3008
 8902SOL    HW138168   3.150   0.331   6.671 -3.5528 -1.2015 -0.7498
 8902SOL    HW238169   3.067   0.335   6.552  0.3569  1.8613 -1.1545
 8903SOL     OW38170   2.877   1.130   3.821  0.2427 -0.2424 -0.0196
 8903SOL    HW138171   2.906   1.105   3.734 -1.0842 -0.7295 -0.3231
 8903SOL    HW238172   2.936   1.081   3.879  1.0068  2.6498  1.6755
 8904SOL     OW38173   2.530   0.087   4.719  0.7731  0.4432  0.3719
 8904SOL    HW138174   2.547   0.181   4.733  0.4889  0.7396 -1.2687
 8904SOL    HW238175   2.436   0.093   4.703  0.8352 -2.0182 -0.8994
 8905SOL     OW38176   2.501   0.824  13.436 -0.0218  0.0322 -0.1775
 8905SOL    HW138177   2.534   0.796  13.350  0.2222  0.3230 -0.1796
 8905SOL    HW238178   2.577   0.810  13.493  0.4239  0.0685 -0.7612
 8906SOL     OW38179   0.565   0.524   7.284 -0.5617 -0.4613 -0.0219
 8906SOL    HW138180   0.604   0.456   7.230  1.7701  1.2362 -0.4858
 8906SOL    HW238181   0.610   0.513   7.368 -0.0871  1.1747 -0.0503
 8907SOL     OW38182   2.174   4.232   4.546  0.3923 -0.3522 -0.0370
 8907SOL    HW138183   2.229   4.258   4.620 -0.2018  1.6751 -0.3146
 8907SOL    HW238184   2.092   4.247   4.593  0.8464 -0.0483  0.6701
 8908SOL     OW38185   4.525   0.692   7.328  0.0822 -0.0346 -0.0079
 8908SOL    HW138186   4.592   0.677   7.395 -0.9688  0.2190  1.1062
 8908SOL    HW238187   4.519   0.601   7.299 -1.1203 -0.0614  0.3565
 8909SOL     OW38188   2.495   2.557   7.655 -0.3800 -0.9879  0.1919
 8909SOL    HW138189   2.493   2.466   7.627  0.1797 -0.6637 -0.9032
 8909SOL    HW238190   2.404   2.574   7.632  0.2928  1.2440 -0.8625
 8910SOL     OW38191   0.553   1.154   0.371  0.2314 -0.1706 -0.1919
 8910SOL    HW138192   0.570   1.066   0.337 -0.5227 -0.4706  0.2232
 8910SOL    HW238193   0.544   1.146   0.466  0.5909  0.6100 -0.0914
 8911SOL     OW38194   3.959   2.033   8.672  0.0415  0.5526  0.1579
 8911SOL    HW138195   4.038   1.990   8.639 -0.9793 -0.2152 -1.3055
 8911SOL    HW238196   3.987   2.123   8.656  0.9631 -0.5408 -4.3820
 8912SOL     OW38197   0.640   3.535   5.931  0.0552 -0.3151  0.2036
 8912SOL    HW138198   0.661   3.446   5.961  0.2921  0.0295  1.0396
 8912SOL    HW238199   0.718   3.561   5.882  0.7783 -0.6998  1.1622
 8913SOL     OW38200   2.338   3.700   6.250  0.3131  0.3096  0.3260
 8913SOL    HW138201   2.369   3.612   6.273 -1.6815 -0.2302  0.9309
 8913SOL    HW238202   2.281   3.662   6.183  1.9818 -2.0986  0.2223
 8914SOL     OW38203   3.382   1.347  11.916 -0.1765 -0.0318 -0.0611
 8914SOL    HW138204   3.413   1.421  11.969 -0.7456  0.9385 -1.1041
 8914SOL    HW238205   3.346   1.387  11.837  1.2008 -0.0819 -0.7183
 8915SOL     OW38206   1.301   2.365  17.083  1.1083  0.1722  0.6786
 8915SOL    HW138207   1.318   2.424  17.156  1.2576  0.1085  0.6953
 8915SOL    HW238208   1.250   2.297  17.127  3.0013  0.5623  3.4949
 8916SOL     OW38209   4.475   4.064  15.301  0.0779 -0.0141 -0.3700
 8916SOL    HW138210   4.490   4.008  15.378 -1.6821  0.7197  0.5164
 8916SOL    HW238211   4.379   4.072  15.302  0.0522 -0.3430 -0.2143
 8917SOL     OW38212   2.210   2.201   7.426  0.6487 -0.3507 -0.9596
 8917SOL    HW138213   2.249   2.206   7.339 -0.6702 -0.1588 -1.5408
 8917SOL    HW238214   2.125   2.240   7.404 -0.5030 -0.9249  2.4464
 8918SOL     OW38215   2.610   4.599   3.714  0.0739 -0.5790  0.4769
 8918SOL    HW138216   2.552   4.547   3.770  0.5231 -2.1966 -0.5540
 8918SOL    HW238217   2.623   4.673   3.773 -1.6510  0.6871 -0.7341
 8919SOL     OW38218   4.217   0.791   8.226 -0.2975 -0.1395 -0.4249
 8919SOL    HW138219   4.227   0.701   8.259  0.6960  0.3254  0.5625
 8919SOL    HW238220   4.265   0.825   8.302  0.9659 -0.6863 -0.9676
 8920SOL     OW38221   3.488   4.406   7.533  0.1382  0.1981  0.5398
 8920SOL    HW138222   3.500   4.326   7.584  1.8019  0.3471  0.4005
 8920SOL    HW238223   3.461   4.476   7.592  0.9278  0.6436  0.3764
 8921SOL     OW38224   3.051   2.561  12.583 -0.5973  1.1682  0.3832
 8921SOL    HW138225   3.078   2.641  12.539  0.2150  1.0341  0.6226
 8921SOL    HW238226   3.137   2.519  12.573 -0.6937  1.3403 -1.0831
 8922SOL     OW38227   1.190   1.220   3.848 -0.6827 -0.6407 -0.0497
 8922SOL    HW138228   1.111   1.173   3.873  0.0898 -1.5268  0.7701
 8922SOL    HW238229   1.148   1.297   3.811  0.1431 -0.3910 -0.4693
 8923SOL     OW38230   3.592   3.533   2.606  1.0203 -0.2240  0.2917
 8923SOL    HW138231   3.557   3.560   2.690  0.4746 -2.0556  0.6576
 8923SOL    HW238232   3.513   3.513   2.557  1.5195  1.3767 -1.1340
 8924SOL     OW38233   0.865   2.792  16.422 -0.9474  0.2167  0.5115
 8924SOL    HW138234   0.807   2.801  16.497  1.1457  0.9515  2.0435
 8924SOL    HW238235   0.935   2.851  16.451 -1.0469  0.4409  0.2998
 8925SOL     OW38236   4.378   2.591   4.501  0.0145 -0.2578 -0.5511
 8925SOL    HW138237   4.427   2.513   4.526 -0.2128 -0.4012 -0.5528
 8925SOL    HW238238   4.285   2.582   4.525  0.1453  0.6547  0.3232
 8926SOL     OW38239   4.685   2.056   3.010 -0.1612  0.1812 -0.1099
 8926SOL    HW138240   4.634   2.128   3.047  0.9892  0.2394  1.3895
 8926SOL    HW238241   4.639   2.029   2.931  0.8185 -1.1181 -0.2491
 8927SOL     OW38242   2.308   4.185   6.726  0.4429  0.1788  0.3428
 8927SOL    HW138243   2.268   4.264   6.762 -1.1613  1.0295 -3.3031
 8927SOL    HW238244   2.239   4.119   6.726 -1.6169  2.3398 -0.7460
 8928SOL     OW38245   1.568   4.089  12.836 -0.1711 -0.2676 -0.0864
 8928SOL    HW138246   1.660   4.080  12.863 -0.1786  1.8237  0.6436
 8928SOL    HW238247   1.536   4.065  12.922 -2.4595  0.8817 -0.6410
 8929SOL     OW38248   3.064   1.126  14.407 -0.4800  0.5517 -0.0722
 8929SOL    HW138249   3.076   1.221  14.418 -2.0656  0.7925 -0.4542
 8929SOL    HW238250   3.090   1.117  14.315  1.5420 -0.5637  0.5984
 8930SOL     OW38251   2.034   4.432   2.941 -0.1964 -0.4024 -0.0342
 8930SOL    HW138252   2.102   4.431   2.873 -0.8334 -1.9552 -0.6612
 8930SOL    HW238253   1.968   4.480   2.891  0.0462  0.3203  0.3349
 8931SOL     OW38254   1.317   1.469  13.080  0.9340  0.2476 -0.1105
 8931SOL    HW138255   1.302   1.395  13.139 -1.3434 -0.8573 -2.0962
 8931SOL    HW238256   1.412   1.478  13.095  1.7706 -1.3900 -4.3726
 8932SOL     OW38257   1.484   2.726   9.816  0.3384  0.7249  0.6267
 8932SOL    HW138258   1.430   2.674   9.875  0.0292 -1.8183 -1.8651
 8932SOL    HW238259   1.484   2.669   9.739 -0.6210 -0.0483  1.1907
 8933SOL     OW38260   3.906   4.152   0.699 -0.0674 -0.2619  0.2554
 8933SOL    HW138261   3.825   4.194   0.669  1.5968  1.1916 -2.1585
 8933SOL    HW238262   3.950   4.131   0.617  1.4926 -0.1484  1.0744
 8934SOL     OW38263   2.961   0.854   2.397 -0.1667 -0.0206  0.0075
 8934SOL    HW138264   2.951   0.946   2.372 -2.5349 -0.7751 -1.7246
 8934SOL    HW238265   3.054   0.836   2.411  0.2998  1.0661 -1.7248
 8935SOL     OW38266   1.989   4.610  16.603 -0.4635  0.1118 -0.5820
 8935SOL    HW138267   1.941   4.642  16.680 -0.1061 -1.6724  0.3889
 8935SOL    HW238268   2.077   4.646  16.615 -1.2803  1.0878  2.6643
 8936SOL     OW38269   4.287   4.623   0.063  0.0165  0.1020  0.3648
 8936SOL    HW138270   4.320   4.571  17.690 -0.9153 -0.6118  0.4456
 8936SOL    HW238271   4.230   4.686   0.019 -0.7728 -0.7818  0.1214
 8937SOL     OW38272   3.092   0.365   8.813  0.1861 -0.5745  0.5092
 8937SOL    HW138273   3.046   0.306   8.753  2.2342 -3.3050  1.6463
 8937SOL    HW238274   3.079   0.452   8.777 -0.2688 -0.6297  0.5440
 8938SOL     OW38275   0.990   3.629   1.865  0.2711 -0.3366 -0.0356
 8938SOL    HW138276   1.022   3.716   1.890 -1.4474  0.1216  0.6030
 8938SOL    HW238277   1.068   3.582   1.836  1.4280  1.1348  0.6708
 8939SOL     OW38278   0.795   1.469   5.607  0.1181  0.2279  0.4172
 8939SOL    HW138279   0.858   1.496   5.540 -0.0279  1.9691  0.9884
 8939SOL    HW238280   0.752   1.399   5.557 -3.8447  2.5784  0.5474
 8940SOL     OW38281   1.975   0.185  11.621  0.1127  0.4057 -0.3316
 8940SOL    HW138282   2.041   0.115  11.615 -0.2957  0.0273 -0.3653
 8940SOL    HW238283   1.917   0.149  11.689 -1.5897  2.5166 -0.6926
 8941SOL     OW38284   1.097   3.782   1.304  0.8079  0.1596 -0.4751
 8941SOL    HW138285   1.193   3.787   1.300  0.6466  1.8381 -1.8306
 8941SOL    HW238286   1.067   3.812   1.219  2.0893 -0.3474 -1.0995
 8942SOL     OW38287   3.451   2.115   9.423 -0.3146 -0.1651  0.7649
 8942SOL    HW138288   3.421   2.032   9.461 -0.4021 -0.2016  0.6154
 8942SOL    HW238289   3.545   2.113   9.442 -0.6335  0.5312  2.4280
 8943SOL     OW38290   1.595   3.174   5.717  0.1354 -0.1084  0.2036
 8943SOL    HW138291   1.583   3.240   5.785 -1.9738  0.5033 -0.7621
 8943SOL    HW238292   1.686   3.156   5.738 -0.2613  1.0061  2.9229
 8944SOL     OW38293   1.457   2.987   9.888 -0.1945  0.0189 -0.1975
 8944SOL    HW138294   1.468   2.894   9.864 -2.1453 -0.8182  2.1879
 8944SOL    HW238295   1.539   3.022   9.853  0.5044 -0.4852  0.9392
 8945SOL     OW38296   0.962   1.314  14.580  0.0584 -0.0992 -0.3103
 8945SOL    HW138297   0.967   1.239  14.640  3.7924 -0.8389 -1.5860
 8945SOL    HW238298   1.031   1.375  14.605  0.0136  0.3513 -1.2993
 8946SOL     OW38299   0.733   4.608   4.621 -0.2989  0.5817 -0.0400
 8946SOL    HW138300   0.690   4.539   4.671 -1.3153 -0.1175 -1.8688
 8946SOL    HW238301   0.723   4.572   4.533  1.1682 -1.3473  0.5768
 8947SOL     OW38302   0.417   4.205   0.280 -0.1639 -0.2358  0.0333
 8947SOL    HW138303   0.490   4.166   0.232  1.4729  0.4903  1.9444
 8947SOL    HW238304   0.412   4.291   0.240 -1.3899 -1.2013 -1.8615
 8948SOL     OW38305   3.098   0.784   3.213 -0.3241 -0.6510  0.2282
 8948SOL    HW138306   3.029   0.751   3.155 -0.6480  3.1412 -1.5637
 8948SOL    HW238307   3.170   0.780   3.150  0.3226 -1.1572  1.0091
 8949SOL     OW38308   2.073   0.146  13.219  0.3238  0.4980  0.2640
 8949SOL    HW138309   1.999   0.124  13.163 -0.4314  0.7288  1.1759
 8949SOL    HW238310   2.135   0.194  13.163 -1.7707  0.8123 -1.7658
 8950SOL     OW38311   0.957   4.253   7.300 -0.2058  0.0260 -0.3773
 8950SOL    HW138312   1.020   4.299   7.356 -1.6362  1.2810  0.1867
 8950SOL    HW238313   0.962   4.304   7.219 -0.3618  2.4599  1.1526
 8951SOL     OW38314   3.052   1.271   7.618  0.0885 -0.2877  0.3386
 8951SOL    HW138315   3.003   1.318   7.686 -1.6226 -1.7811  0.1188
 8951SOL    HW238316   3.071   1.346   7.561 -2.1690 -0.5275 -0.7159
 8952SOL     OW38317   0.696   0.693   2.758  0.1966  0.7538 -0.1702
 8952SOL    HW138318   0.726   0.645   2.835  0.9648 -2.0816 -2.2234
 8952SOL    HW238319   0.641   0.632   2.707  3.9224 -2.5145 -0.2834
 8953SOL     OW38320   3.739   2.402   8.419 -0.1113  0.0467  0.1134
 8953SOL    HW138321   3.679   2.419   8.492  0.0846  0.0964  0.2631
 8953SOL    HW238322   3.770   2.492   8.408  0.4254 -0.5958 -3.6003
 8954SOL     OW38323   1.798   2.508   2.965 -0.3556  0.6399  0.2830
 8954SOL    HW138324   1.747   2.524   2.885 -0.2880 -2.3259 -0.3416
 8954SOL    HW238325   1.824   2.416   2.959  1.5617  1.2556 -0.7259
 8955SOL     OW38326   2.107   0.235   8.837  0.3213  0.2347  0.3662
 8955SOL    HW138327   2.055   0.194   8.768 -0.6686  0.7058  0.8319
 8955SOL    HW238328   2.041   0.296   8.869 -0.8431 -0.2906 -1.0413
 8956SOL     OW38329   4.347   0.533   2.802  0.1747  0.2526 -0.2291
 8956SOL    HW138330   4.322   0.571   2.886 -2.1852  1.4941 -1.4979
 8956SOL    HW238331   4.302   0.590   2.739 -1.0938  0.5051  0.9041
 8957SOL     OW38332   2.521   2.728   4.001  0.2192 -0.0334  0.0866
 8957SOL    HW138333   2.558   2.785   4.068  3.4318 -1.5648 -0.4055
 8957SOL    HW238334   2.435   2.718   4.042  0.1868  1.1181  0.2917
 8958SOL     OW38335   3.262   2.225  14.285  0.1296 -0.2171  0.9833
 8958SOL    HW138336   3.206   2.302  14.273 -0.1186 -1.0071 -2.7860
 8958SOL    HW238337   3.246   2.208  14.378  3.6174 -1.6294  1.3194
 8959SOL     OW38338   1.841   4.233   0.932  0.0809  0.6661 -0.3256
 8959SOL    HW138339   1.842   4.327   0.916  0.9126  0.5963 -0.6772
 8959SOL    HW238340   1.868   4.235   1.024  1.9392  0.3995 -0.8498
 8960SOL     OW38341   2.291   4.665   6.435 -0.4537  0.2048 -0.1134
 8960SOL    HW138342   2.265   4.596   6.497  0.0710 -0.1983 -0.3522
 8960SOL    HW238343   2.315   4.629   6.350  1.8972 -1.7952  1.3923
 8961SOL     OW38344   1.103   2.187   8.339 -0.8556 -0.1176  0.5271
 8961SOL    HW138345   1.168   2.240   8.386 -0.1904  0.1803 -0.7191
 8961SOL    HW238346   1.030   2.248   8.347 -0.2784  0.2314  3.4160
 8962SOL     OW38347   0.170   2.497   1.779 -0.0039  0.7071 -0.1838
 8962SOL    HW138348   0.182   2.403   1.794  0.1956  0.8335  0.4689
 8962SOL    HW238349   0.177   2.494   1.684 -1.4011 -0.8204 -0.2455
 8963SOL     OW38350   0.264   3.708   2.098  0.0425 -0.1563  0.1958
 8963SOL    HW138351   0.195   3.767   2.130  0.9300  1.1574 -0.3078
 8963SOL    HW238352   0.262   3.739   2.008  0.6206 -0.2490  0.1528
 8964SOL     OW38353   2.883   0.020   1.395  0.3595  0.5570 -0.6246
 8964SOL    HW138354   2.926   4.662   1.418  1.2783  0.7126 -1.7942
 8964SOL    HW238355   2.948   0.053   1.333  1.0396  0.9743  0.3210
 8965SOL     OW38356   1.594   0.740   2.964 -0.9626  0.2366 -0.1350
 8965SOL    HW138357   1.581   0.667   3.025 -0.7012 -0.1304 -0.5190
 8965SOL    HW238358   1.557   0.710   2.882 -0.0912  1.4472 -0.9657
 8966SOL     OW38359   2.426   1.735   6.506  0.2329  0.1547  0.3624
 8966SOL    HW138360   2.429   1.818   6.458  1.8776 -0.5119 -0.6940
 8966SOL    HW238361   2.346   1.699   6.468 -0.2389  0.0579  1.4689
 8967SOL     OW38362   2.049   1.525   9.373 -0.1287  0.4251  0.7542
 8967SOL    HW138363   2.044   1.475   9.292  1.9906  2.4228 -0.5888
 8967SOL    HW238364   2.032   1.612   9.337  0.2263  0.2343  0.1171
 8968SOL     OW38365   4.388   2.457   4.207 -0.0536 -0.2593  0.0368
 8968SOL    HW138366   4.302   2.489   4.232  0.7964  1.6970  0.5042
 8968SOL    HW238367   4.413   2.545   4.177 -0.7931 -0.0112  0.1614
 8969SOL     OW38368   4.133   1.910   7.998 -0.3189 -0.0449  0.1845
 8969SOL    HW138369   4.142   1.819   7.968  2.8208 -0.0917  1.2714
 8969SOL    HW238370   4.223   1.931   8.021  0.2953 -1.9560 -0.3914
 8970SOL     OW38371   3.997   2.071   5.313 -0.1551 -0.4299  0.4905
 8970SOL    HW138372   3.908   2.076   5.279 -0.5310  0.0834  1.5499
 8970SOL    HW238373   4.004   1.979   5.338 -0.6388 -0.1840  1.5096
 8971SOL     OW38374   2.510   4.470   6.710  0.6162  0.0423  0.1285
 8971SOL    HW138375   2.551   4.410   6.648  1.0321 -0.3537  0.7841
 8971SOL    HW238376   2.492   4.540   6.648 -1.5282 -1.1034 -0.5561
 8972SOL     OW38377   1.248   2.966  10.444 -0.2432 -0.4219  0.0527
 8972SOL    HW138378   1.177   2.955  10.508  1.4062 -3.0414  1.4230
 8972SOL    HW238379   1.201   2.963  10.361 -0.1804  0.7920 -0.0348
 8973SOL     OW38380   2.460   0.210   8.349 -0.3848 -0.5248  0.4017
 8973SOL    HW138381   2.493   0.153   8.279  2.0365  0.9180  0.3868
 8973SOL    HW238382   2.515   0.200   8.426  1.9968  0.8380 -1.1269
 8974SOL     OW38383   4.398   1.541   4.999 -0.2958 -0.5031  0.6951
 8974SOL    HW138384   4.456   1.582   4.935 -0.5404 -0.7200  0.3397
 8974SOL    HW238385   4.430   1.452   5.009 -1.0998 -0.8556  0.0546
 8975SOL     OW38386   2.612   0.819   6.753 -0.1909  0.0283 -0.3607
 8975SOL    HW138387   2.572   0.770   6.825  1.3913 -1.0086 -0.1844
 8975SOL    HW238388   2.704   0.804   6.774  0.0144 -2.0481 -2.7794
 8976SOL     OW38389   2.049   0.556   9.945 -0.1468  0.4319 -0.4785
 8976SOL    HW138390   2.076   0.465   9.937  0.2614  0.2654  2.7261
 8976SOL    HW238391   2.003   0.558  10.029  4.0919  2.3175  1.8338
 8977SOL     OW38392   2.383   1.908   3.933  0.5149 -0.1634 -0.2211
 8977SOL    HW138393   2.419   1.838   3.879  2.4971  0.0072  0.9117
 8977SOL    HW238394   2.452   1.950   3.983  0.4278  0.7387 -0.8510
 8978SOL     OW38395   1.158   1.469  14.381 -0.2113 -0.6075 -0.1893
 8978SOL    HW138396   1.169   1.375  14.390  1.2253 -0.4407 -0.3354
 8978SOL    HW238397   1.213   1.506  14.449 -2.1274 -1.3696  1.7600
 8979SOL     OW38398   2.125   3.231   6.436  0.1002 -0.2334  0.1247
 8979SOL    HW138399   2.060   3.261   6.500  1.3838  3.6352 -0.4003
 8979SOL    HW238400   2.086   3.152   6.396 -0.9066  0.0430  0.5535
 8980SOL     OW38401   2.153   1.030  16.450 -0.2722 -0.1106 -0.5174
 8980SOL    HW138402   2.212   1.092  16.408  0.4820 -0.0434  0.6737
 8980SOL    HW238403   2.085   1.040  16.383 -1.2015 -1.1427  0.2699
 8981SOL     OW38404   1.892   1.682   0.851  0.3605 -0.2304  0.1018
 8981SOL    HW138405   1.838   1.670   0.773 -0.9017 -0.5248  1.0208
 8981SOL    HW238406   1.940   1.599   0.848 -1.1798 -1.1650  1.9597
 8982SOL     OW38407   2.150   4.715   7.266  0.5623 -0.4124  0.4610
 8982SOL    HW138408   2.140   4.689   7.358  0.9141  1.6069  1.0663
 8982SOL    HW238409   2.098   4.648   7.222 -0.1252  0.2916  0.1869
 8983SOL     OW38410   1.951   4.542  13.182  0.0440  0.4265 -0.2169
 8983SOL    HW138411   1.886   4.541  13.252 -0.3664 -0.4429 -0.6081
 8983SOL    HW238412   1.962   4.635  13.163 -1.0047  1.0405  2.1956
 8984SOL     OW38413   0.003   0.691   2.172 -0.2900  0.7962 -0.3263
 8984SOL    HW138414   0.085   0.643   2.184 -0.9448 -0.1721  0.3115
 8984SOL    HW238415   4.665   0.619   2.159 -0.9785  1.3254  0.0212
 8985SOL     OW38416   2.161   2.419   6.260  0.3290  0.4299  0.2397
 8985SOL    HW138417   2.196   2.496   6.304 -0.0542  0.8035 -0.1172
 8985SOL    HW238418   2.242   2.371   6.244 -0.2950  0.6594 -3.5944
 8986SOL     OW38419   4.011   0.853  12.126  0.2280 -0.0398  0.1454
 8986SOL    HW138420   4.102   0.853  12.097 -0.2467  1.8304 -1.3399
 8986SOL    HW238421   3.982   0.763  12.113 -1.4143  0.3524  1.0855
 8987SOL     OW38422   4.517   2.458  11.527 -0.5187  0.8084 -0.4669
 8987SOL    HW138423   4.510   2.520  11.455  0.2302  0.4270 -0.8663
 8987SOL    HW238424   4.549   2.381  11.480  1.9352  0.7859  1.2062
 8988SOL     OW38425   4.155   3.978   5.037  0.2392  0.1440  0.0016
 8988SOL    HW138426   4.171   4.065   5.075 -0.8411 -0.2235  1.3078
 8988SOL    HW238427   4.196   3.991   4.951  1.0367  0.1009  0.3708
 8989SOL     OW38428   2.528   1.647   4.913  0.2198  0.9280  0.2416
 8989SOL    HW138429   2.455   1.598   4.875 -0.6972  1.6745  1.0707
 8989SOL    HW238430   2.559   1.696   4.837  1.2746  1.4649  1.0132
 8990SOL     OW38431   2.091   1.041   8.340  0.1971 -0.4391 -0.0527
 8990SOL    HW138432   2.045   0.966   8.301 -0.9231 -0.2367  0.8690
 8990SOL    HW238433   2.124   1.081   8.260  1.4237 -0.2846  0.5349
 8991SOL     OW38434   1.409   0.526   9.236 -0.4566 -0.2043  0.3796
 8991SOL    HW138435   1.427   0.436   9.263 -0.6634 -0.3436  0.0596
 8991SOL    HW238436   1.433   0.519   9.144  2.4045 -0.1089  1.1257
 8992SOL     OW38437   1.492   2.521   0.085  0.2091 -0.6060  0.1386
 8992SOL    HW138438   1.550   2.590   0.116  0.1703 -1.2643  1.6890
 8992SOL    HW238439   1.526   2.442   0.127 -1.7298 -0.8668  1.2186
 8993SOL     OW38440   3.692   1.023   6.493  0.0636 -0.0561 -0.1061
 8993SOL    HW138441   3.658   1.091   6.551 -3.6379 -1.1623 -0.9824
 8993SOL    HW238442   3.615   0.980   6.455  1.2672 -1.1632 -1.3107
 8994SOL     OW38443   3.415   1.843   9.392 -0.1596 -0.4117  0.1175
 8994SOL    HW138444   3.475   1.780   9.353  0.0079 -1.3747  1.8994
 8994SOL    HW238445   3.335   1.841   9.339 -0.1232  3.6849 -0.0880
 8995SOL     OW38446   2.044   1.977   1.414 -0.1465 -0.0302  0.1098
 8995SOL    HW138447   2.006   1.889   1.418  0.3203 -0.2051  0.7869
 8995SOL    HW238448   1.966   2.030   1.424 -0.1133  0.1466 -0.5499
 8996SOL     OW38449   0.050   3.485  10.610  0.8452 -0.3417 -0.1614
 8996SOL    HW138450   0.084   3.485  10.700 -2.4177 -2.0955  1.0391
 8996SOL    HW238451   0.031   3.578  10.601 -0.0011 -0.5404 -0.3843
 8997SOL     OW38452   4.465   4.579  15.091 -0.1365  0.3654  0.4089
 8997SOL    HW138453   4.500   4.499  15.130 -0.0606  0.7422  1.1051
 8997SOL    HW238454   4.438   4.633  15.165 -2.4486 -1.0545  0.6095
 8998SOL     OW38455   2.632   1.503   5.815 -0.1822 -0.4879 -0.4759
 8998SOL    HW138456   2.726   1.507   5.796 -0.1352  4.0609  0.6858
 8998SOL    HW238457   2.640   1.553   5.896  0.8081  1.0583 -1.5197
 8999SOL     OW38458   1.114   4.228   7.699 -0.5089 -0.3084 -0.1022
 8999SOL    HW138459   1.189   4.267   7.745 -0.6849  0.1042 -0.1657
 8999SOL    HW238460   1.045   4.284   7.736 -1.5825 -0.6763 -1.5590
 9000SOL     OW38461   3.391   3.331   0.103 -0.0688 -0.1145  0.3017
 9000SOL    HW138462   3.345   3.362   0.025 -2.7961 -0.2954  1.8385
 9000SOL    HW238463   3.358   3.242   0.119  0.2425 -0.1782  0.5824
 9001SOL     OW38464   1.996   3.087   4.175  0.5715  0.1860  0.1359
 9001SOL    HW138465   2.006   3.161   4.114  0.4126 -0.3351 -0.5219
 9001SOL    HW238466   1.977   3.014   4.116  0.3730 -0.1830  0.6670
 9002SOL     OW38467   0.408   4.452  16.562 -0.3254  0.1909 -0.7421
 9002SOL    HW138468   0.321   4.442  16.600 -0.2433  0.6325 -0.4356
 9002SOL    HW238469   0.391   4.423  16.473 -3.4075 -0.8652  0.1871
 9003SOL     OW38470   2.354   4.445  10.067 -0.0668 -0.0563 -0.6422
 9003SOL    HW138471   2.341   4.429  10.161 -0.7963  0.2867 -0.6904
 9003SOL    HW238472   2.440   4.405  10.054 -0.1711 -0.8417  1.0268
 9004SOL     OW38473   0.394   2.440   8.977  0.1056 -0.2755  0.2674
 9004SOL    HW138474   0.463   2.504   8.956 -1.8878  0.8742 -2.7798
 9004SOL    HW238475   0.347   2.445   8.894  2.3896  1.7949 -0.9134
 9005SOL     OW38476   4.437   2.809   2.058  0.1530 -0.0383  0.9932
 9005SOL    HW138477   4.407   2.888   2.102  2.0276  0.2934  1.6648
 9005SOL    HW238478   4.456   2.755   2.135  1.1783 -2.1605 -0.7311
 9006SOL     OW38479   0.019   4.630   4.889  0.5406 -0.0146  0.3963
 9006SOL    HW138480   0.104   4.597   4.862 -0.8342 -1.6648 -1.9089
 9006SOL    HW238481   4.716   4.686   4.816 -1.2248  2.4592  2.9228
 9007SOL     OW38482   0.464   1.700   1.790 -0.4920 -0.3382  0.1976
 9007SOL    HW138483   0.476   1.607   1.811  1.2198 -0.6373 -2.1138
 9007SOL    HW238484   0.511   1.744   1.861 -0.1074  0.6059 -0.6512
 9008SOL     OW38485   0.164   1.500   4.085  0.1864 -0.3835 -0.3254
 9008SOL    HW138486   0.078   1.465   4.062 -0.1506 -0.7359  1.5169
 9008SOL    HW238487   0.218   1.423   4.098 -2.0001 -1.7804  0.4105
 9009SOL     OW38488   3.430   3.803   8.535 -0.5004  0.0693 -0.0654
 9009SOL    HW138489   3.455   3.852   8.613  1.8793  0.8327 -1.3205
 9009SOL    HW238490   3.509   3.806   8.481 -0.7836  0.9433 -0.4345
 9010SOL     OW38491   3.898   1.283   4.837  0.5189 -0.8304 -0.0100
 9010SOL    HW138492   3.982   1.254   4.874  0.3341  2.3108  2.9343
 9010SOL    HW238493   3.923   1.319   4.752 -0.8471 -1.0342 -0.5039
 9011SOL     OW38494   3.447   1.929  15.971  0.1588 -0.1074  0.0149
 9011SOL    HW138495   3.468   1.886  16.053 -0.5998  1.8251  1.2374
 9011SOL    HW238496   3.362   1.886  15.958 -0.3376  0.4169  1.5138
 9012SOL     OW38497   0.639   4.280   7.128  0.3906 -0.0712  0.1701
 9012SOL    HW138498   0.609   4.253   7.041  1.2713  0.1227 -0.2013
 9012SOL    HW238499   0.644   4.375   7.121 -2.8401  0.0353 -0.7272
 9013SOL     OW38500   0.408   2.325   5.456  0.3539  0.0033  0.3456
 9013SOL    HW138501   0.466   2.272   5.511 -1.5891 -1.7938  0.6580
 9013SOL    HW238502   0.345   2.258   5.429 -0.2475  0.6480  0.1186
 9014SOL     OW38503   1.583   0.807   0.781  0.5041  0.3335  0.2452
 9014SOL    HW138504   1.556   0.718   0.806  2.7567 -0.4676 -0.1194
 9014SOL    HW238505   1.514   0.867   0.808  1.6107  0.8717  1.9218
 9015SOL     OW38506   3.321   2.982   1.015  0.0443 -0.0705 -0.1221
 9015SOL    HW138507   3.412   2.956   1.027  0.1186  0.3964  0.3066
 9015SOL    HW238508   3.318   2.995   0.920  0.6675  0.3676 -0.0762
 9016SOL     OW38509   2.951   1.691   6.127  0.3162 -0.1762  0.3675
 9016SOL    HW138510   2.977   1.621   6.186 -2.6147  0.9849  2.9952
 9016SOL    HW238511   2.978   1.768   6.177  1.7770  1.2135 -2.5768
 9017SOL     OW38512   2.219   4.074   0.248 -0.6690  0.7722  0.3555
 9017SOL    HW138513   2.272   4.021   0.308 -0.1947 -1.7277 -2.2964
 9017SOL    HW238514   2.248   4.162   0.271 -1.2981  0.5907  1.8549
 9018SOL     OW38515   0.830   3.793   9.500 -0.0717  0.0796 -0.2855
 9018SOL    HW138516   0.898   3.725   9.501  0.3008  0.4695  1.4256
 9018SOL    HW238517   0.768   3.761   9.565 -1.9231  0.4389 -1.9016
 9019SOL     OW38518   4.274   2.093   8.164 -0.0611  0.3666  0.2756
 9019SOL    HW138519   4.231   2.046   8.236  1.0851 -1.9919 -0.5897
 9019SOL    HW238520   4.363   2.086   8.197 -0.1009  2.4560  0.8204
 9020SOL     OW38521   2.532   4.329  10.790  0.0551 -0.0127 -0.1757
 9020SOL    HW138522   2.574   4.246  10.811  0.1197 -0.6871 -2.8963
 9020SOL    HW238523   2.481   4.345  10.869  0.9070  0.5342  0.2555
 9021SOL     OW38524   1.691   1.138  14.219  0.0263  0.3774  0.3177
 9021SOL    HW138525   1.665   1.168  14.132 -1.9861 -0.1756  0.7297
 9021SOL    HW238526   1.737   1.213  14.257  0.6119  0.6691 -0.9638
 9022SOL     OW38527   3.139   2.961   1.786  0.1949  0.6133 -0.1685
 9022SOL    HW138528   3.203   2.901   1.824 -0.8895  0.4055  1.3030
 9022SOL    HW238529   3.192   2.999   1.716  2.8265 -3.4020 -0.3774
 9023SOL     OW38530   0.648   4.101   3.310 -0.6264 -0.0986  0.9329
 9023SOL    HW138531   0.742   4.084   3.306 -0.2874  1.0676  3.4685
 9023SOL    HW238532   0.638   4.188   3.272 -0.9014 -1.4809 -2.1441
 9024SOL     OW38533   3.329   0.056   7.907 -0.0542 -0.4000  0.0644
 9024SOL    HW138534   3.259   0.115   7.880  1.5922  0.9822 -1.1125
 9024SOL    HW238535   3.397   0.071   7.842 -0.1506 -2.1823 -0.4631
 9025SOL     OW38536   4.061   2.147   6.884  0.2479  0.1031 -0.0761
 9025SOL    HW138537   4.125   2.174   6.950 -1.6142 -1.1844  2.2835
 9025SOL    HW238538   4.113   2.086   6.831 -2.2665 -0.2816 -2.0961
 9026SOL     OW38539   1.527   2.173   2.169 -0.0926  0.4829  0.3789
 9026SOL    HW138540   1.598   2.237   2.174 -1.8486  2.3773  1.0634
 9026SOL    HW238541   1.487   2.200   2.087 -1.0805  0.4117  0.8360
 9027SOL     OW38542   0.261   1.981   6.554  0.1840 -0.1370  0.4732
 9027SOL    HW138543   0.221   2.010   6.472 -0.1387  0.4026  0.8157
 9027SOL    HW238544   0.239   2.049   6.617  0.2875 -2.0551  2.5825
 9028SOL     OW38545   4.651   1.901   6.624  0.2616 -0.0736  0.3789
 9028SOL    HW138546   4.700   1.913   6.706  0.7952 -0.1868  0.0721
 9028SOL    HW238547   4.700   1.829   6.586 -3.0438 -0.8874 -2.2880
 9029SOL     OW38548   2.829   4.320   1.992  0.1172  0.2753  0.2006
 9029SOL    HW138549   2.740   4.286   2.005  0.1832 -0.3123 -0.8657
 9029SOL    HW238550   2.863   4.254   1.931 -0.5123  1.0148 -0.9659
 9030SOL     OW38551   0.514   2.661   1.261 -0.1784  0.2086  0.3385
 9030SOL    HW138552   0.467   2.578   1.262  0.3655 -0.0988  0.8302
 9030SOL    HW238553   0.494   2.678   1.354 -0.1794  1.6372  0.0830
 9031SOL     OW38554   1.885   3.348   1.624  0.0175  0.5605 -0.5123
 9031SOL    HW138555   1.819   3.317   1.686  1.1080 -0.4153  0.1427
 9031SOL    HW238556   1.864   3.300   1.544 -0.3199  1.5821 -1.0451
 9032SOL     OW38557   2.166   2.570   7.254  0.0228 -0.4673  0.4548
 9032SOL    HW138558   2.075   2.596   7.242  0.2852  0.9391  1.4066
 9032SOL    HW238559   2.204   2.627   7.321 -2.4883  1.2321  0.4352
 9033SOL     OW38560   3.610   0.623   1.390 -0.0933  0.5864 -0.1490
 9033SOL    HW138561   3.623   0.687   1.460 -1.4565  0.4817  0.2004
 9033SOL    HW238562   3.579   0.686   1.326 -0.2461 -0.7470 -1.3861
 9034SOL     OW38563   1.543   4.126   5.210  0.2901 -0.1940 -0.4621
 9034SOL    HW138564   1.571   4.160   5.295 -0.6093 -0.0616 -0.2190
 9034SOL    HW238565   1.501   4.044   5.235 -0.1349  0.0378 -0.4172
 9035SOL     OW38566   1.444   2.450  16.860  0.0587  0.2027  0.4790
 9035SOL    HW138567   1.355   2.436  16.892 -0.2083 -0.8447 -0.6958
 9035SOL    HW238568   1.436   2.452  16.765  2.5249  2.8322  0.3442
 9036SOL     OW38569   4.172   0.903   8.529  0.4263  0.1555  0.2099
 9036SOL    HW138570   4.199   0.937   8.614 -2.1354  2.7429  0.0217
 9036SOL    HW238571   4.242   0.928   8.469 -0.7900  1.6259 -0.6029
 9037SOL     OW38572   0.123   4.696   2.735 -0.1070 -1.0659 -0.3601
 9037SOL    HW138573   0.065   0.048   2.738 -1.1858 -1.9135  0.2737
 9037SOL    HW238574   0.184   4.711   2.663  0.2126 -3.7271 -0.6550
 9038SOL     OW38575   3.619   1.494  16.533  0.3387 -0.0715  0.1053
 9038SOL    HW138576   3.711   1.482  16.510  0.0200 -0.9754 -0.7397
 9038SOL    HW238577   3.623   1.581  16.571 -0.4074 -0.2699  0.6298
 9039SOL     OW38578   2.006   3.311  17.674 -0.1343  0.1391 -0.6741
 9039SOL    HW138579   1.921   3.354  17.684 -0.3741 -0.0789 -1.7129
 9039SOL    HW238580   1.978   3.234  17.624 -0.9952 -0.3056  0.4859
 9040SOL     OW38581   4.577   2.223   7.521 -0.3115  0.2238  0.0366
 9040SOL    HW138582   4.501   2.206   7.577  0.8145 -2.8540  0.6479
 9040SOL    HW238583   4.634   2.270   7.582 -0.1746  1.4671 -1.0617
 9041SOL     OW38584   4.686   3.367   6.004  0.2506 -0.2199  0.3350
 9041SOL    HW138585   4.611   3.408   5.961 -1.8253 -2.9768  1.2935
 9041SOL    HW238586   4.646   3.349   6.089 -0.4620  0.3947  0.1327
 9042SOL     OW38587   2.421   3.016  11.979 -0.3289 -0.3389  0.2649
 9042SOL    HW138588   2.398   2.951  11.913  0.8087 -1.0602  0.5648
 9042SOL    HW238589   2.456   2.959  12.048 -2.2936 -0.7714  0.9069
 9043SOL     OW38590   0.811   0.895  15.676  0.2117  0.0650 -0.1837
 9043SOL    HW138591   0.739   0.935  15.725  1.2963 -2.6167  3.6300
 9043SOL    HW238592   0.889   0.924  15.724  0.7979 -1.5993 -0.1187
 9044SOL     OW38593   2.338   2.970   4.210  0.5499 -0.4638 -0.3442
 9044SOL    HW138594   2.370   3.040   4.154  0.0135 -0.9350 -1.2399
 9044SOL    HW238595   2.284   2.921   4.148  0.7190 -2.2169  0.8780
 9045SOL     OW38596   0.422   1.619   2.984 -0.0829  0.8859 -0.4852
 9045SOL    HW138597   0.475   1.551   2.943 -0.8114 -0.6314  1.0996
 9045SOL    HW238598   0.476   1.698   2.982  3.0712 -1.1976  1.5523
 9046SOL     OW38599   3.737   3.331   8.478  0.0673  0.4337  1.0034
 9046SOL    HW138600   3.824   3.370   8.491  0.1248  0.9222 -0.7554
 9046SOL    HW238601   3.705   3.351   8.566 -0.1022  1.3027  0.7474
 9047SOL     OW38602   4.608   1.309   7.643  0.2547  0.1254  0.7245
 9047SOL    HW138603   4.693   1.298   7.600 -0.2229  1.2429 -0.5235
 9047SOL    HW238604   4.557   1.355   7.576 -0.7144  0.4411  1.6757
 9048SOL     OW38605   2.915   1.195  15.598  0.5476  0.0929 -0.1056
 9048SOL    HW138606   2.860   1.263  15.637  0.6966 -0.4835  1.0950
 9048SOL    HW238607   2.852   1.127  15.574 -0.1914  1.0512 -0.9272
 9049SOL     OW38608   3.543   4.425   8.132  0.2788  0.0035 -0.4182
 9049SOL    HW138609   3.453   4.445   8.107  0.8363  0.8958 -1.7395
 9049SOL    HW238610   3.528   4.373   8.210 -0.0788  1.6695  0.6381
 9050SOL     OW38611   1.273   0.673   6.235  0.8420 -0.2534  0.1597
 9050SOL    HW138612   1.209   0.678   6.306  0.6277 -0.1806 -0.0385
 9050SOL    HW238613   1.237   0.741   6.177  0.9674  0.5587  1.0326
 9051SOL     OW38614   3.157   2.962   1.220 -0.0526  0.4972 -0.5701
 9051SOL    HW138615   3.218   2.981   1.149  2.3475  0.2269  1.4499
 9051SOL    HW238616   3.097   2.909   1.168  0.2816 -0.0830 -0.3641
 9052SOL     OW38617   4.618   2.725   2.656  0.5265  0.0687 -0.2112
 9052SOL    HW138618   4.531   2.701   2.689  1.3088 -0.6422  1.3365
 9052SOL    HW238619   4.661   2.640   2.672 -0.7264 -0.4813  0.2234
 9053SOL     OW38620   4.066   3.478  10.386 -0.5667  0.4563  0.1245
 9053SOL    HW138621   4.077   3.383  10.383  0.4009  0.6318 -2.1167
 9053SOL    HW238622   4.008   3.475  10.462  0.1381 -0.1651  0.6374
 9054SOL     OW38623   0.657   1.689   6.738  0.5595 -0.5574 -0.1949
 9054SOL    HW138624   0.599   1.731   6.674 -0.7145 -2.8321 -0.5381
 9054SOL    HW238625   0.706   1.624   6.687 -2.2486 -1.6930 -1.4666
 9055SOL     OW38626   2.906   3.267   4.890  0.0056 -0.1062  0.1322
 9055SOL    HW138627   2.867   3.231   4.970  0.3553 -2.5352 -0.8081
 9055SOL    HW238628   2.844   3.228   4.829  2.1226 -2.2261 -0.6625
 9056SOL     OW38629   3.277   0.744  12.181 -0.3139  0.5148  0.0990
 9056SOL    HW138630   3.326   0.712  12.106  2.9405  0.2886  2.3074
 9056SOL    HW238631   3.321   0.829  12.189  0.5992  0.2244 -1.8782
 9057SOL     OW38632   1.786   3.952  13.588  0.6934 -0.4635 -0.6490
 9057SOL    HW138633   1.700   3.991  13.598  0.3839 -1.5124  0.7556
 9057SOL    HW238634   1.794   3.891  13.661  0.6569  2.5811  1.8702
 9058SOL     OW38635   1.745   3.360   0.120  0.1526 -0.8236  0.0993
 9058SOL    HW138636   1.654   3.331   0.110  0.1094 -0.5734 -0.2343
 9058SOL    HW238637   1.737   3.451   0.146 -0.5425 -0.7253 -0.4513
 9059SOL     OW38638   1.155   4.672   8.901 -0.1806  0.5256 -0.7061
 9059SOL    HW138639   1.211   4.613   8.850  2.1429  0.3242  2.0652
 9059SOL    HW238640   1.087   4.690   8.836 -2.7319  1.6591  2.2964
 9060SOL     OW38641   0.411   0.117  17.219 -0.0834  0.5255  0.3930
 9060SOL    HW138642   0.392   0.189  17.158 -0.5273  1.5807  1.7835
 9060SOL    HW238643   0.356   0.048  17.183  0.5253  1.1525 -1.7610
 9061SOL     OW38644   3.309   4.629  15.783 -0.2484  0.0899  0.1001
 9061SOL    HW138645   3.240   4.692  15.807 -0.2848 -0.0045  0.2466
 9061SOL    HW238646   3.349   4.666  15.704  0.0249 -0.7491 -0.1519
 9062SOL     OW38647   1.536   4.053   6.269 -0.0064  0.3198  0.1760
 9062SOL    HW138648   1.517   3.961   6.284  0.4623  0.4396  1.5184
 9062SOL    HW238649   1.528   4.075   6.176 -1.1967  1.6437  0.5850
 9063SOL     OW38650   2.816   2.376   7.468  0.0793 -0.1945  0.1488
 9063SOL    HW138651   2.897   2.357   7.421 -0.0032  1.1373 -0.5281
 9063SOL    HW238652   2.824   2.302   7.527 -0.4741  1.1130  1.8648
 9064SOL     OW38653   2.524   0.847   5.190 -0.2499  0.1356 -1.0109
 9064SOL    HW138654   2.520   0.889   5.104 -2.0508  1.0687 -0.4751
 9064SOL    HW238655   2.595   0.784   5.181  0.8154  0.8354  2.5996
 9065SOL     OW38656   0.551   0.273  15.574 -0.4890  0.2241  0.2195
 9065SOL    HW138657   0.638   0.236  15.557 -0.2543  0.0402  1.7902
 9065SOL    HW238658   0.503   0.199  15.612 -1.2076  1.3361  1.4846
 9066SOL     OW38659   3.620   1.572   3.369  0.4589  0.0398 -0.2087
 9066SOL    HW138660   3.678   1.573   3.292 -0.4350 -0.6834 -0.8798
 9066SOL    HW238661   3.562   1.504   3.336  0.4875  0.1102 -0.4051
 9067SOL     OW38662   0.286   1.627   2.644  0.0150 -0.0800  0.2710
 9067SOL    HW138663   0.365   1.577   2.622  0.4270  0.5606  0.2992
 9067SOL    HW238664   0.223   1.561   2.672  1.7698 -1.6565  0.4700
 9068SOL     OW38665   3.467   2.468   6.079 -0.1482 -0.1540  0.0497
 9068SOL    HW138666   3.450   2.379   6.113  1.1061 -0.4400 -0.0636
 9068SOL    HW238667   3.415   2.470   5.999 -3.0227  0.3727  1.8998
 9069SOL     OW38668   3.584   0.383   4.452 -0.2310 -0.4948  0.5371
 9069SOL    HW138669   3.567   0.446   4.522 -0.5339  2.1249 -1.8981
 9069SOL    HW238670   3.679   0.376   4.445 -0.2175 -0.7626  0.9399
 9070SOL     OW38671   2.016   3.171   3.366  0.4226  0.7390 -0.1825
 9070SOL    HW138672   2.096   3.224   3.360 -0.0324  1.3786 -0.4780
 9070SOL    HW238673   1.958   3.228   3.416  1.3427 -0.1662  1.9222
 9071SOL     OW38674   0.352   4.475   7.983  0.4279 -0.4013 -0.8574
 9071SOL    HW138675   0.287   4.465   8.053  0.1771  2.6024 -0.6472
 9071SOL    HW238676   0.424   4.523   8.025 -1.1976  0.7191  0.6242
 9072SOL     OW38677   3.952   3.101   0.421  0.2261  0.4839 -0.5743
 9072SOL    HW138678   3.894   3.128   0.492 -0.9831 -0.5217 -1.1841
 9072SOL    HW238679   3.973   3.010   0.443  1.4998  1.2120  1.2224
 9073SOL     OW38680   3.147   0.103  11.144 -0.1998 -0.6498 -0.3777
 9073SOL    HW138681   3.159   0.015  11.180  1.2812 -0.1796  0.2853
 9073SOL    HW238682   3.064   0.112  11.099  0.2385 -1.4434 -1.3388
 9074SOL     OW38683   0.261   1.563   1.152 -0.4547  0.0007  0.3777
 9074SOL    HW138684   0.298   1.514   1.226  1.7971  0.8031 -0.2152
 9074SOL    HW238685   0.333   1.607   1.106 -3.4873  2.7355 -1.6863
 9075SOL     OW38686   0.105   2.557  11.380 -0.1134 -0.2833 -0.3856
 9075SOL    HW138687   0.075   2.647  11.391 -1.7772 -1.1781  2.2588
 9075SOL    HW238688   0.201   2.565  11.384 -0.1358 -0.7753  1.1480
 9076SOL     OW38689   1.351   0.722  12.342 -0.2774  0.4171  0.0479
 9076SOL    HW138690   1.362   0.780  12.417  1.5286  0.9549 -0.6320
 9076SOL    HW238691   1.256   0.711  12.337 -0.2219 -0.2089  0.4052
 9077SOL     OW38692   3.573   1.337  15.740 -0.4313  0.8550 -0.5063
 9077SOL    HW138693   3.537   1.397  15.805  0.1128  1.3169 -0.6353
 9077SOL    HW238694   3.510   1.348  15.669 -0.5590 -1.0684 -0.6865
 9078SOL     OW38695   0.249   3.318   1.908  0.3672  0.3841 -0.0665
 9078SOL    HW138696   0.284   3.337   1.995  0.3952  0.9666 -0.2091
 9078SOL    HW238697   0.188   3.391   1.905 -0.6289 -0.4726 -1.0402
 9079SOL     OW38698   3.017   3.695   7.920 -0.3721  0.0742 -0.2325
 9079SOL    HW138699   2.926   3.672   7.900 -0.3677  0.7269 -1.0341
 9079SOL    HW238700   3.007   3.790   7.924  0.3164  0.0358  1.8673
 9080SOL     OW38701   2.858   1.818   3.831  0.1119 -0.4347 -0.5072
 9080SOL    HW138702   2.951   1.815   3.809  0.2833  0.6162  0.0216
 9080SOL    HW238703   2.842   1.729   3.863 -0.7877 -0.6115 -1.4484
 9081SOL     OW38704   3.100   3.072   8.679  0.3358  0.0488  0.2630
 9081SOL    HW138705   3.084   3.158   8.719 -0.6068 -0.5333  1.1245
 9081SOL    HW238706   3.060   3.011   8.740 -2.6154  0.4979 -1.2158
 9082SOL     OW38707   2.539   0.287   1.161 -0.8405 -0.0219 -0.4666
 9082SOL    HW138708   2.578   0.262   1.244 -1.8070  0.0295 -0.0024
 9082SOL    HW238709   2.546   0.383   1.162  1.2462 -0.1179 -3.9784
 9083SOL     OW38710   3.481   4.089   9.963  0.0175 -0.0895 -0.1614
 9083SOL    HW138711   3.556   4.030   9.959 -0.2994 -0.4518 -0.7536
 9083SOL    HW238712   3.464   4.097   9.869 -0.8425  0.2603  0.0225
 9084SOL     OW38713   4.278   3.368  11.900  0.5142  0.3495 -0.2989
 9084SOL    HW138714   4.351   3.429  11.895  0.7264  0.1711  0.6362
 9084SOL    HW238715   4.325   3.296  11.943  0.3722 -0.5858 -1.7349
 9085SOL     OW38716   4.184   1.229   3.294  0.0848  0.1878  0.2041
 9085SOL    HW138717   4.181   1.233   3.198  2.4460  0.2062  0.1342
 9085SOL    HW238718   4.276   1.248   3.308  0.2026 -0.8792  0.8221
 9086SOL     OW38719   4.515   2.234   5.136 -0.2192  0.3667  0.0559
 9086SOL    HW138720   4.437   2.255   5.086  2.9611 -0.6924 -5.4143
 9086SOL    HW238721   4.472   2.175   5.198 -4.4901  1.3273 -2.0225
 9087SOL     OW38722   0.189   4.249   6.718  0.3017 -0.4350  0.1854
 9087SOL    HW138723   0.229   4.305   6.785  1.9579 -0.9769 -0.3484
 9087SOL    HW238724   0.099   4.281   6.719  0.3448 -0.3475  2.7276
 9088SOL     OW38725   1.746   3.439   5.289 -0.2754 -0.4700  0.3779
 9088SOL    HW138726   1.804   3.456   5.215 -1.6071  1.6229 -0.1955
 9088SOL    HW238727   1.785   3.358   5.322 -2.1558 -0.6330  2.1807
 9089SOL     OW38728   0.846   3.489   7.680  0.8550 -0.1890  0.5252
 9089SOL    HW138729   0.750   3.489   7.687  0.8393  0.8294  0.3217
 9089SOL    HW238730   0.874   3.491   7.772 -1.8429  1.6063  1.3213
 9090SOL     OW38731   4.026   1.031   3.913 -0.4149  0.2962  0.5860
 9090SOL    HW138732   3.974   0.959   3.876 -0.7221  0.6738  0.2792
 9090SOL    HW238733   4.099   1.019   3.852 -0.9402 -0.3541  0.0823
 9091SOL     OW38734   1.855   2.209   4.598 -0.3056 -0.3699  0.6170
 9091SOL    HW138735   1.911   2.277   4.634  0.1663  0.9107 -2.4716
 9091SOL    HW238736   1.891   2.176   4.516  1.5833  2.3241  0.3838
 9092SOL     OW38737   4.173   2.563  11.111  0.4851 -0.4830 -0.3560
 9092SOL    HW138738   4.246   2.543  11.051  0.5177 -1.9962  0.2044
 9092SOL    HW238739   4.176   2.490  11.172 -1.0372  1.4949  2.1250
 9093SOL     OW38740   3.720   3.631  16.923 -0.5500 -0.0993  0.2122
 9093SOL    HW138741   3.686   3.560  16.977  2.9979 -1.1821  1.0248
 9093SOL    HW238742   3.749   3.572  16.854  0.5138  1.3143 -0.5670
 9094SOL     OW38743   4.266   2.831   9.686  0.0967 -0.0084  0.0003
 9094SOL    HW138744   4.240   2.797   9.600  0.2958  1.9750 -0.8369
 9094SOL    HW238745   4.200   2.794   9.744 -1.2347  0.3115 -1.3103
 9095SOL     OW38746   1.471   1.265   9.037 -0.3164  0.0954  0.2105
 9095SOL    HW138747   1.553   1.236   9.078  0.8719  1.2701 -1.3045
 9095SOL    HW238748   1.493   1.341   8.982 -1.5687 -1.3563 -2.3084
 9096SOL     OW38749   0.837   3.624   2.866  0.0106 -0.0239 -0.7169
 9096SOL    HW138750   0.928   3.609   2.840  0.2131  0.9786 -0.5914
 9096SOL    HW238751   0.852   3.690   2.933 -0.4987  0.8713 -1.4907
 9097SOL     OW38752   1.105   3.614   5.135  0.6272 -0.2658 -0.2330
 9097SOL    HW138753   1.097   3.663   5.217 -1.7807 -0.2755 -0.4652
 9097SOL    HW238754   1.097   3.523   5.162  0.9429 -0.4053 -0.6067
 9098SOL     OW38755   4.709   0.352   5.222  0.6003 -0.4648 -0.3081
 9098SOL    HW138756   4.642   0.296   5.182  1.0056 -0.5947 -0.8103
 9098SOL    HW238757   0.014   0.287   5.285  0.7521 -0.2739 -0.1818
 9099SOL     OW38758   3.232   0.395   8.465  0.1202  0.8143  0.5304
 9099SOL    HW138759   3.170   0.331   8.431  1.1999 -0.5288  1.0698
 9099SOL    HW238760   3.303   0.337   8.492 -0.5077 -1.0014 -1.6876
 9100SOL     OW38761   3.626   2.028  15.790 -0.2265 -0.0749 -0.1289
 9100SOL    HW138762   3.562   2.020  15.860 -0.5362  0.9563 -0.2922
 9100SOL    HW238763   3.568   2.048  15.717  0.6963 -1.8595 -1.3464
 9101SOL     OW38764   0.604   2.035   4.410 -0.6191  0.0067  0.6397
 9101SOL    HW138765   0.564   1.985   4.339  1.8438  0.0496 -0.7992
 9101SOL    HW238766   0.696   2.028   4.383 -0.5502  1.4659  0.5048
 9102SOL     OW38767   4.364   1.093   5.735 -0.4795 -0.0412  0.2452
 9102SOL    HW138768   4.340   1.001   5.723 -2.3526  0.7376 -2.0542
 9102SOL    HW238769   4.318   1.134   5.662 -1.2586  0.1664  0.8609
 9103SOL     OW38770   2.532   2.245   6.403 -0.0764  1.2354  0.2045
 9103SOL    HW138771   2.562   2.242   6.312 -1.8571 -0.0444 -0.3388
 9103SOL    HW238772   2.610   2.254   6.458 -1.3276  1.1754  2.0014
 9104SOL     OW38773   4.662   3.270   4.002  0.1996 -0.2631 -0.5657
 9104SOL    HW138774   4.698   3.270   4.091  0.6999 -0.7058 -0.7658
 9104SOL    HW238775   4.588   3.329   4.016  1.1962  0.4821  1.5253
 9105SOL     OW38776   0.807   2.272   5.149  0.0614  0.2013 -0.0556
 9105SOL    HW138777   0.820   2.215   5.073  1.3600 -2.1056  1.9218
 9105SOL    HW238778   0.742   2.221   5.197  0.8997 -0.1620  0.6939
 9106SOL     OW38779   1.364   1.498  16.256  0.7628 -0.1483 -0.4477
 9106SOL    HW138780   1.312   1.444  16.197 -1.0401 -0.4055  1.3813
 9106SOL    HW238781   1.354   1.440  16.332 -2.5315 -0.5989 -1.2558
 9107SOL     OW38782   3.905   0.447   5.520  0.0721  1.0199 -0.4821
 9107SOL    HW138783   3.974   0.486   5.465  0.3827  1.0477 -0.0745
 9107SOL    HW238784   3.831   0.455   5.460 -1.5967 -0.8142  1.3004
 9108SOL     OW38785   3.829   3.747   9.761 -0.1545  0.2769 -0.2827
 9108SOL    HW138786   3.810   3.804   9.686 -1.9454  0.7500  0.5241
 9108SOL    HW238787   3.737   3.739   9.785  0.3483 -1.2976  1.1262
 9109SOL     OW38788   0.831   4.722  11.713  0.0881  0.3728 -0.3183
 9109SOL    HW138789   0.916   4.700  11.751 -0.4844 -0.1930  0.6281
 9109SOL    HW238790   0.829   4.672  11.631 -0.1147  0.4364 -0.3526
 9110SOL     OW38791   3.902   1.815   6.735 -0.1197  0.9378  0.3654
 9110SOL    HW138792   3.993   1.835   6.712 -0.3526 -1.0002 -2.2407
 9110SOL    HW238793   3.884   1.877   6.807 -0.0796 -0.1319  1.3014
 9111SOL     OW38794   2.250   1.727   2.164 -0.3991 -0.1313  0.2681
 9111SOL    HW138795   2.172   1.677   2.187 -0.2745  0.4428  1.9397
 9111SOL    HW238796   2.307   1.656   2.136  0.3906  0.5235  0.1891
 9112SOL     OW38797   0.914   3.190   5.804  0.5967 -0.3900 -0.2948
 9112SOL    HW138798   0.966   3.264   5.772 -0.1236 -0.7169 -2.2535
 9112SOL    HW238799   0.901   3.133   5.728 -3.0733  0.0039  0.0149
 9113SOL     OW38800   2.830   3.589   6.893  0.0552 -0.0116  0.2325
 9113SOL    HW138801   2.737   3.605   6.905 -0.2158  0.0932 -1.9931
 9113SOL    HW238802   2.853   3.505   6.933  0.8137  0.2466  0.3543
 9114SOL     OW38803   0.284   1.949  13.698  0.8058 -0.8148 -0.3257
 9114SOL    HW138804   0.335   1.868  13.687  0.7900 -0.6953 -1.3352
 9114SOL    HW238805   0.352   2.012  13.675  0.2956 -0.2147 -0.1624
 9115SOL     OW38806   0.784   0.742   0.065 -0.3539  0.2142 -0.8132
 9115SOL    HW138807   0.801   0.769   0.156  2.2786 -3.6694 -0.1594
 9115SOL    HW238808   0.717   0.801   0.031  0.4361  0.8274 -1.3163
 9116SOL     OW38809   0.979   1.253   5.850 -0.2945  0.6716  0.2215
 9116SOL    HW138810   0.890   1.220   5.846 -0.9433  2.5261 -0.6299
 9116SOL    HW238811   0.976   1.315   5.777 -0.3373  2.8935  2.1009
 9117SOL     OW38812   0.235   2.500   7.509 -0.2972  0.3572  0.0490
 9117SOL    HW138813   0.265   2.493   7.600  0.9337  0.5199 -0.3528
 9117SOL    HW238814   0.293   2.437   7.467 -1.2872 -1.0779  0.7914
 9118SOL     OW38815   1.931   4.237   4.680 -0.0797  0.1618  0.2868
 9118SOL    HW138816   1.853   4.204   4.636 -1.0605  0.8077  1.5702
 9118SOL    HW238817   1.907   4.258   4.769  0.7655  2.1093  0.0518
 9119SOL     OW38818   2.400   2.810  11.804 -0.3909 -0.4454 -0.4791
 9119SOL    HW138819   2.394   2.757  11.724 -0.0769 -0.9382 -0.1821
 9119SOL    HW238820   2.404   2.738  11.867  0.4250 -1.0973 -1.2760
 9120SOL     OW38821   3.626   3.448  14.983 -0.0511 -0.1315 -0.2126
 9120SOL    HW138822   3.607   3.354  14.981 -0.4481 -0.0602  0.2189
 9120SOL    HW238823   3.553   3.496  14.942  0.3964 -0.0672 -0.9342
 9121SOL     OW38824   4.609   3.184   9.871  0.4680  0.0959 -0.4204
 9121SOL    HW138825   4.556   3.106   9.855 -0.1067  0.5145 -0.5555
 9121SOL    HW238826   4.590   3.229   9.788 -0.4063 -1.6313 -1.1536
 9122SOL     OW38827   4.257   3.466   3.767 -0.0664  0.1202  0.3965
 9122SOL    HW138828   4.185   3.436   3.712 -0.5250  0.3219  0.8855
 9122SOL    HW238829   4.247   3.424   3.852  0.1749  0.6460  0.6849
 9123SOL     OW38830   0.369   0.120  14.662 -0.4596  0.2861  0.2471
 9123SOL    HW138831   0.430   0.047  14.651 -1.6941 -0.7135 -0.0851
 9123SOL    HW238832   0.295   0.060  14.648 -0.4314  0.3014  0.0330
 9124SOL     OW38833   1.144   4.503   5.854  0.1318 -0.6693 -0.0668
 9124SOL    HW138834   1.194   4.490   5.935 -1.9339 -1.6772  1.0495
 9124SOL    HW238835   1.195   4.575   5.816  1.0861 -0.1887  2.1454
 9125SOL     OW38836   2.583   4.598   2.208  0.5880  0.0529 -0.5802
 9125SOL    HW138837   2.549   4.688   2.205 -0.0185 -0.1962 -0.9494
 9125SOL    HW238838   2.515   4.551   2.161  1.2434 -2.9262  1.4216
 9126SOL     OW38839   4.581   3.181   4.268  0.4584 -0.2798 -0.0885
 9126SOL    HW138840   4.603   3.105   4.322 -2.0480 -1.3533 -0.5906
 9126SOL    HW238841   4.653   3.236   4.299 -0.5970  1.2608 -0.4008
 9127SOL     OW38842   2.575   2.348   8.530  0.5478 -0.4463  0.0234
 9127SOL    HW138843   2.660   2.374   8.566  0.5700 -1.3759  0.6293
 9127SOL    HW238844   2.530   2.431   8.545 -2.0116 -2.2278  2.1863
 9128SOL     OW38845   3.118   4.420  16.195 -0.3176 -0.5287 -0.3241
 9128SOL    HW138846   3.088   4.493  16.140  0.9687  0.2875  0.0752
 9128SOL    HW238847   3.051   4.358  16.165 -0.7084 -1.1404  1.8268
 9129SOL     OW38848   4.649   2.047   9.554  0.2072 -0.0281  0.5436
 9129SOL    HW138849   4.647   1.951   9.550 -0.8407  0.0477 -1.1543
 9129SOL    HW238850   4.573   2.080   9.601  0.3430  0.2248  0.5845
 9130SOL     OW38851   3.926   1.584  17.352 -0.3797  0.8864 -0.3657
 9130SOL    HW138852   3.845   1.595  17.401  1.0837 -0.4485  2.3248
 9130SOL    HW238853   3.892   1.557  17.267  0.7633 -1.7905  0.0249
 9131SOL     OW38854   3.612   2.585   2.095  0.0654  0.0794 -0.1573
 9131SOL    HW138855   3.517   2.601   2.099  0.3174  0.9325  1.9964
 9131SOL    HW238856   3.618   2.593   2.000 -1.3766  0.9138 -0.1767
 9132SOL     OW38857   3.995   0.588  11.198  0.4387  0.2510  0.4174
 9132SOL    HW138858   4.085   0.589  11.231  1.5131 -0.3465 -2.5745
 9132SOL    HW238859   3.947   0.587  11.281  2.1081 -0.4458  1.3724
 9133SOL     OW38860   1.720   0.168   4.759  0.6302  0.4894 -0.0996
 9133SOL    HW138861   1.763   0.198   4.840  1.0016  2.5000 -1.0281
 9133SOL    HW238862   1.661   0.101   4.791 -0.1852  1.0992 -0.3258
 9134SOL     OW38863   1.945   2.204   5.930 -0.5866  0.0925  1.1342
 9134SOL    HW138864   1.972   2.113   5.935  3.1360  1.2398  1.3842
 9134SOL    HW238865   1.859   2.203   5.886 -0.4119 -0.3595  0.7973
 9135SOL     OW38866   0.925   2.463   5.908 -0.0557  0.0880 -0.0342
 9135SOL    HW138867   0.834   2.435   5.911 -0.1094  0.4077  1.1874
 9135SOL    HW238868   0.907   2.551   5.942  2.5837  1.0123 -1.0080
 9136SOL     OW38869   4.246   1.739   4.683  0.5086 -0.4420 -0.3989
 9136SOL    HW138870   4.237   1.780   4.597 -1.6464 -0.6368 -0.2753
 9136SOL    HW238871   4.179   1.671   4.678  0.3118 -0.4578  1.9858
 9137SOL     OW38872   0.042   2.373   5.224  0.3301  0.0530 -0.5870
 9137SOL    HW138873   0.016   2.379   5.316 -0.9031  0.2998 -0.9513
 9137SOL    HW238874   4.698   2.314   5.193  0.2429 -0.5432  0.7671
 9138SOL     OW38875   3.395   1.730   1.109 -0.0690  0.2397 -1.0758
 9138SOL    HW138876   3.456   1.803   1.111 -1.0181  1.0538 -1.5854
 9138SOL    HW238877   3.449   1.666   1.156  0.1805  0.2562 -1.3418
 9139SOL     OW38878   3.431   1.440   8.710  0.4424  0.8727  0.1848
 9139SOL    HW138879   3.437   1.530   8.742 -1.9085  0.7116  1.0847
 9139SOL    HW238880   3.518   1.411   8.739  1.1391  0.8560 -1.9076
 9140SOL     OW38881   0.032   4.087   7.192  0.0129  0.4879 -0.5047
 9140SOL    HW138882   4.715   4.133   7.119  0.2304  0.7702 -0.4488
 9140SOL    HW238883   4.675   4.048   7.222 -0.2268  1.3333 -0.0572
 9141SOL     OW38884   2.779   2.126   6.339 -0.5612 -0.4170  0.3660
 9141SOL    HW138885   2.719   2.162   6.274 -0.0860 -1.7324 -0.8132
 9141SOL    HW238886   2.738   2.047   6.372  0.1193 -0.2495  1.6214
 9142SOL     OW38887   1.946   1.095   6.661 -0.1928  0.0516 -0.1208
 9142SOL    HW138888   2.007   1.166   6.644  0.2241 -0.0692  0.8956
 9142SOL    HW238889   1.961   1.039   6.584 -0.2562  1.6184 -1.2773
 9143SOL     OW38890   0.023   1.854   8.934  0.2091 -0.4425  0.0319
 9143SOL    HW138891   0.051   1.867   9.025 -0.0089 -1.7358  0.2699
 9143SOL    HW238892   0.089   1.906   8.887 -0.0322 -0.8469 -0.7370
 9144SOL     OW38893   4.278   3.389  15.217 -0.1551  0.0091 -0.2575
 9144SOL    HW138894   4.233   3.313  15.181  0.4376 -0.5211  0.1284
 9144SOL    HW238895   4.363   3.383  15.172  0.6847  0.8230  1.2201
 9145SOL     OW38896   1.075   1.079  14.224 -0.1007  0.0336  0.0173
 9145SOL    HW138897   1.141   1.029  14.176  1.6285 -0.1667  2.6235
 9145SOL    HW238898   1.011   1.079  14.153  1.8079  1.3155 -1.7233
 9146SOL     OW38899   1.168   1.117   3.240  0.0061 -0.3249 -0.0940
 9146SOL    HW138900   1.247   1.106   3.187 -0.4452  0.7715 -1.0155
 9146SOL    HW238901   1.199   1.167   3.315 -0.7371 -1.7444  1.1361
 9147SOL     OW38902   2.291   2.059   9.624  0.2877 -0.2917  0.0925
 9147SOL    HW138903   2.253   2.118   9.688  1.1224  0.2307  0.1119
 9147SOL    HW238904   2.379   2.059   9.663 -0.3584 -2.7838  1.5460
 9148SOL     OW38905   4.302   3.737   0.200  0.7089  0.5986  0.0797
 9148SOL    HW138906   4.311   3.642   0.206  0.2517  0.4863 -1.0301
 9148SOL    HW238907   4.302   3.758   0.107 -1.6164 -0.2715 -0.1246
 9149SOL     OW38908   3.514   2.804   9.810  0.0758 -0.5524  0.8776
 9149SOL    HW138909   3.531   2.770   9.723 -3.2264  0.4492 -0.1697
 9149SOL    HW238910   3.536   2.893   9.783 -0.6885 -0.2623  1.1909
 9150SOL     OW38911   4.149   1.212   9.536 -0.2016  0.1197 -0.0636
 9150SOL    HW138912   4.145   1.285   9.475  0.1904 -0.9825 -1.3997
 9150SOL    HW238913   4.146   1.130   9.487  0.6861  0.8543 -1.3521
 9151SOL     OW38914   4.393   1.153   6.643  0.4515 -0.0533  0.1461
 9151SOL    HW138915   4.416   1.231   6.694 -5.0596  1.8654 -0.3365
 9151SOL    HW238916   4.400   1.189   6.555 -0.3470 -2.0056 -0.7019
 9152SOL     OW38917   0.787   4.663   5.141 -0.3238 -0.0379 -0.2820
 9152SOL    HW138918   0.812   0.029   5.158  1.0933 -1.0446  2.9975
 9152SOL    HW238919   0.817   4.630   5.225 -2.8744  0.8911  0.9952
 9153SOL     OW38920   0.675   1.607   8.287  0.0408  0.1244  0.1680
 9153SOL    HW138921   0.759   1.640   8.256  0.0392  0.8437  0.9347
 9153SOL    HW238922   0.643   1.676   8.345  1.5806  0.2140  0.9153
 9154SOL     OW38923   0.567   4.147   7.586 -0.1207 -0.9792  0.5866
 9154SOL    HW138924   0.582   4.218   7.524 -0.2893 -1.3135  0.1639
 9154SOL    HW238925   0.623   4.194   7.648 -1.0745  0.6361  0.2506
 9155SOL     OW38926   0.896   0.269   1.868 -0.2530  0.4925  0.3205
 9155SOL    HW138927   0.967   0.241   1.925  0.5288  1.3905 -0.2074
 9155SOL    HW238928   0.911   0.363   1.856  3.0850 -0.2963 -1.5832
 9156SOL     OW38929   0.681   2.580  10.646 -0.7352 -0.3236 -0.2522
 9156SOL    HW138930   0.717   2.668  10.637 -0.4178 -0.3412  0.9176
 9156SOL    HW238931   0.732   2.551  10.722  1.3582  2.0780 -0.7474
 9157SOL     OW38932   3.899   0.612  14.227  0.4939 -0.2665 -0.1918
 9157SOL    HW138933   3.875   0.523  14.252 -2.5496  0.6401  0.1052
 9157SOL    HW238934   3.934   0.607  14.138 -0.3329 -3.0797 -0.3544
 9158SOL     OW38935   0.745   0.970   7.701  0.1184 -0.3418  0.0663
 9158SOL    HW138936   0.689   0.983   7.778 -0.0594  0.1746 -0.1542
 9158SOL    HW238937   0.798   1.049   7.704  0.9655 -1.0045  2.5575
 9159SOL     OW38938   1.985   2.432   0.897 -0.5168 -0.8070  0.0889
 9159SOL    HW138939   2.002   2.522   0.868 -2.6342  0.1031  1.6481
 9159SOL    HW238940   1.929   2.408   0.822  1.1141  0.1023 -1.4162
 9160SOL     OW38941   4.552   3.491   1.651 -0.2236 -0.1085  0.1190
 9160SOL    HW138942   4.508   3.480   1.735 -1.3998  2.5602 -0.1269
 9160SOL    HW238943   4.599   3.572   1.670 -0.7683  0.3690 -0.5254
 9161SOL     OW38944   4.508   1.982   5.707  0.1157  0.1512 -0.2566
 9161SOL    HW138945   4.431   1.994   5.651 -0.1702  0.8596  0.2748
 9161SOL    HW238946   4.519   1.890   5.730  1.4989  0.6392  1.0036
 9162SOL     OW38947   3.461   2.808   0.737  0.5948  0.0896  0.7311
 9162SOL    HW138948   3.368   2.799   0.759 -0.1462  0.5854 -2.1525
 9162SOL    HW238949   3.474   2.724   0.694 -1.4716 -0.5808  1.4049
 9163SOL     OW38950   2.862   4.603   2.621 -0.0101 -0.1791 -0.7597
 9163SOL    HW138951   2.769   4.578   2.615 -0.1620  0.3764 -0.6935
 9163SOL    HW238952   2.868   4.640   2.533 -2.4556  0.9446 -0.4695
 9164SOL     OW38953   0.006   2.958  10.970  0.6581 -0.1494  0.2613
 9164SOL    HW138954   0.014   2.918  11.057  1.0799 -0.2264  0.1848
 9164SOL    HW238955   0.072   2.904  10.927  0.1210 -0.8295  0.2814
 9165SOL     OW38956   4.127   2.888   8.943  0.4122 -0.0346  0.3704
 9165SOL    HW138957   4.180   2.839   9.006  0.5748 -0.2037  0.0987
 9165SOL    HW238958   4.057   2.914   9.003  2.0436  2.3854  1.2258
 9166SOL     OW38959   4.555   3.416   6.555 -0.1277 -0.2689  0.0026
 9166SOL    HW138960   4.626   3.480   6.562 -1.4475  1.2768 -1.0890
 9166SOL    HW238961   4.528   3.426   6.464  1.5085 -0.3229 -0.4846
 9167SOL     OW38962   1.322   2.589  16.489  0.1689  0.3886  0.1527
 9167SOL    HW138963   1.307   2.683  16.476  0.9686  0.4641 -0.1765
 9167SOL    HW238964   1.244   2.578  16.543 -0.2792  0.8031 -0.4050
 9168SOL     OW38965   1.657   4.273   1.191  1.1083 -0.2839 -0.1983
 9168SOL    HW138966   1.589   4.303   1.132  0.9126  0.5357  0.4377
 9168SOL    HW238967   1.672   4.189   1.147  0.8575 -0.0034 -0.8155
 9169SOL     OW38968   3.815   2.051  17.016  0.0589  0.0177  0.1508
 9169SOL    HW138969   3.721   2.061  17.007  0.3187  0.6121 -2.0247
 9169SOL    HW238970   3.815   2.004  17.099 -0.1307  0.9896  0.6989
 9170SOL     OW38971   3.025   1.124   3.219 -0.4827  0.2049 -0.1655
 9170SOL    HW138972   2.964   1.068   3.169  0.8454  0.1247 -1.6870
 9170SOL    HW238973   3.083   1.153   3.149  0.7983  0.6602  1.0914
 9171SOL     OW38974   2.719   3.039   4.312 -0.4917 -0.0756  0.1402
 9171SOL    HW138975   2.724   3.092   4.232 -2.0245 -1.4330 -0.8632
 9171SOL    HW238976   2.629   3.061   4.339 -0.8499 -0.0397 -1.0794
 9172SOL     OW38977   4.146   2.729   6.682 -0.0401 -0.9380  0.3995
 9172SOL    HW138978   4.240   2.709   6.682  0.3028  0.6542  1.7887
 9172SOL    HW238979   4.124   2.741   6.774 -2.3006 -0.4578 -0.1985
 9173SOL     OW38980   0.434   4.270  10.257  0.0437  0.1561  0.1798
 9173SOL    HW138981   0.527   4.290  10.252  0.3191 -0.6539  2.2681
 9173SOL    HW238982   0.414   4.285  10.349 -2.1249  0.4871 -0.3498
 9174SOL     OW38983   2.119   3.614   9.034 -0.4026  0.0599 -0.1937
 9174SOL    HW138984   2.103   3.594   8.942 -1.1575 -1.5388  0.2799
 9174SOL    HW238985   2.048   3.675   9.053 -0.3334  1.1238 -3.3623
 9175SOL     OW38986   1.714   1.059  16.894 -0.4063 -0.4120  0.0440
 9175SOL    HW138987   1.790   1.118  16.889 -1.6249  0.9360 -2.3718
 9175SOL    HW238988   1.751   0.996  16.832 -2.6902 -1.0314 -0.6498
 9176SOL     OW38989   2.807   1.853   4.410  1.2338 -0.4898  0.0200
 9176SOL    HW138990   2.835   1.762   4.419  1.3505 -0.7048 -2.6715
 9176SOL    HW238991   2.885   1.897   4.444 -0.6003  1.6120  1.4976
 9177SOL     OW38992   4.467   3.269   2.986 -0.1498 -0.4607 -0.8121
 9177SOL    HW138993   4.454   3.229   2.900  0.8665 -0.4835 -0.9538
 9177SOL    HW238994   4.561   3.286   2.986  0.1177 -1.8954 -0.7326
 9178SOL     OW38995   2.242   0.721   7.434  0.2277  0.2244 -0.2463
 9178SOL    HW138996   2.153   0.745   7.459  1.0331  0.4864  2.4125
 9178SOL    HW238997   2.248   0.761   7.348 -0.1374  1.9763  0.5491
 9179SOL     OW38998   1.583   2.555   6.914 -0.4863 -0.6820 -0.3068
 9179SOL    HW138999   1.659   2.596   6.955  0.2620  0.6499 -2.9990
 9179SOL    HW239000   1.620   2.549   6.826 -1.7819  0.1156 -0.8900
 9180SOL     OW39001   1.140   1.373   7.561  0.6756  0.3630 -0.2510
 9180SOL    HW139002   1.223   1.349   7.521  0.2720 -2.5861  0.7051
 9180SOL    HW239003   1.085   1.406   7.490 -0.8956 -3.1430 -0.6650
 9181SOL     OW39004   3.718   4.373   8.545  0.1370 -0.2897  0.0467
 9181SOL    HW139005   3.663   4.334   8.477 -0.4708 -0.0752  0.4200
 9181SOL    HW239006   3.650   4.412   8.599  1.3885  0.9548  0.7420
 9182SOL     OW39007   2.867   1.712   3.001  0.6695  0.0610  0.6316
 9182SOL    HW139008   2.930   1.782   3.019  0.0663  0.6482  0.4714
 9182SOL    HW239009   2.821   1.745   2.924  0.1026 -2.2724 -0.0266
 9183SOL     OW39010   0.700   2.614   1.957  0.4569  0.1753  0.7637
 9183SOL    HW139011   0.714   2.600   2.051 -0.2258 -0.5532  0.7609
 9183SOL    HW239012   0.665   2.704   1.959 -0.9769 -0.2784 -3.2241
 9184SOL     OW39013   4.109   1.330   4.180 -0.0095  0.0593 -0.1703
 9184SOL    HW139014   4.099   1.407   4.125  0.1999 -0.9662 -1.6429
 9184SOL    HW239015   4.142   1.370   4.261 -0.4361  0.7343 -0.3317
 9185SOL     OW39016   1.364   2.430   6.727  0.0572 -0.4571 -0.9145
 9185SOL    HW139017   1.342   2.435   6.634  2.4916 -0.4893 -1.4902
 9185SOL    HW239018   1.457   2.455   6.726 -0.0736  0.1856  1.0440
 9186SOL     OW39019   0.199   2.982   3.740  0.1857  0.5638 -0.1944
 9186SOL    HW139020   0.292   2.972   3.760  0.3413  1.0566 -0.6587
 9186SOL    HW239021   0.183   3.070   3.706  0.8507  1.0401  0.7415
 9187SOL     OW39022   0.347   4.413   4.499 -0.1633 -0.0020  0.3408
 9187SOL    HW139023   0.342   4.505   4.526 -0.4232  0.5706 -1.6424
 9187SOL    HW239024   0.443   4.415   4.494 -0.0522  1.0551  2.5519
 9188SOL     OW39025   1.682   3.175  11.028 -0.5087  0.2699  0.3460
 9188SOL    HW139026   1.610   3.224  10.989  0.1413 -0.1904 -1.4497
 9188SOL    HW239027   1.697   3.226  11.108  0.8589  0.1472  0.1683
 9189SOL     OW39028   2.653   0.017   7.575  0.5536  0.2667 -0.6088
 9189SOL    HW139029   2.722   0.041   7.513  2.4491 -0.0708  1.3697
 9189SOL    HW239030   2.602   0.096   7.595  0.4223 -0.1327  0.6098
 9190SOL     OW39031   1.225   4.029   4.357 -0.3453  0.0570 -0.2745
 9190SOL    HW139032   1.162   4.015   4.427  1.5778  0.0747  1.4427
 9190SOL    HW239033   1.163   4.077   4.302 -1.1986  1.2287  1.7131
 9191SOL     OW39034   1.268   1.613   4.379 -0.2975  0.4811  0.6002
 9191SOL    HW139035   1.216   1.689   4.405 -0.9449 -0.0305  0.8157
 9191SOL    HW239036   1.204   1.556   4.336  1.1810  0.7117 -1.9086
 9192SOL     OW39037   3.573   3.767   7.354 -0.3054  0.4849 -0.0601
 9192SOL    HW139038   3.622   3.845   7.328 -0.2585  0.1194 -1.0635
 9192SOL    HW239039   3.528   3.802   7.431 -0.2908 -1.4055  0.7989
 9193SOL     OW39040   0.496   2.425   4.805 -0.0917 -0.1164  0.0584
 9193SOL    HW139041   0.539   2.505   4.776 -0.2033 -0.9650 -2.4598
 9193SOL    HW239042   0.411   2.465   4.826 -1.1584 -1.5665 -1.4392
 9194SOL     OW39043   0.316   2.784   8.582 -0.3386  0.2785  0.5411
 9194SOL    HW139044   0.347   2.694   8.593 -2.2179 -0.5174 -0.5040
 9194SOL    HW239045   0.243   2.791   8.643 -1.3098 -1.1453 -0.4454
 9195SOL     OW39046   1.237   4.409   6.853  0.0901 -0.5789  0.3122
 9195SOL    HW139047   1.241   4.368   6.939 -0.0344  0.0797  0.6275
 9195SOL    HW239048   1.184   4.339   6.814 -1.4474  0.7331  0.0419
 9196SOL     OW39049   0.849   3.035  15.628 -0.3844 -0.0729  0.1734
 9196SOL    HW139050   0.867   3.123  15.597 -1.0762  0.3808  1.0795
 9196SOL    HW239051   0.785   3.058  15.696 -0.5481 -0.9749  0.3253
 9197SOL     OW39052   1.136   0.907   6.134  0.1422 -0.4234  0.2406
 9197SOL    HW139053   1.083   0.861   6.070 -0.0194  0.7594 -0.4823
 9197SOL    HW239054   1.165   0.976   6.074 -1.3837  0.6415  0.7129
 9198SOL     OW39055   3.616   1.687   3.619  0.3992  0.4508  0.1784
 9198SOL    HW139056   3.704   1.724   3.621 -0.4030  2.4161 -1.7241
 9198SOL    HW239057   3.626   1.644   3.534  1.2302  1.7574 -0.3856
 9199SOL     OW39058   3.141   2.604   5.197  0.0756 -0.5499  0.0482
 9199SOL    HW139059   3.209   2.544   5.167  0.9790 -0.9767  2.9237
 9199SOL    HW239060   3.163   2.680   5.143 -0.8986 -0.5363 -0.3316
 9200SOL     OW39061   3.645   3.213   8.811 -0.0800 -0.1748 -0.4793
 9200SOL    HW139062   3.735   3.211   8.844  0.0703 -0.0022 -0.8784
 9200SOL    HW239063   3.618   3.121   8.804  0.2710 -0.2296 -1.1764
 9201SOL     OW39064   4.204   0.741  10.533  0.6726 -0.3008 -0.2906
 9201SOL    HW139065   4.175   0.829  10.509 -0.4128 -0.3649  0.8204
 9201SOL    HW239066   4.120   0.720  10.574  1.8490 -2.6404  0.8700
 9202SOL     OW39067   3.131   0.074  11.647  0.2783 -0.1193  0.1451
 9202SOL    HW139068   3.062   0.126  11.606 -0.2121 -0.5443  0.4268
 9202SOL    HW239069   3.161   0.131  11.718  1.6192  0.2017 -0.6863
 9203SOL     OW39070   3.602   2.692   8.550  0.2980  0.2708 -0.5308
 9203SOL    HW139071   3.573   2.600   8.549  0.5904  0.1793 -0.7129
 9203SOL    HW239072   3.530   2.739   8.590  0.8794 -0.4957  1.4389
 9204SOL     OW39073   1.602   1.259   8.661  0.0139  0.2457 -0.5975
 9204SOL    HW139074   1.682   1.284   8.615 -0.8392  2.7957 -0.6533
 9204SOL    HW239075   1.548   1.337   8.657 -1.1934 -0.5546  0.0584
 9205SOL     OW39076   3.348   1.013   3.803 -0.2047 -1.1483 -0.2141
 9205SOL    HW139077   3.351   1.109   3.805  0.7675 -1.1305 -2.3001
 9205SOL    HW239078   3.403   0.985   3.875 -1.7170 -0.3499  1.2541
 9206SOL     OW39079   2.294   2.472   8.458  0.3103 -0.1237 -0.2578
 9206SOL    HW139080   2.346   2.540   8.415  3.4307 -2.3603 -0.0189
 9206SOL    HW239081   2.231   2.468   8.386 -0.2265  2.2797  0.0497
 9207SOL     OW39082   0.521   0.307   2.568 -0.3605  0.7921  0.2694
 9207SOL    HW139083   0.553   0.246   2.635  1.9717 -1.9046 -3.3014
 9207SOL    HW239084   0.428   0.291   2.585 -0.7940  4.0942  0.9756
 9208SOL     OW39085   1.967   0.976  10.150  0.1557  1.0543  0.1514
 9208SOL    HW139086   1.969   1.035  10.075  0.9146  1.1111  0.2118
 9208SOL    HW239087   2.004   1.027  10.222  1.2419 -1.4023  1.3390
 9209SOL     OW39088   2.125   2.984   3.172  0.2003 -0.1676  0.3958
 9209SOL    HW139089   2.053   2.921   3.166  1.4632 -1.9817  3.7999
 9209SOL    HW239090   2.098   3.037   3.247 -1.2671 -0.8230  0.3282
 9210SOL     OW39091   4.172   0.203   1.912 -0.0498 -0.3431 -0.6085
 9210SOL    HW139092   4.123   0.285   1.918  1.2053  0.4901 -1.5627
 9210SOL    HW239093   4.115   0.158   1.850  0.0956 -2.2653  0.6633
 9211SOL     OW39094   3.820   2.671   5.555 -0.2350 -0.3818 -1.0148
 9211SOL    HW139095   3.909   2.692   5.582 -0.6431  1.1813 -0.9035
 9211SOL    HW239096   3.774   2.747   5.591  0.8969  0.5324 -1.5058
 9212SOL     OW39097   3.427   0.641  17.521  0.6643  0.1675 -0.0603
 9212SOL    HW139098   3.501   0.695  17.494  0.7625 -0.6360 -1.4074
 9212SOL    HW239099   3.435   0.655  17.615 -1.2022 -0.8378  0.2426
 9213SOL     OW39100   4.302   4.688  12.387 -0.2759  0.0994  0.1920
 9213SOL    HW139101   4.272   4.604  12.422  0.3695 -0.9541 -1.8124
 9213SOL    HW239102   4.272   0.027  12.452 -0.5269 -1.0499  1.1967
 9214SOL     OW39103   0.126   4.409  16.332 -0.0259 -0.6850 -0.2320
 9214SOL    HW139104   0.031   4.400  16.338 -0.1257  0.2145 -0.3663
 9214SOL    HW239105   0.147   4.426  16.424  1.1240  3.5962 -1.2758
 9215SOL     OW39106   3.102   1.021   3.981 -0.3020 -0.0312 -0.3477
 9215SOL    HW139107   3.175   1.030   3.920  0.6730  3.5495  1.3555
 9215SOL    HW239108   3.141   0.974   4.055  1.3269  2.9556  0.6593
 9216SOL     OW39109   2.595   4.072   4.463  0.2064  0.0112 -0.1075
 9216SOL    HW139110   2.544   4.035   4.534  4.0132 -2.7228  1.1932
 9216SOL    HW239111   2.546   4.046   4.385  2.6182  1.5155 -2.1215
 9217SOL     OW39112   4.388   3.293   3.430 -0.1078 -0.3407 -0.0196
 9217SOL    HW139113   4.324   3.307   3.360 -3.4405 -3.2102  2.5114
 9217SOL    HW239114   4.447   3.231   3.386 -0.9699  0.6812 -2.6670
 9218SOL     OW39115   4.567   0.458   2.409 -0.7936 -0.6307  0.1954
 9218SOL    HW139116   4.532   0.370   2.399  1.6945 -1.4478 -1.3006
 9218SOL    HW239117   4.529   0.506   2.336 -2.6324 -0.7875  1.0441
 9219SOL     OW39118   1.829   0.483   8.372 -0.3220 -0.0446  0.0618
 9219SOL    HW139119   1.817   0.388   8.371  1.1416 -0.2126 -1.4263
 9219SOL    HW239120   1.909   0.494   8.322 -0.1851 -0.2818  0.2277
 9220SOL     OW39121   1.478   0.334  11.487  0.2338  0.1861  0.1594
 9220SOL    HW139122   1.542   0.397  11.520 -0.2030  0.0683  1.2418
 9220SOL    HW239123   1.471   0.354  11.394 -0.4751  0.3468  0.2479
 9221SOL     OW39124   1.454   4.266   7.884  0.2802  0.1555  0.8986
 9221SOL    HW139125   1.487   4.277   7.795 -1.3034 -2.3111  0.0098
 9221SOL    HW239126   1.535   4.245   7.932  0.7485  2.6213  1.1848
 9222SOL     OW39127   2.750   4.004  15.624 -0.2213  0.3253 -0.0740
 9222SOL    HW139128   2.752   3.923  15.573  0.3144 -0.2750  0.9114
 9222SOL    HW239129   2.732   4.075  15.562 -0.9026 -0.7897 -1.1628
 9223SOL     OW39130   1.347   0.252   9.300  0.1024  0.1045  0.0143
 9223SOL    HW139131   1.377   0.215   9.217 -2.3730 -1.1486 -0.3225
 9223SOL    HW239132   1.252   0.261   9.287 -0.0804  0.6047  1.6929
 9224SOL     OW39133   0.435   0.605   4.667  0.0813 -0.2760 -0.0519
 9224SOL    HW139134   0.485   0.524   4.674 -0.6301 -0.8193 -1.2477
 9224SOL    HW239135   0.351   0.563   4.684  1.3843 -3.1659 -0.7513
 9225SOL     OW39136   3.169   0.407   9.058  0.3015 -0.1728 -0.2639
 9225SOL    HW139137   3.082   0.447   9.056  0.9686  1.2309 -1.0472
 9225SOL    HW239138   3.170   0.379   8.966  0.4626  2.0573 -0.9559
 9226SOL     OW39139   1.869   4.466   1.226 -0.5427 -0.0598  0.0937
 9226SOL    HW139140   1.795   4.417   1.262 -0.1282  0.3261  1.4633
 9226SOL    HW239141   1.844   4.520   1.151  2.7619  0.2873 -0.7341
 9227SOL     OW39142   2.309   4.376   6.161 -0.1944 -0.0602 -0.1925
 9227SOL    HW139143   2.342   4.464   6.144  1.7896 -1.0215 -1.3732
 9227SOL    HW239144   2.217   4.381   6.137  0.5620 -1.9939 -3.5951
 9228SOL     OW39145   0.870   0.107   4.718 -0.5701  0.3613 -0.8046
 9228SOL    HW139146   0.861   0.152   4.634  0.1316 -1.6137 -1.9150
 9228SOL    HW239147   0.864   0.018   4.686 -4.2597  0.7122 -0.9896
 9229SOL     OW39148   3.387   2.446   4.056  0.1864 -0.5901  0.0052
 9229SOL    HW139149   3.380   2.361   4.100  0.3380  0.1439  1.4526
 9229SOL    HW239150   3.435   2.485   4.129 -0.9975  1.3988 -0.2804
 9230SOL     OW39151   2.307   0.587   8.934 -0.2883  0.7039  0.3711
 9230SOL    HW139152   2.338   0.519   8.993 -3.7526 -1.1813  0.0086
 9230SOL    HW239153   2.218   0.615   8.956  0.2495  2.3903  0.4506
 9231SOL     OW39154   3.555   3.448   0.655 -0.1068  0.3950 -0.2530
 9231SOL    HW139155   3.648   3.429   0.665 -0.0337  1.9557  1.8185
 9231SOL    HW239156   3.552   3.483   0.565 -1.9964 -0.2229 -0.4388
 9232SOL     OW39157   1.457   1.081   3.205 -0.0275 -0.7043  0.2152
 9232SOL    HW139158   1.539   1.068   3.253  0.7806 -0.1761 -1.0157
 9232SOL    HW239159   1.483   1.159   3.155 -0.9259 -0.2767  0.4082
 9233SOL     OW39160   0.162   0.086   8.071 -0.5115 -0.2038 -0.1003
 9233SOL    HW139161   0.173   0.087   7.976 -2.4165  1.3431 -0.3015
 9233SOL    HW239162   0.082   0.034   8.078 -0.2332 -0.2862  2.2643
 9234SOL     OW39163   3.337   4.295   3.466  0.6612 -0.2924  0.3582
 9234SOL    HW139164   3.361   4.323   3.378  0.0034 -0.9570 -0.0316
 9234SOL    HW239165   3.423   4.313   3.503  0.7574 -0.1521  0.0682
 9235SOL     OW39166   3.002   3.214   9.011  0.6144  0.3202  0.1849
 9235SOL    HW139167   2.921   3.176   9.044  2.0831 -1.4268  1.7481
 9235SOL    HW239168   3.072   3.164   9.054  0.0857 -1.7473 -1.3837
 9236SOL     OW39169   2.840   3.615  12.639 -0.0042 -0.6705  0.8368
 9236SOL    HW139170   2.757   3.653  12.668  0.4661  1.0691 -0.0967
 9236SOL    HW239171   2.861   3.574  12.723  1.4948 -0.2720  0.6595
 9237SOL     OW39172   3.869   2.704  17.608 -0.0981  0.1065 -0.1195
 9237SOL    HW139173   3.817   2.712  17.688 -0.0489 -1.0174  0.0187
 9237SOL    HW239174   3.796   2.678  17.552  0.5509 -0.7696 -0.5471
 9238SOL     OW39175   3.901   2.796  10.725 -0.1936  0.2175 -0.0034
 9238SOL    HW139176   3.911   2.882  10.767 -1.8744  0.1593  0.5141
 9238SOL    HW239177   3.973   2.756  10.775 -0.7617  2.0554  2.3318
 9239SOL     OW39178   2.462   2.706  13.181  0.3433 -0.0420  0.1166
 9239SOL    HW139179   2.372   2.731  13.204  0.6571 -0.2303  1.5873
 9239SOL    HW239180   2.476   2.636  13.245  2.4357  2.3337  2.2524
 9240SOL     OW39181   0.981   3.211   2.598 -0.1694 -0.0509 -0.5967
 9240SOL    HW139182   1.073   3.222   2.624  0.9323 -1.9428 -3.7859
 9240SOL    HW239183   0.942   3.151   2.661  0.5780  0.7792  0.6589
 9241SOL     OW39184   0.364   1.200   9.272  0.4035 -0.3364 -0.5125
 9241SOL    HW139185   0.307   1.165   9.204 -0.1855 -0.1077 -0.1361
 9241SOL    HW239186   0.446   1.156   9.250  0.8496 -0.4105  1.3016
 9242SOL     OW39187   3.176   2.835   4.325  0.5009 -0.5089  0.0349
 9242SOL    HW139188   3.110   2.815   4.259 -0.4315 -1.8459  1.3620
 9242SOL    HW239189   3.188   2.748   4.365  1.0095 -1.5850 -2.4767
 9243SOL     OW39190   0.148   3.145   4.687 -0.2112 -0.8787 -1.0264
 9243SOL    HW139191   0.223   3.199   4.712 -0.5603 -1.0738  0.4204
 9243SOL    HW239192   0.143   3.081   4.758  0.3847  0.3486  0.1285
 9244SOL     OW39193   1.193   2.267   4.078 -0.1391  0.1962 -0.8330
 9244SOL    HW139194   1.193   2.363   4.085 -0.0770  0.1354  0.0290
 9244SOL    HW239195   1.120   2.265   4.016 -0.4610 -0.1229 -0.4471
 9245SOL     OW39196   3.105   1.115   5.876  0.0760 -0.0128 -0.2436
 9245SOL    HW139197   3.173   1.180   5.893  0.8896 -0.6493 -1.0956
 9245SOL    HW239198   3.116   1.094   5.783 -1.1146 -1.6263 -0.0253
 9246SOL     OW39199   0.051   2.245   8.489  0.4640  0.2096  0.1551
 9246SOL    HW139200   0.034   2.328   8.446  0.1595 -0.0721 -0.2733
 9246SOL    HW239201   0.146   2.233   8.497  0.6331  1.9010  0.4969
 9247SOL     OW39202   0.489   2.578   6.244 -0.2406  0.1121  0.3352
 9247SOL    HW139203   0.424   2.592   6.175  1.3091  1.5956 -0.8407
 9247SOL    HW239204   0.568   2.612   6.202  0.0099 -0.5335  0.2786
 9248SOL     OW39205   2.697   4.238  15.433  0.6278 -0.8749  0.1188
 9248SOL    HW139206   2.608   4.222  15.400  0.4747 -0.6359  0.4136
 9248SOL    HW239207   2.735   4.271  15.352  0.7236  0.7039  0.8133
 9249SOL     OW39208   4.314   0.747  14.687 -0.0051 -0.4887 -0.1129
 9249SOL    HW139209   4.244   0.774  14.747 -0.5713  0.0196 -0.9951
 9249SOL    HW239210   4.301   0.652  14.682  0.5170 -0.4682 -1.5461
 9250SOL     OW39211   2.994   3.452   0.187  0.5445 -0.0180 -0.1811
 9250SOL    HW139212   2.993   3.392   0.113  0.4124 -2.6645  1.9951
 9250SOL    HW239213   3.080   3.441   0.227  1.5369  1.1086 -2.0166
 9251SOL     OW39214   0.473   0.458   3.539  0.2282 -0.2050 -0.0176
 9251SOL    HW139215   0.502   0.473   3.629  2.1859 -1.1721 -0.4829
 9251SOL    HW239216   0.540   0.395   3.511  1.6041  1.1380  0.2573
 9252SOL     OW39217   2.790   2.524   8.597  0.4793 -0.0397  0.1981
 9252SOL    HW139218   2.879   2.495   8.574 -0.3038 -2.4423  0.1504
 9252SOL    HW239219   2.788   2.527   8.693 -2.7817  0.7796  0.0863
 9253SOL     OW39220   3.118   3.394   9.962 -0.5191  0.4635 -0.1596
 9253SOL    HW139221   3.063   3.468   9.987 -0.4612  0.5174 -0.1939
 9253SOL    HW239222   3.119   3.349  10.046 -1.3383  1.3444  0.3275
 9254SOL     OW39223   1.739   3.190   0.656 -0.2346  0.4648  0.0273
 9254SOL    HW139224   1.663   3.136   0.680 -1.0593  0.8439 -1.7432
 9254SOL    HW239225   1.807   3.144   0.706 -0.1382  0.3992 -0.1637
 9255SOL     OW39226   0.396   2.526   8.597  0.1842  0.4794 -0.2763
 9255SOL    HW139227   0.342   2.476   8.659  1.2926  0.9563  1.0940
 9255SOL    HW239228   0.446   2.452   8.561 -0.8767 -0.5761  0.4291
 9256SOL     OW39229   4.465   3.172  13.242 -0.1624 -0.4169  0.3094
 9256SOL    HW139230   4.499   3.140  13.325  1.5861 -0.4350 -0.4073
 9256SOL    HW239231   4.434   3.089  13.206  0.8761 -1.3585  1.6089
 9257SOL     OW39232   3.983   0.914   2.067 -0.2781 -0.0768 -0.7230
 9257SOL    HW139233   3.921   0.956   2.126 -1.5605 -2.2249 -0.5563
 9257SOL    HW239234   3.988   0.823   2.098 -0.2765 -0.1441 -0.9194
 9258SOL     OW39235   0.979   0.493   5.032  0.8173 -0.2777 -0.5584
 9258SOL    HW139236   0.895   0.484   4.988  0.3243  0.6101  0.2019
 9258SOL    HW239237   1.036   0.436   4.980  1.3363  1.9896 -2.4519
 9259SOL     OW39238   4.595   1.523   7.011 -0.5268 -0.1410 -0.4052
 9259SOL    HW139239   4.592   1.462   7.085  0.4015 -0.6670 -0.7917
 9259SOL    HW239240   4.686   1.553   7.013  0.0135 -1.6151 -2.1416
 9260SOL     OW39241   3.681   3.717  15.095  0.6708 -0.4017 -0.0830
 9260SOL    HW139242   3.613   3.782  15.077 -0.3481 -0.6417  2.8859
 9260SOL    HW239243   3.741   3.754  15.030  1.9443 -0.8442  0.8440
 9261SOL     OW39244   2.668   4.478   8.437  0.5160  0.2050  0.2700
 9261SOL    HW139245   2.578   4.465   8.407  1.5837 -0.5397 -2.6288
 9261SOL    HW239246   2.704   4.390   8.424  2.2426  1.0616 -0.6512
 9262SOL     OW39247   1.795   3.674   6.762 -0.0407  0.6545  0.1127
 9262SOL    HW139248   1.812   3.591   6.807 -0.7830  0.5274  0.1639
 9262SOL    HW239249   1.886   3.685   6.736 -0.3701 -1.2037 -1.7926
 9263SOL     OW39250   3.585   3.569   3.506 -0.6589 -0.0683 -0.0596
 9263SOL    HW139251   3.628   3.619   3.576 -1.5616  1.3416 -0.5081
 9263SOL    HW239252   3.498   3.609   3.509 -1.2175 -1.3375  0.5081
 9264SOL     OW39253   2.675   1.588  17.455  0.4631  0.2713 -0.4323
 9264SOL    HW139254   2.662   1.682  17.443  4.1020  0.8691  0.4133
 9264SOL    HW239255   2.671   1.562  17.363  0.5424  1.5746 -0.8021
 9265SOL     OW39256   4.282   2.268   7.898  0.4842  0.3538  0.0035
 9265SOL    HW139257   4.205   2.324   7.892  0.2635  0.2878  2.1394
 9265SOL    HW239258   4.263   2.232   7.985 -1.4585  0.1248 -0.5202
 9266SOL     OW39259   3.960   3.836   7.172  0.1677 -0.5946 -0.2437
 9266SOL    HW139260   3.960   3.874   7.084  0.0512  1.5163  0.6724
 9266SOL    HW239261   3.943   3.743   7.156 -0.9502 -0.2694 -1.0085
 9267SOL     OW39262   2.001   0.481  12.398 -0.3780  0.3820  0.2137
 9267SOL    HW139263   2.005   0.559  12.342 -0.7404  0.6182  0.5203
 9267SOL    HW239264   2.031   0.412  12.338  0.5816  0.7423  0.2786
 9268SOL     OW39265   0.055   3.881  14.526  0.0022 -0.3036 -0.0422
 9268SOL    HW139266   0.064   3.933  14.606 -0.4924  0.6731 -0.6196
 9268SOL    HW239267   4.710   3.823  14.558 -0.2644  0.6242  1.0962
 9269SOL     OW39268   2.805   4.167   6.550 -0.6110  0.3132 -0.1255
 9269SOL    HW139269   2.722   4.120   6.560 -0.1774 -0.6087 -0.8659
 9269SOL    HW239270   2.802   4.217   6.632 -1.2118  2.4962 -1.4833
 9270SOL     OW39271   1.215   3.390   6.336 -0.0777 -0.1202  0.8874
 9270SOL    HW139272   1.194   3.333   6.410  0.4251 -2.0728 -0.4748
 9270SOL    HW239273   1.132   3.418   6.297 -1.6925 -1.4063  3.3523
 9271SOL     OW39274   4.437   0.201   1.429  0.2901 -0.4556 -0.0098
 9271SOL    HW139275   4.428   0.289   1.394  1.7743 -0.5738 -0.7132
 9271SOL    HW239276   4.349   0.176   1.458  0.2180  0.4865  0.5901
 9272SOL     OW39277   2.816   2.125   8.718 -0.3552  0.2920  0.4135
 9272SOL    HW139278   2.868   2.105   8.640 -0.9847 -0.4697  0.1900
 9272SOL    HW239279   2.730   2.092   8.689  0.4130 -1.1993 -0.1598
 9273SOL     OW39280   2.640   0.008   0.092  0.0173 -0.0047 -0.2100
 9273SOL    HW139281   2.712   0.066   0.116 -1.0820  1.5680 -0.6905
 9273SOL    HW239282   2.638   4.723  17.696  0.2862  2.1611 -0.4296
 9274SOL     OW39283   2.580   4.076   5.011  0.6255 -0.1184  0.5321
 9274SOL    HW139284   2.622   4.012   4.953  0.5401 -0.1222  0.4748
 9274SOL    HW239285   2.489   4.059   4.988  1.1511  0.2528 -1.7852
 9275SOL     OW39286   4.246   3.111   1.105  0.1345  0.5791  0.1696
 9275SOL    HW139287   4.336   3.084   1.124 -0.5421 -0.6927  1.6406
 9275SOL    HW239288   4.251   3.193   1.057 -2.3639  0.5797 -0.0701
 9276SOL     OW39289   1.933   4.631  14.789  0.7735  0.0523 -0.2405
 9276SOL    HW139290   2.009   4.660  14.840  1.6510 -2.1313 -0.3158
 9276SOL    HW239291   1.872   4.702  14.809  0.2758 -0.6355  0.6504
 9277SOL     OW39292   0.995   1.023   3.921 -0.0078  0.0402  0.3157
 9277SOL    HW139293   0.912   0.986   3.890  1.3003 -1.9983 -0.7374
 9277SOL    HW239294   1.056   0.973   3.866  0.9005  0.9862  0.4480
 9278SOL     OW39295   0.106   4.523   6.026  0.3249 -0.0038 -0.6639
 9278SOL    HW139296   0.017   4.533   6.059  1.0019 -0.2872  1.2379
 9278SOL    HW239297   0.087   4.469   5.949 -1.9984  0.0087 -0.1143
 9279SOL     OW39298   2.425   2.916  16.432  0.4541  0.3187  0.4744
 9279SOL    HW139299   2.400   2.831  16.467  0.1710 -0.2864 -1.1993
 9279SOL    HW239300   2.499   2.883  16.381  0.7943 -1.6988  2.2885
 9280SOL     OW39301   0.791   2.100   2.268 -0.4811  0.0061  0.0286
 9280SOL    HW139302   0.743   2.077   2.188 -0.6615 -0.0300  0.1498
 9280SOL    HW239303   0.762   2.021   2.313 -0.8065  0.6789  0.9862
 9281SOL     OW39304   1.192   3.084   0.523 -0.0069 -0.6752 -0.4146
 9281SOL    HW139305   1.265   3.146   0.530  1.1005 -2.1783  1.3075
 9281SOL    HW239306   1.203   3.052   0.612 -0.1601 -2.5017 -1.0555
 9282SOL     OW39307   4.479   1.851   1.343 -0.4893 -0.3799 -0.5355
 9282SOL    HW139308   4.573   1.857   1.328 -0.1324  1.5426  2.6018
 9282SOL    HW239309   4.463   1.757   1.352  0.6138 -0.5177 -0.0820
 9283SOL     OW39310   0.149   1.928  14.396  0.1403  0.3175  0.0172
 9283SOL    HW139311   0.216   1.918  14.329 -1.3908  0.7399 -1.5879
 9283SOL    HW239312   0.134   2.022  14.401  1.4793  0.5688 -0.8013
 9284SOL     OW39313   4.015   1.814   9.318  0.2455  0.2831 -0.2748
 9284SOL    HW139314   4.103   1.801   9.284  0.7621  0.8873  0.8111
 9284SOL    HW239315   4.022   1.886   9.381 -2.5719 -1.1133  1.6591
 9285SOL     OW39316   0.889   0.352   6.179 -0.4068 -0.0531 -0.6597
 9285SOL    HW139317   0.960   0.377   6.121  1.5918  0.4206  1.9922
 9285SOL    HW239318   0.813   0.388   6.132  0.3919 -0.0956 -1.9698
 9286SOL     OW39319   0.429   2.612   8.005  0.1628 -0.3580  0.4591
 9286SOL    HW139320   0.441   2.686   7.946  1.1592 -0.6117  0.3464
 9286SOL    HW239321   0.499   2.625   8.069  0.8606 -0.5386 -0.2729
 9287SOL     OW39322   3.725   0.196   9.161  0.2023  0.4437 -0.5226
 9287SOL    HW139323   3.670   0.159   9.230  1.5461 -2.3512 -0.9653
 9287SOL    HW239324   3.662   0.243   9.106 -0.8362 -1.1880 -0.7103
 9288SOL     OW39325   3.134   4.234   4.680 -0.6581  0.4654  0.4800
 9288SOL    HW139326   3.098   4.319   4.707  1.6255  2.4487 -2.6446
 9288SOL    HW239327   3.186   4.277   4.612  0.1254 -1.0315  0.1389
 9289SOL     OW39328   0.594   1.834  14.867  0.3089  0.2980 -0.4977
 9289SOL    HW139329   0.625   1.803  14.952 -1.7546 -0.4936 -0.0447
 9289SOL    HW239330   0.510   1.879  14.878 -0.8799 -2.1717  0.3605
 9290SOL     OW39331   2.165   4.418  16.150  0.1202 -0.3957  0.3199
 9290SOL    HW139332   2.134   4.351  16.089  2.9309 -1.2988 -0.0938
 9290SOL    HW239333   2.084   4.464  16.174 -0.0782  0.6130 -2.2938
 9291SOL     OW39334   3.954   3.186   6.580 -0.0124  0.0694 -0.0853
 9291SOL    HW139335   3.890   3.257   6.586  0.4781  0.4056  1.1547
 9291SOL    HW239336   3.952   3.158   6.489 -0.1047  0.5996 -0.2459
 9292SOL     OW39337   2.436   3.014  13.117  0.2975  0.1560  0.1692
 9292SOL    HW139338   2.388   3.067  13.053 -1.1897  2.0965  2.8762
 9292SOL    HW239339   2.398   3.060  13.192  0.0659 -0.3208  0.3399
 9293SOL     OW39340   1.831   2.533   7.416 -0.2758  0.1379  0.1823
 9293SOL    HW139341   1.847   2.575   7.332 -1.4294  0.7403  0.2737
 9293SOL    HW239342   1.861   2.445   7.391  1.0564  0.1975  1.6158
 9294SOL     OW39343   2.872   1.234   0.788 -0.1665 -0.4889 -0.4254
 9294SOL    HW139344   2.895   1.221   0.880  0.3489  0.8676 -0.3635
 9294SOL    HW239345   2.777   1.220   0.787 -0.0935 -1.0581  0.4181
 9295SOL     OW39346   3.520   0.505   8.646  0.8373  0.0946 -0.4448
 9295SOL    HW139347   3.581   0.577   8.662  1.3808 -0.5503  0.3236
 9295SOL    HW239348   3.558   0.477   8.562 -0.3810 -1.8669 -0.3406
 9296SOL     OW39349   3.485   2.249   7.108 -0.1394 -0.5689 -0.6145
 9296SOL    HW139350   3.532   2.324   7.146 -0.2147 -0.5500 -0.5580
 9296SOL    HW239351   3.457   2.287   7.024  2.5197 -0.4238 -1.4350
 9297SOL     OW39352   2.540   2.201   2.425 -0.6289  0.4239  0.4624
 9297SOL    HW139353   2.567   2.269   2.487  1.1658 -1.1243  1.3955
 9297SOL    HW239354   2.487   2.148   2.484 -3.0060  1.6963 -0.5551
 9298SOL     OW39355   4.535   4.377  17.130  0.3646  0.7057 -0.5395
 9298SOL    HW139356   4.497   4.426  17.202  1.1788  1.1330 -0.3926
 9298SOL    HW239357   4.456   4.369  17.078 -0.9804 -0.7257  1.7543
 9299SOL     OW39358   2.554   4.022  11.802 -0.1828 -0.5450 -0.9290
 9299SOL    HW139359   2.615   3.949  11.790 -0.3168 -1.1163  1.7819
 9299SOL    HW239360   2.602   4.100  11.772  1.9396 -2.5092 -2.6388
 9300SOL     OW39361   1.535   2.508  10.995 -0.9949 -0.0109  0.2919
 9300SOL    HW139362   1.629   2.521  10.995 -1.1608  1.2134  0.3829
 9300SOL    HW239363   1.513   2.532  10.905 -1.7313 -0.4282  0.3570
 9301SOL     OW39364   1.212   0.248   1.324  0.2384 -0.1929  0.3120
 9301SOL    HW139365   1.230   0.273   1.233 -0.9356  0.6871  0.3232
 9301SOL    HW239366   1.194   0.337   1.353 -0.4639  0.4934 -2.1573
 9302SOL     OW39367   0.271   3.400  10.443 -0.0071 -0.7702 -0.0681
 9302SOL    HW139368   0.338   3.413  10.510 -0.5004 -0.1510  0.3062
 9302SOL    HW239369   0.192   3.435  10.486  1.6155  3.7350 -0.7923
 9303SOL     OW39370   1.008   0.836   5.895 -0.6198  0.1162  0.0961
 9303SOL    HW139371   0.981   0.902   5.832 -1.3332 -0.2846 -0.0174
 9303SOL    HW239372   0.986   0.749   5.861  0.3478 -0.1079  0.0299
 9304SOL     OW39373   3.598   0.972   9.569  0.5575  0.0311 -0.0860
 9304SOL    HW139374   3.605   0.971   9.665 -0.8790  0.4747  0.0246
 9304SOL    HW239375   3.635   0.888   9.541  1.3045 -0.2297  1.6295
 9305SOL     OW39376   3.058   1.911  13.563  0.0969  0.0011  0.2330
 9305SOL    HW139377   2.969   1.885  13.585 -0.3874 -1.3082 -3.3663
 9305SOL    HW239378   3.049   2.006  13.566 -1.4653 -0.1089 -1.1342
 9306SOL     OW39379   4.574   1.824   3.839  0.1437  0.1823 -0.4301
 9306SOL    HW139380   4.529   1.792   3.761  0.2909  1.6629 -1.1109
 9306SOL    HW239381   4.613   1.898   3.794 -0.0346  0.8122  0.4481
 9307SOL     OW39382   4.082   1.173   3.528 -0.5134 -0.1655  1.0560
 9307SOL    HW139383   4.106   1.198   3.439 -2.0168  1.9507  1.2508
 9307SOL    HW239384   4.043   1.250   3.569 -2.3993 -0.9529  0.7771
 9308SOL     OW39385   1.791   3.373   4.505 -0.4880 -0.1938 -0.0080
 9308SOL    HW139386   1.795   3.279   4.521  1.5215 -0.1526 -0.2851
 9308SOL    HW239387   1.709   3.402   4.546 -0.4953 -0.5835  0.2471
 9309SOL     OW39388   0.682   1.398   7.632 -0.1174 -0.1029  0.8146
 9309SOL    HW139389   0.712   1.379   7.721 -0.8530  0.1078  1.1093
 9309SOL    HW239390   0.609   1.336   7.625 -0.8069  0.6681  1.1572
 9310SOL     OW39391   4.672   1.218   3.822 -0.2517 -0.2776  0.4791
 9310SOL    HW139392   4.673   1.305   3.863  0.3289 -0.8031  1.5673
 9310SOL    HW239393   4.577   1.206   3.825 -0.1474 -1.0712  0.3675
 9311SOL     OW39394   4.181   1.169   7.341 -0.1594 -0.7201  0.2009
 9311SOL    HW139395   4.098   1.209   7.317 -0.8904 -2.2899  0.1248
 9311SOL    HW239396   4.149   1.114   7.412 -0.6881  0.2832  0.7371
 9312SOL     OW39397   4.474   1.961  16.180  0.2562  0.1250 -0.4553
 9312SOL    HW139398   4.479   2.003  16.094  0.8405  1.0986  0.0609
 9312SOL    HW239399   4.569   1.956  16.190 -0.0808  0.2344  2.7116
 9313SOL     OW39400   0.419   1.558   4.414 -0.0537 -0.1573  0.1146
 9313SOL    HW139401   0.395   1.534   4.503 -2.9182  2.3479  0.0154
 9313SOL    HW239402   0.509   1.582   4.434  0.0442  0.1066 -0.6509
 9314SOL     OW39403   2.038   4.270   3.868  0.0411 -0.1735  0.0588
 9314SOL    HW139404   1.987   4.194   3.839 -2.6612  1.9022 -0.5447
 9314SOL    HW239405   1.976   4.338   3.845 -0.8599 -1.1442 -0.3634
 9315SOL     OW39406   1.260   1.274   8.543 -0.5412  0.3748 -0.2386
 9315SOL    HW139407   1.288   1.217   8.471  1.4704  1.8184 -0.5977
 9315SOL    HW239408   1.280   1.360   8.507 -1.6060  0.1299 -1.3958
 9316SOL     OW39409   3.112   1.272   9.250  0.2663 -0.2385 -0.4184
 9316SOL    HW139410   3.112   1.359   9.210 -0.3345 -0.6099 -1.2177
 9316SOL    HW239411   3.135   1.296   9.340 -2.0911  3.5738 -0.8027
 9317SOL     OW39412   4.058   1.994   1.940 -0.2188 -0.1307 -0.4920
 9317SOL    HW139413   3.976   2.027   1.976 -1.2885 -1.1077 -1.9916
 9317SOL    HW239414   4.053   2.043   1.858  0.9577  1.5953  0.4840
 9318SOL     OW39415   3.025   2.263   6.374  0.2777  0.3742  0.0726
 9318SOL    HW139416   3.024   2.229   6.284 -0.2075 -1.7742  0.8895
 9318SOL    HW239417   2.931   2.253   6.391  0.1279  0.3761 -0.7423
 9319SOL     OW39418   1.093   1.391   1.713 -0.3240 -0.1632  0.3944
 9319SOL    HW139419   1.144   1.390   1.632 -1.2696 -2.3147 -0.1804
 9319SOL    HW239420   1.009   1.411   1.671  0.6723  0.4091 -1.3432
 9320SOL     OW39421   3.808   0.298   5.747  0.1065  0.4210  0.2971
 9320SOL    HW139422   3.794   0.244   5.669 -2.2998  0.8489  0.4408
 9320SOL    HW239423   3.864   0.362   5.703  0.2638  1.0700  1.4421
 9321SOL     OW39424   0.407   3.382  16.383 -0.3624 -0.0682 -0.0494
 9321SOL    HW139425   0.407   3.347  16.294 -0.0238  1.3659 -0.6124
 9321SOL    HW239426   0.352   3.317  16.427  0.3740  0.0125  0.9851
 9322SOL     OW39427   3.891   2.147   3.106 -0.5132  0.5398 -0.0073
 9322SOL    HW139428   3.884   2.085   3.034  1.0125  0.5522 -0.1696
 9322SOL    HW239429   3.804   2.152   3.146 -0.9983  0.5686 -1.0731
 9323SOL     OW39430   3.305   2.942   9.564  0.2587 -1.2130  0.6409
 9323SOL    HW139431   3.210   2.927   9.567 -0.2328  1.3137 -2.8826
 9323SOL    HW239432   3.323   2.978   9.651 -2.6267 -2.4275  1.7597
 9324SOL     OW39433   3.422   4.494   6.777 -0.8715 -0.1134  0.8775
 9324SOL    HW139434   3.343   4.515   6.828 -1.9908  0.2649 -0.9876
 9324SOL    HW239435   3.471   4.462   6.853 -0.0404 -0.0727  0.3475
 9325SOL     OW39436   1.235   2.748   5.888  0.1297  0.1154 -0.2590
 9325SOL    HW139437   1.195   2.706   5.813  0.4011  0.1739 -0.4400
 9325SOL    HW239438   1.163   2.744   5.950 -0.9386 -0.9178 -1.5653
 9326SOL     OW39439   0.246   0.619   3.826  0.0651 -0.3805 -0.0890
 9326SOL    HW139440   0.255   0.689   3.890  2.8081  0.1764 -1.0973
 9326SOL    HW239441   0.189   0.554   3.867  0.1731  0.0891  0.8109
 9327SOL     OW39442   3.171   0.658   7.275  0.6222  0.2871  0.4152
 9327SOL    HW139443   3.176   0.729   7.339 -0.1694  0.7026  0.0195
 9327SOL    HW239444   3.256   0.664   7.232 -0.1865  1.8623 -0.9541
 9328SOL     OW39445   4.424   3.125   8.937 -0.4648 -0.0014 -0.2901
 9328SOL    HW139446   4.515   3.155   8.932 -0.5451  0.2197 -0.4253
 9328SOL    HW239447   4.426   3.032   8.959 -0.2493 -0.4451 -2.2084
 9329SOL     OW39448   4.609   3.547   6.275 -0.5308 -0.3917 -0.2674
 9329SOL    HW139449   4.583   3.616   6.214  0.7046  0.0825 -0.2619
 9329SOL    HW239450   4.544   3.478   6.265 -0.6673 -0.0529 -1.6823
 9330SOL     OW39451   1.971   3.932   2.669 -0.4544 -0.0154 -0.3086
 9330SOL    HW139452   1.981   3.991   2.744  0.6839 -0.4502 -0.1212
 9330SOL    HW239453   2.045   3.876   2.692 -0.4007 -0.0912 -0.6677
 9331SOL     OW39454   1.121   0.013   0.591 -0.4836  0.1345 -0.4228
 9331SOL    HW139455   1.079   4.703   0.512 -1.0228 -0.2090  0.0094
 9331SOL    HW239456   1.182   0.067   0.542 -0.5005 -2.0480 -2.9037
 9332SOL     OW39457   0.256   1.937   8.311  0.4023 -0.5016 -0.0702
 9332SOL    HW139458   0.189   1.962   8.248 -1.9567  0.2509  2.7866
 9332SOL    HW239459   0.312   1.887   8.251  1.8151 -0.1062  0.9214
 9333SOL     OW39460   0.322   1.641   7.241 -0.0698 -0.7607 -0.1926
 9333SOL    HW139461   0.376   1.681   7.310 -0.7306 -1.1470  0.5564
 9333SOL    HW239462   0.343   1.547   7.246  0.9274 -0.6232 -1.8149
 9334SOL     OW39463   2.195   4.723   3.562 -0.4944  0.3021 -0.1818
 9334SOL    HW139464   2.222   0.047   3.640  0.5591 -1.0334  0.2956
 9334SOL    HW239465   2.119   0.046   3.529 -1.8062 -1.2111  0.6355
 9335SOL     OW39466   4.614   0.238   2.053  0.1641 -0.2633 -0.1689
 9335SOL    HW139467   4.589   0.212   1.964 -1.5585  2.8948 -0.6018
 9335SOL    HW239468   4.663   0.161   2.082 -0.5540 -0.6707 -0.0430
 9336SOL     OW39469   4.013   4.320   2.496 -0.8766 -0.2215 -0.6239
 9336SOL    HW139470   4.030   4.414   2.488  0.3693 -0.1930  2.1538
 9336SOL    HW239471   4.023   4.304   2.403 -3.8574 -1.8834 -0.6450
 9337SOL     OW39472   1.451   1.446   2.685  0.5298 -0.1543  0.2466
 9337SOL    HW139473   1.366   1.414   2.655  1.0004 -0.6827 -0.5188
 9337SOL    HW239474   1.421   1.532   2.714  0.4108 -1.0482  2.7709
 9338SOL     OW39475   0.899   1.031   6.594  0.1815  0.8929 -0.3199
 9338SOL    HW139476   0.957   0.994   6.528 -0.0882  0.3541 -0.2540
 9338SOL    HW239477   0.819   1.017   6.543 -0.2912  0.0142  0.6628
 9339SOL     OW39478   4.175   1.624   3.535  0.1932  0.0755  0.3703
 9339SOL    HW139479   4.269   1.613   3.520 -0.0244 -0.1233 -0.8091
 9339SOL    HW239480   4.142   1.632   3.446 -0.8271 -0.0686  0.7382
 9340SOL     OW39481   1.774   1.497   2.383  0.0133  0.2638 -0.3903
 9340SOL    HW139482   1.769   1.589   2.409 -1.6129 -0.2218  0.9727
 9340SOL    HW239483   1.720   1.499   2.304 -2.3442 -1.4106  1.1814
 9341SOL     OW39484   0.294   3.967   8.348  0.0755  0.0880 -0.3401
 9341SOL    HW139485   0.386   3.979   8.324  0.2435 -0.1905  0.1668
 9341SOL    HW239486   0.272   4.046   8.397 -1.2193  1.4213 -3.0648
 9342SOL     OW39487   4.719   1.204  13.489  0.7752  0.2016 -0.3718
 9342SOL    HW139488   4.709   1.110  13.473 -1.3917  0.6878 -1.7235
 9342SOL    HW239489   0.006   1.210  13.584  1.5228 -1.2083 -0.3698
 9343SOL     OW39490   1.941   4.350  17.166  0.3765  0.4111 -0.4018
 9343SOL    HW139491   1.882   4.276  17.160  0.3468  0.2994  1.2418
 9343SOL    HW239492   1.966   4.375  17.077  1.3895  3.6328  0.7921
 9344SOL     OW39493   2.331   2.373  10.302 -0.3819 -0.1721 -0.1524
 9344SOL    HW139494   2.272   2.298  10.305  0.3473 -0.6549  1.9019
 9344SOL    HW239495   2.383   2.345  10.377  0.8140  0.3372 -0.7752
 9345SOL     OW39496   2.758   3.981   8.276  0.6475 -0.2547 -0.2067
 9345SOL    HW139497   2.663   3.967   8.266  0.7894 -1.3703  0.0372
 9345SOL    HW239498   2.792   3.921   8.342  0.2474 -0.4535 -0.1799
 9346SOL     OW39499   3.560   2.584  16.903 -0.0147 -0.1785 -0.5148
 9346SOL    HW139500   3.592   2.571  16.814 -1.1009  2.1613 -1.2506
 9346SOL    HW239501   3.531   2.675  16.910  0.8281  0.0611 -0.2134
 9347SOL     OW39502   3.920   1.125   6.814  0.9790 -0.2963 -0.0117
 9347SOL    HW139503   3.997   1.084   6.775  0.6221 -2.2145  1.2940
 9347SOL    HW239504   3.945   1.207   6.856  0.7425  0.4828 -1.3973
 9348SOL     OW39505   3.494   3.391   8.670 -0.0323 -0.6404 -0.9254
 9348SOL    HW139506   3.539   3.313   8.703 -1.5113 -1.4061 -0.7660
 9348SOL    HW239507   3.554   3.456   8.708  0.0849  0.5338 -3.1035
 9349SOL     OW39508   3.002   1.421   7.069 -0.2835  0.5922  0.1444
 9349SOL    HW139509   2.951   1.352   7.111  0.0905  0.3753  0.2438
 9349SOL    HW239510   2.963   1.502   7.102  0.8184  1.4510 -0.6706
 9350SOL     OW39511   1.638   2.800   7.169 -0.2044 -0.4728 -0.1588
 9350SOL    HW139512   1.628   2.895   7.180  4.3322 -0.1448  0.8280
 9350SOL    HW239513   1.718   2.789   7.220  0.1174  1.3354 -0.2776
 9351SOL     OW39514   1.052   2.080   5.452  0.6412  0.2470 -0.1314
 9351SOL    HW139515   1.124   2.140   5.472 -1.2234  2.1876  0.8207
 9351SOL    HW239516   1.050   2.087   5.357 -0.1552  0.5384 -0.0922
 9352SOL     OW39517   1.800   4.062  12.405  0.1962  1.1394  0.0971
 9352SOL    HW139518   1.876   4.019  12.365  1.7941  2.4052  1.8038
 9352SOL    HW239519   1.831   4.073  12.495 -0.3371 -0.3280  0.4667
 9353SOL     OW39520   4.689   0.171  17.349  0.0198 -0.6901 -0.0306
 9353SOL    HW139521   4.664   0.220  17.270  0.1774  1.3137  1.1715
 9353SOL    HW239522   4.605   0.129  17.366 -1.0403  1.2695 -0.3577
 9354SOL     OW39523   2.862   0.603   1.033  0.7479  0.3136  0.4354
 9354SOL    HW139524   2.770   0.621   1.012  0.8883 -0.4651 -0.8409
 9354SOL    HW239525   2.877   0.696   1.049 -0.4027  0.5971 -0.0834
 9355SOL     OW39526   4.580   0.601   7.909 -0.0223  0.6924 -0.2592
 9355SOL    HW139527   4.553   0.509   7.910 -2.0310  1.2878  0.5529
 9355SOL    HW239528   4.523   0.633   7.839 -2.2782 -1.4260  0.5927
 9356SOL     OW39529   1.743   3.217  11.603  0.0296 -0.2650  0.0525
 9356SOL    HW139530   1.784   3.134  11.624 -1.7653 -1.1597  0.0015
 9356SOL    HW239531   1.748   3.204  11.508  0.0967 -3.7745  0.5694
 9357SOL     OW39532   2.398   2.735   7.357 -0.3552 -0.1616  0.3730
 9357SOL    HW139533   2.393   2.737   7.261 -1.5734  2.3177  0.4935
 9357SOL    HW239534   2.473   2.676   7.370 -0.5629 -0.6694 -0.6677
 9358SOL     OW39535   3.356   2.019   3.191 -0.0041 -0.2816  0.1047
 9358SOL    HW139536   3.443   1.980   3.200 -0.8063 -2.2208 -0.5141
 9358SOL    HW239537   3.363   2.035   3.097  3.5181 -0.5445  0.2978
 9359SOL     OW39538   2.990   2.731   0.514  0.3769  0.0597  0.8592
 9359SOL    HW139539   3.045   2.694   0.445  0.3255  1.9467 -0.1942
 9359SOL    HW239540   2.918   2.669   0.529  1.5604 -1.7866 -1.0863
 9360SOL     OW39541   0.937   3.674   7.414  0.1366 -0.5187 -0.3216
 9360SOL    HW139542   0.951   3.595   7.465 -0.3095 -0.5048 -0.1765
 9360SOL    HW239543   0.999   3.741   7.444  0.4317 -0.8688 -0.1593
 9361SOL     OW39544   0.436   4.083  16.208 -0.3062  0.0911  0.2385
 9361SOL    HW139545   0.473   3.998  16.183 -0.2399 -0.1467  1.1189
 9361SOL    HW239546   0.387   4.102  16.128  1.2171  0.9924 -0.4693
 9362SOL     OW39547   4.354   1.558   0.943  0.2383  0.2184  0.4242
 9362SOL    HW139548   4.305   1.574   1.024  0.4548  1.2246  0.3672
 9362SOL    HW239549   4.401   1.640   0.928  1.4434 -0.1689  2.1548
 9363SOL     OW39550   1.235   0.193   6.716  0.0101 -0.3917 -0.5524
 9363SOL    HW139551   1.169   0.209   6.783 -0.0019  1.0007 -0.9006
 9363SOL    HW239552   1.177   0.210   6.642  0.5741  0.1723 -0.8662
 9364SOL     OW39553   2.211   0.978   2.747  0.1966 -0.5387 -0.9378
 9364SOL    HW139554   2.138   0.976   2.809 -0.3887 -0.1370 -1.6083
 9364SOL    HW239555   2.193   0.908   2.684 -1.6071  0.1833 -1.2320
 9365SOL     OW39556   2.142   1.301   7.094  0.3737  0.9842 -0.5183
 9365SOL    HW139557   2.114   1.384   7.133 -0.5069  0.7602 -0.6741
 9365SOL    HW239558   2.087   1.233   7.133  0.8078  0.9326  0.0131
 9366SOL     OW39559   2.076   2.341   6.586  0.6324  0.1067  0.3922
 9366SOL    HW139560   2.170   2.357   6.593  0.8815 -0.7321 -0.9758
 9366SOL    HW239561   2.057   2.287   6.509  0.6548 -0.4411  0.7687
 9367SOL     OW39562   0.227   1.796   0.324 -0.2095  0.6591  0.5147
 9367SOL    HW139563   0.303   1.750   0.288 -0.3238 -0.0312  1.1591
 9367SOL    HW239564   0.280   1.844   0.387 -1.1183 -1.0540  2.5925
 9368SOL     OW39565   3.683   0.716   8.576 -0.0868  0.0559 -0.1957
 9368SOL    HW139566   3.748   0.679   8.516 -0.2052  0.4021 -0.5401
 9368SOL    HW239567   3.729   0.791   8.614 -0.0254  0.3526 -0.8534
 9369SOL     OW39568   1.806   1.521   9.512 -0.4537  0.3370  0.0278
 9369SOL    HW139569   1.833   1.607   9.544 -0.7020  0.8791 -1.2171
 9369SOL    HW239570   1.891   1.505   9.471 -0.7306 -0.7955 -0.1113
 9370SOL     OW39571   0.978   1.098  14.748 -0.3513  0.1497 -0.1585
 9370SOL    HW139572   1.072   1.082  14.755 -0.8473 -1.5005  3.0327
 9370SOL    HW239573   0.961   1.018  14.698 -0.3748  1.0982 -1.6503
 9371SOL     OW39574   1.480   1.451  15.374 -0.2003  0.1948  0.3741
 9371SOL    HW139575   1.464   1.485  15.286 -0.4535 -1.5844 -0.2574
 9371SOL    HW239576   1.417   1.497  15.430 -0.3051 -0.0317  0.4418
 9372SOL     OW39577   4.455   3.241  14.810  0.5478 -0.4129  0.1432
 9372SOL    HW139578   4.508   3.187  14.752  1.4923  0.1723  0.4719
 9372SOL    HW239579   4.520   3.264  14.876  1.6524  0.3521 -1.1988
 9373SOL     OW39580   3.097   1.554   3.383  0.0066 -0.4434 -0.0258
 9373SOL    HW139581   3.006   1.581   3.378 -0.4751 -1.3382  3.9232
 9373SOL    HW239582   3.125   1.566   3.292 -0.5333 -1.1299 -0.2829
 9374SOL     OW39583   3.557   0.158   3.858  0.1281  0.0287 -0.3296
 9374SOL    HW139584   3.556   0.179   3.764 -3.1741  0.2570 -0.2478
 9374SOL    HW239585   3.615   0.227   3.888  0.8097 -0.3454 -0.7900
 9375SOL     OW39586   0.048   3.701  11.060 -0.5089 -0.1193  0.0666
 9375SOL    HW139587   4.682   3.697  11.029  0.0596 -4.3635 -1.0448
 9375SOL    HW239588   0.071   3.610  11.076  0.1742  0.1431  0.6424
 9376SOL     OW39589   2.608   3.160   9.509 -0.2129 -0.4319 -0.3441
 9376SOL    HW139590   2.531   3.209   9.538  1.0932  1.5627 -0.2451
 9376SOL    HW239591   2.646   3.134   9.593 -0.1459  0.5939 -0.0515
 9377SOL     OW39592   2.577   4.102   1.590 -0.1140  0.0567  0.1572
 9377SOL    HW139593   2.573   4.020   1.541 -0.8424  0.2510 -0.1179
 9377SOL    HW239594   2.515   4.148   1.534  0.3034  3.3977  2.4736
 9378SOL     OW39595   1.796   0.343   8.913 -0.1913  0.0620  0.1572
 9378SOL    HW139596   1.754   0.316   8.831  0.6359  0.5068 -0.4210
 9378SOL    HW239597   1.768   0.431   8.938  0.9920  0.1721  1.1237
 9379SOL     OW39598   2.110   0.223   0.615  0.4617 -0.2777  0.2933
 9379SOL    HW139599   2.115   0.292   0.549  1.4471 -1.6679 -1.1008
 9379SOL    HW239600   2.138   0.146   0.564  1.3969 -0.5637  1.2449
 9380SOL     OW39601   0.985   3.884   7.957  0.1523 -0.3160  0.0823
 9380SOL    HW139602   0.949   3.969   7.929 -2.6778 -1.6274 -0.2765
 9380SOL    HW239603   0.944   3.834   7.887 -0.7745  0.8721 -0.2276
 9381SOL     OW39604   4.670   1.015   9.649  0.0468  0.2874  0.4843
 9381SOL    HW139605   4.626   1.039   9.731  0.5613  1.5311  0.3915
 9381SOL    HW239606   4.661   1.094   9.595 -0.7990  1.3854  2.2147
 9382SOL     OW39607   0.662   0.532  13.873  0.1773 -0.3086  0.3805
 9382SOL    HW139608   0.696   0.460  13.821  0.7289 -1.0814  1.8167
 9382SOL    HW239609   0.619   0.480  13.941  0.9012  0.3248  1.3230
 9383SOL     OW39610   3.860   0.501   9.219  0.1949 -0.0590 -0.8138
 9383SOL    HW139611   3.793   0.490   9.152 -1.3847 -1.5934  1.0294
 9383SOL    HW239612   3.834   0.592   9.236 -0.0335 -0.3434  0.3259
 9384SOL     OW39613   1.143   0.416   2.460  0.3113 -0.1057 -0.3684
 9384SOL    HW139614   1.131   0.511   2.455  0.9881 -0.0951 -1.8177
 9384SOL    HW239615   1.050   0.393   2.469  0.2103  1.8115  3.3595
 9385SOL     OW39616   2.069   3.164   0.275  0.5441 -0.2743 -0.4627
 9385SOL    HW139617   2.009   3.123   0.212  0.0875  1.4197 -1.1243
 9385SOL    HW239618   2.156   3.149   0.239  1.3727  1.5609  0.7970
 9386SOL     OW39619   0.165   2.636   0.586 -0.0458  0.3915  0.0354
 9386SOL    HW139620   0.211   2.612   0.505 -0.0099  0.6173 -0.0133
 9386SOL    HW239621   0.092   2.575   0.586 -0.4264  0.8577  2.0860
 9387SOL     OW39622   0.331   3.045   0.430 -0.4336 -1.2909 -0.4489
 9387SOL    HW139623   0.312   2.958   0.396 -2.8045 -1.6653  1.8126
 9387SOL    HW239624   0.403   3.077   0.375 -2.6439  0.9044 -2.0610
 9388SOL     OW39625   2.687   3.041   7.517  0.7055  0.7213 -0.0395
 9388SOL    HW139626   2.633   3.073   7.589  1.7683  2.5801 -0.0572
 9388SOL    HW239627   2.762   3.100   7.526  0.7932  0.7555 -1.0174
 9389SOL     OW39628   0.322   0.155   3.887  0.4381  0.3202  0.1153
 9389SOL    HW139629   0.270   0.158   3.808 -0.4196 -0.6496  0.6319
 9389SOL    HW239630   0.372   0.072   3.887  2.1183  1.3291  2.1236
 9390SOL     OW39631   2.982   0.921   5.102 -0.0142  0.1280  0.1660
 9390SOL    HW139632   2.940   0.944   5.185 -0.2653  1.7664 -0.4061
 9390SOL    HW239633   3.068   0.958   5.124  0.5092 -0.3623 -1.0753
 9391SOL     OW39634   0.792   2.135   5.840 -0.2038 -0.0971 -0.0725
 9391SOL    HW139635   0.807   2.096   5.753 -0.0778  1.3008 -0.6727
 9391SOL    HW239636   0.752   2.220   5.821 -0.6847 -0.1568  0.6732
 9392SOL     OW39637   4.005   3.064   8.656 -0.3092  0.1662  0.4775
 9392SOL    HW139638   4.075   3.005   8.684  0.1283  0.5813  0.2541
 9392SOL    HW239639   3.972   3.094   8.741  1.3023 -0.4395  1.3055
 9393SOL     OW39640   4.137   1.807   4.430 -0.6236  0.5147  0.0527
 9393SOL    HW139641   4.136   1.803   4.334 -1.3665 -2.5363  0.2053
 9393SOL    HW239642   4.056   1.853   4.454  0.0528  1.5217  0.4332
 9394SOL     OW39643   1.859   0.207  16.921  0.4288  0.5452  0.6618
 9394SOL    HW139644   1.830   0.252  16.841  1.2004  2.1783  1.2843
 9394SOL    HW239645   1.778   0.197  16.969  0.3578 -1.2006  0.1528
 9395SOL     OW39646   2.042   3.840   3.792  0.8275  0.3711  0.3600
 9395SOL    HW139647   2.125   3.869   3.754  0.2669 -0.3946 -1.4697
 9395SOL    HW239648   2.009   3.805   3.709  0.1445 -0.1723  0.8597
 9396SOL     OW39649   3.083   1.374   1.810 -0.0559  0.7559 -0.0266
 9396SOL    HW139650   3.127   1.395   1.893  3.4433  0.1942 -1.7484
 9396SOL    HW239651   3.058   1.462   1.780 -0.4215  0.5574 -0.3059
 9397SOL     OW39652   0.575   4.549   7.033 -0.0815 -1.0121 -0.6765
 9397SOL    HW139653   0.574   4.520   6.942  1.6963 -1.1487 -0.6523
 9397SOL    HW239654   0.481   4.565   7.042  0.2172  1.3022 -1.5497
 9398SOL     OW39655   3.377   2.343   5.814 -0.3227 -0.0356  0.3665
 9398SOL    HW139656   3.412   2.265   5.855  0.6834  0.0202 -0.3846
 9398SOL    HW239657   3.284   2.321   5.823  0.2802 -3.4900 -1.9044
 9399SOL     OW39658   3.168   1.319   1.546 -0.0339  0.4756  0.1084
 9399SOL    HW139659   3.100   1.255   1.527  1.2492 -0.9083  0.1959
 9399SOL    HW239660   3.150   1.339   1.638  1.3462  0.4855  0.3763
 9400SOL     OW39661   4.481   1.696   0.005  0.5054 -0.5675  0.0232
 9400SOL    HW139662   4.557   1.647   0.036 -0.1250 -1.8872 -0.5347
 9400SOL    HW239663   4.498   1.679  17.612 -2.8137 -1.5579 -0.4005
 9401SOL     OW39664   4.535   2.905   5.473 -0.0788  0.6626  0.0875
 9401SOL    HW139665   4.503   2.815   5.481  0.5415  0.6354  2.4949
 9401SOL    HW239666   4.456   2.955   5.454 -0.5139 -0.8326 -2.0396
 9402SOL     OW39667   3.588   0.181   3.137  0.4622 -0.0991  0.7244
 9402SOL    HW139668   3.510   0.126   3.138 -1.1459  2.2340  2.3693
 9402SOL    HW239669   3.659   0.116   3.147  1.4976  1.1967  1.8563
 9403SOL     OW39670   3.545   3.207   2.346 -0.4790  0.0830 -0.0087
 9403SOL    HW139671   3.637   3.189   2.362 -0.1791  2.2488  0.7255
 9403SOL    HW239672   3.522   3.123   2.308 -0.0302 -0.7368  1.5448
 9404SOL     OW39673   0.346   0.990   4.289  0.1367 -0.0040 -0.1690
 9404SOL    HW139674   0.278   0.925   4.271  0.8487 -0.8917  0.2981
 9404SOL    HW239675   0.305   1.026   4.367  1.1485  1.6967 -0.4121
 9405SOL     OW39676   2.770   3.008   5.560 -0.5425  0.6317  0.1416
 9405SOL    HW139677   2.695   3.007   5.501 -0.3236  3.6595 -0.1824
 9405SOL    HW239678   2.776   2.913   5.555  1.5673  0.7139  1.0764
 9406SOL     OW39679   4.722   1.167  10.255 -0.2849 -0.2101  0.5998
 9406SOL    HW139680   4.665   1.123  10.192  1.4479  2.6320 -2.9525
 9406SOL    HW239681   4.660   1.227  10.297 -3.7507 -2.4203 -1.3848
 9407SOL     OW39682   2.468   4.195   8.635 -0.2835  0.2555  0.7900
 9407SOL    HW139683   2.481   4.143   8.714 -0.3104 -1.3301 -0.2584
 9407SOL    HW239684   2.433   4.279   8.665 -1.5352  0.1055 -0.3030
 9408SOL     OW39685   4.018   2.116   1.433  0.2939  0.2507  1.0059
 9408SOL    HW139686   4.097   2.061   1.428 -1.2081 -1.8849  0.8990
 9408SOL    HW239687   4.032   2.194   1.380 -1.3324 -1.1962 -1.5616
 9409SOL     OW39688   1.676   2.415  12.636  0.4930  0.1799 -0.2328
 9409SOL    HW139689   1.758   2.441  12.595 -0.5375  0.9901 -1.7461
 9409SOL    HW239690   1.633   2.500  12.633 -1.4665 -0.7315  1.3349
 9410SOL     OW39691   2.300   3.023   7.195 -0.3470 -0.1301  0.2716
 9410SOL    HW139692   2.298   2.938   7.151 -2.0863 -0.9129  1.8576
 9410SOL    HW239693   2.393   3.016   7.219 -0.4412  0.1033  0.6854
 9411SOL     OW39694   3.069   1.830  13.283 -0.0432 -0.2601 -0.0498
 9411SOL    HW139695   2.978   1.807  13.299 -0.2900  0.2760 -0.7393
 9411SOL    HW239696   3.099   1.851  13.372 -0.0414 -2.1984  0.4256
 9412SOL     OW39697   3.930   1.959   5.991  0.2617  0.4095 -0.0138
 9412SOL    HW139698   3.924   1.937   6.084 -2.5145 -1.9851 -0.7630
 9412SOL    HW239699   3.857   1.911   5.951  1.0508  1.5128 -2.7979
 9413SOL     OW39700   3.814   0.568  10.205  0.1405 -0.3663 -0.0161
 9413SOL    HW139701   3.744   0.610  10.256  0.2987  2.6300 -2.2799
 9413SOL    HW239702   3.862   0.550  10.286  0.4409  0.5556  0.0131
 9414SOL     OW39703   3.534   2.422   8.601  0.3572  0.2056 -0.0731
 9414SOL    HW139704   3.481   2.352   8.564 -1.5137  1.2195  0.6570
 9414SOL    HW239705   3.485   2.452   8.677  1.1247 -0.7160  0.7775
 9415SOL     OW39706   3.298   3.342   4.489  0.0552 -0.0080 -0.2640
 9415SOL    HW139707   3.284   3.373   4.400  1.8432 -0.0505 -0.5720
 9415SOL    HW239708   3.393   3.358   4.487  0.6683 -4.2091 -2.9008
 9416SOL     OW39709   3.702   1.510  15.151 -0.2598  0.5872 -0.3463
 9416SOL    HW139710   3.710   1.475  15.240  1.3500  0.2585 -0.6236
 9416SOL    HW239711   3.744   1.596  15.153  0.9474 -0.0785  1.9760
 9417SOL     OW39712   0.606   0.528   6.836  0.1248 -0.3425 -0.1317
 9417SOL    HW139713   0.633   0.606   6.884 -0.8303  1.6792 -2.8656
 9417SOL    HW239714   0.687   0.478   6.833  0.4893  0.2066  0.6941
 9418SOL     OW39715   3.378   4.628   9.007 -0.2110  0.1009  0.1352
 9418SOL    HW139716   3.360   4.720   9.024 -1.0484 -0.3337  1.6171
 9418SOL    HW239717   3.432   4.620   8.928  1.0778  0.3171  0.9987
 9419SOL     OW39718   2.638   1.595  11.621  0.1204  0.0394 -0.0895
 9419SOL    HW139719   2.563   1.650  11.642 -0.2984 -0.6631  0.2527
 9419SOL    HW239720   2.659   1.621  11.531  0.3605  0.8366  0.2001
 9420SOL     OW39721   4.140   1.012  10.530 -0.3848 -0.8108  0.5476
 9420SOL    HW139722   4.062   1.012  10.586  0.4473 -0.5233  1.7029
 9420SOL    HW239723   4.206   1.049  10.589  0.0281 -0.4337 -0.1496
 9421SOL     OW39724   2.984   0.679  15.221  0.0351 -0.5353 -0.5784
 9421SOL    HW139725   2.925   0.710  15.289  0.2739  0.5074 -0.8533
 9421SOL    HW239726   2.937   0.603  15.186 -0.2410 -0.6400  0.0193
 9422SOL     OW39727   2.654   3.612   2.796 -0.1939  0.0166  0.1872
 9422SOL    HW139728   2.649   3.537   2.856 -3.2390  1.4899  1.7019
 9422SOL    HW239729   2.677   3.679   2.860  0.4649 -0.3059  0.2960
 9423SOL     OW39730   1.956   0.157   0.923  0.2365  0.0489 -0.3337
 9423SOL    HW139731   2.013   0.231   0.902  1.4736 -0.1705  2.2934
 9423SOL    HW239732   1.954   0.105   0.842 -2.8838 -1.2464  0.5544
 9424SOL     OW39733   1.136   4.706   1.320  0.5660  0.5531 -0.3267
 9424SOL    HW139734   1.173   0.070   1.321 -1.5112  1.4157 -0.6165
 9424SOL    HW239735   1.142   4.674   1.410 -2.1104  0.4612 -0.1712
 9425SOL     OW39736   3.287   4.582   4.233 -0.5778 -0.1983  0.4172
 9425SOL    HW139737   3.261   4.651   4.293  0.2826  0.5319 -0.0531
 9425SOL    HW239738   3.204   4.540   4.210 -0.0795 -1.0874  0.2251
 9426SOL     OW39739   3.800   3.316  11.951 -0.0190  0.1800  0.2414
 9426SOL    HW139740   3.883   3.297  11.908 -1.0774 -2.6129 -0.5659
 9426SOL    HW239741   3.827   3.326  12.042  1.6650  1.6803 -0.4294
 9427SOL     OW39742   1.791   2.401  14.941 -0.0104  0.0324  0.4059
 9427SOL    HW139743   1.706   2.442  14.921 -0.1474 -1.4524 -2.0766
 9427SOL    HW239744   1.758   2.339  15.006  2.1458 -2.3564 -0.7614
 9428SOL     OW39745   3.560   2.828  16.490 -0.8167 -0.3976  0.3392
 9428SOL    HW139746   3.551   2.855  16.399  1.2470 -1.2173 -0.0968
 9428SOL    HW239747   3.633   2.767  16.482 -0.9364 -0.3193 -1.3688
 9429SOL     OW39748   1.104   1.797   4.738  0.1398  0.0316  0.6274
 9429SOL    HW139749   1.043   1.723   4.740 -1.4260  1.3200  0.2400
 9429SOL    HW239750   1.125   1.802   4.831  0.1534 -2.1494  0.7449
 9430SOL     OW39751   4.552   0.505   4.944 -0.5374  0.4846  0.3145
 9430SOL    HW139752   4.540   0.445   4.871  0.4391 -0.5448  1.0049
 9430SOL    HW239753   4.635   0.552   4.939  0.1980 -0.9806 -1.2742
 9431SOL     OW39754   3.588   3.638   5.715  0.1118  0.2631  0.1740
 9431SOL    HW139755   3.549   3.703   5.656  1.5675  0.2894 -0.7698
 9431SOL    HW239756   3.560   3.660   5.804 -0.5809 -0.7144  0.1998
 9432SOL     OW39757   1.486   3.765   8.797  0.2512  0.0137  0.4923
 9432SOL    HW139758   1.493   3.683   8.747 -2.4392  1.2622 -1.9836
 9432SOL    HW239759   1.490   3.751   8.891  4.1895 -1.4665  0.1172
 9433SOL     OW39760   0.385   3.306  15.132 -0.2742 -0.7490  0.0032
 9433SOL    HW139761   0.324   3.305  15.058  0.1604  0.7197 -0.3857
 9433SOL    HW239762   0.341   3.261  15.204 -1.3856 -2.5302 -1.7984
 9434SOL     OW39763   3.582   3.760   8.247 -0.3400 -0.3468  0.3680
 9434SOL    HW139764   3.627   3.845   8.249  0.3972 -0.7660  2.0051
 9434SOL    HW239765   3.633   3.727   8.173  0.3454  1.7022 -0.0728
 9435SOL     OW39766   3.200   2.847   8.507 -0.0873 -0.4163 -0.2046
 9435SOL    HW139767   3.241   2.786   8.569  0.6145  0.8930  0.6204
 9435SOL    HW239768   3.185   2.924   8.561  0.1981 -1.0449  0.7763
 9436SOL     OW39769   2.517   3.868   2.256  0.2557  0.1541  0.0203
 9436SOL    HW139770   2.430   3.867   2.215  0.1885 -0.6644  0.1840
 9436SOL    HW239771   2.523   3.779   2.289 -0.4057 -0.3457 -1.1879
 9437SOL     OW39772   2.577   0.924   9.168 -0.8368 -0.1966 -0.3689
 9437SOL    HW139773   2.662   0.913   9.126  0.0450 -1.7735  1.8248
 9437SOL    HW239774   2.594   0.920   9.262 -0.5803  1.3208 -0.3619
 9438SOL     OW39775   0.709   4.691  17.588 -0.1198 -0.4967  0.1550
 9438SOL    HW139776   0.661   4.619  17.629  0.4166  0.8390  3.1099
 9438SOL    HW239777   0.630   0.010  17.556  0.1097  0.8633  1.4210
 9439SOL     OW39778   0.527   0.827   4.999 -0.4998 -0.7737 -0.3803
 9439SOL    HW139779   0.478   0.846   4.918  0.8130  1.0304 -0.7562
 9439SOL    HW239780   0.493   0.744   5.033 -0.5234 -0.8833 -0.6685
 9440SOL     OW39781   0.420   1.776   8.127 -0.5052 -0.3273  0.8589
 9440SOL    HW139782   0.495   1.817   8.171  0.1300  0.7765 -1.2584
 9440SOL    HW239783   0.451   1.793   8.038  1.6839 -0.0718  1.6580
 9441SOL     OW39784   2.752   1.747  11.396  0.2467  0.1479 -0.4319
 9441SOL    HW139785   2.844   1.747  11.370  0.4444  0.6047  0.2422
 9441SOL    HW239786   2.710   1.734  11.311  0.6753 -0.4572 -0.5468
 9442SOL     OW39787   2.207   3.023   9.380 -0.3916 -0.8711 -0.0598
 9442SOL    HW139788   2.279   3.021   9.317 -1.4160 -0.9122 -1.2352
 9442SOL    HW239789   2.131   3.034   9.323 -0.9261 -1.1071  0.5996
 9443SOL     OW39790   0.641   0.843   9.281  0.6525 -0.8041 -0.6406
 9443SOL    HW139791   0.660   0.759   9.324  0.0837 -1.8695 -2.4659
 9443SOL    HW239792   0.704   0.897   9.330 -0.8268  1.3672 -1.1376
 9444SOL     OW39793   4.311   1.921   5.510  0.6497 -0.4910 -0.3507
 9444SOL    HW139794   4.221   1.903   5.534  0.5296 -1.6509 -1.6457
 9444SOL    HW239795   4.341   1.831   5.524  1.4210 -0.0029  1.1699
 9445SOL     OW39796   1.921   1.364   2.123 -0.3634 -0.3525 -0.2489
 9445SOL    HW139797   1.829   1.378   2.100 -0.5286  0.8672  1.1146
 9445SOL    HW239798   1.930   1.269   2.132 -0.1328 -0.2358  0.7960
 9446SOL     OW39799   2.045   4.415   5.992  0.5403  0.3105 -0.5329
 9446SOL    HW139800   1.964   4.369   6.014  2.2077 -2.2995  0.2203
 9446SOL    HW239801   2.068   4.375   5.908 -1.8158 -0.8828 -0.6028
 9447SOL     OW39802   0.778   3.845   5.106 -0.2378  0.5928 -0.0366
 9447SOL    HW139803   0.810   3.927   5.143  0.8158 -0.0547  0.4828
 9447SOL    HW239804   0.849   3.818   5.049  0.7138 -0.1138  1.4771
 9448SOL     OW39805   1.344   0.268   8.764  0.0126 -0.1398  0.2861
 9448SOL    HW139806   1.341   0.333   8.834  3.0226  0.4319 -0.1105
 9448SOL    HW239807   1.259   0.274   8.721  0.7853 -1.0917 -1.3775
 9449SOL     OW39808   1.099   1.356   5.251 -0.5184  0.5645 -0.6487
 9449SOL    HW139809   1.102   1.301   5.172 -0.4261  1.4341 -1.2462
 9449SOL    HW239810   1.190   1.378   5.269 -0.6800  2.2702 -1.9707
 9450SOL     OW39811   0.520   4.613  14.691 -0.1823 -0.5751  0.3889
 9450SOL    HW139812   0.588   4.622  14.758 -1.2957  1.4249  1.2393
 9450SOL    HW239813   0.541   4.529  14.651 -1.0184 -0.5055 -0.1809
 9451SOL     OW39814   2.535   1.878  15.075  0.0043  0.0457 -0.7047
 9451SOL    HW139815   2.601   1.893  15.008  0.1793 -1.7724 -0.9357
 9451SOL    HW239816   2.590   1.836  15.141  0.8097 -0.0560 -1.4469
 9452SOL     OW39817   3.035   0.585   8.215  0.1351 -0.1186  0.9187
 9452SOL    HW139818   3.127   0.588   8.192 -0.5036  2.4869 -1.2568
 9452SOL    HW239819   3.009   0.677   8.211  0.3426 -0.0944  0.0951
 9453SOL     OW39820   0.131   3.009   2.857 -0.1815 -0.2157  0.3649
 9453SOL    HW139821   0.198   2.991   2.791  0.6928  2.9429  0.3883
 9453SOL    HW239822   0.159   2.957   2.932  3.3470 -0.9573 -1.4624
 9454SOL     OW39823   0.060   0.902   5.318 -0.5622  0.0015  0.2836
 9454SOL    HW139824   4.720   0.832   5.308  1.7658 -2.2801  1.1410
 9454SOL    HW239825   0.135   0.864   5.272  0.6109  1.9963  0.5656
 9455SOL     OW39826   0.250   4.282  13.348 -0.7436  0.3234  0.0132
 9455SOL    HW139827   0.274   4.375  13.343 -0.0049  0.0595 -1.4320
 9455SOL    HW239828   0.273   4.256  13.258 -1.6146  0.3956 -0.2314
 9456SOL     OW39829   2.062   1.884   1.957 -0.2786  0.2374 -0.3513
 9456SOL    HW139830   2.119   1.839   2.020 -3.6488 -0.9379  1.9071
 9456SOL    HW239831   1.975   1.843   1.962 -0.3129  0.4711  1.1042
 9457SOL     OW39832   0.295   3.718   6.642 -0.0658  0.0990 -0.3824
 9457SOL    HW139833   0.291   3.810   6.615  2.1553  0.2151 -0.3419
 9457SOL    HW239834   0.323   3.730   6.733 -0.9904 -1.0180  0.0432
 9458SOL     OW39835   2.798   2.639  17.081 -0.6031 -0.0603  0.3978
 9458SOL    HW139836   2.832   2.581  17.149 -0.9450  1.7362  2.1053
 9458SOL    HW239837   2.769   2.716  17.130 -1.0748  0.4480 -0.6795
 9459SOL     OW39838   2.374   1.199   1.631  0.2778 -0.2677 -0.6033
 9459SOL    HW139839   2.317   1.274   1.612  0.6936  0.4091  0.8706
 9459SOL    HW239840   2.339   1.126   1.579 -3.2115  0.6823  0.4381
 9460SOL     OW39841   0.369   0.242   5.898  0.0558  0.6216  0.1857
 9460SOL    HW139842   0.294   0.193   5.930 -0.2769  1.8058  1.1967
 9460SOL    HW239843   0.356   0.234   5.804 -0.9747  0.5656  0.3373
 9461SOL     OW39844   2.733   2.297  11.327 -0.3002 -0.1616 -0.3496
 9461SOL    HW139845   2.736   2.274  11.420  0.0710  2.5224  0.3006
 9461SOL    HW239846   2.688   2.381  11.333  0.6258  0.2179  1.1548
 9462SOL     OW39847   3.022   3.478   5.759  0.2744 -0.1027  0.3694
 9462SOL    HW139848   3.013   3.519   5.845 -0.9014  3.0901 -1.2608
 9462SOL    HW239849   2.934   3.452   5.734  0.2492  0.0592  0.2896
 9463SOL     OW39850   2.240   4.074   1.671 -0.2782  0.1332 -0.2114
 9463SOL    HW139851   2.307   4.012   1.644  0.9300  2.3539 -2.2579
 9463SOL    HW239852   2.166   4.013   1.672  0.6631 -1.0132 -0.6657
 9464SOL     OW39853   0.674   2.327   8.291 -0.0552  0.3992  0.9198
 9464SOL    HW139854   0.752   2.383   8.281  1.8587 -2.2788  0.8391
 9464SOL    HW239855   0.710   2.239   8.292  1.2150  0.9143  1.5531
 9465SOL     OW39856   2.634   2.639   4.850  0.6249 -0.3654 -0.2017
 9465SOL    HW139857   2.627   2.587   4.771  0.5453 -1.3277  0.4407
 9465SOL    HW239858   2.721   2.621   4.887  1.5526  1.8272 -1.3186
 9466SOL     OW39859   1.346   3.026   5.665  0.1628 -0.2894 -0.8312
 9466SOL    HW139860   1.391   2.979   5.595 -1.4291  1.3592 -2.9272
 9466SOL    HW239861   1.421   3.079   5.693  0.2161 -0.3965 -0.7736
 9467SOL     OW39862   2.373   0.343  16.749  0.0440  0.5454 -0.3142
 9467SOL    HW139863   2.293   0.291  16.754 -0.1818  1.0951  1.5441
 9467SOL    HW239864   2.339   0.431  16.730  1.2323  0.8117 -1.2250
 9468SOL     OW39865   2.095   0.208   9.732  0.3941  0.0937 -0.0109
 9468SOL    HW139866   2.031   0.277   9.715 -0.5689 -0.6586  0.5720
 9468SOL    HW239867   2.038   0.131   9.727  1.8780 -1.0274  0.1265
 9469SOL     OW39868   2.237   3.492   1.298  0.0946 -0.8375  0.4196
 9469SOL    HW139869   2.248   3.503   1.392  4.3453  1.7438 -0.3647
 9469SOL    HW239870   2.242   3.586   1.279 -0.2169 -0.8755  0.1422
 9470SOL     OW39871   4.304   4.296   8.802  0.8521  0.4449 -0.4433
 9470SOL    HW139872   4.220   4.325   8.837  1.0890  2.2340 -1.3615
 9470SOL    HW239873   4.277   4.206   8.785  0.1112  0.5481  0.2145
 9471SOL     OW39874   3.335   3.114  12.972  0.4191 -0.2043  0.5325
 9471SOL    HW139875   3.420   3.071  12.976  0.1293 -0.7718  0.5004
 9471SOL    HW239876   3.295   3.031  12.946  1.2368 -0.3607 -0.2259
 9472SOL     OW39877   0.598   3.367   7.335 -0.4331 -0.4464  0.5147
 9472SOL    HW139878   0.534   3.438   7.333  0.4148  0.2958 -0.0522
 9472SOL    HW239879   0.678   3.414   7.313  1.5517 -3.3117  1.6837
 9473SOL     OW39880   2.220   2.481   5.880  0.0184  0.4454 -0.1188
 9473SOL    HW139881   2.280   2.552   5.856  1.4301 -0.0633  1.9460
 9473SOL    HW239882   2.140   2.524   5.912 -0.5536 -0.1617 -0.7177
 9474SOL     OW39883   0.689   4.081   1.212  0.3167  0.1623  0.4025
 9474SOL    HW139884   0.676   4.154   1.274 -0.5622  1.3927 -1.2481
 9474SOL    HW239885   0.612   4.028   1.231  1.3624 -1.2810  0.6172
 9475SOL     OW39886   1.766   2.226   3.503  0.4140  0.1018 -0.7234
 9475SOL    HW139887   1.831   2.280   3.458 -0.0596 -0.3336 -1.9510
 9475SOL    HW239888   1.812   2.196   3.581  1.9217  1.3471 -1.1391
 9476SOL     OW39889   4.273   2.592  15.556 -0.2889 -0.5456 -0.7104
 9476SOL    HW139890   4.285   2.498  15.541  0.1253 -0.4886 -0.7325
 9476SOL    HW239891   4.358   2.626  15.527  0.1482 -1.9649 -1.1266
 9477SOL     OW39892   2.503   4.458   4.179  0.4020 -0.1773  0.4707
 9477SOL    HW139893   2.580   4.409   4.208  1.6135  0.9568 -0.8490
 9477SOL    HW239894   2.482   4.509   4.257 -1.1752 -0.6238  0.3393
 9478SOL     OW39895   4.681   1.608   7.326 -0.0664 -0.0562  0.4423
 9478SOL    HW139896   0.039   1.577   7.363  2.1223  2.7369 -2.0994
 9478SOL    HW239897   4.704   1.699   7.308  0.4643 -0.3187 -0.2312
 9479SOL     OW39898   1.397   4.086   6.696 -0.2449  0.1888 -0.3409
 9479SOL    HW139899   1.388   4.060   6.604  1.5159 -1.5931  0.0138
 9479SOL    HW239900   1.303   4.080   6.714 -0.3496 -0.5360 -1.1551
 9480SOL     OW39901   4.254   0.464   6.536  0.4651 -0.9552  0.6089
 9480SOL    HW139902   4.200   0.390   6.507 -0.2077 -0.7600  1.3576
 9480SOL    HW239903   4.300   0.419   6.606  1.4558  0.0200  0.5734
 9481SOL     OW39904   2.655   2.079   7.447 -0.1168  0.2054 -0.0459
 9481SOL    HW139905   2.722   2.066   7.380  0.6750  0.6669  0.6590
 9481SOL    HW239906   2.586   2.019   7.419  1.2199 -2.9240  3.3842
 9482SOL     OW39907   4.113   3.789   3.787 -0.2190 -0.2424 -0.0950
 9482SOL    HW139908   4.102   3.778   3.882 -0.7157 -0.2819 -0.1559
 9482SOL    HW239909   4.208   3.801   3.787 -0.3623  0.8173  2.3969
 9483SOL     OW39910   0.366   2.220   7.459 -0.4024  0.7336  0.1586
 9483SOL    HW139911   0.452   2.198   7.424 -1.0929 -0.4661 -0.8286
 9483SOL    HW239912   0.389   2.230   7.551 -0.6227 -1.5122  0.4725
 9484SOL     OW39913   4.134   4.146   1.200  0.1201  0.3327  0.1776
 9484SOL    HW139914   4.064   4.187   1.251  0.1989 -1.4825  1.7441
 9484SOL    HW239915   4.201   4.213   1.190 -0.4398  0.7377 -0.8746
 9485SOL     OW39916   3.927   1.795  15.259  0.4032 -0.0809  0.2933
 9485SOL    HW139917   3.996   1.823  15.200 -0.1577  1.0097  0.1526
 9485SOL    HW239918   3.970   1.791  15.344  0.7462  2.9583  0.2607
 9486SOL     OW39919   3.434   0.444   9.477  0.3270 -0.1101 -0.1090
 9486SOL    HW139920   3.350   0.398   9.482  0.2013  0.0627 -0.5680
 9486SOL    HW239921   3.445   0.479   9.565 -0.6878  0.8950 -0.3781
 9487SOL     OW39922   2.322   1.180  15.216  0.7579  0.2619 -0.5085
 9487SOL    HW139923   2.404   1.228  15.202 -0.0190  1.5731 -0.5035
 9487SOL    HW239924   2.277   1.236  15.279  0.6519  1.2896 -1.4902
 9488SOL     OW39925   2.519   0.000   5.801  0.0449  0.1229  0.5475
 9488SOL    HW139926   2.571   4.690   5.729  0.1547  0.0852  0.6464
 9488SOL    HW239927   2.581   0.068   5.827 -0.1510  0.7334 -0.5853
 9489SOL     OW39928   1.404   2.897   5.389  0.1746  0.3217  0.4263
 9489SOL    HW139929   1.448   2.812   5.379 -0.0029  0.4780 -1.6721
 9489SOL    HW239930   1.437   2.951   5.317  0.9710  0.7870  1.1390
 9490SOL     OW39931   0.510   2.512   5.284  0.0301 -0.0578  0.1722
 9490SOL    HW139932   0.558   2.572   5.341 -1.8102  0.5127  1.1155
 9490SOL    HW239933   0.481   2.448   5.350 -0.3722 -0.9680 -0.8927
 9491SOL     OW39934   0.608   1.099  15.489 -0.0987  0.1070 -0.1509
 9491SOL    HW139935   0.552   1.026  15.462  0.2411 -0.1531 -0.1565
 9491SOL    HW239936   0.685   1.069  15.440  0.5607  0.4486  0.6726
 9492SOL     OW39937   2.429   1.384  10.064  0.1875 -0.0472 -0.1910
 9492SOL    HW139938   2.383   1.356   9.985 -1.3529  0.9773  0.3445
 9492SOL    HW239939   2.385   1.335  10.134 -0.8132  1.5432  0.2974
 9493SOL     OW39940   2.077   3.684   6.148  0.0356 -0.4983 -0.0763
 9493SOL    HW139941   1.993   3.726   6.165  1.0500  2.1124 -1.4779
 9493SOL    HW239942   2.061   3.593   6.172 -2.0748 -0.9876 -3.4706
 9494SOL     OW39943   2.911   0.243   3.773  0.0798 -0.6421 -0.2592
 9494SOL    HW139944   2.987   0.227   3.716  0.9555  1.9357  0.1819
 9494SOL    HW239945   2.879   0.153   3.774  0.6120 -0.8382 -0.5212
 9495SOL     OW39946   1.349   1.428  10.919 -0.5203  0.2419 -0.3623
 9495SOL    HW139947   1.282   1.489  10.890  0.1566  0.9984 -0.3317
 9495SOL    HW239948   1.294   1.355  10.947 -0.1430  0.5235  1.1138
 9496SOL     OW39949   4.325   4.276  16.950  0.1176 -0.4835  0.1710
 9496SOL    HW139950   4.332   4.187  16.985 -2.7201  0.1855  2.4259
 9496SOL    HW239951   4.260   4.321  17.004 -0.0627 -1.8038  1.0308
 9497SOL     OW39952   3.207   2.206  17.619 -0.0719  0.0194 -0.2110
 9497SOL    HW139953   3.299   2.200  17.593 -0.2042  0.6732 -0.8466
 9497SOL    HW239954   3.172   2.133  17.568 -2.4450  1.2784 -0.3816
 9498SOL     OW39955   4.102   1.671   5.903  0.2464 -0.0254  0.3215
 9498SOL    HW139956   4.015   1.689   5.867  1.6360  3.4095 -1.2402
 9498SOL    HW239957   4.107   1.577   5.888  2.2033 -0.1560  1.8099
 9499SOL     OW39958   1.541   2.828   3.209  0.1163  0.3591  0.4820
 9499SOL    HW139959   1.602   2.863   3.274  0.6594 -2.0717  1.3071
 9499SOL    HW239960   1.581   2.745   3.182 -0.6250 -0.5829  2.2587
 9500SOL     OW39961   0.108   3.536   1.885 -0.6446 -0.1051 -0.1982
 9500SOL    HW139962   0.024   3.581   1.886 -0.1529  0.8039  0.3505
 9500SOL    HW239963   0.168   3.608   1.862  2.3113 -1.4182  3.5009
 9501SOL     OW39964   4.105   0.509   5.346 -0.7329 -0.4603 -0.4455
 9501SOL    HW139965   4.096   0.598   5.313  0.8697  0.0497  0.4811
 9501SOL    HW239966   4.094   0.455   5.268 -0.5079  0.4688 -1.1210
 9502SOL     OW39967   1.687   0.413  11.728  0.0754 -0.5704  0.3925
 9502SOL    HW139968   1.634   0.418  11.808  0.1315 -1.4971  0.4870
 9502SOL    HW239969   1.634   0.469  11.672  2.5579  2.6210  1.2346
 9503SOL     OW39970   2.218   0.818   6.206  0.0444  0.0065 -0.4136
 9503SOL    HW139971   2.294   0.842   6.259 -1.2545  1.2011  0.8985
 9503SOL    HW239972   2.171   0.759   6.265 -0.0109  0.6568  0.1892
 9504SOL     OW39973   4.060   2.343  16.694  0.6968 -0.3673  0.3114
 9504SOL    HW139974   4.004   2.379  16.625  0.5445  0.2017  0.7295
 9504SOL    HW239975   3.992   2.330  16.761  0.8942 -1.4562  0.3029
 9505SOL     OW39976   4.682   4.669  17.154 -0.2629  0.2641  0.2099
 9505SOL    HW139977   0.028   0.008  17.141  0.5831 -0.0062  3.3760
 9505SOL    HW239978   4.619   4.707  17.093  0.2604 -1.6351 -1.5023
 9506SOL     OW39979   4.494   2.907   5.767 -0.5547 -0.3425  0.4998
 9506SOL    HW139980   4.409   2.925   5.727 -0.4871  0.8830  0.9039
 9506SOL    HW239981   4.497   2.979   5.831  1.8143 -0.6325  0.7090
 9507SOL     OW39982   0.216   2.166   5.337  0.4739 -0.0708  0.6485
 9507SOL    HW139983   0.140   2.222   5.331  1.2172  0.9430  0.6938
 9507SOL    HW239984   0.242   2.145   5.247  2.5837  0.7590  1.0425
 9508SOL     OW39985   1.155   2.230   3.425 -0.5000 -0.0875  0.3208
 9508SOL    HW139986   1.205   2.161   3.469  0.3743  0.4063  0.1158
 9508SOL    HW239987   1.200   2.230   3.341  1.3469 -0.1067  1.2983
 9509SOL     OW39988   4.383   2.049   6.520 -0.4577  0.0618 -0.0295
 9509SOL    HW139989   4.472   2.073   6.492  0.2168 -0.7704  1.4076
 9509SOL    HW239990   4.390   1.958   6.549  0.5986  1.4567  4.1029
 9510SOL     OW39991   4.244   3.631   2.473 -0.1124  0.0431  0.5406
 9510SOL    HW139992   4.201   3.577   2.540 -0.7820 -0.3880 -0.2279
 9510SOL    HW239993   4.288   3.701   2.520 -1.7860  1.1165  0.4934
 9511SOL     OW39994   2.416   4.169   3.072  0.3829 -0.3523 -0.5499
 9511SOL    HW139995   2.467   4.180   3.153  0.4581  1.3328 -0.8411
 9511SOL    HW239996   2.426   4.077   3.047  0.1637 -0.5841  0.2089
 9512SOL     OW39997   0.220   4.441  10.139  0.3129 -0.5595 -0.1225
 9512SOL    HW139998   0.310   4.445  10.172  0.5565 -1.2843 -0.6897
 9512SOL    HW239999   0.172   4.423  10.220 -0.0505 -0.5206 -0.3315
 9513SOL     OW40000   0.253   4.639   6.510  0.2597 -0.0968 -0.3957
 9513SOL    HW140001   0.180   4.667   6.454  0.3944 -0.7503 -0.8908
 9513SOL    HW240002   0.212   4.677   6.588  2.0049 -0.4467  0.6977
 9514SOL     OW40003   0.025   1.893   0.199 -0.3267 -0.0585  0.3159
 9514SOL    HW140004   0.065   1.878   0.113  1.7109 -0.7928  1.3788
 9514SOL    HW240005   0.099   1.876   0.257 -0.4598  0.0721  0.5204
 9515SOL     OW40006   3.298   0.706   7.788  0.0977  0.1936 -0.5813
 9515SOL    HW140007   3.364   0.717   7.720  2.0171 -1.1932  1.0742
 9515SOL    HW240008   3.320   0.629   7.841 -2.5430 -0.3546 -0.2311
 9516SOL     OW40009   3.430   2.976   6.747  0.5142 -0.1486 -0.4577
 9516SOL    HW140010   3.456   2.949   6.834 -0.9081 -1.4796 -0.4447
 9516SOL    HW240011   3.405   3.066   6.769 -0.6179 -1.3146  2.9177
 9517SOL     OW40012   1.545   3.651   3.525 -0.3050  0.1904 -0.0029
 9517SOL    HW140013   1.500   3.706   3.462 -0.0017 -0.4482 -0.7739
 9517SOL    HW240014   1.475   3.642   3.590 -0.5116 -0.7306 -0.3508
 9518SOL     OW40015   2.215   3.840   5.947  0.4227 -1.1517 -0.1657
 9518SOL    HW140016   2.173   3.810   6.028  2.0398 -0.8194  0.7922
 9518SOL    HW240017   2.185   3.930   5.933 -0.2041 -1.0006  2.0856
 9519SOL     OW40018   1.879   0.119  13.578 -0.1974 -0.4179  0.0912
 9519SOL    HW140019   1.845   0.189  13.633  4.0713  0.9738  0.9926
 9519SOL    HW240020   1.839   0.136  13.493 -1.9683 -0.0100  1.0140
 9520SOL     OW40021   1.239   2.503   7.160 -0.3748 -0.2200 -0.1924
 9520SOL    HW140022   1.239   2.532   7.251  2.5459 -0.6045 -0.0744
 9520SOL    HW240023   1.143   2.498   7.156 -0.4546  1.5005 -0.4767
 9521SOL     OW40024   3.718   1.263   5.323  0.2826 -0.1256  0.1601
 9521SOL    HW140025   3.705   1.226   5.410  0.3890  1.2442  0.7599
 9521SOL    HW240026   3.730   1.357   5.337 -0.6128 -0.2071  1.4833
 9522SOL     OW40027   2.852   2.524   4.988  0.1175  0.7327  0.4451
 9522SOL    HW140028   2.877   2.497   5.076 -0.3578  0.1481  0.3970
 9522SOL    HW240029   2.816   2.443   4.952  0.2662  0.6789  0.4188
 9523SOL     OW40030   3.981   3.400   3.060  0.0569  0.0362  0.4198
 9523SOL    HW140031   3.994   3.473   3.000 -0.3389 -1.7224 -1.7751
 9523SOL    HW240032   4.069   3.381   3.092 -0.3506 -0.3660  1.3265
 9524SOL     OW40033   3.533   3.973  15.098  0.1572  0.0118  0.3251
 9524SOL    HW140034   3.452   3.993  15.146  0.2018 -0.8410  0.7568
 9524SOL    HW240035   3.564   4.059  15.072  1.6320 -0.8608 -0.7895
 9525SOL     OW40036   2.095   2.450  13.469  0.8805 -0.3462  0.5448
 9525SOL    HW140037   2.164   2.501  13.428  0.7902 -0.2664  0.4921
 9525SOL    HW240038   2.034   2.456  13.396 -0.6176  0.2911  1.8404
 9526SOL     OW40039   1.203   2.212   2.608  0.5421  0.8532 -0.6868
 9526SOL    HW140040   1.109   2.200   2.618  0.7433 -0.4844 -0.2413
 9526SOL    HW240041   1.205   2.299   2.647 -2.8565  0.6698 -0.1001
 9527SOL     OW40042   0.454   3.168   6.494 -0.0215  0.7927 -0.3381
 9527SOL    HW140043   0.475   3.258   6.469 -0.3278  0.6246 -1.1904
 9527SOL    HW240044   0.367   3.156   6.457 -1.1410  1.9322  1.9055
 9528SOL     OW40045   3.522   1.573   5.001  0.0890 -0.0654  0.3479
 9528SOL    HW140046   3.600   1.602   5.048  1.5418 -0.9529 -1.5386
 9528SOL    HW240047   3.549   1.487   4.971  1.7121  0.1658  1.1505
 9529SOL     OW40048   2.761   3.466   8.509 -0.1041 -0.1670  0.2505
 9529SOL    HW140049   2.791   3.416   8.433  2.2334  2.3213 -0.4818
 9529SOL    HW240050   2.763   3.559   8.485  1.5408 -0.3211 -0.2564
 9530SOL     OW40051   3.815   2.702   7.301  0.1899  0.0250  0.3188
 9530SOL    HW140052   3.846   2.790   7.322  1.3697 -0.5405  0.9348
 9530SOL    HW240053   3.773   2.678   7.384  2.7266  2.0814  2.1772
 9531SOL     OW40054   3.390   0.198  11.191 -0.8105 -0.3306  0.2402
 9531SOL    HW140055   3.382   0.166  11.280  1.0088  2.4757  1.4171
 9531SOL    HW240056   3.314   0.160  11.146 -2.2074  3.3947 -0.5899
 9532SOL     OW40057   0.120   3.045   3.234 -0.2013 -0.2608 -0.4581
 9532SOL    HW140058   0.025   3.045   3.222 -0.3881  3.4960  1.1558
 9532SOL    HW240059   0.137   2.954   3.210 -1.0528 -0.3321 -0.7978
 9533SOL     OW40060   2.078   0.208   5.576  0.7980 -0.5162  0.2054
 9533SOL    HW140061   2.046   0.251   5.656 -0.5423 -0.3060 -0.4335
 9533SOL    HW240062   2.087   0.277   5.511  0.4382 -0.0431  0.6513
 9534SOL     OW40063   0.301   4.098   7.539  0.4320 -0.1753  0.8183
 9534SOL    HW140064   0.287   4.173   7.480  1.6445 -0.2157  0.4829
 9534SOL    HW240065   0.395   4.111   7.547  0.3081  0.6968  0.9031
 9535SOL     OW40066   3.651   1.691   2.409  0.1685  0.2123  0.1423
 9535SOL    HW140067   3.625   1.663   2.322 -2.9062  1.5196  0.6313
 9535SOL    HW240068   3.746   1.688   2.397 -0.1507 -2.2569 -1.6457
 9536SOL     OW40069   3.878   0.323   8.438 -0.0855  0.2174  0.4014
 9536SOL    HW140070   3.875   0.281   8.351  1.3335 -0.5952  0.7449
 9536SOL    HW240071   3.786   0.329   8.464 -0.4772 -1.1321 -0.6285
 9537SOL     OW40072   0.477   0.128  17.492  0.2078 -0.0859 -0.0749
 9537SOL    HW140073   0.456   0.221  17.489  0.2875 -0.0529  0.3650
 9537SOL    HW240074   0.467   0.104  17.400  1.8772  1.7059 -0.7326
 9538SOL     OW40075   1.026   3.112   9.159  0.0539  0.0107  0.4634
 9538SOL    HW140076   0.942   3.149   9.186  0.1604  0.9716 -0.5403
 9538SOL    HW240077   1.090   3.163   9.209  0.5486 -0.0930 -0.0583
 9539SOL     OW40078   4.389   3.733   0.859  0.0897 -0.7257 -0.3747
 9539SOL    HW140079   4.431   3.690   0.785  0.7440 -0.1049 -0.3616
 9539SOL    HW240080   4.421   3.689   0.938  0.2512 -3.1945 -1.8238
 9540SOL     OW40081   2.322   2.883  12.306  0.3653  0.4397 -0.0582
 9540SOL    HW140082   2.392   2.872  12.241  1.5152 -2.1668  1.6238
 9540SOL    HW240083   2.318   2.979  12.303 -5.7884  0.1131 -2.0867
 9541SOL     OW40084   2.940   1.191   1.059  0.0544  0.2867  0.0817
 9541SOL    HW140085   2.950   1.210   1.152 -1.7972 -0.8531  0.5193
 9541SOL    HW240086   3.035   1.190   1.045 -0.0450 -1.1526 -0.5085
 9542SOL     OW40087   4.478   0.846  15.787 -0.3541 -0.0845 -0.4915
 9542SOL    HW140088   4.458   0.825  15.879  2.8604 -1.4159 -0.1262
 9542SOL    HW240089   4.447   0.764  15.750 -0.4596 -0.4199  0.3296
 9543SOL     OW40090   3.208   2.232   3.326  0.4410 -0.4889  0.3614
 9543SOL    HW140091   3.258   2.150   3.320  0.8565 -0.0423 -2.7958
 9543SOL    HW240092   3.257   2.286   3.388 -0.3572  1.2662 -0.5076
 9544SOL     OW40093   1.295   0.293   2.264 -0.4928  0.2570  0.0093
 9544SOL    HW140094   1.332   0.368   2.217 -0.8114 -0.2213 -1.0049
 9544SOL    HW240095   1.240   0.341   2.326 -2.2722 -1.6242 -0.1228
 9545SOL     OW40096   2.488   0.029  16.682 -0.2825 -0.4544 -0.2716
 9545SOL    HW140097   2.409   4.702  16.667 -1.5939  1.3882  0.3399
 9545SOL    HW240098   2.546   4.694  16.635 -0.0838  1.0425 -1.9262
 9546SOL     OW40099   1.036   3.380   6.606  0.5635  0.0784  0.2418
 9546SOL    HW140100   1.122   3.417   6.624  1.5236 -1.9900 -0.0823
 9546SOL    HW240101   0.997   3.460   6.570 -1.5678 -1.4818 -0.9746
 9547SOL     OW40102   3.708   0.028   4.099  0.0731 -0.1265 -0.5333
 9547SOL    HW140103   3.749   4.713   4.022 -0.5406  1.2969 -1.5956
 9547SOL    HW240104   3.617   0.038   4.073 -0.0431 -0.2561 -0.1770
 9548SOL     OW40105   1.567   0.139   1.922 -0.0489 -0.0919  0.7208
 9548SOL    HW140106   1.597   0.229   1.930  0.3446  0.0673 -2.5451
 9548SOL    HW240107   1.519   0.123   2.004 -0.0317  0.9396  0.9329
 9549SOL     OW40108   0.288   4.299   5.376  0.0680 -0.0240 -0.1433
 9549SOL    HW140109   0.356   4.233   5.367 -1.1601 -0.9745 -2.2786
 9549SOL    HW240110   0.331   4.376   5.338  1.5050  0.3801  2.2440
 9550SOL     OW40111   3.766   0.962   8.703 -0.3438 -0.1536  0.0487
 9550SOL    HW140112   3.829   1.022   8.741 -0.4393 -0.8619  1.3484
 9550SOL    HW240113   3.695   1.025   8.690 -1.9244 -1.9528 -0.0223
 9551SOL     OW40114   3.161   1.733   4.224  0.6509 -0.1219 -0.1126
 9551SOL    HW140115   3.187   1.712   4.135  0.6286 -1.2787  0.1539
 9551SOL    HW240116   3.240   1.714   4.274  2.1105 -0.9156 -2.7508
 9552SOL     OW40117   4.270   2.545   4.931 -0.1872 -0.2136  0.0443
 9552SOL    HW140118   4.208   2.547   4.858  2.4845  2.2769 -2.1707
 9552SOL    HW240119   4.216   2.573   5.005 -1.3503 -0.6589 -0.6349
 9553SOL     OW40120   3.108   3.683   2.464  0.3330  0.0279 -0.1810
 9553SOL    HW140121   3.142   3.635   2.389  0.9128 -2.0021  1.3941
 9553SOL    HW240122   3.061   3.614   2.512  1.9398 -1.1765 -0.3570
 9554SOL     OW40123   4.549   3.305   2.403 -0.3986  0.0326  0.4956
 9554SOL    HW140124   4.529   3.231   2.460 -1.5188 -1.2891 -1.6038
 9554SOL    HW240125   4.615   3.264   2.347  0.5181  0.5760  1.1818
 9555SOL     OW40126   4.285   4.182   7.672  0.4315 -0.1128 -0.5333
 9555SOL    HW140127   4.245   4.192   7.759  0.9317  0.4487 -0.3719
 9555SOL    HW240128   4.378   4.180   7.695  0.2448  3.7739  0.6018
 9556SOL     OW40129   1.850   4.375  14.800 -0.4312 -0.2730 -0.0387
 9556SOL    HW140130   1.921   4.333  14.849 -0.7235 -0.2521  0.3928
 9556SOL    HW240131   1.889   4.462  14.791 -0.5308 -0.3877 -1.6346
 9557SOL     OW40132   2.872   3.714  15.895 -0.1237 -0.1519  0.6623
 9557SOL    HW140133   2.843   3.794  15.938  0.2978  0.1954  0.3033
 9557SOL    HW240134   2.798   3.678  15.847  0.2036 -0.8887  0.7040
 9558SOL     OW40135   4.330   3.864   2.633  0.0635  0.6515  0.0274
 9558SOL    HW140136   4.411   3.875   2.584  2.1530 -0.7696  3.1650
 9558SOL    HW240137   4.281   3.937   2.597  0.1816  0.9850  0.5362
 9559SOL     OW40138   0.014   1.280   4.387 -0.1446 -0.4334 -0.4560
 9559SOL    HW140139   0.090   1.335   4.368 -0.5647  0.7869  1.4146
 9559SOL    HW240140   4.721   1.310   4.476 -0.3488  0.0289 -0.6522
 9560SOL     OW40141   1.435   0.725   2.729  0.1978  0.0577 -0.0022
 9560SOL    HW140142   1.386   0.805   2.709  0.5178  0.2029 -0.2038
 9560SOL    HW240143   1.370   0.658   2.708 -0.8268  1.0391  0.0428
 9561SOL     OW40144   4.487   0.866   0.827 -0.4278  1.1380 -0.0447
 9561SOL    HW140145   4.435   0.920   0.887 -0.7134 -0.8734  1.5426
 9561SOL    HW240146   4.423   0.857   0.757  1.6712  3.9917 -2.2999
 9562SOL     OW40147   3.852   3.183   2.188  0.0388 -0.0559  0.0050
 9562SOL    HW140148   3.945   3.190   2.208  0.0842 -2.9946  0.8493
 9562SOL    HW240149   3.836   3.089   2.196 -0.6447  0.3629  3.2467
 9563SOL     OW40150   1.560   2.068   3.346  0.7201  0.1703  0.2415
 9563SOL    HW140151   1.631   2.058   3.409 -0.5736 -1.7443  1.3846
 9563SOL    HW240152   1.594   2.139   3.291  1.9219 -0.6747 -0.0935
 9564SOL     OW40153   4.075   0.813   2.881  0.3052 -0.5444  0.0815
 9564SOL    HW140154   4.130   0.872   2.830  0.0286  0.2494  0.6996
 9564SOL    HW240155   4.032   0.881   2.933 -0.7820 -2.6203  1.8849
 9565SOL     OW40156   1.399   4.086   0.494  0.4731 -0.2719 -0.4168
 9565SOL    HW140157   1.398   4.042   0.408 -1.8333 -0.2120 -0.4132
 9565SOL    HW240158   1.308   4.116   0.488  0.5524  0.5121  2.6273
 9566SOL     OW40159   2.264   2.689  16.601 -0.2189  0.1970  0.4004
 9566SOL    HW140160   2.265   2.689  16.696 -0.7502 -1.6088  0.4099
 9566SOL    HW240161   2.175   2.706  16.571 -0.2871  1.2078  1.1775
 9567SOL     OW40162   1.997   0.980   5.162  0.2760  0.0440  0.1163
 9567SOL    HW140163   1.960   0.908   5.111 -1.2931  1.5186 -0.8368
 9567SOL    HW240164   1.990   0.951   5.253  0.5950  1.0457  0.4608
 9568SOL     OW40165   0.604   3.965   7.040  0.1199 -0.5229  0.4476
 9568SOL    HW140166   0.663   4.027   7.083  0.4074 -1.8146  1.8998
 9568SOL    HW240167   0.547   4.025   6.991 -3.0987 -1.9185  2.4642
   4.72457   4.72457  17.69978
